G3.5cooh-PAMAM in water
57004
    1aaa     C1    1   4.055   7.075   7.678 -0.6085  0.4756 -0.8202
    1aaa     H1    2   4.109   7.169   7.665  0.4550  0.2967  1.8992
    1aaa     H2    3   3.996   7.091   7.770  3.5019  1.9946  1.7230
    1aaa     C2    4   4.157   6.960   7.721  0.0330  0.0873 -0.4230
    1aaa     H3    5   4.101   6.866   7.717 -0.1831  0.2589 -1.7704
    1aaa     H4    6   4.229   6.935   7.642 -0.0064 -1.3208 -0.0359
    1aaa     N1    7   4.223   6.989   7.850  0.2224  0.2461 -0.3574
    1aaa     N2    8   3.965   7.039   7.566  0.3210 -0.1368 -0.2157
    1aaa     C3    9   4.027   6.978   7.444 -0.0723 -0.2729 -0.4303
    1aaa     H5   10   3.952   6.945   7.371 -3.3990  2.2365  1.6992
    1aaa     H6   11   4.086   6.890   7.474  0.4162  1.1618  3.0508
    1aaa     C4   12   3.858   7.133   7.534  0.6216 -0.3595  0.1269
    1aaa     H7   13   3.900   7.227   7.496  0.4810 -0.1918  0.3923
    1aaa     H8   14   3.784   7.097   7.461 -0.5246  1.2903  0.4605
    1aaa     C5   15   4.310   7.105   7.860 -0.2048 -0.5891 -0.8292
    1aaa     H9   16   4.250   7.197   7.851  0.0033 -0.5172 -1.4804
    1aaa    H10   17   4.367   7.111   7.953 -1.1181 -1.7519 -0.1768
    1aaa     C6   18   4.146   6.967   7.973  0.0527 -0.4598 -0.2300
    1aaa    H11   19   4.071   7.046   7.982  0.1836 -0.5376  1.6941
    1aaa    H12   20   4.215   6.977   8.058 -0.0304 -2.6621  0.1127
    1aaa     C7   21   4.427   7.090   7.752  0.4901 -0.7653  0.1990
    1aaa    H13   22   4.482   6.995   7.751  0.4933 -0.7896 -3.2286
    1aaa    H14   23   4.375   7.101   7.657  0.7148  3.4332  0.4846
    1aaa     C8   24   4.083   6.823   7.976  0.2285  0.0505  0.5487
    1aaa    H15   25   3.995   6.819   7.910  0.7576  0.0553 -0.1754
    1aaa    H16   26   4.153   6.752   7.929 -0.9147 -0.1644 -0.9013
    1aaa     C9   27   3.782   7.167   7.663  0.3250 -0.4817 -1.0111
    1aaa    H17   28   3.749   7.079   7.719  0.9675  0.0553  0.2361
    1aaa    H18   29   3.856   7.222   7.723 -0.7578 -1.0893  0.9481
    1aaa    C10   30   4.116   7.079   7.370 -0.1784 -0.1026  0.7755
    1aaa    H19   31   4.063   7.172   7.344  0.2096  0.0140  0.4094
    1aaa    H20   32   4.203   7.103   7.433 -0.3275 -1.3366  1.4697
    1aaa    C11   33   3.662   7.257   7.642 -0.0810  1.0499  0.3672
    1aaa    C12   34   4.174   7.012   7.243 -0.1109 -0.2301 -0.2218
    1aaa    C13   35   4.512   7.205   7.764  0.0411 -0.3075 -0.1709
    1aaa    C14   36   4.046   6.784   8.118 -0.1346  0.5902 -0.0166
    1aaa     O1   37   3.656   7.331   7.543 -0.1352  0.2067  0.7225
    1aaa     O2   38   4.613   7.204   7.829  0.1921  0.1273 -0.7970
    1aaa     O3   39   3.991   6.866   8.194  0.0745  0.2348  0.0835
    1aaa     O4   40   4.278   6.952   7.257 -0.0638  0.0808  0.3592
    2bbb     C1   41   3.386   7.400   7.839  0.2153  0.2057  0.4900
    2bbb     H1   42   3.476   7.462   7.853  0.3187  0.1456  0.0971
    2bbb     H2   43   3.375   7.350   7.935 -3.5364 -0.3827 -0.1696
    2bbb     C2   44   3.419   7.290   7.738  0.1411 -0.2446  0.4591
    2bbb     H3   45   3.360   7.200   7.757  1.0673 -0.8494  0.5103
    2bbb     H4   46   3.384   7.310   7.636  0.1585  0.7414  0.6461
    2bbb     N1   47   3.267   7.476   7.802 -0.8616  0.2888 -0.0631
    2bbb     C3   48   3.301   7.616   7.819 -0.0332 -0.2607  0.0935
    2bbb     H5   49   3.391   7.648   7.763  0.0749 -1.1937 -0.2758
    2bbb     H6   50   3.335   7.633   7.922  2.5832  0.6747 -0.8743
    2bbb     C4   51   3.145   7.440   7.873  1.0916  0.4681 -0.1346
    2bbb     H7   52   3.161   7.440   7.981  0.6384  1.1428 -0.0665
    2bbb     H8   53   3.075   7.520   7.848  0.9508  0.3380 -0.1574
    2bbb     C5   54   3.090   7.307   7.814 -0.2355 -0.5828  0.3771
    2bbb     H9   55   3.098   7.317   7.705 -2.0213 -0.1648  0.2773
    2bbb    H10   56   3.148   7.217   7.839  0.2407 -0.7328 -1.2205
    2bbb     C6   57   3.204   7.722   7.769  0.0654  0.1579  0.1692
    2bbb    H11   58   3.167   7.687   7.672 -2.2941  1.8304  0.4293
    2bbb    H12   59   3.120   7.731   7.838  1.1808  0.9371  1.4358
    2bbb     C7   60   2.943   7.286   7.837 -0.2270 -0.4093  0.2410
    2bbb     C8   61   3.283   7.852   7.736  0.2206  0.2520 -0.6535
    2bbb     O1   62   2.850   7.351   7.793  0.3664  0.2130  0.0998
    2bbb     O2   63   3.260   7.917   7.636  0.7035 -1.0232  0.2005
    2bbb     N4   64   3.564   7.241   7.736  0.1576  0.2045  0.1569
    2bbb    H21   65   3.583   7.166   7.802  0.5490 -1.7480 -2.1321
    3bbb     C1   66   4.263   7.095   6.959  0.5061 -0.5151 -0.0494
    3bbb     H1   67   4.268   7.168   7.041  1.3101 -0.6952  0.0630
    3bbb     H2   68   4.228   7.155   6.874  0.1959  1.6662  1.5696
    3bbb     C2   69   4.157   6.987   6.998  0.4484 -0.2060  0.2406
    3bbb     H3   70   4.082   6.977   6.919 -1.8856  2.7799  1.9571
    3bbb     H4   71   4.220   6.898   7.010  0.3272 -0.4532 -0.9054
    3bbb     N1   72   4.390   7.029   6.926  0.2535 -0.0019 -0.0112
    3bbb     C3   73   4.493   7.131   6.939 -0.5480  0.1484  0.3344
    3bbb     H5   74   4.449   7.226   6.909 -3.5509 -1.4766 -0.6027
    3bbb     H6   75   4.586   7.106   6.885 -0.1271 -0.8349  1.4855
    3bbb     C4   76   4.384   6.983   6.788 -0.5121  0.2828  0.2042
    3bbb     H7   77   4.291   6.925   6.777 -0.1455 -0.2940  0.0876
    3bbb     H8   78   4.388   7.056   6.707  1.4149 -0.6014 -0.5394
    3bbb     C5   79   4.494   6.876   6.776 -0.6605  0.6151  0.1686
    3bbb     H9   80   4.587   6.932   6.762  0.9943 -1.6973  1.5713
    3bbb    H10   81   4.500   6.808   6.861 -0.5756  0.5765  0.1319
    3bbb     C6   82   4.535   7.132   7.079  0.1242  0.5403 -0.5005
    3bbb    H11   83   4.556   7.239   7.097 -0.9100  0.4532  1.2478
    3bbb    H12   84   4.470   7.098   7.159  0.4293 -1.1206 -0.9538
    3bbb     C7   85   4.460   6.783   6.661 -0.7782 -0.2663  0.3521
    3bbb     C8   86   4.669   7.072   7.090 -0.3782 -0.3290  0.0014
    3bbb     O1   87   4.524   6.773   6.565 -0.3971  0.4619  0.8565
    3bbb     O2   88   4.773   7.136   7.093  0.2572  0.2171  0.1349
    3bbb     N4   89   4.103   7.025   7.126  0.3332  0.4706 -0.0688
    3bbb    H21   90   4.023   7.088   7.122 -0.0139 -0.0291 -1.0212
    4bbb     C1   91   4.397   7.541   7.788  0.0321 -0.3965  0.2709
    4bbb     H1   92   4.327   7.553   7.704 -2.0061 -0.0330  1.9769
    4bbb     H2   93   4.439   7.641   7.802 -1.2265  0.6906 -3.0835
    4bbb     C2   94   4.512   7.458   7.737 -0.0399  0.1209  0.7045
    4bbb     H3   95   4.560   7.506   7.652  1.5384 -1.0246  0.9174
    4bbb     H4   96   4.592   7.444   7.811  0.5676 -1.1408 -0.1785
    4bbb     N1   97   4.329   7.491   7.911  0.1327 -0.6798  0.7159
    4bbb     C3   98   4.185   7.533   7.912  0.1476 -0.4790  0.3313
    4bbb     H5   99   4.183   7.636   7.876 -0.7687 -1.0592 -1.3595
    4bbb     H6  100   4.140   7.527   8.012 -0.8335  0.4243 -0.0407
    4bbb     C4  101   4.410   7.525   8.028 -0.0050 -0.0165  0.3790
    4bbb     H7  102   4.516   7.518   8.002 -0.0044  0.0353  0.3666
    4bbb     H8  103   4.389   7.630   8.054  1.6605  0.2285  0.8124
    4bbb     C5  104   4.368   7.430   8.139  0.5337 -0.3429  0.1188
    4bbb     H9  105   4.266   7.455   8.171  0.0288  0.3444 -1.9138
    4bbb    H10  106   4.369   7.322   8.126  0.6414 -0.4924  1.3698
    4bbb     C6  107   4.104   7.445   7.819  0.4563  1.0618 -0.1667
    4bbb    H11  108   4.153   7.442   7.720  2.0131  0.1225  0.6096
    4bbb    H12  109   4.103   7.345   7.864 -0.8450  0.6186 -1.1692
    4bbb     C7  110   4.452   7.470   8.261 -0.1837  0.3134  0.1075
    4bbb     C8  111   3.968   7.507   7.808  0.1791  0.0339 -0.5913
    4bbb     O1  112   4.422   7.572   8.328  0.5774  0.7515  0.1828
    4bbb     O2  113   3.929   7.570   7.712 -0.6076 -0.1743  0.0087
    4bbb     N4  114   4.471   7.319   7.694  0.2246 -0.5620  0.2337
    4bbb    H21  115   4.393   7.298   7.633 -0.1982  1.7012 -0.0708
    5bbb     C1  116   3.920   6.603   8.359  0.6091 -0.4893  0.2789
    5bbb     H1  117   3.857   6.583   8.271  0.5134 -0.3158  0.3077
    5bbb     H2  118   3.895   6.705   8.391 -0.1363 -0.1642 -1.2830
    5bbb     C2  119   4.067   6.606   8.307  0.2912  0.1677 -0.2479
    5bbb     H3  120   4.132   6.675   8.363 -0.4514 -1.0814  2.2284
    5bbb     H4  121   4.111   6.506   8.320  0.5222  0.2494 -0.3935
    5bbb     N1  122   3.894   6.506   8.466 -0.3112 -0.7002 -0.2147
    5bbb     C3  123   3.756   6.511   8.500 -0.2614  0.3589 -0.0258
    5bbb     H5  124   3.725   6.610   8.536 -1.0667 -0.2449  0.9597
    5bbb     H6  125   3.737   6.444   8.584 -1.8445  1.2069  0.3161
    5bbb     C4  126   3.974   6.541   8.588  0.0453  0.3814 -0.6796
    5bbb     H7  127   4.075   6.578   8.565  0.4867  0.4890  1.3256
    5bbb     H8  128   3.930   6.622   8.647  0.8190  0.7273 -0.5696
    5bbb     C5  129   3.980   6.426   8.690  0.1023 -0.9782 -0.1127
    5bbb     H9  130   3.885   6.403   8.740 -0.8062  1.1102 -0.8110
    5bbb    H10  131   4.010   6.331   8.643  0.1498  0.4493 -3.1320
    5bbb     C6  132   3.668   6.441   8.394  0.4092  0.4046 -0.2834
    5bbb    H11  133   3.656   6.509   8.309 -2.7667 -0.3480 -0.5157
    5bbb    H12  134   3.713   6.347   8.361 -0.7137  0.0782 -0.9086
    5bbb     C7  135   4.078   6.465   8.794  0.6664 -0.1683 -0.4066
    5bbb     C8  136   3.529   6.419   8.436 -0.8533 -0.0920 -0.0562
    5bbb     O1  137   4.047   6.482   8.910  0.4383 -0.8224 -0.0103
    5bbb     O2  138   3.436   6.500   8.437 -0.3652  0.1196 -0.3179
    5bbb     N4  139   4.078   6.660   8.166 -0.3318  0.1783 -0.2400
    5bbb    H21  140   4.111   6.596   8.095 -2.9009 -1.6847  0.1577
    6bbb     C1  141   2.774   7.312   8.113 -0.7239  0.4552 -0.1947
    6bbb     H1  142   2.690   7.284   8.177  0.1349  1.3093  1.3454
    6bbb     H2  143   2.737   7.391   8.046  0.3725  0.0676 -1.2761
    6bbb     C2  144   2.803   7.190   8.022  0.0950 -0.0008 -0.3680
    6bbb     H3  145   2.808   7.100   8.084  1.6664 -0.2949 -0.9005
    6bbb     H4  146   2.715   7.171   7.958  0.1423  0.1331 -0.4731
    6bbb     N1  147   2.883   7.355   8.200  0.2688 -0.1300 -0.8207
    6bbb     C3  148   2.919   7.269   8.313 -0.5157 -0.8119  0.5434
    6bbb     H5  149   3.000   7.322   8.366 -0.6077 -0.0463 -0.0685
    6bbb     H6  150   2.943   7.168   8.278  0.0056  0.0612 -1.7076
    6bbb     C4  151   2.862   7.494   8.244  0.3968  0.8808 -0.2256
    6bbb     H7  152   2.755   7.521   8.241  0.2972  0.4189 -1.2000
    6bbb     H8  153   2.913   7.512   8.339  2.0601  4.1060 -1.6308
    6bbb     C5  154   2.933   7.582   8.148  1.0954  0.0680  0.5960
    6bbb     H9  155   3.037   7.547   8.146  1.5579  1.4729 -2.0683
    6bbb    H10  156   2.890   7.572   8.047 -2.8519  0.9935  2.0784
    6bbb     C6  157   2.806   7.252   8.416  0.6791 -0.4405  1.1717
    6bbb    H11  158   2.783   7.352   8.454  0.7144  0.4996 -1.1728
    6bbb    H12  159   2.723   7.193   8.375  0.6551 -0.5038  1.3143
    6bbb     C7  160   2.928   7.726   8.183 -0.4040  0.7404  0.5439
    6bbb     C8  161   2.861   7.167   8.527 -0.2790  0.6085 -0.5320
    6bbb     O1  162   3.011   7.773   8.256 -0.0023 -0.1568 -0.0393
    6bbb     O2  163   2.847   7.045   8.519  0.6998 -0.3016  0.0607
    6bbb     N4  164   2.932   7.202   7.942  0.0435  0.0240 -0.4838
    6bbb    H21  165   3.022   7.168   7.975 -0.2105 -2.1009 -1.9140
    7bbb     C1  166   3.565   8.007   7.942 -0.3373 -0.0327 -0.1229
    7bbb     H1  167   3.579   7.923   8.010  3.7739  0.6146 -0.0624
    7bbb     H2  168   3.493   8.079   7.983  0.2286  2.1054 -2.6821
    7bbb     C2  169   3.502   7.964   7.813 -0.4723  0.5274 -0.4377
    7bbb     H3  170   3.487   8.054   7.750  1.0103  0.3077 -1.1260
    7bbb     H4  171   3.572   7.898   7.762 -0.8382 -1.5764  1.7198
    7bbb     N1  172   3.691   8.076   7.928  0.1239 -0.2387  0.2652
    7bbb     C3  173   3.710   8.162   8.048  0.2400  0.4572  0.7168
    7bbb     H5  174   3.721   8.099   8.137  0.9486  1.9506  1.7178
    7bbb     H6  175   3.620   8.224   8.057  0.2939  0.3726  1.8022
    7bbb     C4  176   3.805   7.981   7.896 -0.3015 -1.0551 -0.2360
    7bbb     H7  177   3.880   7.973   7.976  0.6659 -0.8146 -1.1055
    7bbb     H8  178   3.765   7.881   7.876  2.0436 -1.8553 -1.0942
    7bbb     C5  179   3.873   8.020   7.764 -0.1396 -0.4432 -0.2355
    7bbb     H9  180   3.806   8.014   7.677  2.6520  1.0792 -2.5627
    7bbb    H10  181   3.913   8.122   7.757 -0.4613 -0.3762 -1.2079
    7bbb     C6  182   3.825   8.264   8.034 -0.6358  0.0304  0.7416
    7bbb    H11  183   3.924   8.217   8.035 -0.7356 -0.3395 -2.4526
    7bbb    H12  184   3.829   8.322   7.941 -1.6779 -1.0686  0.0075
    7bbb     C7  185   3.993   7.935   7.729  0.8916  0.4721  0.1606
    7bbb     C8  186   3.812   8.366   8.146  0.5048 -0.0279  0.9398
    7bbb     O1  187   4.088   7.918   7.802  0.1140 -0.5052 -0.2455
    7bbb     O2  188   3.894   8.367   8.238 -0.5174 -0.1694 -0.2894
    7bbb     N4  189   3.378   7.888   7.829  0.0694  0.3690 -0.0050
    7bbb    H21  190   3.374   7.834   7.914  1.8238  1.0154  0.5136
    8bbb     C1  191   4.144   6.654   6.583 -0.3716 -0.0497  0.3102
    8bbb     H1  192   4.107   6.614   6.678  0.4327  0.4021  0.8197
    8bbb     H2  193   4.099   6.599   6.500  3.4205 -1.5290 -0.8784
    8bbb     C2  194   4.291   6.621   6.581  0.1123  0.2940  0.0977
    8bbb     H3  195   4.305   6.513   6.590 -0.2930  0.0352 -2.1666
    8bbb     H4  196   4.334   6.651   6.485 -0.9161 -1.9652 -1.1066
    8bbb     N1  197   4.109   6.801   6.577  0.3488 -0.7701  0.4734
    8bbb     C3  198   4.159   6.855   6.443  0.5431  0.2161 -0.3083
    8bbb     H5  199   4.125   6.794   6.358  1.7491  1.2178 -1.5338
    8bbb     H6  200   4.268   6.849   6.435  0.5200  1.0914 -1.6236
    8bbb     C4  201   3.964   6.813   6.577 -0.7399 -0.1025 -0.1189
    8bbb     H7  202   3.938   6.920   6.582  1.3365  0.3840  0.8281
    8bbb     H8  203   3.919   6.771   6.487  0.9620 -1.2166 -0.4660
    8bbb     C5  204   3.900   6.748   6.703 -0.6218 -0.5000  0.3673
    8bbb     H9  205   3.913   6.639   6.699  0.6875 -0.3441  0.3027
    8bbb    H10  206   3.947   6.791   6.792  3.5068 -2.4597 -0.7598
    8bbb     C6  207   4.118   7.006   6.419 -0.5270 -0.0348 -0.6441
    8bbb    H11  208   4.013   7.023   6.391  0.4600  1.1720 -3.7489
    8bbb    H12  209   4.139   7.055   6.515  2.9649 -0.7429 -0.9777
    8bbb     C7  210   3.756   6.774   6.704 -0.4611 -1.1212  0.4966
    8bbb     C8  211   4.206   7.061   6.306  0.1150 -0.3373  0.8283
    8bbb     O1  212   3.707   6.854   6.777  1.0842 -0.2943 -0.6407
    8bbb     O2  213   4.244   7.001   6.207  0.1408 -0.4476 -0.4691
    8bbb     N4  214   4.357   6.700   6.679  0.0893 -0.7522 -0.2958
    8bbb    H21  215   4.293   6.731   6.751 -0.8679 -0.9277 -1.0706
    9bbb     C1  216   4.727   6.704   7.143 -0.4156 -0.1669 -0.1519
    9bbb     H1  217   4.669   6.708   7.236 -0.1854 -0.5754  0.0101
    9bbb     H2  218   4.816   6.644   7.162 -0.1467  0.4888  0.7020
    9bbb     C2  219   4.778   6.844   7.107 -0.3563 -0.4641  0.6203
    9bbb     H3  220   4.850   6.882   7.182  0.6431 -0.4548 -0.3333
    9bbb     H4  221   4.839   6.850   7.016 -1.1747  3.1686  0.2137
    9bbb     N1  222   4.650   6.637   7.040 -0.2336  0.4747  0.5972
    9bbb     C3  223   4.731   6.549   6.953  0.2855  0.6782 -0.1929
    9bbb     H5  224   4.766   6.455   6.998 -1.7729 -0.0084  0.0099
    9bbb     H6  225   4.820   6.608   6.925 -0.2393  1.1502 -0.8641
    9bbb     C4  226   4.542   6.560   7.099  0.3004 -0.3892  0.7416
    9bbb     H7  227   4.494   6.499   7.022 -2.5982  1.9232  0.6381
    9bbb     H8  228   4.591   6.489   7.167  3.1715  0.3127 -0.5195
    9bbb     C5  229   4.434   6.647   7.162 -0.6998 -0.6988  0.3968
    9bbb     H9  230   4.469   6.697   7.253 -2.5818  1.4960 -0.0134
    9bbb    H10  231   4.410   6.728   7.091  2.7248 -1.8577 -2.1932
    9bbb     C6  232   4.661   6.518   6.818 -0.1060 -0.6861  0.3163
    9bbb    H11  233   4.594   6.600   6.789  0.9783  0.0701 -0.0689
    9bbb    H12  234   4.728   6.505   6.732  0.7860 -0.9225  1.0434
    9bbb     C7  235   4.311   6.577   7.209  0.0967  0.5093 -0.0928
    9bbb     C8  236   4.592   6.379   6.830  0.4933  0.5441  0.1482
    9bbb     O1  237   4.301   6.456   7.195 -0.4326 -0.1708 -0.3683
    9bbb     O2  238   4.623   6.299   6.919  0.2455  0.1054  0.5428
    9bbb     N4  239   4.665   6.933   7.092 -0.5788  0.6465 -0.6042
    9bbb    H21  240   4.567   6.907   7.086 -0.6750  0.7852  0.3947
   10bbb     C1  241   4.681   7.384   8.516  0.5205 -0.1552  0.2028
   10bbb     H1  242   4.577   7.378   8.551  0.6985 -2.1376  0.4281
   10bbb     H2  243   4.727   7.466   8.573 -0.1763 -0.5933  1.4228
   10bbb     C2  244   4.679   7.442   8.374 -0.0947 -0.0582 -0.6201
   10bbb     H3  245   4.685   7.552   8.376 -1.0116 -0.0133 -0.0488
   10bbb     H4  246   4.772   7.408   8.328 -0.6625 -0.9916 -1.0826
   10bbb     N1  247   4.756   7.261   8.524  0.2752 -0.9078 -0.5765
   10bbb     C3  248   4.701   7.146   8.450  0.0464  0.0600 -0.4337
   10bbb     H5  249   4.773   7.063   8.454  1.9339  1.6844  0.0815
   10bbb     H6  250   4.681   7.171   8.345 -2.4358 -4.0116 -1.0562
   10bbb     C4  251   4.811   7.232   8.649 -0.1763  0.7814 -0.2211
   10bbb     H7  252   4.747   7.242   8.737  0.7098  2.6307  0.2402
   10bbb     H8  253   4.839   7.126   8.646 -0.9396  0.5287  1.4193
   10bbb     C5  254   4.935   7.324   8.661 -0.3513  0.3823  0.0996
   10bbb     H9  255   4.996   7.304   8.573  3.9155  0.3984  2.8691
   10bbb    H10  256   4.927   7.434   8.662 -0.4715  0.3695  0.9454
   10bbb     C6  257   4.570   7.098   8.511 -0.6437 -0.1392 -0.0653
   10bbb    H11  258   4.584   7.063   8.614 -0.8990 -1.4125 -0.4621
   10bbb    H12  259   4.500   7.182   8.519  0.8109  1.1728 -0.9699
   10bbb     C7  260   5.026   7.269   8.770 -0.0881  0.9350 -0.0324
   10bbb     C8  261   4.512   6.982   8.433 -0.1035  0.1460  0.3337
   10bbb     O1  262   5.045   7.332   8.873 -0.4960  0.7503 -0.1896
   10bbb     O2  263   4.465   7.000   8.323 -0.0620  0.0481 -0.3110
   10bbb     N4  264   4.569   7.397   8.284  0.3045  1.0091 -0.3350
   10bbb    H21  265   4.593   7.325   8.217  0.5147  0.4654  0.3238
   11bbb     C1  266   3.712   7.530   8.087  0.2068 -0.2369 -0.0120
   11bbb     H1  267   3.787   7.510   8.164 -0.1030 -1.3016  0.0248
   11bbb     H2  268   3.658   7.438   8.059  2.6200 -1.4772 -0.8020
   11bbb     C2  269   3.783   7.567   7.956  0.1822 -0.1882 -0.0552
   11bbb     H3  270   3.706   7.593   7.882  0.2161 -0.3708 -0.1536
   11bbb     H4  271   3.820   7.667   7.981 -0.5393  0.6892 -2.3351
   11bbb     N1  272   3.630   7.635   8.147 -0.2216 -0.2230 -0.3218
   11bbb     C3  273   3.687   7.757   8.188 -0.4050  0.0926  0.0897
   11bbb     H5  274   3.616   7.831   8.227 -1.7955 -1.2096  0.0406
   11bbb     H6  275   3.736   7.803   8.100 -0.1241 -1.1520 -0.4099
   11bbb     C4  276   3.532   7.575   8.243 -0.0567  0.3301  0.1837
   11bbb     H7  277   3.598   7.531   8.318  0.9803  2.5906  0.6092
   11bbb     H8  278   3.475   7.659   8.284 -1.1619 -1.6514  2.8216
   11bbb     C5  279   3.434   7.472   8.191 -0.1174  1.0170  0.0464
   11bbb     H9  280   3.388   7.515   8.102 -0.1991 -2.0639 -1.4644
   11bbb    H10  281   3.488   7.383   8.159  0.5637  0.7139  1.9779
   11bbb     C6  282   3.799   7.740   8.290  0.1251  0.8018  0.1641
   11bbb    H11  283   3.766   7.678   8.374 -1.4792  0.1733 -0.8806
   11bbb    H12  284   3.887   7.700   8.239 -0.3543 -0.1361  0.0650
   11bbb     C7  285   3.341   7.436   8.304 -0.5023  0.1509  0.2648
   11bbb     C8  286   3.835   7.879   8.340 -0.6050 -0.1489  0.0924
   11bbb     O1  287   3.316   7.515   8.396  0.1467  0.1344 -0.3434
   11bbb     O2  288   3.759   7.949   8.396 -0.1004 -0.5266  0.3773
   11bbb     N4  289   3.891   7.480   7.917  0.2720  0.4947  0.4694
   11bbb    H21  290   3.921   7.408   7.982  1.1595  0.5861  0.1618
   12bbb     C1  291   4.379   6.346   8.900 -0.3519 -0.3328  0.2783
   12bbb     H1  292   4.381   6.265   8.826 -2.6447 -1.3827  1.3037
   12bbb     H2  293   4.321   6.332   8.992  0.1579  0.9396  0.8064
   12bbb     C2  294   4.327   6.476   8.834  0.1461  0.1078 -0.4278
   12bbb     H3  295   4.298   6.535   8.922  0.9015  0.5589 -0.4783
   12bbb     H4  296   4.410   6.536   8.795 -0.5024  3.0615  2.4693
   12bbb     N1  297   4.523   6.356   8.931  0.0072 -0.4379  0.4197
   12bbb     C3  298   4.605   6.324   8.812 -0.8691 -0.4127 -0.7287
   12bbb     H5  299   4.579   6.398   8.735  0.4346  1.1812  0.3316
   12bbb     H6  300   4.587   6.222   8.777 -1.1996 -0.1403 -1.3661
   12bbb     C4  301   4.549   6.255   9.044  0.1907  0.2808  0.1407
   12bbb     H7  302   4.472   6.177   9.033  0.6677 -0.4080  1.4966
   12bbb     H8  303   4.645   6.204   9.031 -0.4675 -0.7634 -0.7232
   12bbb     C5  304   4.550   6.323   9.177 -0.1895 -0.3820  0.5976
   12bbb     H9  305   4.621   6.406   9.170  0.5006 -1.0825 -1.1596
   12bbb    H10  306   4.446   6.350   9.200 -0.3361  0.6399 -1.1704
   12bbb     C6  307   4.754   6.354   8.827  0.2732 -0.6090  0.2957
   12bbb    H11  308   4.754   6.459   8.858  0.5490 -0.4477 -0.2522
   12bbb    H12  309   4.807   6.294   8.902  1.1548  0.2109  0.3428
   12bbb     C7  310   4.584   6.223   9.275 -0.1553  0.0413  0.5975
   12bbb     C8  311   4.815   6.343   8.691  0.0122 -0.1180 -0.2433
   12bbb     O1  312   4.495   6.158   9.326 -0.0640 -0.0650  0.4128
   12bbb     O2  313   4.782   6.254   8.613 -0.0203 -0.2018 -0.6298
   12bbb     N4  314   4.209   6.469   8.749 -0.4121 -0.6612  0.1617
   12bbb    H21  315   4.218   6.420   8.661 -1.0187 -2.0670  0.8579
   13bbb     C1  316   3.409   6.180   8.675 -0.9668  1.5495 -0.2091
   13bbb     H1  317   3.321   6.119   8.700 -0.2303 -0.3959 -2.1917
   13bbb     H2  318   3.419   6.267   8.740 -2.0283  2.2161 -0.9118
   13bbb     C2  319   3.396   6.230   8.533  0.6619  0.0248  0.3959
   13bbb     H3  320   3.358   6.142   8.479  0.7804  0.1780  0.0612
   13bbb     H4  321   3.314   6.302   8.528  0.5761 -0.0274  1.0153
   13bbb     N1  322   3.528   6.089   8.690  0.0189  0.0208  0.0610
   13bbb     C3  323   3.584   6.076   8.824 -0.1152  0.1795 -0.7417
   13bbb     H5  324   3.647   5.986   8.824 -2.6292 -1.6409  0.7025
   13bbb     H6  325   3.504   6.075   8.899 -1.3141  0.2040 -2.0079
   13bbb     C4  326   3.506   5.961   8.624  0.2156  0.0128 -0.0089
   13bbb     H7  327   3.466   5.888   8.695  0.9030  1.5357  1.9932
   13bbb     H8  328   3.429   5.971   8.546  0.0119  2.6554  0.4984
   13bbb     C5  329   3.633   5.899   8.555 -0.1360  0.3302  0.3621
   13bbb     H9  330   3.716   5.886   8.625  1.9237 -0.6287 -2.1948
   13bbb    H10  331   3.608   5.800   8.517 -1.0294 -0.0095  1.7965
   13bbb     C6  332   3.670   6.196   8.856 -0.5303  0.5305  0.6279
   13bbb    H11  333   3.757   6.222   8.795 -1.4893  1.6024 -0.3072
   13bbb    H12  334   3.616   6.290   8.843  0.1605  0.7786 -0.4720
   13bbb     C7  335   3.685   5.974   8.442 -0.6750  0.6215  0.6216
   13bbb     C8  336   3.705   6.182   9.000 -0.5456  0.4595  0.6986
   13bbb     O1  337   3.748   6.076   8.462  0.1101 -0.4073 -0.2603
   13bbb     O2  338   3.646   6.243   9.089 -0.1299 -0.4995 -0.0796
   13bbb     N4  339   3.518   6.289   8.477 -0.1238  0.4559  0.4393
   13bbb    H21  340   3.599   6.229   8.467  0.5295  1.6405 -1.8681
   14bbb     C1  341   2.785   8.003   8.003  0.7944  0.2587  0.3368
   14bbb     H1  342   2.775   8.112   8.013  1.4701  0.4501 -0.9543
   14bbb     H2  343   2.695   7.961   7.955  0.0308  3.8733 -1.5603
   14bbb     C2  344   2.810   7.947   8.145 -0.1790  0.1906 -0.0158
   14bbb     H3  345   2.898   7.993   8.192 -0.2343 -0.3480  0.6219
   14bbb     H4  346   2.728   7.983   8.209 -1.2464 -0.2472 -1.1204
   14bbb     N1  347   2.902   7.993   7.911 -0.0525 -0.2002  0.0257
   14bbb     C3  348   3.034   8.046   7.961 -0.5459  0.0421 -0.2836
   14bbb     H5  349   3.105   8.036   7.877 -1.3672 -0.0965 -0.9671
   14bbb     H6  350   3.057   8.001   8.058 -0.3664  1.0670  0.1611
   14bbb     C4  351   2.863   8.063   7.787 -0.1502 -0.4565 -0.5478
   14bbb     H7  352   2.757   8.041   7.766 -0.0648  0.7758 -2.4421
   14bbb     H8  353   2.878   8.171   7.794 -1.8069 -0.3208  1.2965
   14bbb     C5  354   2.934   7.997   7.672 -0.5268  0.4245  0.6349
   14bbb     H9  355   3.043   8.002   7.684 -0.1734 -1.2122 -1.5535
   14bbb    H10  356   2.897   7.894   7.669  0.9187 -0.1380  1.6150
   14bbb     C6  357   3.044   8.196   7.993 -0.0244 -0.3896  0.2010
   14bbb    H11  358   3.032   8.256   7.902 -1.7553  0.3274  0.8790
   14bbb    H12  359   2.976   8.224   8.074  0.0937 -0.1410  0.2122
   14bbb     C7  360   2.900   8.076   7.547  0.0876  0.2036 -0.5302
   14bbb     C8  361   3.187   8.222   8.049  0.0241  0.7594  0.5365
   14bbb     O1  362   2.962   8.182   7.517  0.2454  0.4216 -0.4840
   14bbb     O2  363   3.204   8.233   8.163 -0.4861 -0.0526  0.5035
   14bbb     N4  364   2.824   7.800   8.139  0.1118  0.1237 -0.4441
   14bbb    H21  365   2.745   7.752   8.098  1.6411 -1.4039 -1.6215
   15bbb     C1  366   3.067   7.278   8.839  0.2432  0.1630  0.0669
   15bbb     H1  367   2.981   7.324   8.890  0.4974  1.6269 -0.8023
   15bbb     H2  368   3.114   7.367   8.795 -2.5491  2.4796  1.5019
   15bbb     C2  369   2.999   7.176   8.744  0.2610  0.0866 -0.1193
   15bbb     H3  370   3.080   7.113   8.706 -0.1029  0.2865 -1.2450
   15bbb     H4  371   2.942   7.105   8.806  1.6691 -0.9809 -0.0165
   15bbb     N1  372   3.158   7.208   8.932  0.0164 -0.5015  0.0836
   15bbb     C3  373   3.155   7.263   9.066  0.1567  0.3652  0.0495
   15bbb     H5  374   3.125   7.368   9.058  1.4032  0.6772 -0.6743
   15bbb     H6  375   3.254   7.269   9.113  1.5725 -2.2003 -2.3909
   15bbb     C4  376   3.293   7.201   8.880  0.2430  0.6169  0.3291
   15bbb     H7  377   3.284   7.206   8.770 -0.1619 -1.0466  0.2708
   15bbb     H8  378   3.363   7.279   8.913 -1.1188  1.9128  0.2003
   15bbb     C5  379   3.336   7.062   8.912  0.8182 -0.1163 -0.5747
   15bbb     H9  380   3.331   7.041   9.020  0.3015 -1.1432 -0.7962
   15bbb    H10  381   3.271   6.991   8.860  0.2970 -1.0178  1.2652
   15bbb     C6  382   3.058   7.188   9.154  0.3008  0.2413  0.1014
   15bbb    H11  383   2.959   7.213   9.113 -0.7241 -1.1868  1.6433
   15bbb    H12  384   3.086   7.084   9.175 -2.4090 -0.8448 -1.4849
   15bbb     C7  385   3.464   7.028   8.857  0.2491 -0.9915  0.5591
   15bbb     C8  386   3.049   7.258   9.284 -0.8837 -0.1765  0.3217
   15bbb     O1  387   3.502   7.062   8.745 -0.0122  0.3729 -0.1161
   15bbb     O2  388   2.964   7.344   9.308  0.5861 -0.5578  0.1502
   15bbb     N4  389   2.922   7.242   8.631  0.6526 -0.0283 -0.1595
   15bbb    H21  390   2.899   7.340   8.633  2.5105  0.4127  0.7383
   16bbb     C1  391   4.091   7.793   7.374 -0.3045  0.1597 -0.4669
   16bbb     H1  392   4.004   7.727   7.360  0.8034 -1.2901 -0.6285
   16bbb     H2  393   4.176   7.745   7.324  0.1378 -1.8928  2.1169
   16bbb     C2  394   4.101   7.815   7.532  0.0255  0.2662  0.2795
   16bbb     H3  395   4.090   7.715   7.574  0.1893  0.0773 -0.1313
   16bbb     H4  396   4.198   7.862   7.554  0.4286 -0.5901  0.3509
   16bbb     N1  397   4.066   7.920   7.307 -0.2857  0.8792  0.5677
   16bbb     C3  398   4.025   7.906   7.167 -0.8677 -0.4147  0.2158
   16bbb     H5  399   4.095   7.831   7.126  1.9488  1.2061  1.9627
   16bbb     H6  400   4.046   7.997   7.109 -0.8014 -0.5514  0.0215
   16bbb     C4  401   4.185   8.001   7.310  0.4715  0.1764 -0.2822
   16bbb     H7  402   4.250   7.989   7.398 -0.5588  0.7400  0.5752
   16bbb     H8  403   4.241   7.974   7.220 -0.1992 -3.0986  0.2465
   16bbb     C5  404   4.145   8.147   7.297  0.5090  0.1870  0.9422
   16bbb     H9  405   4.113   8.162   7.193  0.5066 -1.7196  0.6457
   16bbb    H10  406   4.075   8.168   7.379 -2.0084  1.0004 -1.3449
   16bbb     C6  407   3.879   7.847   7.154 -0.1804  0.2744 -0.1436
   16bbb    H11  408   3.865   7.752   7.207 -1.8956 -0.3865 -1.7182
   16bbb    H12  409   3.808   7.913   7.204 -3.0861 -1.8743 -1.3231
   16bbb     C7  410   4.262   8.241   7.322  0.6147  0.0170 -0.8058
   16bbb     C8  411   3.857   7.818   7.014  0.2304  0.4268  0.2495
   16bbb     O1  412   4.372   8.191   7.347  0.5604  0.0833 -0.1454
   16bbb     O2  413   3.934   7.838   6.923  0.5536 -0.0291  0.0050
   16bbb     N4  414   3.993   7.895   7.597 -0.4288 -0.7896 -1.0853
   16bbb    H21  415   3.905   7.903   7.548 -0.0239 -3.6414 -2.3821
   17bbb     C1  416   3.530   8.475   8.313  0.1357  0.0204 -0.0622
   17bbb     H1  417   3.443   8.451   8.252  0.1625  0.6921 -0.3640
   17bbb     H2  418   3.504   8.550   8.389  1.7912 -0.7391  1.2879
   17bbb     C2  419   3.650   8.541   8.236  0.6052  0.0982 -0.4777
   17bbb     H3  420   3.607   8.629   8.188 -0.9893 -0.2224  0.3400
   17bbb     H4  421   3.728   8.578   8.305  2.2270 -0.7956 -1.7988
   17bbb     N1  422   3.574   8.353   8.384  0.0842 -0.2432  0.7681
   17bbb     C3  423   3.468   8.256   8.412 -0.1861  0.3316 -0.1106
   17bbb     H5  424   3.371   8.306   8.424  0.5235  2.0277 -1.4127
   17bbb     H6  425   3.491   8.207   8.508 -1.9493 -1.0011 -0.3226
   17bbb     C4  426   3.647   8.376   8.506 -0.0187  0.7648 -0.1055
   17bbb     H7  427   3.704   8.468   8.486 -1.5369  1.8174  0.2576
   17bbb     H8  428   3.575   8.384   8.589 -1.0720  3.1389 -1.1895
   17bbb     C5  429   3.749   8.261   8.528  0.0048 -0.6655  0.1128
   17bbb     H9  430   3.698   8.176   8.577 -0.8579  0.5663  1.3960
   17bbb    H10  431   3.788   8.216   8.436  1.5495 -0.8223  0.8328
   17bbb     C6  432   3.479   8.140   8.316 -0.1125 -0.2555 -0.5878
   17bbb    H11  433   3.434   8.178   8.223 -0.9819  0.8530  0.2689
   17bbb    H12  434   3.585   8.117   8.304 -0.1877  0.2190 -2.3307
   17bbb     C7  435   3.863   8.317   8.603 -0.9140  0.2300 -0.4408
   17bbb     C8  436   3.410   8.013   8.361 -0.2211  0.1783  0.4633
   17bbb     O1  437   3.853   8.327   8.723 -0.3306 -0.1054 -0.0296
   17bbb     O2  438   3.299   7.995   8.324 -0.0361  0.7731  0.3696
   17bbb     N4  439   3.706   8.449   8.139 -0.1438 -1.3144  0.5632
   17bbb    H21  440   3.660   8.438   8.050 -0.8159  0.4668  0.6791
   18bbb     C1  441   3.586   6.840   6.389 -0.0978 -0.0982  0.6735
   18bbb     H1  442   3.651   6.929   6.395  0.5071 -0.4599 -0.3231
   18bbb     H2  443   3.490   6.864   6.342  1.3828  0.1023 -2.4093
   18bbb     C2  444   3.564   6.793   6.541 -0.4292 -0.0334 -0.3938
   18bbb     H3  445   3.536   6.877   6.607  2.5866 -0.8888  2.1214
   18bbb     H4  446   3.477   6.727   6.543 -0.8112  0.4725 -0.0582
   18bbb     N1  447   3.649   6.730   6.313 -0.3808  0.3714  0.3068
   18bbb     C3  448   3.549   6.629   6.276  0.3112  0.1502 -0.1063
   18bbb     H5  449   3.488   6.661   6.191  0.6124  1.4691  0.1670
   18bbb     H6  450   3.484   6.604   6.362 -1.5189 -1.8386 -1.9857
   18bbb     C4  451   3.727   6.771   6.193  0.4942 -0.0497  0.1413
   18bbb     H7  452   3.782   6.685   6.152  2.2099  1.0007  0.1990
   18bbb     H8  453   3.667   6.815   6.111  0.5407 -1.2802 -0.5585
   18bbb     C5  454   3.839   6.869   6.227 -0.1625  0.4305  0.5402
   18bbb     H9  455   3.812   6.963   6.277  1.1639  1.2036 -0.1819
   18bbb    H10  456   3.923   6.830   6.287 -0.3584 -1.1351 -0.1911
   18bbb     C6  457   3.609   6.495   6.253  0.1258  0.2359  0.0157
   18bbb    H11  458   3.677   6.484   6.167  0.4487  0.2814  0.2665
   18bbb    H12  459   3.667   6.478   6.344 -1.1355  0.7064  0.9344
   18bbb     C7  460   3.902   6.907   6.100 -0.2618 -0.0221  0.0328
   18bbb     C8  461   3.501   6.392   6.238 -0.6523 -0.5881  0.0700
   18bbb     O1  462   3.887   7.014   6.039  0.1962  0.3525  0.4531
   18bbb     O2  463   3.468   6.353   6.127 -0.0444  0.1048  0.2618
   18bbb     N4  464   3.680   6.726   6.599 -0.3561  0.1128 -0.4830
   18bbb    H21  465   3.721   6.647   6.550 -1.6479  0.2121 -1.7541
   19bbb     C1  466   4.141   7.388   6.239 -0.7854  0.5206  0.4164
   19bbb     H1  467   4.083   7.352   6.153 -1.5965  0.5431  0.9573
   19bbb     H2  468   4.171   7.491   6.218 -1.5085  0.4782 -0.8404
   19bbb     C2  469   4.264   7.300   6.252  0.8075  0.3859 -0.0809
   19bbb     H3  470   4.289   7.266   6.150  2.1293 -0.6613  0.5699
   19bbb     H4  471   4.351   7.358   6.285  0.4472  0.2028  1.1827
   19bbb     N1  472   4.058   7.378   6.361 -0.4844 -0.0069  0.3316
   19bbb     C3  473   4.129   7.442   6.476 -0.4695  0.1456  0.5072
   19bbb     H5  474   4.113   7.551   6.483 -1.0562 -0.1409  4.8317
   19bbb     H6  475   4.238   7.441   6.463 -0.5876  2.7316 -1.0065
   19bbb     C4  476   3.926   7.438   6.340  0.0551  0.1109  0.1776
   19bbb     H7  477   3.892   7.472   6.438 -0.8776 -0.6985  0.1398
   19bbb     H8  478   3.932   7.531   6.281  0.0288 -0.3586 -0.5736
   19bbb     C5  479   3.828   7.337   6.279  0.0500  0.2042  0.0936
   19bbb     H9  480   3.872   7.246   6.237 -2.6236 -2.1341  2.1644
   19bbb    H10  481   3.764   7.305   6.362  1.1575  0.1283  0.9367
   19bbb     C6  482   4.093   7.362   6.598  0.3167 -0.0499 -0.1638
   19bbb    H11  483   3.983   7.357   6.600  0.3143  0.3280  2.5417
   19bbb    H12  484   4.120   7.256   6.590 -0.1671 -0.0567 -2.0068
   19bbb     C7  485   3.750   7.404   6.171 -0.0564 -0.8052 -0.0172
   19bbb     C8  486   4.153   7.419   6.727  0.2307 -0.1283  0.3521
   19bbb     O1  487   3.802   7.480   6.096 -0.4283 -0.2218 -0.5692
   19bbb     O2  488   4.268   7.405   6.751 -0.2683  0.1800  0.6214
   19bbb     N4  489   4.247   7.183   6.342  0.0029  0.0665  0.2109
   19bbb    H21  490   4.227   7.208   6.438  2.1895 -1.7820  1.2074
   20bbb     C1  491   3.983   6.637   7.163 -0.3806 -0.1314 -0.3532
   20bbb     H1  492   4.020   6.585   7.073  0.0812  1.2478 -0.9835
   20bbb     H2  493   3.984   6.747   7.160  1.5148 -0.0956  0.8304
   20bbb     C2  494   4.077   6.589   7.280  0.3087  0.3541  0.2632
   20bbb     H3  495   4.039   6.619   7.378  1.9604  0.6098  0.8301
   20bbb     H4  496   4.080   6.479   7.285 -1.0901  0.1993 -1.4533
   20bbb     N1  497   3.843   6.602   7.206  0.4203 -0.3619 -0.1744
   20bbb     C3  498   3.752   6.715   7.233  0.8215  0.8382  0.3730
   20bbb     H5  499   3.799   6.780   7.308  1.0711  1.2196 -0.1061
   20bbb     H6  500   3.665   6.674   7.285  0.5422 -0.6464 -1.2457
   20bbb     C4  501   3.785   6.482   7.143 -0.4170 -0.1705 -0.2712
   20bbb     H7  502   3.683   6.463   7.178 -0.4095 -0.6088 -0.4772
   20bbb     H8  503   3.777   6.499   7.035 -0.8985 -0.0242 -0.2140
   20bbb     C5  504   3.862   6.353   7.170 -0.4817  0.1265  0.4866
   20bbb     H9  505   3.938   6.327   7.096  0.0909  0.5509  0.9223
   20bbb    H10  506   3.915   6.349   7.265 -0.7505 -1.2591  0.5870
   20bbb     C6  507   3.707   6.789   7.103 -0.3773 -0.4094  0.0108
   20bbb    H11  508   3.789   6.842   7.054 -2.6007  1.4656 -1.7515
   20bbb    H12  509   3.668   6.723   7.025 -0.9076 -1.9108  1.5004
   20bbb     C7  510   3.767   6.245   7.154 -0.2729  0.9214 -0.4113
   20bbb     C8  511   3.625   6.899   7.135  0.5941 -0.5654  0.6638
   20bbb     O1  512   3.746   6.190   7.049 -0.1002  0.0044 -0.1516
   20bbb     O2  513   3.589   6.931   7.250 -0.1887  0.3726 -0.6526
   20bbb     N4  514   4.213   6.649   7.266  0.3839  0.4962 -0.1709
   20bbb    H21  515   4.236   6.743   7.295 -0.2619  0.2690  1.1069
   21bbb     C1  516   4.295   6.218   6.637  0.2231 -0.1769 -0.8964
   21bbb     H1  517   4.282   6.118   6.594 -1.0121  0.2381 -1.4959
   21bbb     H2  518   4.298   6.278   6.545 -2.3613  1.3551 -0.0321
   21bbb     C2  519   4.440   6.218   6.698 -0.6995  0.8956 -0.5292
   21bbb     H3  520   4.441   6.160   6.791  0.1656 -0.1312 -1.1560
   21bbb     H4  521   4.506   6.168   6.625  2.0166  0.8952  1.8326
   21bbb     N1  522   4.185   6.248   6.731 -0.0264  0.4236  0.4360
   21bbb     C3  523   4.177   6.139   6.832 -0.3468 -0.0741  0.3119
   21bbb     H5  524   4.264   6.072   6.822  0.1784  0.5559  0.6477
   21bbb     H6  525   4.084   6.081   6.842 -1.1062  0.9950 -0.4535
   21bbb     C4  526   4.060   6.260   6.653 -0.0915 -0.0796  0.4568
   21bbb     H7  527   4.072   6.342   6.581 -0.4492  0.1074  0.6060
   21bbb     H8  528   4.042   6.165   6.601 -0.6813 -0.4126  1.2510
   21bbb     C5  529   3.939   6.297   6.732  0.1081 -0.4868 -1.0110
   21bbb     H9  530   3.904   6.211   6.790 -0.6223 -0.4855 -1.4413
   21bbb    H10  531   3.949   6.385   6.796  0.5593 -1.8917  0.9154
   21bbb     C6  532   4.188   6.213   6.970 -0.8482 -0.3742  0.2870
   21bbb    H11  533   4.274   6.281   6.968 -0.5435 -0.6991  1.6386
   21bbb    H12  534   4.103   6.283   6.977  0.5459  1.3129  0.5595
   21bbb     C7  535   3.833   6.323   6.636 -0.5214 -0.4468  0.2104
   21bbb     C8  536   4.202   6.125   7.086  0.3545  0.0091 -0.2200
   21bbb     O1  537   3.807   6.429   6.586 -0.1310  0.7163 -0.3187
   21bbb     O2  538   4.161   6.012   7.080  0.2090 -0.4193 -0.2716
   21bbb     N4  539   4.501   6.351   6.732 -0.1740 -0.1011  0.2629
   21bbb    H21  540   4.507   6.419   6.657  0.0798  0.8504  1.1421
   22bbb     C1  541   5.108   6.944   8.897 -0.2943 -0.3838 -0.0520
   22bbb     H1  542   5.021   6.982   8.952  1.1907  0.7262  1.5582
   22bbb     H2  543   5.168   6.873   8.956 -2.4578 -1.2710  1.1439
   22bbb     C2  544   5.182   7.070   8.838  0.2955 -0.3186 -0.5560
   22bbb     H3  545   5.204   7.134   8.925 -0.4826 -0.3631 -0.3286
   22bbb     H4  546   5.277   7.045   8.789 -0.8784  1.0818 -3.6491
   22bbb     N1  547   5.072   6.852   8.783 -0.3716  0.5207  0.0268
   22bbb     C3  548   4.954   6.775   8.807  1.3030  0.3780 -0.1064
   22bbb     H5  549   4.959   6.742   8.912 -2.8076  1.2654  0.4365
   22bbb     H6  550   4.938   6.691   8.739 -0.3013  0.9558 -0.4537
   22bbb     C4  551   5.183   6.771   8.735  0.1740  0.2198  0.0382
   22bbb     H7  552   5.276   6.826   8.755  0.2484  0.2637 -0.4246
   22bbb     H8  553   5.184   6.675   8.786  0.5923 -0.3821 -1.0873
   22bbb     C5  554   5.165   6.754   8.586 -0.3125  0.5392 -0.2764
   22bbb     H9  555   5.072   6.698   8.567  0.7288 -1.5517  0.6928
   22bbb    H10  556   5.160   6.850   8.532 -0.8482  0.4563 -0.3757
   22bbb     C6  557   4.830   6.855   8.795 -0.2962 -0.4759 -0.2440
   22bbb    H11  558   4.836   6.938   8.866 -1.4051 -1.6110  1.2031
   22bbb    H12  559   4.823   6.894   8.693 -3.8410  2.1306  0.9248
   22bbb     C7  560   5.272   6.673   8.532 -0.1405 -0.3168  0.4522
   22bbb     C8  561   4.707   6.785   8.831  0.2341  0.0277  0.4350
   22bbb     O1  562   5.300   6.565   8.580  0.1354 -0.4747  0.2204
   22bbb     O2  563   4.641   6.745   8.741 -0.3742  0.1178  1.0066
   22bbb     N4  564   5.085   7.142   8.749 -0.2640 -0.4075  0.0665
   22bbb    H21  565   5.069   7.102   8.657  1.3945  1.1667 -0.9467
   23bbb     C1  566   4.502   6.600   8.503  0.3334  0.5876 -0.5395
   23bbb     H1  567   4.435   6.609   8.590  0.0759  0.7225 -0.7489
   23bbb     H2  568   4.602   6.583   8.543 -0.6258  0.0877  1.7203
   23bbb     C2  569   4.492   6.731   8.424  0.1242 -0.7565  1.0297
   23bbb     H3  570   4.564   6.723   8.342  0.3144 -1.0474  1.2228
   23bbb     H4  571   4.392   6.747   8.380  0.1081 -0.3714  1.1984
   23bbb     N1  572   4.451   6.484   8.418 -0.0207 -0.0968  0.0854
   23bbb     C3  573   4.538   6.457   8.297 -0.3968  0.0475 -0.5813
   23bbb     H5  574   4.581   6.356   8.299  1.8561  0.9698 -0.9277
   23bbb     H6  575   4.620   6.531   8.293  0.8430 -1.1917  1.0979
   23bbb     C4  576   4.442   6.366   8.512  0.3598 -0.3068 -0.1813
   23bbb     H7  577   4.540   6.331   8.545 -0.0286 -0.7735  0.4978
   23bbb     H8  578   4.377   6.392   8.597  1.0820  0.9118  0.0221
   23bbb     C5  579   4.375   6.255   8.435 -0.3552 -0.2361  0.1085
   23bbb     H9  580   4.278   6.284   8.393  0.4250 -0.2377 -1.7592
   23bbb    H10  581   4.437   6.208   8.357  0.1299 -1.6328  1.3159
   23bbb     C6  582   4.457   6.477   8.164 -0.2236  0.2191 -0.1327
   23bbb    H11  583   4.386   6.394   8.159  1.3987 -1.1692 -1.0268
   23bbb    H12  584   4.392   6.564   8.163  0.5082  0.7698 -0.1769
   23bbb     C7  585   4.333   6.162   8.543  0.0011  0.2334 -0.2339
   23bbb     C8  586   4.563   6.495   8.050  0.1219 -0.3524  0.4125
   23bbb     O1  587   4.227   6.179   8.603  0.3658  0.1357 -0.3533
   23bbb     O2  588   4.628   6.594   8.040 -0.5050  0.0204 -0.2336
   23bbb     N4  589   4.525   6.857   8.494 -0.2930  0.5970  0.0387
   23bbb    H21  590   4.563   6.856   8.587  0.0526 -1.9723 -0.1095
   24bbb     C1  591   3.207   7.096   8.448 -0.3631  0.5321  0.4463
   24bbb     H1  592   3.100   7.119   8.454 -0.6626 -0.2338 -1.4202
   24bbb     H2  593   3.223   7.044   8.543  4.8028 -0.2255 -0.6723
   24bbb     C2  594   3.293   7.226   8.451  0.2440 -0.1250  0.3480
   24bbb     H3  595   3.257   7.305   8.518  2.5939  0.7283  0.6464
   24bbb     H4  596   3.394   7.194   8.481  0.5025  0.0107 -0.3502
   24bbb     N1  597   3.225   7.003   8.333  0.7165  0.2778  0.1772
   24bbb     C3  598   3.125   6.896   8.328  1.0777  0.5570 -0.1566
   24bbb     H5  599   3.029   6.946   8.342  1.9679  2.5780 -1.0056
   24bbb     H6  600   3.142   6.830   8.414  0.2910 -0.4524 -0.7704
   24bbb     C4  601   3.365   6.956   8.324 -0.5553 -1.0771 -0.2081
   24bbb     H7  602   3.376   6.886   8.241 -2.0649 -0.5415 -0.8760
   24bbb     H8  603   3.428   7.044   8.316  0.0440 -1.3461  1.3384
   24bbb     C5  604   3.410   6.878   8.452  0.2234 -0.0900 -0.3262
   24bbb     H9  605   3.377   6.926   8.545 -1.4800  0.0212 -0.9675
   24bbb    H10  606   3.359   6.782   8.461  1.7970 -0.7114  2.3159
   24bbb     C6  607   3.112   6.814   8.200  0.6561  0.4509 -0.1601
   24bbb    H11  608   3.104   6.887   8.119 -1.4968  1.1501  0.6395
   24bbb    H12  609   3.207   6.767   8.173 -0.4962 -0.4278 -2.9378
   24bbb     C7  610   3.557   6.847   8.452  0.3891 -0.5603  0.4109
   24bbb     C8  611   2.996   6.723   8.204  0.4812  0.3095 -0.1389
   24bbb     O1  612   3.608   6.777   8.363 -0.0120  0.0908  0.8471
   24bbb     O2  613   2.907   6.736   8.291 -0.1338  0.5869  0.7905
   24bbb     N4  614   3.293   7.304   8.320 -0.2363  0.2087 -0.3759
   24bbb    H21  615   3.288   7.245   8.238  1.1357 -0.1595 -0.2140
   25bbb     C1  616   4.131   8.098   8.287 -0.5839  0.0763 -0.4473
   25bbb     H1  617   4.155   8.204   8.302 -1.7471  0.1137  1.4475
   25bbb     H2  618   4.096   8.092   8.183 -2.5602  1.0816  0.1182
   25bbb     C2  619   4.010   8.048   8.369 -0.3650  0.6584 -0.1078
   25bbb     H3  620   4.039   8.047   8.475 -1.5694  0.9586  0.2240
   25bbb     H4  621   3.933   8.125   8.363  2.8678  4.2762  2.0115
   25bbb     N1  622   4.244   8.012   8.306 -0.3787 -0.8430  0.0250
   25bbb     C3  623   4.313   8.058   8.422  0.3021  0.1990 -0.1663
   25bbb     H5  624   4.249   8.107   8.497  2.6394 -0.2615  2.2094
   25bbb     H6  625   4.388   8.135   8.398  1.4423 -0.4859  1.1280
   25bbb     C4  626   4.337   8.022   8.190 -0.1291 -0.3821 -0.1154
   25bbb     H7  627   4.343   8.126   8.157 -0.5784 -1.4497 -3.7120
   25bbb     H8  628   4.438   7.995   8.222 -0.0534  2.7443  2.5928
   25bbb     C5  629   4.291   7.939   8.073 -0.2438 -0.2694  0.1950
   25bbb     H9  630   4.271   7.836   8.105  0.3405 -0.1044  1.1271
   25bbb    H10  631   4.197   7.978   8.032 -0.0195 -0.9070 -0.9360
   25bbb     C6  632   4.377   7.942   8.492 -0.2402  0.2320 -0.1448
   25bbb    H11  633   4.293   7.877   8.521 -0.0567  1.1999  2.6763
   25bbb    H12  634   4.442   7.886   8.424 -1.8552  0.6399 -2.0790
   25bbb     C7  635   4.395   7.932   7.972 -0.9261 -0.2301 -0.2356
   25bbb     C8  636   4.446   7.988   8.617  0.0444  0.1421 -0.5289
   25bbb     O1  637   4.509   7.948   8.001  0.3548 -0.0870  0.1496
   25bbb     O2  638   4.426   8.095   8.673 -0.8678 -1.0604 -0.0321
   25bbb     N4  639   3.961   7.914   8.326 -0.2336 -0.5137 -0.6780
   25bbb    H21  640   4.031   7.845   8.301 -0.0212  0.3634 -2.5376
   26bbb     C1  641   4.796   5.990   9.296 -0.5819  0.2426 -0.3489
   26bbb     H1  642   4.698   5.958   9.257  0.4126 -2.2615 -0.9191
   26bbb     H2  643   4.828   5.912   9.366 -1.1955  0.7966  0.5554
   26bbb     C2  644   4.773   6.115   9.380  0.0947 -0.3953 -0.4587
   26bbb     H3  645   4.706   6.089   9.463  0.6237 -3.9964 -1.0827
   26bbb     H4  646   4.873   6.145   9.412  0.0642 -1.4448  0.6518
   26bbb     N1  647   4.885   6.018   9.183 -0.1510  0.0073 -0.6307
   26bbb     C3  648   4.865   5.909   9.080  0.0615 -0.6314 -0.0006
   26bbb     H5  649   4.836   5.811   9.120 -0.9273  0.1733  1.3023
   26bbb     H6  650   4.960   5.891   9.027  1.7410  1.9403  2.0049
   26bbb     C4  651   5.030   6.027   9.220 -0.1638 -0.4198 -0.0187
   26bbb     H7  652   5.034   6.074   9.319  0.2686  0.8143 -0.6092
   26bbb     H8  653   5.069   5.925   9.228  0.8514 -0.0579 -0.2671
   26bbb     C5  654   5.101   6.126   9.117  0.3198 -0.6586  0.2333
   26bbb     H9  655   5.059   6.104   9.018  1.5318 -0.4937 -0.3245
   26bbb    H10  656   5.084   6.233   9.135  0.7328 -0.4723 -0.4542
   26bbb     C6  657   4.764   5.951   8.974 -0.8316  0.0935  0.3595
   26bbb    H11  658   4.662   5.927   9.006 -0.6401 -3.1125 -1.2428
   26bbb    H12  659   4.781   6.054   8.941  1.9196 -0.3218  0.3406
   26bbb     C7  660   5.250   6.106   9.118 -0.8387  0.9280  0.0415
   26bbb     C8  661   4.780   5.869   8.852 -0.3375 -0.0325  0.4851
   26bbb     O1  662   5.298   6.022   9.048  0.4735 -0.9601  0.3071
   26bbb     O2  663   4.714   5.770   8.837  0.2809  0.3028 -0.0212
   26bbb     N4  664   4.715   6.217   9.298  0.2998 -0.3800  0.3941
   26bbb    H21  665   4.770   6.285   9.247 -2.4659 -0.0421 -2.3237
   27bbb     C1  666   4.861   6.575   8.457 -0.3382  0.4937  0.2564
   27bbb     H1  667   4.848   6.660   8.524  0.5981 -0.4442  1.6547
   27bbb     H2  668   4.762   6.530   8.441  0.3415 -0.5301 -1.2249
   27bbb     C2  669   4.953   6.469   8.521 -0.0458 -0.2932 -0.1368
   27bbb     H3  670   4.954   6.373   8.469  0.6502  0.6487 -1.9072
   27bbb     H4  671   5.061   6.488   8.521 -0.1665  0.5344 -1.9799
   27bbb     N1  672   4.924   6.617   8.325  0.0879  0.4108 -0.2875
   27bbb     C3  673   4.850   6.731   8.279  0.1837 -0.7056  0.2573
   27bbb     H5  674   4.750   6.713   8.318  0.2745  0.0556  0.8270
   27bbb     H6  675   4.836   6.730   8.170 -0.9786 -1.7993  0.4038
   27bbb     C4  676   4.913   6.502   8.231  0.0815 -0.2616  0.1953
   27bbb     H7  677   4.841   6.430   8.273  0.5106 -1.0532 -0.3931
   27bbb     H8  678   4.883   6.529   8.129 -0.2229  0.6794  0.5354
   27bbb     C5  679   5.060   6.450   8.220 -0.1369  0.0943 -0.6854
   27bbb     H9  680   5.116   6.518   8.154 -1.2190  0.4616 -1.2347
   27bbb    H10  681   5.103   6.435   8.320  0.3298 -0.8677 -1.0233
   27bbb     C6  682   4.917   6.862   8.324 -0.5815 -0.3365  0.3722
   27bbb    H11  683   4.898   6.894   8.427  2.4474  1.0514  0.5447
   27bbb    H12  684   5.026   6.850   8.329 -0.6145 -0.7432  0.1515
   27bbb     C7  685   5.060   6.319   8.145 -0.1940  0.3388 -0.0160
   27bbb     C8  686   4.885   6.973   8.232 -0.5306  0.1959  0.1235
   27bbb     O1  687   4.968   6.266   8.087  0.1832  0.0757 -0.2252
   27bbb     O2  688   4.822   6.954   8.132  0.2495  0.2682  0.2935
   27bbb     N4  689   4.906   6.436   8.659 -0.1746  0.0812  0.7964
   27bbb    H21  690   4.950   6.481   8.738 -0.7036  1.7654  0.1377
   28bbb     C1  691   3.772   6.002   8.093 -0.5582  0.2463  0.7167
   28bbb     H1  692   3.783   5.894   8.078 -0.5147  0.4175 -0.5084
   28bbb     H2  693   3.864   6.035   8.143 -0.5180  0.7505  0.3170
   28bbb     C2  694   3.654   6.027   8.192  0.6784 -0.8029  0.3869
   28bbb     H3  695   3.654   6.133   8.223 -1.4973 -1.5051  2.9395
   28bbb     H4  696   3.566   6.013   8.129  1.3276 -0.1573 -0.6961
   28bbb     N1  697   3.766   6.073   7.971  0.3130 -0.2827 -0.5588
   28bbb     C3  698   3.833   5.999   7.866 -0.3283 -0.3018  0.4399
   28bbb     H5  699   3.792   5.898   7.849  2.3226 -1.6023  1.3854
   28bbb     H6  700   3.938   5.980   7.892 -0.9732 -0.4470  3.1012
   28bbb     C4  701   3.805   6.218   7.988 -0.5079  0.9653  0.2339
   28bbb     H7  702   3.834   6.237   8.092 -0.5823 -1.1180  0.6561
   28bbb     H8  703   3.894   6.253   7.934  0.6837 -2.2795  0.0296
   28bbb     C5  704   3.684   6.300   7.960  0.0453 -0.0512 -0.0563
   28bbb     H9  705   3.645   6.286   7.859 -2.2143  2.1705  0.4713
   28bbb    H10  706   3.604   6.275   8.031 -0.9081 -0.8174 -1.4028
   28bbb     C6  707   3.829   6.072   7.737  0.1273  0.6527 -0.0681
   28bbb    H11  708   3.724   6.103   7.730 -0.6152 -1.1536  2.1841
   28bbb    H12  709   3.894   6.158   7.716  1.1146 -0.2774 -0.8771
   28bbb     C7  710   3.714   6.440   7.975  0.2190 -0.4097  0.3163
   28bbb     C8  711   3.856   5.985   7.621 -0.0224 -0.2873 -0.2202
   28bbb     O1  712   3.807   6.489   8.032 -0.7822  0.1527  0.5263
   28bbb     O2  713   3.968   5.973   7.587 -0.1676  0.5412  0.7359
   28bbb     N4  714   3.647   5.937   8.309 -0.0097  0.0977 -0.4124
   28bbb    H21  715   3.591   5.852   8.308 -2.1374  1.2234  4.7520
   29bbb     C1  716   3.830   5.936   9.194 -0.2163  0.0674  0.2330
   29bbb     H1  717   3.722   5.931   9.180 -0.2558 -1.4239  0.9607
   29bbb     H2  718   3.867   5.914   9.296  2.8836  2.5670 -0.2646
   29bbb     C2  719   3.876   6.077   9.153 -0.0924  0.7310  0.0961
   29bbb     H3  720   3.840   6.144   9.232 -3.0523 -0.9023  0.2176
   29bbb     H4  721   3.985   6.081   9.155 -0.0609 -0.4576  2.3876
   29bbb     N1  722   3.895   5.842   9.101  0.5804  0.4855 -0.7693
   29bbb     C3  723   3.820   5.719   9.061 -0.0396  0.0258 -0.4068
   29bbb     H5  724   3.778   5.654   9.138  2.2822 -0.6085  0.3567
   29bbb     H6  725   3.891   5.645   9.021  1.0289  1.5971 -1.4925
   29bbb     C4  726   4.046   5.821   9.110  0.4281  0.0447 -0.3862
   29bbb     H7  727   4.084   5.904   9.170 -1.3389 -1.0935  2.4188
   29bbb     H8  728   4.069   5.726   9.160 -2.4094 -0.5682 -0.1850
   29bbb     C5  729   4.114   5.809   8.969  1.0574 -0.0230 -0.3209
   29bbb     H9  730   4.063   5.726   8.919 -1.9402  0.7977  1.2107
   29bbb    H10  731   4.104   5.902   8.911 -1.1882 -0.1253 -0.1644
   29bbb     C6  732   3.736   5.765   8.948 -0.0416  0.2252 -0.2670
   29bbb    H11  733   3.649   5.825   8.976  0.2975  0.2658  0.7278
   29bbb    H12  734   3.800   5.815   8.874 -0.1916 -0.8205 -1.1100
   29bbb     C7  735   4.260   5.789   8.987  0.2711 -0.4587 -0.1556
   29bbb     C8  736   3.668   5.641   8.904  0.6162  0.0875  0.4156
   29bbb     O1  737   4.337   5.884   8.979 -0.4953  0.2372  0.0798
   29bbb     O2  738   3.574   5.587   8.963  0.6547  0.3134  0.2128
   29bbb     N4  739   3.827   6.114   9.015  0.3398 -0.1150  0.3006
   29bbb    H21  740   3.878   6.091   8.930  1.1215 -0.5763  0.8936
   30ccc     N1  741   2.805   8.017   7.471 -0.5721  0.1102  0.3769
   30ccc     H1  742   2.767   7.926   7.494  0.8074 -0.9480 -1.4214
   30ccc     C1  743   2.780   8.058   7.335  0.7769  0.6195 -0.0306
   30ccc     H2  744   2.759   8.165   7.347 -1.5467  0.1190  0.5938
   30ccc     C2  745   2.663   7.980   7.264  0.4865 -0.0148 -0.1503
   30ccc     H3  746   2.878   8.038   7.290  1.1110  2.0755  0.0359
   30ccc     H4  747   2.564   7.988   7.311  1.1819  1.0467  1.1699
   30ccc     H5  748   2.693   7.875   7.275  2.3028  0.6773  1.9026
   30ccc     N2  749   2.660   8.019   7.119  0.2053  0.6113  0.0773
   30ccc     C3  750   2.566   7.934   7.053  0.5485 -0.1854  0.1353
   30ccc     C4  751   2.672   8.164   7.075  0.0184 -0.1568 -0.5006
   30ccc     H6  752   2.763   8.204   7.121 -1.0871 -0.9653  2.4865
   30ccc     C5  753   2.570   8.256   7.127  0.0436 -0.2096  0.5481
   30ccc     H7  754   2.686   8.170   6.966 -0.2259  0.6765 -0.4926
   30ccc     H8  755   2.467   8.222   7.108 -0.0494 -0.8355  2.0901
   30ccc     H9  756   2.575   8.265   7.236 -1.1361 -2.8770  0.8627
   30ccc     C6  757   2.573   8.400   7.077 -0.4876 -0.3281 -0.0981
   30ccc     O1  758   2.455   8.459   7.094 -0.3331 -0.0898 -0.2374
   30ccc     O2  759   2.638   8.428   6.977  0.2039 -0.3682 -0.0183
   30ccc    H10  760   2.470   7.931   7.107  0.2777  1.4938 -0.2256
   30ccc    H11  761   2.608   7.833   7.061  1.6913  0.3480  0.9090
   30ccc     C7  762   2.540   7.971   6.907 -0.5801 -0.0658 -0.4543
   30ccc    H12  763   2.634   7.981   6.851  0.7981  1.1313  1.9635
   30ccc    H13  764   2.488   8.068   6.910 -3.1317 -1.4248  0.6717
   30ccc     C8  765   2.440   7.866   6.842  0.3375 -0.1779 -0.1731
   30ccc     O3  766   2.414   7.760   6.887  0.4694  0.0538  0.7644
   30ccc     O4  767   2.367   7.918   6.749  0.1896  0.7802  0.7688
   30ccc    H14  768   2.412   8.406   7.163 -0.9924  0.2799 -0.3598
   30ccc    H15  769   2.421   7.989   6.709  1.4706 -0.1252  0.8528
   31ccc     N1  770   3.283   8.237   7.960 -0.0310 -0.7064  0.3065
   31ccc     H1  771   3.261   8.207   7.866 -0.4355  2.8661 -0.8011
   31ccc     C1  772   3.356   8.362   7.958 -0.5488 -0.0182 -0.6429
   31ccc     H2  773   3.281   8.442   7.947 -1.4983 -0.9988 -1.4563
   31ccc     C2  774   3.456   8.381   7.843  0.4239  0.0483  0.3710
   31ccc     H3  775   3.414   8.371   8.051  1.0889 -3.1299 -1.3046
   31ccc     H4  776   3.520   8.291   7.840  1.1326  0.5155  1.2938
   31ccc     H5  777   3.400   8.389   7.750  3.2084 -1.2186 -1.4920
   31ccc     N2  778   3.558   8.493   7.856  0.0798  0.1815 -0.6456
   31ccc     C3  779   3.509   8.624   7.884 -0.2890  0.5342  0.1761
   31ccc     C4  780   3.653   8.485   7.740 -0.1109 -0.3030  0.1774
   31ccc     H6  781   3.603   8.505   7.645 -1.2710 -1.4502  0.5340
   31ccc     C5  782   3.778   8.564   7.754 -0.2162  1.3511  0.1755
   31ccc     H7  783   3.675   8.378   7.725 -2.8777 -0.9248  0.2641
   31ccc     H8  784   3.820   8.551   7.854 -0.1209 -0.1412 -0.0519
   31ccc     H9  785   3.764   8.673   7.747 -0.5983  1.2732 -0.3052
   31ccc     C6  786   3.885   8.533   7.653 -0.4644 -0.1706 -0.5106
   31ccc     O1  787   3.995   8.604   7.662 -0.3916 -0.4595  0.4414
   31ccc     O2  788   3.872   8.452   7.567 -0.2803 -0.1075 -0.6621
   31ccc    H10  789   3.447   8.620   7.974  2.8952  0.1123  2.4181
   31ccc    H11  790   3.595   8.692   7.889 -0.7814  1.0593  1.7915
   31ccc     C7  791   3.404   8.656   7.767 -0.7020  0.0517 -0.3810
   31ccc    H12  792   3.318   8.588   7.758 -1.4715  1.1041 -1.2007
   31ccc    H13  793   3.457   8.660   7.671 -1.2159 -0.5567 -0.6920
   31ccc     C8  794   3.353   8.790   7.794 -0.9104  0.6826 -0.1250
   31ccc     O3  795   3.410   8.877   7.855 -0.0762  0.0077 -0.6993
   31ccc     O4  796   3.225   8.807   7.783 -0.2078  1.0793  0.0408
   31ccc    H14  797   3.982   8.657   7.742 -0.4567  1.0145 -0.5241
   31ccc    H15  798   3.194   8.743   7.717 -0.1806 -0.1218  1.1727
   32ccc     N1  799   3.535   6.939   8.931  1.2905  0.4300  0.1705
   32ccc     H1  800   3.496   6.919   9.022 -0.7413  0.8792 -0.5761
   32ccc     C1  801   3.660   6.883   8.899 -0.3453  0.2857  0.5129
   32ccc     H2  802   3.713   6.965   8.847 -1.3762  1.3744  1.1671
   32ccc     C2  803   3.641   6.754   8.808  0.1434  0.0434  0.4722
   32ccc     H3  804   3.711   6.852   8.991  0.6380  0.6994  0.1159
   32ccc     H4  805   3.740   6.718   8.778 -0.0963 -0.3848  0.1792
   32ccc     H5  806   3.598   6.783   8.711  0.3278  2.2633  1.0365
   32ccc     N2  807   3.581   6.630   8.879  0.0349 -0.0159  0.2955
   32ccc     C3  808   3.624   6.597   9.011 -0.5454  0.6923  0.8343
   32ccc     C4  809   3.434   6.618   8.866 -0.7291  0.1439 -0.3869
   32ccc     H6  810   3.401   6.532   8.926 -1.1715  0.7975  0.3113
   32ccc     C5  811   3.399   6.595   8.723 -0.0438 -0.2251 -0.1224
   32ccc     H7  812   3.383   6.711   8.894 -0.1259  0.3153  0.1447
   32ccc     H8  813   3.449   6.504   8.689  0.0727  0.0214 -0.6124
   32ccc     H9  814   3.425   6.682   8.661 -0.6633  0.4753  0.5809
   32ccc     C6  815   3.254   6.571   8.700 -0.1420  0.4487 -0.6880
   32ccc     O1  816   3.221   6.571   8.575  0.5068  0.5313 -0.2220
   32ccc     O2  817   3.181   6.511   8.774  0.6960  0.2310 -0.1014
   32ccc    H10  818   3.561   6.515   9.046 -0.9856  0.3372 -0.7654
   32ccc    H11  819   3.594   6.678   9.078 -1.6185  0.8949  0.1148
   32ccc     C7  820   3.775   6.557   9.018  0.4537  0.1629  0.0931
   32ccc    H12  821   3.834   6.641   8.979  1.4037 -0.3873  0.3419
   32ccc    H13  822   3.805   6.477   8.950 -3.1010  1.0159 -2.6269
   32ccc     C8  823   3.824   6.520   9.157 -0.4746  0.2111  0.5376
   32ccc     O3  824   3.762   6.532   9.260 -0.1514 -0.3204 -0.3602
   32ccc     O4  825   3.953   6.491   9.168 -0.3610 -0.6067 -0.3044
   32ccc    H14  826   3.301   6.553   8.523 -0.1588  1.9481 -1.8036
   32ccc    H15  827   3.985   6.502   9.077  0.4531  4.1042  0.4376
   33ccc     N1  828   3.141   7.217   9.370 -0.5757 -0.2057  0.3326
   33ccc     H1  829   3.199   7.146   9.327  0.0671 -1.0700  2.5384
   33ccc     C1  830   3.154   7.255   9.507  0.2713 -0.1629  0.0628
   33ccc     H2  831   3.078   7.328   9.539  1.3663  0.8606  0.3888
   33ccc     C2  832   3.299   7.318   9.536 -0.4783  0.6325 -0.0124
   33ccc     H3  833   3.135   7.172   9.576 -2.2284 -0.9674 -1.5477
   33ccc     H4  834   3.316   7.316   9.644  1.1608  0.1703 -0.2658
   33ccc     H5  835   3.290   7.419   9.494 -1.5885  0.6900  0.3245
   33ccc     N2  836   3.414   7.246   9.471  0.1074 -0.2806 -0.2363
   33ccc     C3  837   3.425   7.106   9.512  0.0052  0.4944 -0.2244
   33ccc     C4  838   3.539   7.323   9.454  0.2649 -0.2187 -0.3513
   33ccc     H6  839   3.558   7.384   9.543 -0.3256 -2.2873  1.2413
   33ccc     C5  840   3.517   7.419   9.336  0.6688  0.3633 -0.1960
   33ccc     H7  841   3.628   7.262   9.435 -0.3311 -0.4022 -2.6339
   33ccc     H8  842   3.599   7.492   9.330 -0.8284  2.0962  0.0558
   33ccc     H9  843   3.429   7.483   9.349  1.7044  1.8302 -0.2234
   33ccc     C6  844   3.511   7.352   9.208 -0.9091 -0.4714  0.0159
   33ccc     O1  845   3.456   7.427   9.115 -0.6214 -0.0590  0.4057
   33ccc     O2  846   3.558   7.242   9.185 -0.1838 -0.5813  0.1938
   33ccc    H10  847   3.470   7.104   9.612 -1.0569 -1.4080  0.2318
   33ccc    H11  848   3.326   7.059   9.518  1.0773 -1.9469 -0.9651
   33ccc     C7  849   3.497   7.018   9.410  0.0628  0.3366 -0.2407
   33ccc    H12  850   3.588   7.066   9.374 -0.4940  0.0350 -2.0719
   33ccc    H13  851   3.521   6.924   9.460 -0.1877  1.0520  1.2657
   33ccc     C8  852   3.412   6.968   9.296  0.1076 -0.2786 -0.1491
   33ccc     O3  853   3.292   6.986   9.288 -0.1191 -0.2940 -0.2180
   33ccc     O4  854   3.473   6.896   9.202 -0.1425  0.1438 -0.3493
   33ccc    H14  855   3.432   7.507   9.164  2.7683  1.3106 -0.0063
   33ccc    H15  856   3.565   6.883   9.232 -0.4764 -0.5493  0.4106
   34ccc     N1  857   4.233   8.372   7.318 -0.6567 -0.0092 -0.5511
   34ccc     H1  858   4.314   8.430   7.333  0.4209 -1.8334  1.0225
   34ccc     C1  859   4.103   8.436   7.302 -0.1236  0.7220 -0.9342
   34ccc     H2  860   4.025   8.359   7.312  1.1293 -0.4650 -0.1005
   34ccc     C2  861   4.082   8.504   7.167  0.7100  0.7108 -0.0627
   34ccc     H3  862   4.095   8.516   7.377 -0.0636  0.9942 -1.2163
   34ccc     H4  863   3.984   8.549   7.190 -0.0242 -1.9414  2.4356
   34ccc     H5  864   4.063   8.422   7.096  3.4641 -1.1376  1.2306
   34ccc     N2  865   4.183   8.599   7.111 -0.0373  0.4752  0.2071
   34ccc     C3  866   4.195   8.725   7.180  0.1426 -0.2000 -0.1823
   34ccc     C4  867   4.310   8.550   7.060  0.2479 -0.3739 -0.4660
   34ccc     H6  868   4.359   8.627   6.999 -0.5688 -1.2871 -2.3423
   34ccc     C5  869   4.305   8.418   6.981  1.0402  0.3627 -0.4391
   34ccc     H7  870   4.364   8.525   7.151 -0.2499 -0.2406 -0.1300
   34ccc     H8  871   4.275   8.332   7.042  1.8923  1.8100  2.1243
   34ccc     H9  872   4.242   8.420   6.891  0.2189  0.1598  0.1304
   34ccc     C6  873   4.442   8.371   6.931 -0.2657 -0.6060  0.5117
   34ccc     O1  874   4.442   8.250   6.877 -0.3388 -0.0468  0.7740
   34ccc     O2  875   4.542   8.436   6.950 -0.2116  0.2064  0.5228
   34ccc    H10  876   4.171   8.708   7.285  0.9389  1.1897  0.2417
   34ccc    H11  877   4.296   8.768   7.173  0.5980 -1.2615 -0.1452
   34ccc     C7  878   4.102   8.826   7.116  0.1218 -0.0342  0.0131
   34ccc    H12  879   4.001   8.782   7.121 -0.9798  2.1651 -2.3601
   34ccc    H13  880   4.142   8.846   7.017  2.4459  0.9629  1.1276
   34ccc     C8  881   4.089   8.955   7.179 -0.0474  0.0244  0.4532
   34ccc     O3  882   4.138   8.974   7.285 -0.0310  0.0360 -0.5895
   34ccc     O4  883   3.987   9.027   7.139 -0.2757 -0.4827 -0.5401
   34ccc    H14  884   4.354   8.251   6.836  0.8033 -0.6767 -1.7941
   34ccc    H15  885   3.979   8.984   7.052 -1.2711 -0.9698 -0.2151
   35ccc     N1  886   3.743   7.761   6.984  0.1255 -0.0812  0.7010
   35ccc     H1  887   3.729   7.722   6.892  0.0247 -1.1079  1.1475
   35ccc     C1  888   3.626   7.761   7.077 -0.5392  0.5582 -0.0486
   35ccc     H2  889   3.663   7.737   7.177  1.8659 -1.9164 -1.4668
   35ccc     C2  890   3.519   7.659   7.036 -1.3818  0.1093  0.3452
   35ccc     H3  891   3.587   7.864   7.074  0.3105  0.9399  1.7227
   35ccc     H4  892   3.487   7.699   6.938  0.1462  1.7447  0.4805
   35ccc     H5  893   3.445   7.676   7.115 -2.6722 -0.4591 -0.7238
   35ccc     N2  894   3.546   7.509   7.020 -0.3438  0.4344 -0.0062
   35ccc     C3  895   3.628   7.465   7.133  0.4626 -0.3485 -0.6737
   35ccc     C4  896   3.426   7.427   7.006 -0.2011  0.3524  0.1492
   35ccc     H6  897   3.391   7.413   7.109  0.9267  0.0223  0.4933
   35ccc     C5  898   3.310   7.485   6.922 -0.0949  0.0537 -0.2090
   35ccc     H7  899   3.454   7.334   6.955  1.2007  0.7109  0.2325
   35ccc     H8  900   3.265   7.571   6.972  1.2037  1.3075 -1.1556
   35ccc     H9  901   3.334   7.522   6.822 -2.0807 -0.4478 -0.8809
   35ccc     C6  902   3.214   7.365   6.901  0.2054 -0.4534 -0.0677
   35ccc     O1  903   3.111   7.374   6.982 -0.0910  0.5337 -0.9590
   35ccc     O2  904   3.246   7.258   6.855 -0.1585 -0.0669  0.2029
   35ccc    H10  905   3.576   7.487   7.227  1.0542  2.3130 -0.9019
   35ccc    H11  906   3.723   7.517   7.149 -0.1861  0.3676  1.0220
   35ccc     C7  907   3.662   7.312   7.130 -0.2117  0.8306  0.1063
   35ccc    H12  908   3.710   7.294   7.033 -1.3422 -0.2665 -0.2578
   35ccc    H13  909   3.580   7.241   7.143  1.3946 -1.1849 -0.5847
   35ccc     C8  910   3.761   7.277   7.236  0.2110 -0.3536 -0.1429
   35ccc     O3  911   3.819   7.357   7.310  0.2459  0.1716 -0.3571
   35ccc     O4  912   3.817   7.162   7.196 -0.0677 -0.2017  0.4790
   35ccc    H14  913   3.139   7.433   7.054 -0.2693  0.2053 -0.6213
   35ccc    H15  914   3.740   7.128   7.147  0.8587 -1.7979  0.1095
   36ccc     N1  915   3.971   8.342   8.528  0.1612 -0.0119 -0.1873
   36ccc     H1  916   3.954   8.339   8.428  0.4092  0.7767 -0.2596
   36ccc     C1  917   4.055   8.455   8.557 -0.4050  0.1511  0.5567
   36ccc     H2  918   4.010   8.554   8.540  2.2352  1.4669  1.0818
   36ccc     C2  919   4.199   8.444   8.494  0.0057 -0.3020  0.2609
   36ccc     H3  920   4.074   8.440   8.664 -0.5301 -2.6918  0.2384
   36ccc     H4  921   4.244   8.346   8.512 -1.1367 -1.4178 -2.6032
   36ccc     H5  922   4.265   8.515   8.545  1.1610 -0.3960 -1.0973
   36ccc     N2  923   4.215   8.454   8.342 -0.5064  0.6753 -0.3018
   36ccc     C3  924   4.139   8.573   8.288  0.2187 -0.3749 -0.0071
   36ccc     C4  925   4.349   8.430   8.301 -0.4715 -0.4749 -0.3893
   36ccc     H6  926   4.394   8.344   8.352 -0.1325  0.6484  1.2205
   36ccc     C5  927   4.444   8.550   8.306  0.4275  0.5723  0.1173
   36ccc     H7  928   4.342   8.398   8.196  0.2956  0.4815 -0.7323
   36ccc     H8  929   4.466   8.573   8.411  2.4907 -3.1850  0.6010
   36ccc     H9  930   4.399   8.636   8.255  0.0198  0.1551 -0.2368
   36ccc     C6  931   4.570   8.529   8.226 -1.0395  0.9011 -0.3124
   36ccc     O1  932   4.676   8.612   8.256  0.5726 -0.3029  0.0819
   36ccc     O2  933   4.578   8.465   8.127  0.3131  0.5940 -0.2190
   36ccc    H10  934   4.176   8.667   8.331  1.0607 -1.1719  1.0366
   36ccc    H11  935   4.035   8.561   8.319 -0.1403  0.8167 -0.7126
   36ccc     C7  936   4.139   8.578   8.133  0.7385 -0.6087  0.7620
   36ccc    H12  937   4.239   8.603   8.097  0.3889  1.0212  0.8957
   36ccc    H13  938   4.121   8.476   8.096  1.2957 -0.2641 -0.4749
   36ccc     C8  939   4.046   8.674   8.065  0.8159 -0.3021  0.5796
   36ccc     O3  940   3.979   8.764   8.113 -0.0369  0.3323 -0.6173
   36ccc     O4  941   4.034   8.652   7.935  0.8115 -0.1751 -0.4491
   36ccc    H14  942   4.647   8.653   8.339  2.1166 -0.5810  0.7623
   36ccc    H15  943   4.094   8.578   7.915  0.0459 -0.7838 -0.4868
   37ccc     N1  944   3.482   7.926   8.432  0.2811 -0.0686 -0.4773
   37ccc     H1  945   3.583   7.935   8.444  0.2055 -1.7353  1.6889
   37ccc     C1  946   3.422   7.819   8.512 -0.9223 -0.2603 -0.1098
   37ccc     H2  947   3.318   7.808   8.479 -0.4631 -0.4344 -1.5470
   37ccc     C2  948   3.441   7.863   8.661  0.1494  0.8493 -0.3443
   37ccc     H3  949   3.480   7.727   8.499  0.6127  0.3524  2.1168
   37ccc     H4  950   3.403   7.779   8.720  1.2087  0.9569  0.5112
   37ccc     H5  951   3.365   7.941   8.670 -0.7919  0.1108 -1.7954
   37ccc     N2  952   3.576   7.909   8.717  0.2787 -0.8798  0.2393
   37ccc     C3  953   3.569   7.971   8.853  0.8326 -0.2115 -0.8483
   37ccc     C4  954   3.679   7.807   8.696  0.3166 -0.6625 -0.0042
   37ccc     H6  955   3.668   7.723   8.765 -1.0912  1.0355  1.8900
   37ccc     C5  956   3.806   7.881   8.711  0.1377  0.0029 -0.5369
   37ccc     H7  957   3.685   7.776   8.591  1.2993 -0.1947 -0.0955
   37ccc     H8  958   3.817   7.921   8.812 -0.8514 -2.1388  0.4268
   37ccc     H9  959   3.808   7.965   8.640  1.8738  0.9751  0.6308
   37ccc     C6  960   3.920   7.798   8.665 -0.1120 -0.6780 -0.2537
   37ccc     O1  961   4.033   7.836   8.725  0.1727 -0.0584 -0.4860
   37ccc     O2  962   3.921   7.688   8.602 -0.2194  0.2279 -0.5517
   37ccc    H10  963   3.664   8.006   8.896 -0.3946  1.1055  0.8683
   37ccc    H11  964   3.538   7.887   8.916  2.7225 -0.7979 -0.6470
   37ccc     C7  965   3.463   8.085   8.853  0.2913 -0.1554  0.2125
   37ccc    H12  966   3.363   8.042   8.853 -0.7929  2.2028 -3.0110
   37ccc    H13  967   3.482   8.145   8.763 -0.8204 -1.2238 -0.7383
   37ccc     C8  968   3.476   8.176   8.971  0.0334 -0.6808  0.5737
   37ccc     O3  969   3.575   8.201   9.039  0.1007 -0.2611 -0.2095
   37ccc     O4  970   3.362   8.184   9.031  0.2682  0.8113  0.4910
   37ccc    H14  971   4.018   7.931   8.743  2.5715  0.1715  0.4818
   37ccc    H15  972   3.298   8.147   8.968 -1.4655  0.9295  2.1322
   38ccc     N1  973   3.974   6.802   6.051  0.4627  0.0009  0.0786
   38ccc     H1  974   3.968   6.712   6.097  1.0144 -0.7017 -1.1925
   38ccc     C1  975   3.991   6.790   5.906  0.3071 -0.5856 -0.2287
   38ccc     H2  976   4.033   6.880   5.859  2.6021 -1.6560 -0.2997
   38ccc     C2  977   3.854   6.762   5.834 -0.8439  0.0567  0.3273
   38ccc     H3  978   4.068   6.715   5.885  1.5267  0.8174 -0.8806
   38ccc     H4  979   3.863   6.740   5.726 -0.6130  0.2889  0.3019
   38ccc     H5  980   3.802   6.859   5.834  0.5866  0.8290  1.1611
   38ccc     N2  981   3.768   6.657   5.892 -0.9599 -0.3156  0.4948
   38ccc     C3  982   3.838   6.522   5.907 -0.1488 -0.5816 -0.0795
   38ccc     C4  983   3.633   6.663   5.832  0.3607 -0.0681  0.8142
   38ccc     H6  984   3.640   6.630   5.728 -3.0480 -0.7318  0.7377
   38ccc     C5  985   3.538   6.566   5.902  0.3473  0.3612 -0.3490
   38ccc     H7  986   3.594   6.765   5.830  2.5048  0.7981  1.7215
   38ccc     H8  987   3.555   6.458   5.888  1.2594  0.4910 -0.2215
   38ccc     H9  988   3.527   6.594   6.008 -0.6800 -2.2413  0.2854
   38ccc     C6  989   3.395   6.574   5.857  0.2489  0.4601  0.1132
   38ccc     O1  990   3.308   6.503   5.926 -0.7733  0.3409 -0.4310
   38ccc     O2  991   3.359   6.626   5.757 -0.6269 -0.2062  0.4702
   38ccc    H10  992   3.774   6.448   5.958 -1.7481 -0.5832 -2.0098
   38ccc    H11  993   3.927   6.542   5.968 -0.9148  2.5397  0.1263
   38ccc     C7  994   3.876   6.464   5.767 -0.2139 -0.5640 -0.0458
   38ccc    H12  995   3.958   6.519   5.718  1.8344 -3.0968  0.3882
   38ccc    H13  996   3.786   6.456   5.706  0.0709 -0.9067 -0.4243
   38ccc     C8  997   3.931   6.324   5.789  0.1791 -0.3764  0.0501
   38ccc     O3  998   3.992   6.287   5.891 -0.0633  0.0989  0.0705
   38ccc     O4  999   3.890   6.243   5.696 -0.2684 -0.5552  0.0300
   38ccc    H14 1000   3.357   6.449   5.991 -0.3153  1.7400  0.4127
   38ccc    H15 1001   3.843   6.290   5.625  0.5805 -0.2182 -0.3160
   39ccc     N1 1002   3.444   6.349   6.354  0.1823  0.9054  0.1648
   39ccc     H1 1003   3.482   6.376   6.444  2.0605  0.6597 -0.5495
   39ccc     C1 1004   3.351   6.238   6.353  0.0791  0.4849 -0.0886
   39ccc     H2 1005   3.397   6.159   6.293  1.1138  1.4144 -0.5381
   39ccc     C2 1006   3.220   6.284   6.284 -0.5340  0.4782 -0.3660
   39ccc     H3 1007   3.337   6.202   6.456  0.4341  0.6553  0.0203
   39ccc     H4 1008   3.249   6.325   6.187 -1.4745  0.8121 -0.5066
   39ccc     H5 1009   3.176   6.371   6.335  2.6816  2.7450 -1.2621
   39ccc     N2 1010   3.112   6.182   6.255 -0.1575  0.7047  0.4074
   39ccc     C3 1011   3.165   6.051   6.195 -0.2878  0.0952  0.0283
   39ccc     C4 1012   3.006   6.165   6.346 -0.1247  0.2952  0.2001
   39ccc     H6 1013   2.938   6.090   6.304  1.2872  0.3755 -2.3214
   39ccc     C5 1014   2.929   6.292   6.376 -0.1025  0.2136 -0.0374
   39ccc     H7 1015   3.048   6.125   6.439 -1.1901  2.8942  1.8555
   39ccc     H8 1016   2.975   6.372   6.436  2.5247 -1.6476  0.5102
   39ccc     H9 1017   2.893   6.342   6.286 -1.6290  1.7902  1.4003
   39ccc     C6 1018   2.804   6.264   6.454 -0.0447  0.0679 -0.0924
   39ccc     O1 1019   2.827   6.225   6.580  0.5637 -0.6845 -0.0926
   39ccc     O2 1020   2.698   6.231   6.398 -0.7225  0.4361 -0.1976
   39ccc    H10 1021   3.083   5.980   6.186 -1.5331  1.3390  1.2034
   39ccc    H11 1022   3.245   6.004   6.254 -1.0563 -1.9573 -0.5456
   39ccc     C7 1023   3.217   6.073   6.057 -0.2044  0.0318 -0.1684
   39ccc    H12 1024   3.264   5.983   6.017 -0.5309 -0.0967 -0.2607
   39ccc    H13 1025   3.300   6.145   6.059 -0.6166  0.5076  0.0351
   39ccc     C8 1026   3.117   6.124   5.955 -0.4588  0.2414 -0.0570
   39ccc     O3 1027   3.112   6.083   5.841  0.6684  0.1637  0.4789
   39ccc     O4 1028   3.027   6.206   5.999  0.7421 -0.8143 -0.1085
   39ccc    H14 1029   2.924   6.223   6.591  0.9185 -1.7001 -2.8585
   39ccc    H15 1030   3.059   6.198   6.091 -1.7559  1.0498  1.0056
   40ccc     N1 1031   3.619   7.393   6.173  0.4820  0.0574  0.5103
   40ccc     H1 1032   3.573   7.462   6.115  2.7786 -0.7114 -2.4106
   40ccc     C1 1033   3.530   7.281   6.210  0.5265 -0.0202 -0.2329
   40ccc     H2 1034   3.493   7.230   6.120  1.3426 -1.1142  0.0412
   40ccc     C2 1035   3.404   7.329   6.291 -0.3148  0.4990  0.2671
   40ccc     H3 1036   3.594   7.208   6.261 -1.2541 -0.9910  0.6795
   40ccc     H4 1037   3.344   7.239   6.312  1.3796 -0.4196  1.2831
   40ccc     H5 1038   3.331   7.367   6.219 -1.5270  0.1913  1.3136
   40ccc     N2 1039   3.407   7.419   6.416 -0.2965  0.0785  0.3255
   40ccc     C3 1040   3.504   7.375   6.516  0.4451  0.7992 -0.2776
   40ccc     C4 1041   3.429   7.559   6.374  0.6125  0.0867  0.5313
   40ccc     H6 1042   3.536   7.577   6.357  0.8436 -0.0550  1.7945
   40ccc     C5 1043   3.381   7.656   6.485 -0.2522  0.2359  0.1585
   40ccc     H7 1044   3.373   7.589   6.284  0.0660 -0.5232  0.6594
   40ccc     H8 1045   3.394   7.756   6.442  3.1845 -0.6388 -0.9494
   40ccc     H9 1046   3.441   7.640   6.575 -0.0453 -0.9508 -0.1774
   40ccc     C6 1047   3.235   7.640   6.524  0.3683  0.3792 -0.1801
   40ccc     O1 1048   3.219   7.517   6.564  0.8563  0.8539 -0.5415
   40ccc     O2 1049   3.164   7.731   6.556  0.1801  0.6090  0.1295
   40ccc    H10 1050   3.507   7.444   6.602 -0.5144  1.4022 -0.7216
   40ccc    H11 1051   3.606   7.381   6.477  1.9843  0.5335  3.4944
   40ccc     C7 1052   3.461   7.239   6.574  0.4318 -0.3360  0.3451
   40ccc    H12 1053   3.469   7.159   6.499 -3.5083 -0.4343 -0.0867
   40ccc    H13 1054   3.360   7.244   6.618 -0.0198  1.5393 -0.8268
   40ccc     C8 1055   3.540   7.204   6.695 -0.5722  0.2469 -0.1909
   40ccc     O3 1056   3.641   7.260   6.731 -0.2991 -0.3106  0.2104
   40ccc     O4 1057   3.512   7.080   6.734 -0.4994 -0.1998 -0.2051
   40ccc    H14 1058   3.292   7.472   6.518 -0.0075 -0.8490 -0.2610
   40ccc    H15 1059   3.435   7.062   6.676 -1.4423  0.6149  0.7775
   41ccc     N1 1060   4.059   7.444   6.822 -0.6018  0.3948  0.1191
   41ccc     H1 1061   3.960   7.432   6.803 -0.3048 -0.5031 -0.9029
   41ccc     C1 1062   4.067   7.421   6.965  0.7879  0.0172 -0.0967
   41ccc     H2 1063   3.978   7.365   6.998  1.8986 -1.9617 -0.3359
   41ccc     C2 1064   4.082   7.555   7.033  0.6073 -0.2009  0.5869
   41ccc     H3 1065   4.150   7.354   6.992  1.9623  1.3234 -0.4196
   41ccc     H4 1066   4.018   7.551   7.121 -0.6767 -0.8386 -0.3575
   41ccc     H5 1067   4.037   7.629   6.965  0.1063  0.9314  2.1338
   41ccc     N2 1068   4.217   7.602   7.076 -0.1946  0.5058  0.9444
   41ccc     C3 1069   4.304   7.652   6.961 -0.6687 -0.2497  0.1776
   41ccc     C4 1070   4.298   7.498   7.148  0.0711  0.0441  0.2203
   41ccc     H6 1071   4.323   7.413   7.083  0.7961 -0.0029  0.5632
   41ccc     C5 1072   4.236   7.451   7.278  0.6218 -0.5657  0.1516
   41ccc     H7 1073   4.392   7.549   7.172  1.1368 -1.3253 -0.9557
   41ccc     H8 1074   4.184   7.538   7.321 -1.0173  0.2450 -3.3015
   41ccc     H9 1075   4.166   7.367   7.276  0.7650 -0.6747 -0.1147
   41ccc     C6 1076   4.327   7.413   7.381 -0.4548  0.0794 -0.6439
   41ccc     O1 1077   4.258   7.358   7.483  0.0388  0.1884 -0.0304
   41ccc     O2 1078   4.448   7.394   7.368  0.4669  0.4120 -0.0535
   41ccc    H10 1079   4.389   7.698   7.013  1.4179 -0.0082 -3.2770
   41ccc    H11 1080   4.347   7.564   6.911  1.2653  1.3213 -0.9950
   41ccc     C7 1081   4.243   7.753   6.870 -1.1663  0.6805  0.4235
   41ccc    H12 1082   4.153   7.709   6.825 -1.3903 -1.3218  2.7791
   41ccc    H13 1083   4.204   7.836   6.931 -0.8285  0.9813  0.2320
   41ccc     C8 1084   4.340   7.813   6.768  0.2622  0.0272 -0.7006
   41ccc     O3 1085   4.457   7.824   6.784  0.6432  0.3916  0.0911
   41ccc     O4 1086   4.303   7.801   6.640  0.6614  0.0781  0.0108
   41ccc    H14 1087   4.172   7.401   7.469  0.1053 -0.0169 -1.1421
   41ccc    H15 1088   4.211   7.832   6.645  0.6133 -0.0184 -0.2584
   42ccc     N1 1089   3.685   6.238   7.262 -0.2383 -0.2232 -0.0739
   42ccc     H1 1090   3.714   6.298   7.338 -0.0554 -1.2348  0.6658
   42ccc     C1 1091   3.585   6.137   7.295 -0.0664 -0.5442  0.2208
   42ccc     H2 1092   3.523   6.116   7.208 -0.0884 -1.0048  0.3479
   42ccc     C2 1093   3.499   6.166   7.422 -0.0881  0.5303  0.7217
   42ccc     H3 1094   3.641   6.048   7.325  1.9150  0.9940  1.2814
   42ccc     H4 1095   3.434   6.079   7.437  1.6522 -0.5770  2.0869
   42ccc     H5 1096   3.563   6.166   7.511  1.7023  0.8607 -0.5371
   42ccc     N2 1097   3.423   6.290   7.415 -0.4259 -0.5555  0.5979
   42ccc     C3 1098   3.338   6.329   7.527 -0.2068 -0.5960 -0.7114
   42ccc     C4 1099   3.362   6.332   7.284 -0.9733  0.1356  0.9637
   42ccc     H6 1100   3.442   6.347   7.210 -0.9936 -2.0490  0.4680
   42ccc     C5 1101   3.253   6.242   7.230  0.5534  0.4592  0.1822
   42ccc     H7 1102   3.321   6.433   7.298 -0.6414  0.5948 -1.2689
   42ccc     H8 1103   3.158   6.259   7.283  0.1710  1.2454 -0.7439
   42ccc     H9 1104   3.285   6.137   7.240 -0.8701 -0.0865 -0.8326
   42ccc     C6 1105   3.227   6.261   7.083  0.6518  0.5341 -0.8941
   42ccc     O1 1106   3.095   6.255   7.057  0.7899 -0.4097  0.5179
   42ccc     O2 1107   3.286   6.337   7.012 -0.2240 -0.7130  0.1094
   42ccc    H10 1108   3.234   6.297   7.512 -0.4751  0.4108 -1.0349
   42ccc    H11 1109   3.348   6.438   7.525  2.6667 -0.8409 -1.5685
   42ccc     C7 1110   3.395   6.276   7.661  0.3919 -0.0458  0.0780
   42ccc    H12 1111   3.381   6.169   7.678  0.0762 -0.5352 -3.0432
   42ccc    H13 1112   3.500   6.305   7.678 -0.1826  0.9544  2.1738
   42ccc     C8 1113   3.328   6.353   7.781  0.3266  0.0871  0.1205
   42ccc     O3 1114   3.374   6.466   7.798  0.4838  0.3054 -0.0072
   42ccc     O4 1115   3.328   6.282   7.891 -0.2000  0.2421  0.2041
   42ccc    H14 1116   3.059   6.190   7.119 -1.0753  0.9129  0.8780
   42ccc    H15 1117   3.288   6.201   7.856 -1.0708 -0.0574  1.8492
   43ccc     N1 1118   3.572   6.961   7.028 -0.3493 -0.5597  0.2774
   43ccc     H1 1119   3.613   6.932   6.940 -0.1848 -0.5633  0.3552
   43ccc     C1 1120   3.427   6.977   7.029 -0.2803  0.3907  0.2604
   43ccc     H2 1121   3.376   6.976   7.126  1.1421 -0.1224  1.0126
   43ccc     C2 1122   3.358   6.876   6.938  0.3387  0.1529 -0.1558
   43ccc     H3 1123   3.416   7.078   6.986 -0.3154  0.5330  0.5983
   43ccc     H4 1124   3.410   6.881   6.842  1.1634  1.2292  0.3288
   43ccc     H5 1125   3.258   6.917   6.918  0.6730  1.5308  0.8785
   43ccc     N2 1126   3.349   6.739   6.983  0.1699  0.5160 -0.4584
   43ccc     C3 1127   3.326   6.717   7.128 -0.0915  0.1844  0.1646
   43ccc     C4 1128   3.318   6.635   6.881 -0.0860 -0.2235 -0.7336
   43ccc     H6 1129   3.254   6.564   6.934 -1.2946  0.6603 -0.9799
   43ccc     C5 1130   3.441   6.556   6.832 -0.0147 -0.1511 -0.5867
   43ccc     H7 1131   3.265   6.690   6.802 -1.5081  2.2353  1.8503
   43ccc     H8 1132   3.506   6.636   6.793  1.2932 -0.8015  0.2312
   43ccc     H9 1133   3.491   6.503   6.914 -0.7767  0.6404  0.3998
   43ccc     C6 1134   3.404   6.455   6.721 -0.4300  0.2887 -1.3557
   43ccc     O1 1135   3.298   6.384   6.748 -0.1695  0.5427  0.0615
   43ccc     O2 1136   3.426   6.482   6.605 -0.4309  0.3614 -0.3435
   43ccc    H10 1137   3.402   6.768   7.187 -0.4767  1.0971 -0.1280
   43ccc    H11 1138   3.344   6.610   7.147 -0.8844  0.0355  0.0976
   43ccc     C7 1139   3.184   6.747   7.171 -0.1124 -0.0902 -0.1345
   43ccc    H12 1140   3.110   6.687   7.117  0.3538  0.3483 -1.2848
   43ccc    H13 1141   3.158   6.853   7.160  0.5844 -0.0322 -1.2852
   43ccc     C8 1142   3.166   6.733   7.317 -0.2455  1.0742  0.4542
   43ccc     O3 1143   3.248   6.686   7.388 -0.6648 -0.5852 -0.2792
   43ccc     O4 1144   3.050   6.779   7.364  0.4043  0.1071  0.2429
   43ccc    H14 1145   3.296   6.391   6.845 -3.2292  1.4773  0.0076
   43ccc    H15 1146   2.992   6.815   7.294 -0.3292  1.1718  1.3693
   44ccc     N1 1147   3.757   6.214   6.605  0.3285  0.0145  0.0894
   44ccc     H1 1148   3.790   6.128   6.648  0.8649  0.6134  0.8971
   44ccc     C1 1149   3.705   6.189   6.468  0.4100  0.0844  0.2562
   44ccc     H2 1150   3.613   6.134   6.488  1.1790 -1.3213 -0.0160
   44ccc     C2 1151   3.795   6.100   6.381  0.1660 -0.1351 -0.2424
   44ccc     H3 1152   3.687   6.288   6.422  1.5401  0.7555  1.2198
   44ccc     H4 1153   3.745   6.080   6.285  0.5586 -2.1905 -0.0379
   44ccc     H5 1154   3.802   6.004   6.433 -2.0976 -0.5806 -0.6716
   44ccc     N2 1155   3.932   6.165   6.358 -0.4113  0.2777 -0.3826
   44ccc     C3 1156   3.921   6.293   6.285  0.1686  0.1043  0.8770
   44ccc     C4 1157   4.022   6.068   6.291 -0.1196 -0.5926  0.4805
   44ccc     H6 1158   3.973   6.029   6.201 -0.0261  0.2694  0.0478
   44ccc     C5 1159   4.052   5.956   6.387  0.0140  0.1165 -0.5251
   44ccc     H7 1160   4.119   6.108   6.259 -0.7574  0.3425 -0.3128
   44ccc     H8 1161   3.960   5.896   6.393 -0.3477  0.8297  1.3872
   44ccc     H9 1162   4.083   5.995   6.485  0.4729  0.9796 -1.0114
   44ccc     C6 1163   4.161   5.861   6.337 -0.4352  0.1723  0.5115
   44ccc     O1 1164   4.199   5.784   6.441 -0.4021  0.2624 -0.5360
   44ccc     O2 1165   4.188   5.822   6.224  0.0128  0.3827  0.2378
   44ccc    H10 1166   3.869   6.289   6.188 -1.3284 -1.2348  1.7001
   44ccc    H11 1167   3.868   6.361   6.353 -2.3223 -1.1960  0.3170
   44ccc     C7 1168   4.067   6.349   6.259 -0.0053  0.3927 -0.3580
   44ccc    H12 1169   4.106   6.305   6.167 -2.3457 -0.4499 -0.9750
   44ccc    H13 1170   4.124   6.329   6.351  0.4105  0.9097 -0.4976
   44ccc     C8 1171   4.063   6.496   6.249  0.7962  0.3020 -0.6390
   44ccc     O3 1172   3.974   6.555   6.181 -0.9730 -1.0205 -0.6101
   44ccc     O4 1173   4.190   6.551   6.264  0.4040 -0.2883  0.7554
   44ccc    H14 1174   4.284   5.756   6.402 -0.1543 -2.7221  1.9259
   44ccc    H15 1175   4.244   6.472   6.277  1.0482 -0.0130 -0.2016
   45ccc     N1 1176   4.259   6.178   7.195  0.2616  0.0804  0.0345
   45ccc     H1 1177   4.278   6.277   7.190  0.6340  0.1097  1.8487
   45ccc     C1 1178   4.239   6.120   7.328 -0.8756 -0.0244 -0.4160
   45ccc     H2 1179   4.244   6.205   7.398 -0.7582  1.6831 -2.4351
   45ccc     C2 1180   4.347   6.009   7.362  0.0748 -0.1936  0.4692
   45ccc     H3 1181   4.139   6.074   7.334  0.0214 -1.9596 -0.2632
   45ccc     H4 1182   4.316   5.926   7.297  0.2498  0.0423  0.0812
   45ccc     H5 1183   4.323   5.982   7.466 -0.7905 -2.2395 -0.2249
   45ccc     N2 1184   4.493   6.046   7.345 -0.3689 -0.1964  0.9141
   45ccc     C3 1185   4.572   5.943   7.412 -0.2979  0.3281 -0.5984
   45ccc     C4 1186   4.528   6.184   7.397  0.2730  0.2786  0.1670
   45ccc     H6 1187   4.448   6.259   7.391 -1.4522 -1.4181  1.0312
   45ccc     C5 1188   4.651   6.239   7.322  0.8641 -0.0754  0.2778
   45ccc     H7 1189   4.554   6.176   7.503  0.3466 -2.2499 -0.0214
   45ccc     H8 1190   4.634   6.242   7.214  0.1996 -0.0822  0.3777
   45ccc     H9 1191   4.739   6.177   7.344  0.6557 -0.7687 -0.8328
   45ccc     C6 1192   4.688   6.373   7.370 -0.1666 -0.7537  0.2617
   45ccc     O1 1193   4.804   6.417   7.328 -0.7420  0.4276  0.1214
   45ccc     O2 1194   4.621   6.444   7.437 -0.9898  0.0527  0.4046
   45ccc    H10 1195   4.536   5.943   7.515 -0.9153  0.0285 -0.8063
   45ccc    H11 1196   4.679   5.962   7.395  0.3508 -0.4578  2.3520
   45ccc     C7 1197   4.549   5.807   7.355 -0.2652 -0.4708 -0.4718
   45ccc    H12 1198   4.451   5.769   7.389 -0.9509 -0.5028 -2.4143
   45ccc    H13 1199   4.555   5.809   7.246  2.7558  3.2699 -0.3550
   45ccc     C8 1200   4.659   5.713   7.408 -0.3599 -0.5169 -0.5631
   45ccc     O3 1201   4.657   5.659   7.511  0.2928  0.1086  0.7372
   45ccc     O4 1202   4.781   5.731   7.348 -0.5542 -0.3237 -0.2226
   45ccc    H14 1203   4.793   6.500   7.378 -2.8586  3.2040 -4.5612
   45ccc    H15 1204   4.754   5.799   7.283  0.3137  0.2043 -0.0415
   46ccc     N1 1205   5.342   6.719   8.423  0.0408 -0.5954 -0.4033
   46ccc     H1 1206   5.323   6.810   8.381  2.9444  0.0261 -0.4522
   46ccc     C1 1207   5.449   6.648   8.368 -0.3392 -0.3302  0.7456
   46ccc     H2 1208   5.420   6.542   8.367  1.8891 -0.9676 -0.8335
   46ccc     C2 1209   5.579   6.659   8.444 -0.8524  0.3300  0.1552
   46ccc     H3 1210   5.468   6.688   8.267 -0.3079 -1.9858  0.0871
   46ccc     H4 1211   5.665   6.634   8.380 -0.9734  1.4948 -0.4808
   46ccc     H5 1212   5.583   6.580   8.520 -0.2015  2.4507  2.3889
   46ccc     N2 1213   5.623   6.789   8.509  0.4217  0.2937  0.1721
   46ccc     C3 1214   5.614   6.904   8.412  0.3680 -0.3378  0.6253
   46ccc     C4 1215   5.575   6.824   8.644  0.1060 -0.5520 -0.1574
   46ccc     H6 1216   5.471   6.857   8.641 -0.3862 -2.1844 -3.2694
   46ccc     C5 1217   5.592   6.710   8.751 -0.0266 -0.7635  0.4688
   46ccc     H7 1218   5.637   6.910   8.673  0.5602 -0.3031 -1.7951
   46ccc     H8 1219   5.517   6.632   8.734  0.8671 -1.4074 -0.5422
   46ccc     H9 1220   5.692   6.668   8.734 -0.4690 -0.9813 -1.7692
   46ccc     C6 1221   5.575   6.760   8.888  0.4568 -0.4694 -0.1623
   46ccc     O1 1222   5.645   6.703   8.984 -0.5008 -0.0861  0.2490
   46ccc     O2 1223   5.489   6.839   8.917  0.1576  0.3373 -0.4140
   46ccc    H10 1224   5.643   6.996   8.463 -0.5571  1.9962 -2.9066
   46ccc    H11 1225   5.507   6.918   8.393  0.5462  0.3813  0.1407
   46ccc     C7 1226   5.691   6.887   8.280 -0.6472 -0.8232 -0.4506
   46ccc    H12 1227   5.648   6.816   8.208  1.4432 -0.9661 -1.5943
   46ccc    H13 1228   5.789   6.847   8.308  0.4361  1.8141 -0.3333
   46ccc     C8 1229   5.715   7.015   8.196 -0.7866 -0.5508  0.0930
   46ccc     O3 1230   5.645   7.116   8.202 -0.3862  0.3127  0.0129
   46ccc     O4 1231   5.803   7.005   8.089  0.0615  0.0738  0.3163
   46ccc    H14 1232   5.680   6.624   8.938  0.0763  0.9054 -1.0320
   46ccc    H15 1233   5.846   6.918   8.097  3.3711  1.7338  1.1619
   47ccc     N1 1234   4.677   6.773   8.960 -0.0470 -0.0203  0.1003
   47ccc     H1 1235   4.741   6.815   9.025 -1.3722 -0.4366  1.7201
   47ccc     C1 1236   4.559   6.702   9.017  0.5076  0.2049  0.2367
   47ccc     H2 1237   4.510   6.647   8.936  0.8816  0.2725 -0.0407
   47ccc     C2 1238   4.463   6.805   9.081  0.3714 -0.0980 -0.4718
   47ccc     H3 1239   4.596   6.622   9.083 -0.5963  0.0641  0.6825
   47ccc     H4 1240   4.427   6.850   8.987 -0.7824 -3.1220 -1.5166
   47ccc     H5 1241   4.518   6.874   9.147 -1.0773 -0.8026  1.5014
   47ccc     N2 1242   4.347   6.741   9.141  0.5941 -0.6138 -0.1401
   47ccc     C3 1243   4.385   6.722   9.281 -0.1163 -0.5529  0.2379
   47ccc     C4 1244   4.216   6.815   9.130 -1.0959  0.9429  0.4918
   47ccc     H6 1245   4.143   6.772   9.200 -1.4396 -0.5679 -0.7759
   47ccc     C5 1246   4.156   6.806   8.994  0.6582  0.8374  0.1187
   47ccc     H7 1247   4.225   6.921   9.158 -1.3361  1.5108 -1.5334
   47ccc     H8 1248   4.161   6.703   8.957  0.6607  0.4054  1.2965
   47ccc     H9 1249   4.217   6.879   8.938 -0.0918 -0.1567 -2.0474
   47ccc     C6 1250   4.007   6.852   9.003  0.2067  0.3701 -0.3651
   47ccc     O1 1251   3.950   6.842   8.879  0.2193 -0.0534 -0.2030
   47ccc     O2 1252   3.938   6.857   9.103  0.0474  0.1404 -0.1252
   47ccc    H10 1253   4.387   6.821   9.328 -2.1507  0.7335 -2.2329
   47ccc    H11 1254   4.482   6.670   9.283 -0.5505 -1.4612 -1.0598
   47ccc     C7 1255   4.291   6.627   9.363  0.3108 -0.9176  0.1472
   47ccc    H12 1256   4.256   6.549   9.294 -3.8184  1.6038 -0.8284
   47ccc    H13 1257   4.195   6.669   9.396  0.5991  0.0036 -0.1766
   47ccc     C8 1258   4.341   6.570   9.498  0.0444 -0.1850 -0.0465
   47ccc     O3 1259   4.374   6.642   9.585 -0.4393 -0.2253  0.2050
   47ccc     O4 1260   4.392   6.443   9.487  0.3749 -0.2195 -0.5563
   47ccc    H14 1261   4.034   6.825   8.834  0.5076  2.8965 -0.8863
   47ccc    H15 1262   4.345   6.410   9.409 -3.4233  0.6829  1.2151
   48ccc     N1 1263   4.420   6.068   8.577 -0.0533 -0.2106 -1.0047
   48ccc     H1 1264   4.498   6.051   8.514  0.2259 -1.2506 -0.3938
   48ccc     C1 1265   4.407   5.997   8.703 -0.4551 -0.1980 -0.7809
   48ccc     H2 1266   4.477   6.042   8.774  0.1588 -0.5807 -1.1441
   48ccc     C2 1267   4.449   5.850   8.674 -0.0873 -1.0907  0.4614
   48ccc     H3 1268   4.301   6.010   8.731 -0.4412 -0.7426 -0.4550
   48ccc     H4 1269   4.430   5.791   8.765 -1.4776  0.1101  0.9683
   48ccc     H5 1270   4.557   5.847   8.654 -0.0750  0.1470  0.2935
   48ccc     N2 1271   4.357   5.780   8.574  0.1806 -0.1245  0.3063
   48ccc     C3 1272   4.426   5.665   8.513  0.2516  0.5642  0.0651
   48ccc     C4 1273   4.231   5.756   8.647 -0.2108  0.0511 -0.5159
   48ccc     H6 1274   4.246   5.680   8.725  0.3676  0.3392 -0.3451
   48ccc     C5 1275   4.125   5.685   8.558  0.4746 -0.2989  0.3435
   48ccc     H7 1276   4.195   5.844   8.701 -0.5178  0.1989 -0.9567
   48ccc     H8 1277   4.154   5.581   8.540  0.3930 -0.8511  3.1776
   48ccc     H9 1278   4.116   5.736   8.461 -0.6153 -1.3624 -0.1349
   48ccc     C6 1279   3.983   5.697   8.602  0.8272 -0.6115 -0.0405
   48ccc     O1 1280   3.896   5.707   8.506 -0.0140 -0.0830 -0.2007
   48ccc     O2 1281   3.947   5.731   8.714 -0.2383 -0.8087 -0.2177
   48ccc    H10 1282   4.360   5.592   8.465  0.9161  0.5473 -0.8297
   48ccc    H11 1283   4.482   5.614   8.593  0.1240  1.3342  0.6562
   48ccc     C7 1284   4.527   5.716   8.409  0.2067  0.0919 -0.0108
   48ccc    H12 1285   4.591   5.792   8.456 -1.9268  2.4033 -0.7415
   48ccc    H13 1286   4.482   5.774   8.328  1.8749 -0.8914 -1.6925
   48ccc     C8 1287   4.610   5.618   8.337 -0.6408 -0.9191 -0.1654
   48ccc     O3 1288   4.573   5.508   8.315 -0.3822  0.1270  0.1983
   48ccc     O4 1289   4.704   5.669   8.258  0.4238  0.0442 -0.1510
   48ccc    H14 1290   3.942   5.689   8.422  0.5820 -0.8624  0.2949
   48ccc    H15 1291   4.670   5.759   8.274 -1.4069 -0.5166 -0.6873
   49ccc     N1 1292   4.592   6.394   7.968 -0.4679  0.0871 -0.2488
   49ccc     H1 1293   4.689   6.402   7.938 -0.7683  0.1160 -1.2280
   49ccc     C1 1294   4.515   6.279   7.930  0.2725 -0.1876 -0.3998
   49ccc     H2 1295   4.541   6.197   7.998  0.5154  0.2926  0.0891
   49ccc     C2 1296   4.517   6.236   7.779 -0.1625 -0.7170  0.0134
   49ccc     H3 1297   4.417   6.320   7.955  0.7743 -0.2742  1.7549
   49ccc     H4 1298   4.582   6.149   7.767  1.5389  0.0356  3.0818
   49ccc     H5 1299   4.578   6.315   7.733 -0.6751 -0.0758  0.4347
   49ccc     N2 1300   4.379   6.220   7.712  0.0441  0.6230 -0.0882
   49ccc     C3 1301   4.283   6.333   7.704 -0.3654  0.0452  0.4740
   49ccc     C4 1302   4.312   6.091   7.732  0.2841  0.3809 -0.0508
   49ccc     H6 1303   4.231   6.080   7.659 -0.9067  1.7415  1.0208
   49ccc     C5 1304   4.244   6.082   7.871  0.0828  0.6148 -0.0804
   49ccc     H7 1305   4.389   6.013   7.730 -1.1764 -1.0636 -3.5292
   49ccc     H8 1306   4.150   6.139   7.870  0.0433  0.5651 -2.6617
   49ccc     H9 1307   4.304   6.106   7.960 -1.4221 -0.2849  1.2189
   49ccc     C6 1308   4.203   5.938   7.899  0.5533 -1.0714  0.0626
   49ccc     O1 1309   4.164   5.928   8.025 -0.2937 -0.0013 -0.5513
   49ccc     O2 1310   4.252   5.844   7.840 -0.1221  0.2830  0.0325
   49ccc    H10 1311   4.231   6.348   7.800  1.8061  1.6233  1.4630
   49ccc    H11 1312   4.209   6.306   7.628  1.4614  1.4996 -1.8739
   49ccc     C7 1313   4.342   6.467   7.669  0.3478  0.2150  0.4924
   49ccc    H12 1314   4.406   6.508   7.749  0.8591  0.9360 -0.2675
   49ccc    H13 1315   4.406   6.467   7.579 -1.2125  1.7858 -0.6480
   49ccc     C8 1316   4.241   6.573   7.647 -0.3919 -0.0003  0.0893
   49ccc     O3 1317   4.127   6.560   7.672 -0.0217  0.0852 -0.6959
   49ccc     O4 1318   4.286   6.678   7.576  0.0910  0.3604  0.0412
   49ccc    H14 1319   4.139   6.020   8.043  0.9587  0.0508  1.0205
   49ccc    H15 1320   4.380   6.653   7.574 -0.3614 -1.4403  0.4121
   50ccc     N1 1321   3.626   6.929   8.531  0.1321  1.1131 -0.1257
   50ccc     H1 1322   3.581   6.990   8.598 -0.7641 -0.0494  0.3574
   50ccc     C1 1323   3.768   6.938   8.523  0.0047 -0.0782  0.4579
   50ccc     H2 1324   3.815   6.850   8.568 -1.2192  0.6029  3.1358
   50ccc     C2 1325   3.835   7.066   8.588  0.1876  0.3929  0.3601
   50ccc     H3 1326   3.802   6.945   8.419  0.5448  1.8087  0.7371
   50ccc     H4 1327   3.940   7.044   8.567 -0.2682 -1.2760 -0.2067
   50ccc     H5 1328   3.815   7.059   8.696  0.2658  0.5014  0.3814
   50ccc     N2 1329   3.784   7.199   8.529  0.4304  0.2647 -0.1567
   50ccc     C3 1330   3.838   7.313   8.606  0.9690 -0.7528 -0.1851
   50ccc     C4 1331   3.803   7.212   8.385  0.2165 -0.5818 -0.0376
   50ccc     H6 1332   3.759   7.120   8.345 -0.0802  0.0120 -1.1037
   50ccc     C5 1333   3.949   7.196   8.352  0.4021 -0.4680 -0.4588
   50ccc     H7 1334   3.775   7.310   8.344  1.8982  0.0793  0.3620
   50ccc     H8 1335   3.976   7.089   8.355 -1.9947 -1.1005  0.4362
   50ccc     H9 1336   4.008   7.256   8.422  0.2819  1.1691 -1.7453
   50ccc     C6 1337   3.982   7.237   8.206  0.2059 -0.2150 -0.0382
   50ccc     O1 1338   4.108   7.228   8.178  0.1256 -0.5557 -0.2268
   50ccc     O2 1339   3.897   7.283   8.128  0.1275 -0.3613 -0.1190
   50ccc    H10 1340   3.834   7.401   8.541  0.2297 -1.0695 -0.5815
   50ccc    H11 1341   3.945   7.293   8.619  0.6814 -1.5214  1.0577
   50ccc     C7 1342   3.755   7.339   8.736  0.8146  0.2213 -0.7117
   50ccc    H12 1343   3.797   7.420   8.795  1.0559 -0.8386  0.5946
   50ccc    H13 1344   3.743   7.252   8.802  0.3941  1.7581  1.2637
   50ccc     C8 1345   3.611   7.388   8.714 -0.1408  0.1915 -0.1999
   50ccc     O3 1346   3.559   7.478   8.774  0.4252 -0.1688 -0.3426
   50ccc     O4 1347   3.553   7.354   8.602 -0.0279 -0.2454  0.4173
   50ccc    H14 1348   4.155   7.229   8.263  0.7689  0.6272 -0.5729
   50ccc    H15 1349   3.626   7.294   8.577  0.8226  1.0673 -0.3108
   51ccc     N1 1350   2.983   6.652   8.085  0.3058 -0.2129 -0.3101
   51ccc     H1 1351   3.060   6.678   8.024  0.3228  2.6650  0.8774
   51ccc     C1 1352   2.845   6.652   8.018  0.1021  0.2190 -0.4600
   51ccc     H2 1353   2.839   6.550   7.978  1.3240  0.2162 -0.6699
   51ccc     C2 1354   2.834   6.771   7.923 -0.6083 -0.7700 -0.1845
   51ccc     H3 1355   2.770   6.657   8.098 -0.1872  0.1827 -0.7277
   51ccc     H4 1356   2.828   6.871   7.967 -2.5114 -0.8206 -0.2691
   51ccc     H5 1357   2.741   6.765   7.865 -0.6297  1.6023 -0.4526
   51ccc     N2 1358   2.940   6.787   7.816  0.1552 -0.6124  0.4806
   51ccc     C3 1359   2.985   6.670   7.743 -0.5685  0.0521 -0.0989
   51ccc     C4 1360   2.917   6.911   7.733 -0.2084  0.2825 -0.6586
   51ccc     H6 1361   2.880   6.990   7.800  2.0382  0.3157  0.6023
   51ccc     C5 1362   3.045   6.955   7.659  0.3646 -0.4303 -0.8693
   51ccc     H7 1363   2.839   6.904   7.656  1.5354 -0.7590 -2.3862
   51ccc     H8 1364   3.065   6.871   7.591 -1.8883 -1.6700 -0.0384
   51ccc     H9 1365   3.123   6.972   7.734 -0.9460  1.8806  0.0298
   51ccc     C6 1366   3.022   7.079   7.586 -0.4663 -1.0436  0.2353
   51ccc     O1 1367   3.132   7.131   7.528  1.2009 -0.1497  0.0360
   51ccc     O2 1368   2.914   7.134   7.566  0.0047 -0.2703 -0.3469
   51ccc    H10 1369   3.014   6.587   7.809  1.7184  1.0295  0.1861
   51ccc    H11 1370   3.071   6.689   7.678  0.1629 -0.0985  0.8067
   51ccc     C7 1371   2.879   6.617   7.649  0.1919  0.7334 -0.4737
   51ccc    H12 1372   2.789   6.578   7.698  1.3276 -0.4731  0.7263
   51ccc    H13 1373   2.845   6.693   7.578 -0.9549  1.6372  1.0281
   51ccc     C8 1374   2.936   6.506   7.567 -0.7554  0.9330  1.1440
   51ccc     O3 1375   3.024   6.438   7.610  0.4134  0.1651 -0.4447
   51ccc     O4 1376   2.848   6.441   7.497 -0.4586  0.2838  0.0957
   51ccc    H14 1377   3.198   7.060   7.532  2.1378  0.6814 -0.5511
   51ccc    H15 1378   2.778   6.508   7.494 -1.0719 -0.3804 -0.6029
   52ccc     N1 1379   4.360   7.907   7.844  0.1287  0.7715  0.1965
   52ccc     H1 1380   4.261   7.894   7.827 -0.0977  1.3572  1.0260
   52ccc     C1 1381   4.444   7.922   7.727 -0.0501 -0.2873 -0.1369
   52ccc     H2 1382   4.543   7.892   7.763  1.1738 -0.2364 -3.3237
   52ccc     C2 1383   4.432   8.063   7.657 -0.1184 -0.2253 -0.4011
   52ccc     H3 1384   4.408   7.841   7.661  0.4778 -0.5649 -0.0821
   52ccc     H4 1385   4.336   8.071   7.604 -0.7879 -0.2603  0.7963
   52ccc     H5 1386   4.499   8.065   7.571  0.5142  1.9035  0.1060
   52ccc     N2 1387   4.464   8.181   7.741 -0.4651  0.2011 -0.1375
   52ccc     C3 1388   4.606   8.177   7.772  0.3897 -0.0007 -0.4183
   52ccc     C4 1389   4.422   8.306   7.671  0.4541 -0.0416 -0.6897
   52ccc     H6 1390   4.466   8.398   7.713  3.1021 -0.6073 -2.0910
   52ccc     C5 1391   4.267   8.322   7.679  0.6801 -0.2944 -0.5204
   52ccc     H7 1392   4.450   8.295   7.566  1.8310  2.2628 -0.5958
   52ccc     H8 1393   4.248   8.411   7.619  0.7615 -0.3063 -0.5632
   52ccc     H9 1394   4.204   8.243   7.636  1.4150 -1.1132 -0.1325
   52ccc     C6 1395   4.233   8.354   7.819  0.5620 -0.2605 -0.0543
   52ccc     O1 1396   4.240   8.246   7.901 -0.1877  0.3303  0.3444
   52ccc     O2 1397   4.188   8.458   7.861 -0.1070  0.5154  0.2068
   52ccc    H10 1398   4.660   8.224   7.689  0.5079  0.9858  0.2057
   52ccc    H11 1399   4.650   8.079   7.793  0.0338 -0.2112 -0.6569
   52ccc     C7 1400   4.625   8.280   7.885 -0.4308 -0.3922 -0.2371
   52ccc    H12 1401   4.574   8.258   7.980 -0.4711 -0.0600 -0.1794
   52ccc    H13 1402   4.607   8.383   7.852 -1.8332  0.4068  2.8153
   52ccc     C8 1403   4.773   8.295   7.930  0.4099 -0.1177  0.6669
   52ccc     O3 1404   4.854   8.224   7.881 -0.2638  0.0061  0.4608
   52ccc     O4 1405   4.792   8.330   8.062  0.3348 -0.0515 -0.1923
   52ccc    H14 1406   4.301   8.189   7.853 -1.5010  0.0485 -1.0359
   52ccc    H15 1407   4.707   8.375   8.074  1.0217  0.9105  1.2494
   53ccc     N1 1408   4.543   7.907   8.661  0.0849 -0.4113  0.1888
   53ccc     H1 1409   4.537   7.815   8.619  4.5988 -0.2549 -1.0443
   53ccc     C1 1410   4.677   7.953   8.684 -0.0507  0.1480 -0.0781
   53ccc     H2 1411   4.674   8.062   8.699 -2.4608  0.4215 -2.2084
   53ccc     C2 1412   4.774   7.913   8.570 -0.9025  0.1937  0.2202
   53ccc     H3 1413   4.707   7.906   8.778 -3.1236 -2.7421 -0.4697
   53ccc     H4 1414   4.783   7.804   8.580 -0.0740  0.1250 -1.0833
   53ccc     H5 1415   4.875   7.955   8.578  1.0736 -3.9354 -1.3266
   53ccc     N2 1416   4.719   7.945   8.434 -0.5560  0.0377  0.5929
   53ccc     C3 1417   4.697   8.096   8.406 -0.5169 -0.0520 -0.2150
   53ccc     C4 1418   4.798   7.876   8.326 -0.0434  0.1841 -0.8850
   53ccc     H6 1419   4.901   7.909   8.308  0.0180 -0.3356 -1.5024
   53ccc     C5 1420   4.711   7.860   8.199 -0.2674 -0.2457  0.2594
   53ccc     H7 1421   4.813   7.773   8.360  2.1353  0.8705  0.3280
   53ccc     H8 1422   4.690   7.956   8.150 -0.2884  0.3748  1.4788
   53ccc     H9 1423   4.615   7.816   8.228 -1.0443 -0.0724 -1.9828
   53ccc     C6 1424   4.772   7.763   8.105 -0.5139  1.0237  0.1078
   53ccc     O1 1425   4.713   7.772   7.986 -0.0372  0.0124 -0.4150
   53ccc     O2 1426   4.865   7.689   8.118  0.0301 -0.8141  0.3393
   53ccc    H10 1427   4.618   8.136   8.470 -1.7299  1.8977 -2.7969
   53ccc    H11 1428   4.658   8.112   8.304 -1.2639  0.4521  0.1464
   53ccc     C7 1429   4.821   8.185   8.430 -0.4485  0.2327 -0.4902
   53ccc    H12 1430   4.902   8.161   8.361  0.0046 -1.3074  0.5715
   53ccc    H13 1431   4.856   8.180   8.533  1.2838  0.6570 -1.0415
   53ccc     C8 1432   4.785   8.327   8.415  0.3135 -0.4153 -0.1859
   53ccc     O3 1433   4.667   8.361   8.429 -0.0915  0.1587  0.1712
   53ccc     O4 1434   4.879   8.421   8.430 -0.4590  0.5870  0.3720
   53ccc    H14 1435   4.651   7.844   8.006  0.2794  0.5872 -1.4685
   53ccc    H15 1436   4.961   8.371   8.445  0.5026  1.5530 -1.4735
   54ccc     N1 1437   5.323   6.171   9.206  0.2686  0.1436 -0.2452
   54ccc     H1 1438   5.420   6.141   9.210 -0.3832 -1.7368  2.5934
   54ccc     C1 1439   5.283   6.271   9.298  0.4554  0.0492 -0.9027
   54ccc     H2 1440   5.326   6.237   9.394 -2.8084  0.9587  0.9580
   54ccc     C2 1441   5.317   6.419   9.258 -0.2178 -0.2952 -0.1717
   54ccc     H3 1442   5.175   6.261   9.315  0.1142  0.2870 -2.8221
   54ccc     H4 1443   5.418   6.427   9.216 -0.6544 -1.6062 -1.5523
   54ccc     H5 1444   5.334   6.477   9.349 -0.5967 -0.0503 -0.2531
   54ccc     N2 1445   5.213   6.483   9.180  0.4610  0.2435 -0.1007
   54ccc     C3 1446   5.276   6.551   9.062  0.0691 -0.5028  0.2549
   54ccc     C4 1447   5.135   6.581   9.260 -0.3392 -0.2055  0.4209
   54ccc     H6 1448   5.139   6.549   9.365  0.6004  0.6211  0.6451
   54ccc     C5 1449   4.995   6.609   9.196  0.0628 -0.1594 -0.5506
   54ccc     H7 1450   5.170   6.684   9.275 -1.6293 -0.0987  2.9711
   54ccc     H8 1451   4.994   6.638   9.090  0.7076  1.1059 -0.2160
   54ccc     H9 1452   4.958   6.696   9.252 -1.1447 -0.5109 -0.7800
   54ccc     C6 1453   4.900   6.499   9.223 -0.2304 -0.4825  1.0066
   54ccc     O1 1454   4.877   6.423   9.116 -0.6023 -0.5503  0.0699
   54ccc     O2 1455   4.884   6.447   9.331 -0.4581 -0.6559 -0.4440
   54ccc    H10 1456   5.371   6.591   9.098  1.3059 -1.0427 -2.3026
   54ccc    H11 1457   5.219   6.634   9.021 -0.4559 -2.5158 -3.2611
   54ccc     C7 1458   5.290   6.450   8.946 -0.0382  0.2058  0.3488
   54ccc    H12 1459   5.338   6.361   8.988 -0.3067 -0.3062 -0.4147
   54ccc    H13 1460   5.345   6.497   8.863  0.0697 -1.5642 -0.6095
   54ccc     C8 1461   5.155   6.414   8.894  0.0282 -0.0882  0.0536
   54ccc     O3 1462   5.046   6.464   8.912 -0.0070  0.1530  0.5056
   54ccc     O4 1463   5.157   6.303   8.822 -0.4853 -0.1554 -0.1995
   54ccc    H14 1464   4.944   6.453   9.053  1.8251  1.3605  3.3542
   54ccc    H15 1465   5.254   6.291   8.816 -0.5778 -0.2188 -1.5521
   55ccc     N1 1466   4.866   5.908   8.748  0.1115  0.2256  0.0770
   55ccc     H1 1467   4.862   5.844   8.669 -1.1444 -0.7981  0.9405
   55ccc     C1 1468   4.978   6.002   8.749 -0.0998  0.2750  0.3282
   55ccc     H2 1469   4.944   6.094   8.797  0.7237  0.4120  0.6507
   55ccc     C2 1470   5.033   6.033   8.609 -0.4748 -0.0219 -0.0021
   55ccc     H3 1471   5.058   5.956   8.809 -0.4474  1.1525  1.4767
   55ccc     H4 1472   5.141   6.044   8.624 -0.0009 -1.8445 -1.8397
   55ccc     H5 1473   4.996   6.131   8.578 -0.7597 -0.1518 -0.0709
   55ccc     N2 1474   5.011   5.926   8.504  0.5604  0.4583  0.8331
   55ccc     C3 1475   5.096   5.806   8.528 -0.3141 -0.5568 -0.3056
   55ccc     C4 1476   5.006   5.965   8.359  0.7688 -0.1210  0.4856
   55ccc     H6 1477   5.105   6.002   8.329  0.3484 -1.6904 -3.1478
   55ccc     C5 1478   4.892   6.066   8.331  0.2579 -0.5286 -0.5629
   55ccc     H7 1479   4.993   5.884   8.286  0.1724 -0.6905  1.2205
   55ccc     H8 1480   4.912   6.151   8.397  0.9626 -2.5773  1.9714
   55ccc     H9 1481   4.893   6.095   8.225 -0.1936  0.9198 -0.1839
   55ccc     C6 1482   4.757   6.011   8.360  0.2085 -0.4976  0.0974
   55ccc     O1 1483   4.680   6.060   8.458 -0.5311 -0.1309 -0.3535
   55ccc     O2 1484   4.695   5.952   8.271  0.0101  0.7641  0.5041
   55ccc    H10 1485   5.097   5.781   8.635  2.4641  1.3505  0.1555
   55ccc    H11 1486   5.195   5.843   8.501 -0.4759 -0.6455 -1.0221
   55ccc     C7 1487   5.049   5.674   8.462 -0.6272 -0.5404  0.3836
   55ccc    H12 1488   5.119   5.599   8.501  1.2869  1.9478  1.8941
   55ccc    H13 1489   5.042   5.684   8.353  2.8476  0.8696  0.1951
   55ccc     C8 1490   4.918   5.627   8.512  0.3738  0.0131  0.4697
   55ccc     O3 1491   4.830   5.699   8.559  0.3758 -0.0254  0.2087
   55ccc     O4 1492   4.888   5.501   8.471 -0.3517  0.2917 -1.0162
   55ccc    H14 1493   4.738   6.117   8.511 -1.8368  0.6721  0.2588
   55ccc    H15 1494   4.960   5.465   8.416  0.8336 -0.9600  1.2889
   56ccc     N1 1495   5.172   6.249   8.147 -0.1150  0.3035 -0.3700
   56ccc     H1 1496   5.170   6.169   8.085 -1.7202 -1.6217  2.0662
   56ccc     C1 1497   5.306   6.300   8.172 -0.5411 -0.1926  0.1773
   56ccc     H2 1498   5.331   6.352   8.078 -1.6263  0.5136  0.2772
   56ccc     C2 1499   5.409   6.193   8.207 -0.4682  0.1897  0.3920
   56ccc     H3 1500   5.285   6.373   8.250 -1.7798  0.3979 -0.6953
   56ccc     H4 1501   5.511   6.229   8.226 -0.9686  1.4946  0.6866
   56ccc     H5 1502   5.423   6.132   8.117  1.4787 -1.4672  1.7699
   56ccc     N2 1503   5.380   6.097   8.321  0.3670 -1.1554  0.2638
   56ccc     C3 1504   5.365   6.151   8.456  0.1019 -0.1965 -0.3134
   56ccc     C4 1505   5.448   5.970   8.310  0.4310 -0.0675 -0.4160
   56ccc     H6 1506   5.550   5.978   8.270 -0.1850  0.6353 -1.9138
   56ccc     C5 1507   5.354   5.876   8.240  0.5852  0.3913  1.1397
   56ccc     H7 1508   5.473   5.934   8.410  0.2726 -1.4135 -0.8567
   56ccc     H8 1509   5.268   5.848   8.302  2.3054  0.6375  3.7248
   56ccc     H9 1510   5.316   5.926   8.151  0.5082 -0.0665  0.9154
   56ccc     C6 1511   5.425   5.754   8.198 -0.3042  0.7590 -0.0733
   56ccc     O1 1512   5.342   5.672   8.138  0.2884  0.0876  0.2629
   56ccc     O2 1513   5.506   5.702   8.271  0.5168 -0.2697 -0.9685
   56ccc    H10 1514   5.347   6.071   8.529  0.2604 -0.9520 -1.0896
   56ccc    H11 1515   5.274   6.211   8.470 -0.1847 -0.2904 -1.7581
   56ccc     C7 1516   5.487   6.232   8.491 -0.1550  0.4209  0.5606
   56ccc    H12 1517   5.568   6.160   8.476 -0.0328  0.7408 -0.4096
   56ccc    H13 1518   5.497   6.317   8.421 -1.1465 -0.5819 -0.8264
   56ccc     C8 1519   5.473   6.294   8.631  0.0955  0.2937  0.3030
   56ccc     O3 1520   5.395   6.264   8.719 -0.4001 -0.2173 -0.0976
   56ccc     O4 1521   5.588   6.333   8.672  0.1487 -0.3880  0.2090
   56ccc    H14 1522   5.279   5.731   8.093 -0.1295 -1.0114 -0.6137
   56ccc    H15 1523   5.627   6.338   8.583 -0.9922 -1.2519 -0.3521
   57ccc     N1 1524   4.951   7.087   8.256  0.2245 -0.4808  0.1233
   57ccc     H1 1525   4.985   7.108   8.349  0.5665  1.3736 -0.3987
   57ccc     C1 1526   4.961   7.200   8.167  0.3540  0.0675 -0.2204
   57ccc     H2 1527   4.889   7.192   8.084 -1.4197  2.4464  1.0212
   57ccc     C2 1528   5.096   7.223   8.096 -0.2890 -0.1778  0.3802
   57ccc     H3 1529   4.936   7.290   8.224  0.0117 -0.1939  0.0461
   57ccc     H4 1530   5.098   7.322   8.049 -0.6940 -0.8452 -1.0625
   57ccc     H5 1531   5.096   7.146   8.019  2.0850  0.6730 -0.5343
   57ccc     N2 1532   5.221   7.213   8.182  0.0742 -0.7916 -0.1031
   57ccc     C3 1533   5.340   7.221   8.097  0.4146 -0.6823 -0.4131
   57ccc     C4 1534   5.234   7.312   8.289 -0.4359  0.0558 -0.4711
   57ccc     H6 1535   5.134   7.336   8.328 -0.6868 -0.7363 -0.6153
   57ccc     C5 1536   5.325   7.249   8.401  0.3856  0.2219  0.5640
   57ccc     H7 1537   5.273   7.407   8.251 -1.1247  0.8004  0.6589
   57ccc     H8 1538   5.353   7.320   8.480 -3.2350 -0.0973  2.2780
   57ccc     H9 1539   5.418   7.213   8.356 -0.0721  0.1918 -0.3665
   57ccc     C6 1540   5.260   7.136   8.477  0.7135 -0.3972  1.1004
   57ccc     O1 1541   5.344   7.041   8.515 -0.0203 -0.0022 -0.9379
   57ccc     O2 1542   5.138   7.122   8.481  0.3133  0.2798  0.0358
   57ccc    H10 1543   5.424   7.244   8.164 -1.0888 -0.2613  1.3992
   57ccc    H11 1544   5.324   7.309   8.033 -0.3999  1.2769  2.3676
   57ccc     C7 1545   5.363   7.094   8.007  0.4029  0.2439  0.1067
   57ccc    H12 1546   5.460   7.097   7.955  0.1559 -2.0031 -0.5694
   57ccc    H13 1547   5.292   7.092   7.924  0.0978 -1.3881  0.3891
   57ccc     C8 1548   5.365   6.963   8.082  0.1504 -0.3399  0.4876
   57ccc     O3 1549   5.440   6.869   8.054  0.4981 -0.1088  0.1835
   57ccc     O4 1550   5.268   6.961   8.179  0.1059 -1.3572  0.3973
   57ccc    H14 1551   5.417   7.098   8.544  1.4359 -1.5695 -1.4163
   57ccc    H15 1552   5.243   7.055   8.175 -0.2233 -1.4807 -0.6570
   58ccc     N1 1553   3.613   6.526   7.939  0.2932  0.2985 -0.3039
   58ccc     H1 1554   3.538   6.488   7.882 -1.0095 -2.7695  3.2798
   58ccc     C1 1555   3.633   6.674   7.941 -0.0593 -0.5532 -0.0563
   58ccc     H2 1556   3.537   6.726   7.948 -1.1063 -2.4187 -0.2887
   58ccc     C2 1557   3.725   6.736   7.833  0.6725  0.6884 -0.5502
   58ccc     H3 1558   3.668   6.706   8.040  0.3517  0.3601 -0.4921
   58ccc     H4 1559   3.830   6.703   7.832  0.1572 -0.9729 -2.0629
   58ccc     H5 1560   3.721   6.844   7.851  2.6481  0.8117 -0.6891
   58ccc     N2 1561   3.679   6.711   7.695 -0.1740 -0.1045  0.2820
   58ccc     C3 1562   3.691   6.581   7.631 -0.3958  0.3711 -0.1088
   58ccc     C4 1563   3.555   6.784   7.673  0.5157 -0.2452 -0.3908
   58ccc     H6 1564   3.463   6.730   7.695  1.2425 -2.5816 -2.8474
   58ccc     C5 1565   3.541   6.828   7.530  0.3089 -0.2558  0.0184
   58ccc     H7 1566   3.552   6.877   7.731 -0.0355 -0.3308 -0.2814
   58ccc     H8 1567   3.535   6.737   7.470 -3.9630 -2.6811  3.7805
   58ccc     H9 1568   3.632   6.884   7.508  0.5466 -0.8981 -0.6648
   58ccc     C6 1569   3.418   6.920   7.521 -0.3069 -0.1524 -0.2606
   58ccc     O1 1570   3.401   6.980   7.407  0.3690  0.1621  0.0234
   58ccc     O2 1571   3.343   6.950   7.612 -0.0695 -0.3798 -0.0996
   58ccc    H10 1572   3.674   6.592   7.524  1.8945  0.4567 -0.4927
   58ccc    H11 1573   3.616   6.511   7.671  0.2808  0.7558  1.8752
   58ccc     C7 1574   3.830   6.529   7.654  0.1485 -0.2198 -0.0372
   58ccc    H12 1575   3.901   6.611   7.632  1.4092 -1.5513 -1.0445
   58ccc    H13 1576   3.844   6.496   7.757 -0.7403  1.0879  0.5186
   58ccc     C8 1577   3.853   6.419   7.555  0.4434  0.6401 -0.3205
   58ccc     O3 1578   3.760   6.362   7.503 -0.1616 -0.4005 -0.3132
   58ccc     O4 1579   3.980   6.399   7.537 -0.1204 -0.2053 -0.2270
   58ccc    H14 1580   3.477   6.943   7.359 -0.0737 -1.1136  0.2994
   58ccc    H15 1581   4.022   6.463   7.597 -0.6236 -2.2439  2.4271
   59ccc     N1 1582   3.753   5.916   7.567  0.3525  0.4123 -0.1299
   59ccc     H1 1583   3.660   5.938   7.602  0.8595  1.8775  0.3454
   59ccc     C1 1584   3.766   5.833   7.457 -0.0596 -0.0299 -0.0079
   59ccc     H2 1585   3.669   5.836   7.408 -1.2996  3.4459  2.4682
   59ccc     C2 1586   3.808   5.691   7.499 -0.4715 -0.6445  0.1405
   59ccc     H3 1587   3.841   5.881   7.393 -1.2017  1.7100 -0.0510
   59ccc     H4 1588   3.913   5.692   7.528 -0.6204 -0.1910  0.6729
   59ccc     H5 1589   3.826   5.633   7.408  0.7330  1.3497 -0.9260
   59ccc     N2 1590   3.717   5.611   7.590 -0.1394  0.2734  0.2948
   59ccc     C3 1591   3.597   5.563   7.517 -0.9879  0.1059 -0.4116
   59ccc     C4 1592   3.788   5.513   7.668 -0.6181  0.3497  0.4380
   59ccc     H6 1593   3.743   5.417   7.695  3.4688 -0.9396  3.2320
   59ccc     C5 1594   3.850   5.580   7.799  0.5422 -0.4835  0.8871
   59ccc     H7 1595   3.877   5.480   7.612 -1.9844  2.1485 -2.8825
   59ccc     H8 1596   3.916   5.512   7.855 -0.5590  0.6182  3.6261
   59ccc     H9 1597   3.912   5.664   7.767  2.0720 -1.6605  0.7068
   59ccc     C6 1598   3.754   5.628   7.902  0.1332 -0.0854  0.2702
   59ccc     O1 1599   3.655   5.688   7.849  0.5495  0.2355  0.1661
   59ccc     O2 1600   3.780   5.632   8.020 -0.7077 -0.3674 -0.2581
   59ccc    H10 1601   3.610   5.471   7.459  0.9680  0.0043  0.1250
   59ccc    H11 1602   3.555   5.642   7.454 -0.1923 -0.2481 -1.4064
   59ccc     C7 1603   3.493   5.548   7.630  0.4197 -0.5608 -0.3389
   59ccc    H12 1604   3.532   5.487   7.713 -1.0764 -0.2129  0.6480
   59ccc    H13 1605   3.474   5.650   7.667 -1.2600 -1.3327  1.0242
   59ccc     C8 1606   3.363   5.476   7.584  0.1620  0.2195 -0.1819
   59ccc     O3 1607   3.353   5.412   7.485  0.2404  0.7278  0.2270
   59ccc     O4 1608   3.281   5.442   7.684 -0.4655 -0.3657  0.8423
   59ccc    H14 1609   3.679   5.655   7.761 -0.4399  2.5705 -1.0392
   59ccc    H15 1610   3.311   5.499   7.757 -2.4179  0.5087  1.0058
   60ccc     N1 1611   4.298   5.661   9.012  0.4436 -0.1910 -0.1730
   60ccc     H1 1612   4.223   5.600   9.042 -0.3640  0.1911 -1.3767
   60ccc     C1 1613   4.431   5.620   9.025 -0.5786 -0.0577 -0.3310
   60ccc     H2 1614   4.443   5.512   9.042 -1.0018 -0.0889 -0.2205
   60ccc     C2 1615   4.520   5.691   9.140  0.2951 -0.4775  0.1474
   60ccc     H3 1616   4.479   5.659   8.935  1.4805 -1.5905  0.0558
   60ccc     H4 1617   4.506   5.799   9.128 -1.2699 -0.6799  0.0473
   60ccc     H5 1618   4.626   5.671   9.119  0.7328  1.2473  0.6081
   60ccc     N2 1619   4.490   5.663   9.286  0.4668  0.2821 -0.3393
   60ccc     C3 1620   4.507   5.518   9.317  0.0286  0.2413  0.5491
   60ccc     C4 1621   4.373   5.733   9.344 -0.3316  0.4524  0.2966
   60ccc     H6 1622   4.281   5.697   9.297  1.4984 -1.3057 -2.0418
   60ccc     C5 1623   4.385   5.888   9.341 -0.2394 -0.0817  0.1210
   60ccc     H7 1624   4.357   5.696   9.446 -0.7695 -0.1072  0.0236
   60ccc     H8 1625   4.371   5.914   9.236  3.0079 -2.7997 -1.1001
   60ccc     H9 1626   4.482   5.914   9.385 -0.5220  1.4795 -0.1663
   60ccc     C6 1627   4.268   5.952   9.409 -0.1025  0.4930 -0.3942
   60ccc     O1 1628   4.276   6.079   9.433  0.6918  0.3499  0.0023
   60ccc     O2 1629   4.188   5.882   9.471 -0.0755  0.0630 -0.0302
   60ccc    H10 1630   4.567   5.473   9.237  1.6191  1.0136  1.2602
   60ccc    H11 1631   4.409   5.470   9.315 -0.0448  0.4272 -0.3094
   60ccc     C7 1632   4.577   5.504   9.448 -0.9141  0.5275 -0.6272
   60ccc    H12 1633   4.585   5.397   9.471 -2.5727  0.3625 -0.8107
   60ccc    H13 1634   4.522   5.552   9.529  1.8127  0.9735  1.0179
   60ccc     C8 1635   4.721   5.560   9.440  0.9265  1.1713  0.6550
   60ccc     O3 1636   4.795   5.532   9.347  0.3141  0.0600  0.2261
   60ccc     O4 1637   4.744   5.675   9.504  0.5700  0.1721  0.5751
   60ccc    H14 1638   4.361   6.101   9.392 -0.0815  0.4382 -1.5928
   60ccc    H15 1639   4.662   5.683   9.555 -0.7236  0.6720 -1.5611
   61ccc     N1 1640   3.705   5.601   8.782  0.0106 -0.0233  0.6588
   61ccc     H1 1641   3.791   5.640   8.746  0.2293 -1.4302 -0.3773
   61ccc     C1 1642   3.654   5.491   8.707 -1.0893 -0.1650 -0.4900
   61ccc     H2 1643   3.635   5.416   8.784 -0.3082  0.4669  0.3166
   61ccc     C2 1644   3.752   5.438   8.602 -1.0136  0.3352  0.5280
   61ccc     H3 1645   3.562   5.508   8.649 -0.6570  1.2044 -0.7812
   61ccc     H4 1646   3.744   5.493   8.508  0.3186 -2.5311 -1.3321
   61ccc     H5 1647   3.707   5.339   8.588  0.1036  0.0463 -1.1750
   61ccc     N2 1648   3.895   5.417   8.646 -0.1262 -0.7847 -0.2121
   61ccc     C3 1649   3.913   5.364   8.785 -0.5103  0.3825  0.0043
   61ccc     C4 1650   3.981   5.367   8.535 -0.3088 -0.1983  0.0109
   61ccc     H6 1651   3.978   5.438   8.451  0.3344  0.0862  0.2281
   61ccc     C5 1652   3.946   5.222   8.485 -0.5940 -0.0486  0.6727
   61ccc     H7 1653   4.084   5.383   8.568  0.4510 -1.3015 -1.7723
   61ccc     H8 1654   3.842   5.203   8.455 -0.4113  0.8489 -0.5760
   61ccc     H9 1655   3.972   5.138   8.551 -1.7213 -0.4245  0.6589
   61ccc     C6 1656   4.027   5.185   8.360 -0.0807 -0.2145  0.7044
   61ccc     O1 1657   3.997   5.067   8.307  0.5171 -0.3848  0.7400
   61ccc     O2 1658   4.091   5.265   8.301 -0.0897 -0.5063  0.1568
   61ccc    H10 1659   3.851   5.417   8.860 -0.0090  1.2688 -0.1960
   61ccc    H11 1660   3.890   5.257   8.787 -1.5853  0.5866 -0.8943
   61ccc     C7 1661   4.058   5.386   8.829 -0.1230  0.7886  0.9094
   61ccc    H12 1662   4.089   5.490   8.812 -0.9211  0.9901  0.6580
   61ccc    H13 1663   4.130   5.336   8.764 -0.2074  1.0801  0.5889
   61ccc     C8 1664   4.082   5.348   8.974  0.4958 -0.0671 -0.4414
   61ccc     O3 1665   4.029   5.251   9.023 -0.4414  0.0691 -0.7987
   61ccc     O4 1666   4.112   5.454   9.050 -0.2329  0.0092 -0.2518
   61ccc    H14 1667   3.955   5.016   8.378 -0.3243 -2.5890 -1.2758
   61ccc    H15 1668   4.093   5.437   9.144 -1.6055  0.3079 -0.4633
   62SOL     OW 1669   0.201   6.856   0.787 -0.0743  0.2320 -0.5067
   62SOL    HW1 1670   0.246   6.803   0.721 -0.1245  0.2579 -0.5618
   62SOL    HW2 1671   0.215   6.808   0.869  0.0320  0.2264 -0.5275
   63SOL     OW 1672   3.247   3.295   4.638 -0.1372 -0.3487 -0.0766
   63SOL    HW1 1673   3.219   3.281   4.728  0.5748 -0.4634  0.1310
   63SOL    HW2 1674   3.310   3.224   4.621 -0.2404 -0.3061 -0.6487
   64SOL     OW 1675   2.954   8.113   1.333  0.4202 -0.8896 -0.5990
   64SOL    HW1 1676   2.957   8.018   1.339 -0.7481 -0.8723  0.6049
   64SOL    HW2 1677   2.862   8.133   1.317  0.7830  0.0078 -1.6542
   65SOL     OW 1678   8.186   7.772   6.954  0.7556  0.0950 -0.1911
   65SOL    HW1 1679   8.173   7.739   7.043 -1.3651 -0.1750 -0.5660
   65SOL    HW2 1680   8.100   7.762   6.912  0.9932  2.7192 -1.4299
   66SOL     OW 1681   0.593   4.760   4.534 -0.5652 -0.1372  0.6024
   66SOL    HW1 1682   0.648   4.811   4.593 -1.4809  0.8878  0.5897
   66SOL    HW2 1683   0.508   4.755   4.579 -1.0008 -0.1286 -0.2100
   67SOL     OW 1684   5.974   1.936   6.800 -0.0709 -0.3674 -0.0169
   67SOL    HW1 1685   5.982   1.842   6.816 -1.5456 -0.3734  0.7199
   67SOL    HW2 1686   5.956   1.974   6.886 -1.5023  0.3561 -0.6200
   68SOL     OW 1687   3.544   8.065   4.078  0.4421 -0.0348  0.0254
   68SOL    HW1 1688   3.505   8.046   3.993 -2.0346  1.1494  0.8576
   68SOL    HW2 1689   3.633   8.094   4.058 -0.4039  1.0675 -2.2157
   69SOL     OW 1690   1.451   7.709   7.134 -0.1300 -0.1273 -0.2342
   69SOL    HW1 1691   1.365   7.671   7.152  0.1326 -1.4476 -1.6290
   69SOL    HW2 1692   1.431   7.794   7.095 -0.7942 -0.0617  0.2430
   70SOL     OW 1693   3.761   5.691   1.149 -0.4511 -0.3477  0.1197
   70SOL    HW1 1694   3.751   5.598   1.127 -1.7629 -0.5243  1.3754
   70SOL    HW2 1695   3.845   5.697   1.194  1.4553 -0.2670 -3.2924
   71SOL     OW 1696   1.179   5.276   3.395  0.6116 -0.8472  0.4245
   71SOL    HW1 1697   1.138   5.298   3.479 -0.1816 -0.3868 -0.0807
   71SOL    HW2 1698   1.136   5.333   3.331 -0.8507 -3.1714 -0.7529
   72SOL     OW 1699   0.182   4.695   6.068  0.5852  0.1497 -0.4876
   72SOL    HW1 1700   0.260   4.668   6.020  0.0947  0.3994 -1.4538
   72SOL    HW2 1701   0.151   4.616   6.112  1.0404 -0.0880 -0.5980
   73SOL     OW 1702   6.014   8.042   3.522  0.6950 -0.5833 -0.8721
   73SOL    HW1 1703   5.966   8.074   3.598  0.9249 -0.2186 -0.8811
   73SOL    HW2 1704   5.955   8.058   3.448  0.8773 -0.0252 -0.8983
   74SOL     OW 1705   7.969   0.057   6.445  0.0532  0.1884  1.0140
   74SOL    HW1 1706   8.007   0.008   6.372  3.5980  2.1248  1.4174
   74SOL    HW2 1707   8.018   0.027   6.521 -1.8318  0.0898  2.2158
   75SOL     OW 1708   4.530   3.251   1.759 -0.1175 -0.2069 -0.3783
   75SOL    HW1 1709   4.472   3.191   1.807 -1.1125 -0.2569 -1.6136
   75SOL    HW2 1710   4.568   3.198   1.689  1.6918 -0.2523  0.6066
   76SOL     OW 1711   4.132   5.855   4.750  0.1939 -0.2449 -0.4562
   76SOL    HW1 1712   4.181   5.904   4.816  2.6372 -3.3699  0.1420
   76SOL    HW2 1713   4.149   5.901   4.668  1.0656  0.8632  0.3347
   77SOL     OW 1714   3.248   4.775   6.356 -0.2048 -0.3183 -0.0233
   77SOL    HW1 1715   3.281   4.765   6.267  1.2482  1.4665  0.2862
   77SOL    HW2 1716   3.263   4.689   6.397  1.6206 -0.3521 -0.6979
   78SOL     OW 1717   1.327   4.195   6.022 -0.5447 -0.4330  0.2903
   78SOL    HW1 1718   1.363   4.127   5.965 -1.7111 -0.6472 -0.1922
   78SOL    HW2 1719   1.389   4.199   6.095  0.1544 -1.1988 -0.2448
   79SOL     OW 1720   2.558   4.127   6.348  0.1148  1.1061 -0.0369
   79SOL    HW1 1721   2.578   4.067   6.276 -3.1806  0.2234 -0.2978
   79SOL    HW2 1722   2.627   4.110   6.413 -0.9610 -3.4076  0.1198
   80SOL     OW 1723   1.141   3.023   0.654 -0.3057 -0.7179  0.6163
   80SOL    HW1 1724   1.184   3.107   0.640  0.1285 -0.9431  0.6128
   80SOL    HW2 1725   1.087   3.011   0.575  0.4530 -0.9489  0.1311
   81SOL     OW 1726   2.846   3.062   7.361  0.2795 -0.2576 -0.1359
   81SOL    HW1 1727   2.896   3.124   7.308 -0.1956  0.0878 -0.1778
   81SOL    HW2 1728   2.830   3.108   7.443 -1.7257  0.4125 -0.8655
   82SOL     OW 1729   6.003   7.396   8.268  0.0676  0.0404  0.1972
   82SOL    HW1 1730   5.954   7.331   8.320 -0.1380  0.1719  0.1695
   82SOL    HW2 1731   5.956   7.478   8.283  1.9361  0.7680  2.4558
   83SOL     OW 1732   0.258   0.683   0.214 -0.2559 -0.4392  0.2494
   83SOL    HW1 1733   0.296   0.599   0.240  0.3585 -0.0056  0.7606
   83SOL    HW2 1734   0.312   0.713   0.142  0.4223  0.2091  1.0198
   84SOL     OW 1735   8.185   1.715   1.759  0.3652 -0.1231  0.1378
   84SOL    HW1 1736   8.093   1.736   1.776  0.4876  0.4599  0.0833
   84SOL    HW2 1737   8.234   1.788   1.796  0.9569 -1.5231  2.2184
   85SOL     OW 1738   0.293   0.769   3.334 -0.3071 -0.1147  0.1761
   85SOL    HW1 1739   0.217   0.728   3.374 -0.9770 -0.0321 -0.9749
   85SOL    HW2 1740   0.316   0.841   3.392 -1.6839  0.4316  0.0498
   86SOL     OW 1741   3.794   3.713   0.049 -0.0120  0.3922 -0.6765
   86SOL    HW1 1742   3.838   3.630   0.034 -0.9876 -0.0995 -0.8568
   86SOL    HW2 1743   3.808   3.732   0.142  0.3670  0.1189 -0.6794
   87SOL     OW 1744   4.433   3.636   4.646  0.5073 -0.2298 -0.2522
   87SOL    HW1 1745   4.504   3.651   4.584  0.7560 -0.5319 -0.0450
   87SOL    HW2 1746   4.453   3.694   4.720  0.2081  0.1342 -0.4550
   88SOL     OW 1747   7.699   3.974   7.741 -0.3246 -0.3138 -0.2419
   88SOL    HW1 1748   7.721   4.032   7.814 -0.6692 -0.6403  0.1232
   88SOL    HW2 1749   7.775   3.916   7.733 -0.5016 -0.6080  0.1884
   89SOL     OW 1750   8.078   2.607   3.267  0.1648 -0.0655 -0.3136
   89SOL    HW1 1751   8.038   2.611   3.354  0.6347  0.9673 -0.1421
   89SOL    HW2 1752   8.008   2.635   3.207 -0.4160 -1.5556 -0.3728
   90SOL     OW 1753   5.122   1.587   6.124 -0.3402 -0.1718  0.2473
   90SOL    HW1 1754   5.178   1.547   6.057 -0.3660 -2.2726  1.4481
   90SOL    HW2 1755   5.035   1.587   6.084  0.0419  0.6573 -0.5938
   91SOL     OW 1756   6.904   3.610   3.958 -0.1488 -0.1175 -0.3287
   91SOL    HW1 1757   6.821   3.602   3.910 -0.4139  0.5526  0.0174
   91SOL    HW2 1758   6.954   3.532   3.932  0.2171  0.8598 -2.6864
   92SOL     OW 1759   8.012   6.625   0.787  0.1403 -0.5613  0.2124
   92SOL    HW1 1760   8.055   6.544   0.812 -0.5217 -0.6704  1.0140
   92SOL    HW2 1761   7.918   6.607   0.796 -0.0868 -0.3506 -1.5945
   93SOL     OW 1762   0.127   1.658   4.600  0.0709 -0.4674  0.5385
   93SOL    HW1 1763   0.209   1.658   4.552 -0.2647 -1.1347 -0.0401
   93SOL    HW2 1764   0.114   1.750   4.624  1.0560 -0.3827  0.7714
   94SOL     OW 1765   7.992   8.169   4.717 -0.2226  0.2974  0.7442
   94SOL    HW1 1766   7.942   8.168   4.798 -2.7906  1.6371 -0.7615
   94SOL    HW2 1767   8.004   8.262   4.697  0.6768 -0.0112 -0.2086
   95SOL     OW 1768   1.911   5.544   7.709  0.2505 -0.2995  0.2988
   95SOL    HW1 1769   1.909   5.458   7.667  0.4769 -0.1798  0.0444
   95SOL    HW2 1770   1.888   5.605   7.639  1.1476 -0.0448  0.2212
   96SOL     OW 1771   4.530   5.204   7.296  0.0569  0.7722 -0.1404
   96SOL    HW1 1772   4.506   5.181   7.207 -1.0526  1.4177 -0.0163
   96SOL    HW2 1773   4.624   5.186   7.301  0.0480  0.3713 -1.3161
   97SOL     OW 1774   3.681   7.698   7.666  0.3543 -0.3489  0.1180
   97SOL    HW1 1775   3.717   7.761   7.604 -0.5006  1.5676  1.5088
   97SOL    HW2 1776   3.754   7.640   7.686  1.2850  0.4552 -0.8633
   98SOL     OW 1777   0.911   7.674   2.209 -0.0748  0.1086  0.5094
   98SOL    HW1 1778   0.968   7.737   2.252 -1.2448  1.5409  0.0302
   98SOL    HW2 1779   0.968   7.629   2.146  0.3231  2.2822 -0.7536
   99SOL     OW 1780   1.985   7.187   5.072  0.2003 -0.1351 -0.1193
   99SOL    HW1 1781   2.014   7.171   5.162 -0.1146  1.5352  0.3076
   99SOL    HW2 1782   1.979   7.100   5.033  1.6409 -0.8012  1.0612
  100SOL     OW 1783   4.520   4.599   7.234  0.0580 -0.3642  0.2641
  100SOL    HW1 1784   4.519   4.505   7.249 -1.9737 -0.1539  1.7205
  100SOL    HW2 1785   4.604   4.629   7.270 -0.1882 -1.3405  1.6778
  101SOL     OW 1786   6.860   2.432   5.802  0.6739 -0.1594 -0.0201
  101SOL    HW1 1787   6.896   2.345   5.822  1.3921  0.6195  2.1487
  101SOL    HW2 1788   6.871   2.482   5.882 -1.2980  1.4463 -0.7062
  102SOL     OW 1789   0.001   1.903   8.195 -0.1773 -0.4676 -0.0169
  102SOL    HW1 1790   0.011   1.988   8.153  0.6689 -0.3288  0.4566
  102SOL    HW2 1791   0.090   1.873   8.210 -0.4583 -0.5116  1.6850
  103SOL     OW 1792   2.174   2.193   6.984  0.1052  0.3899 -0.4703
  103SOL    HW1 1793   2.140   2.273   6.944  1.0810  1.1780  0.2537
  103SOL    HW2 1794   2.253   2.220   7.030  0.4566 -0.9946 -0.2126
  104SOL     OW 1795   3.298   8.000   4.615 -0.1896 -0.3681 -0.2234
  104SOL    HW1 1796   3.211   8.029   4.645 -0.4634 -0.1820 -1.1819
  104SOL    HW2 1797   3.359   8.063   4.654 -0.2908 -1.5956  2.0152
  105SOL     OW 1798   1.418   7.202   5.154  0.2380 -0.0518 -0.4949
  105SOL    HW1 1799   1.384   7.232   5.238  0.9581 -2.1255  0.5739
  105SOL    HW2 1800   1.342   7.164   5.110 -0.1425  1.0491 -0.8160
  106SOL     OW 1801   1.419   7.332   4.372  0.3610 -0.1736  0.4845
  106SOL    HW1 1802   1.328   7.312   4.394  0.6119 -3.3976 -0.9729
  106SOL    HW2 1803   1.417   7.354   4.279  0.7569  2.2196  1.0236
  107SOL     OW 1804   0.675   0.363   2.313 -0.5421 -0.9431  0.3213
  107SOL    HW1 1805   0.591   0.402   2.290 -0.0396 -0.1253 -0.1537
  107SOL    HW2 1806   0.670   0.347   2.407 -0.4606  0.9982  0.6627
  108SOL     OW 1807   1.247   3.691   4.006  0.3079  0.2849  0.1240
  108SOL    HW1 1808   1.297   3.615   4.035  2.6343  1.0654 -1.7775
  108SOL    HW2 1809   1.248   3.686   3.911 -0.4433  2.1138  0.0077
  109SOL     OW 1810   1.946   0.188   4.307  0.3419 -0.0353  0.0721
  109SOL    HW1 1811   1.889   0.182   4.384  1.3812 -1.1858  0.7694
  109SOL    HW2 1812   1.954   0.098   4.276  0.3761  0.3492 -1.0712
  110SOL     OW 1813   6.742   7.155   6.464  0.4457 -0.0379 -0.1907
  110SOL    HW1 1814   6.766   7.243   6.435 -0.5160  0.6539  1.0770
  110SOL    HW2 1815   6.691   7.119   6.391 -0.8578  1.2031  0.0826
  111SOL     OW 1816   6.215   3.402   3.828  0.7346 -0.3024  0.0087
  111SOL    HW1 1817   6.197   3.317   3.788  1.1704 -0.2408 -0.3221
  111SOL    HW2 1818   6.271   3.446   3.765  1.7542 -0.3544  0.8676
  112SOL     OW 1819   8.002   0.846   8.175  0.1423 -0.0631 -0.0253
  112SOL    HW1 1820   8.022   0.939   8.187  0.6720 -0.1939  0.1408
  112SOL    HW2 1821   7.927   0.845   8.116 -1.7594  0.5638  2.2748
  113SOL     OW 1822   5.459   3.259   7.162 -0.0671 -0.4962 -0.3394
  113SOL    HW1 1823   5.424   3.178   7.126  0.2706 -1.4304  1.3529
  113SOL    HW2 1824   5.554   3.246   7.163 -0.0484 -0.3444  0.5123
  114SOL     OW 1825   2.792   4.081   6.467  0.1113 -0.4130 -0.4060
  114SOL    HW1 1826   2.847   4.132   6.408  0.8175 -2.0465 -1.1791
  114SOL    HW2 1827   2.836   3.997   6.475 -0.4353 -0.5358  1.7626
  115SOL     OW 1828   5.296   1.810   6.011  0.0786  0.3733  0.0256
  115SOL    HW1 1829   5.224   1.757   6.046  0.4504  0.2585  0.6188
  115SOL    HW2 1830   5.284   1.806   5.916 -0.6362  0.2677  0.1145
  116SOL     OW 1831   1.392   2.082   6.851 -0.1595  0.3127 -0.6184
  116SOL    HW1 1832   1.380   2.158   6.909  0.5611 -1.9893  2.7228
  116SOL    HW2 1833   1.303   2.054   6.830 -0.5538 -0.5861  1.9485
  117SOL     OW 1834   2.129   1.396   7.541  0.6048  0.1911 -0.5573
  117SOL    HW1 1835   2.169   1.468   7.491 -2.0813  1.5766 -0.7976
  117SOL    HW2 1836   2.105   1.332   7.474 -0.9451  1.0377 -0.8282
  118SOL     OW 1837   7.977   1.849   3.759  0.2296 -0.7752  0.6753
  118SOL    HW1 1838   8.021   1.767   3.781  1.3692  0.2724  2.4321
  118SOL    HW2 1839   8.047   1.914   3.761 -1.1588  0.7137  2.2435
  119SOL     OW 1840   2.695   0.299   1.518  0.6617 -0.1329  0.0894
  119SOL    HW1 1841   2.685   0.216   1.472  0.6984  0.0814 -0.3071
  119SOL    HW2 1842   2.691   0.366   1.450 -0.2713  0.2490  0.5117
  120SOL     OW 1843   4.338   4.653   7.700  0.2633  0.7100 -0.0861
  120SOL    HW1 1844   4.309   4.741   7.724  1.4581  1.4693 -1.3425
  120SOL    HW2 1845   4.324   4.648   7.605  1.6556  0.1190 -0.2746
  121SOL     OW 1846   3.529   6.678   4.367 -0.8820  0.6381  0.1229
  121SOL    HW1 1847   3.453   6.655   4.419 -1.8165  1.1597 -0.9957
  121SOL    HW2 1848   3.558   6.763   4.401  0.3849 -0.4601  1.8375
  122SOL     OW 1849   1.104   2.458   6.741  0.2315  0.1567 -0.0743
  122SOL    HW1 1850   1.012   2.485   6.735  0.2409 -0.1186 -1.4840
  122SOL    HW2 1851   1.105   2.396   6.814 -0.4029  1.3600  0.9773
  123SOL     OW 1852   0.041   5.506   5.340  0.0836 -0.3236  0.7466
  123SOL    HW1 1853   0.107   5.444   5.306  0.5462  0.4224  0.2746
  123SOL    HW2 1854  -0.043   5.462   5.324  0.4269 -1.0019  0.7686
  124SOL     OW 1855   0.263   7.034   8.146  0.2169 -0.4070  0.1858
  124SOL    HW1 1856   0.339   6.978   8.132 -0.2955 -0.9828 -0.2985
  124SOL    HW2 1857   0.197   6.976   8.183 -0.2009 -0.0465  0.0080
  125SOL     OW 1858   0.883   0.371   5.105 -0.1119  0.3273  0.2928
  125SOL    HW1 1859   0.853   0.435   5.169  0.8176  1.3091 -0.2301
  125SOL    HW2 1860   0.804   0.339   5.062 -0.7513 -0.3632  1.9305
  126SOL     OW 1861   1.395   1.012   0.467  0.2393  0.1193 -0.2465
  126SOL    HW1 1862   1.327   0.958   0.426  1.7402 -1.4739 -0.6790
  126SOL    HW2 1863   1.390   0.992   0.560 -1.3288  1.6721  0.0354
  127SOL     OW 1864   7.992   1.518   7.184 -0.2129 -0.2806  0.0214
  127SOL    HW1 1865   8.068   1.574   7.197  0.6842 -1.4574  0.0167
  127SOL    HW2 1866   7.916   1.576   7.190  0.7495  1.1258 -1.3291
  128SOL     OW 1867   1.012   7.557   1.174 -0.3682  0.0218 -0.5077
  128SOL    HW1 1868   1.027   7.477   1.123  1.6566 -0.8170  1.3168
  128SOL    HW2 1869   1.043   7.627   1.117  1.4401 -0.8609 -0.6644
  129SOL     OW 1870   6.982   7.857   3.974  0.2192 -0.1638  0.0970
  129SOL    HW1 1871   7.072   7.891   3.973 -0.5122  1.8230 -1.7849
  129SOL    HW2 1872   6.928   7.930   3.944 -2.1006 -1.2042  1.5721
  130SOL     OW 1873   1.546   1.969   0.217  0.7947 -0.2073 -0.0848
  130SOL    HW1 1874   1.522   2.042   0.273  1.9455  0.8236 -0.9098
  130SOL    HW2 1875   1.482   1.971   0.146  1.3792  0.5981 -0.6041
  131SOL     OW 1876   2.801   1.380   1.269 -0.0841  0.1156 -0.0170
  131SOL    HW1 1877   2.858   1.345   1.200  0.2513 -0.5909  0.6135
  131SOL    HW2 1878   2.731   1.424   1.221  0.4173  0.0665 -0.8103
  132SOL     OW 1879   6.803   8.285   4.272 -0.3703 -0.0937 -0.1683
  132SOL    HW1 1880   6.761   8.241   4.197 -0.0840  2.2760 -1.7569
  132SOL    HW2 1881   6.772   8.375   4.267  0.1988  0.2511  2.2123
  133SOL     OW 1882   4.323   3.775   1.900 -0.0215 -0.0142 -0.2088
  133SOL    HW1 1883   4.280   3.711   1.957  0.3142 -1.7634 -1.8980
  133SOL    HW2 1884   4.366   3.723   1.833 -1.3700  2.0703 -2.7753
  134SOL     OW 1885   2.040   3.735   4.738 -0.1838 -0.5667  0.0258
  134SOL    HW1 1886   2.107   3.755   4.672 -0.8671  0.6730 -0.3119
  134SOL    HW2 1887   2.083   3.673   4.797  0.9843 -0.4365 -0.6588
  135SOL     OW 1888   2.338   7.609   0.568 -0.4360 -0.4039  0.1189
  135SOL    HW1 1889   2.247   7.639   0.561 -0.2632  0.1625  0.3455
  135SOL    HW2 1890   2.336   7.521   0.530 -1.0283 -0.2955 -0.1107
  136SOL     OW 1891   5.965   6.542   3.778  0.3119 -0.5000  0.4319
  136SOL    HW1 1892   5.986   6.635   3.787  0.6137 -0.5005 -0.3024
  136SOL    HW2 1893   5.898   6.527   3.846 -0.8098  0.5881 -0.3959
  137SOL     OW 1894   8.033   3.002   7.765 -0.1282 -0.0754 -0.0475
  137SOL    HW1 1895   7.959   2.958   7.806 -0.1403 -0.0138 -0.0016
  137SOL    HW2 1896   8.033   2.970   7.675  0.0370 -0.3861  0.0617
  138SOL     OW 1897   3.166   5.002   1.535  0.0002 -0.4724  0.0028
  138SOL    HW1 1898   3.188   4.924   1.483  0.3636 -1.0220  0.9603
  138SOL    HW2 1899   3.205   5.075   1.487  1.0955 -1.0729 -0.0389
  139SOL     OW 1900   6.322   1.894   2.566 -0.5850  0.3470 -0.2631
  139SOL    HW1 1901   6.310   1.878   2.472 -1.0308  0.2660 -0.1942
  139SOL    HW2 1902   6.350   1.810   2.601 -0.6355  0.3199 -0.2871
  140SOL     OW 1903   5.358   8.214   0.546 -0.3016 -0.2742 -0.4108
  140SOL    HW1 1904   5.400   8.233   0.462  1.3322 -0.6210  0.3126
  140SOL    HW2 1905   5.388   8.285   0.604  0.7487 -1.5066  0.5887
  141SOL     OW 1906   5.465   8.028   5.566 -0.5456  0.0171  0.1098
  141SOL    HW1 1907   5.413   8.098   5.527 -0.7607  0.5700  1.3614
  141SOL    HW2 1908   5.400   7.972   5.610 -0.4046 -1.1142 -1.0966
  142SOL     OW 1909   1.500   0.850   1.472  0.0410  0.5690  0.0371
  142SOL    HW1 1910   1.451   0.827   1.393  0.1596 -0.1393  0.1717
  142SOL    HW2 1911   1.438   0.900   1.525 -0.0481  1.0230 -0.4857
  143SOL     OW 1912   5.944   2.508   5.605 -0.5532  0.0316 -0.7865
  143SOL    HW1 1913   6.023   2.561   5.613 -0.8151  0.5105 -1.3084
  143SOL    HW2 1914   5.975   2.418   5.605 -0.1275  0.1700  0.4241
  144SOL     OW 1915   6.059   5.083   5.831 -0.4144 -0.2067  0.0601
  144SOL    HW1 1916   6.007   5.161   5.811 -0.5015 -0.4530 -0.7129
  144SOL    HW2 1917   6.149   5.111   5.814 -0.2998  0.2017  1.3420
  145SOL     OW 1918   0.173   7.775   1.935  0.3590  0.3280 -0.0118
  145SOL    HW1 1919   0.093   7.793   1.985 -0.0117 -0.5295 -0.2953
  145SOL    HW2 1920   0.233   7.737   2.000 -0.1227 -0.7866 -0.2053
  146SOL     OW 1921   7.174   7.929   4.868  0.0509 -0.3415 -0.9871
  146SOL    HW1 1922   7.118   7.853   4.851  0.6169 -0.2879 -3.3216
  146SOL    HW2 1923   7.125   8.003   4.830  0.6432  0.0591 -0.9675
  147SOL     OW 1924   7.027   7.074   4.590 -0.1830 -0.2526 -0.0261
  147SOL    HW1 1925   7.074   7.003   4.545  0.3515  0.2981 -0.3415
  147SOL    HW2 1926   6.977   7.117   4.521 -1.0076 -0.7200  0.2768
  148SOL     OW 1927   4.712   2.010   0.203 -0.6887  0.0369  0.3186
  148SOL    HW1 1928   4.654   2.002   0.279 -0.7512 -2.2013  0.0480
  148SOL    HW2 1929   4.652   2.017   0.129 -0.6159  1.4497  0.3695
  149SOL     OW 1930   1.276   3.574   0.926  0.4451 -0.2926 -0.0097
  149SOL    HW1 1931   1.307   3.506   0.985  0.2286 -1.0227 -0.7232
  149SOL    HW2 1932   1.342   3.577   0.856  0.3789  0.1265 -0.0559
  150SOL     OW 1933   2.367   2.028   6.361  0.3148  0.0745 -0.4464
  150SOL    HW1 1934   2.442   2.067   6.315  1.1956 -1.0546 -0.0086
  150SOL    HW2 1935   2.364   2.074   6.445  2.8155 -2.2977  1.0534
  151SOL     OW 1936   5.168   5.257   4.565  0.4676  0.3864 -0.1203
  151SOL    HW1 1937   5.180   5.306   4.646 -1.8108  0.0741  0.4502
  151SOL    HW2 1938   5.253   5.260   4.522  1.7652  0.4086  2.3661
  152SOL     OW 1939   1.972   5.829   7.086 -0.1748 -0.7492  0.2785
  152SOL    HW1 1940   2.050   5.802   7.037  0.8749  1.0530  0.8851
  152SOL    HW2 1941   1.941   5.907   7.040 -0.4929 -0.3495  1.1606
  153SOL     OW 1942   6.156   2.053   8.269  0.2757 -0.2422  0.3405
  153SOL    HW1 1943   6.229   2.097   8.225  0.1006  0.0104  0.2976
  153SOL    HW2 1944   6.158   1.963   8.236 -0.3694  0.1608 -0.8265
  154SOL     OW 1945   0.237   1.106   1.034  0.2492 -0.3422  0.0107
  154SOL    HW1 1946   0.226   1.057   1.116 -1.3887  0.5265  0.3257
  154SOL    HW2 1947   0.293   1.180   1.058  0.2398 -0.3991  0.2140
  155SOL     OW 1948   3.137   6.800   5.665  0.0533  0.0603  0.1031
  155SOL    HW1 1949   3.203   6.737   5.695  1.3493  0.8982 -0.9587
  155SOL    HW2 1950   3.186   6.880   5.646 -1.0744  0.3239 -1.8684
  156SOL     OW 1951   0.796   3.675   6.214 -0.3769  0.4598  0.5126
  156SOL    HW1 1952   0.800   3.643   6.305 -0.2953  1.4476  0.8610
  156SOL    HW2 1953   0.819   3.598   6.161  0.4507  0.1029  1.3720
  157SOL     OW 1954   7.254   6.372   3.333 -0.1035 -0.1750  0.2018
  157SOL    HW1 1955   7.296   6.456   3.318  0.2200 -0.5892 -1.4097
  157SOL    HW2 1956   7.183   6.369   3.269 -1.0772 -0.4897  1.2779
  158SOL     OW 1957   3.992   3.975   7.664  0.1476 -0.1977  0.1300
  158SOL    HW1 1958   3.986   3.968   7.759  0.6978 -0.3572  0.1559
  158SOL    HW2 1959   4.004   4.068   7.647 -0.1751 -0.1440  0.2056
  159SOL     OW 1960   0.165   0.068   7.899  0.3882  0.4629  0.0361
  159SOL    HW1 1961   0.083   0.082   7.948 -0.1671 -2.4058  0.0132
  159SOL    HW2 1962   0.229   0.048   7.967  0.2076 -0.9434 -0.1936
  160SOL     OW 1963   2.121   3.403   4.820 -0.2154 -0.4152  0.3992
  160SOL    HW1 1964   2.109   3.439   4.908 -1.7336  0.5422 -0.1721
  160SOL    HW2 1965   2.211   3.370   4.819  0.3611  1.0659  1.7836
  161SOL     OW 1966   6.113   2.370   4.348 -0.0806 -0.1382  0.5332
  161SOL    HW1 1967   6.103   2.462   4.373 -0.6867 -0.5810  1.9762
  161SOL    HW2 1968   6.195   2.342   4.390  0.1002 -0.2560  0.1022
  162SOL     OW 1969   4.489   0.223   4.141 -0.2663 -0.2234  0.4717
  162SOL    HW1 1970   4.471   0.157   4.208 -2.2232  0.0096  0.1840
  162SOL    HW2 1971   4.403   0.246   4.106  0.5852  1.0035 -0.8429
  163SOL     OW 1972   3.331   1.967   8.233 -0.5563 -0.5057 -0.3545
  163SOL    HW1 1973   3.399   2.034   8.226 -1.2707  0.3314  0.6115
  163SOL    HW2 1974   3.252   2.008   8.199 -0.4514 -1.7026 -2.1129
  164SOL     OW 1975   1.545   2.535   1.519  0.2366 -0.1345 -0.4398
  164SOL    HW1 1976   1.573   2.521   1.429 -1.2527 -3.1321 -0.5035
  164SOL    HW2 1977   1.461   2.582   1.511  0.4684  0.2602 -0.5737
  165SOL     OW 1978   3.564   3.345   0.101 -0.2733 -0.5808 -0.2532
  165SOL    HW1 1979   3.544   3.424   0.050  0.4446  1.0478  1.8693
  165SOL    HW2 1980   3.506   3.352   0.177  1.4150 -0.9010  1.0774
  166SOL     OW 1981   3.701   1.852   2.688 -0.0638  0.2053 -0.1247
  166SOL    HW1 1982   3.745   1.767   2.694 -1.9589 -0.8543 -0.9827
  166SOL    HW2 1983   3.751   1.900   2.623  1.4486  0.0258  0.8707
  167SOL     OW 1984   6.293   0.687   4.307  0.4281  0.0118  0.3364
  167SOL    HW1 1985   6.252   0.685   4.393 -0.9645 -1.5043 -0.3286
  167SOL    HW2 1986   6.242   0.752   4.257  3.1202  3.1505  1.5137
  168SOL     OW 1987   5.923   5.159   0.249  0.2543 -0.5390 -0.2034
  168SOL    HW1 1988   5.939   5.234   0.192  0.4035 -0.5850 -0.2223
  168SOL    HW2 1989   5.955   5.084   0.198  1.6877 -0.4228  0.5168
  169SOL     OW 1990   0.381   1.091   4.293 -0.0825 -0.2662 -0.2190
  169SOL    HW1 1991   0.422   1.145   4.361  1.0435  0.5258 -1.4932
  169SOL    HW2 1992   0.406   1.134   4.210 -2.6597 -0.3582 -1.0826
  170SOL     OW 1993   7.948   0.969   2.842 -0.5832  1.0608  0.4645
  170SOL    HW1 1994   8.021   0.914   2.870 -0.0760  0.8152 -1.2950
  170SOL    HW2 1995   7.871   0.932   2.887 -0.8213 -3.0958 -3.0268
  171SOL     OW 1996   0.708   6.981   4.994  0.5628 -0.4222 -0.4647
  171SOL    HW1 1997   0.614   6.997   4.990  0.3256 -1.2056  1.4085
  171SOL    HW2 1998   0.747   7.052   4.942 -1.0782 -0.4557 -1.7583
  172SOL     OW 1999   4.858   1.955   3.854 -0.2297  0.4885 -1.5413
  172SOL    HW1 2000   4.828   2.019   3.789  0.5059  0.1166 -2.2576
  172SOL    HW2 2001   4.949   1.981   3.872 -0.3587  0.4535 -0.8184
  173SOL     OW 2002   5.930   0.060   5.940 -0.1616  0.6089 -0.1634
  173SOL    HW1 2003   6.024   0.060   5.960  0.0578  4.8829 -0.5812
  173SOL    HW2 2004   5.925   0.031   5.849  0.9288  1.5119 -0.5359
  174SOL     OW 2005   3.154   3.380   5.744  0.6212  0.2267 -0.5654
  174SOL    HW1 2006   3.068   3.351   5.774 -0.5530  3.5190 -0.5586
  174SOL    HW2 2007   3.177   3.318   5.674 -1.4007 -1.1395 -0.0811
  175SOL     OW 2008   5.702   6.551   5.118 -0.7436 -0.1634  0.1558
  175SOL    HW1 2009   5.680   6.472   5.068 -0.6858 -1.6450  2.4101
  175SOL    HW2 2010   5.790   6.574   5.088 -1.8770  0.7955 -2.6372
  176SOL     OW 2011   2.221   4.817   1.394  0.1966 -0.6133 -0.4471
  176SOL    HW1 2012   2.279   4.803   1.319  0.0533  0.5642 -0.7805
  176SOL    HW2 2013   2.140   4.852   1.356  0.8841  2.0417  0.4320
  177SOL     OW 2014   7.201   8.005   5.815 -0.1548  0.3002 -0.0516
  177SOL    HW1 2015   7.125   7.953   5.791  0.7990 -1.0001 -0.2974
  177SOL    HW2 2016   7.170   8.062   5.886 -1.5291  0.2981 -0.6339
  178SOL     OW 2017   0.175   1.083   0.213 -0.2890  0.2672  0.2764
  178SOL    HW1 2018   0.174   1.025   0.137 -3.2029 -0.3455  0.7409
  178SOL    HW2 2019   0.162   1.025   0.288  0.4745  1.1261  1.0919
  179SOL     OW 2020   2.693   0.461   0.904  0.5016 -0.2591  0.5337
  179SOL    HW1 2021   2.690   0.407   0.824  1.8687  0.9261 -0.3460
  179SOL    HW2 2022   2.604   0.492   0.915  0.5209  0.4611 -1.1872
  180SOL     OW 2023   5.711   3.862   6.758  0.1544 -0.4282 -0.9005
  180SOL    HW1 2024   5.767   3.929   6.798 -0.0306 -0.1295 -1.1402
  180SOL    HW2 2025   5.727   3.784   6.810 -0.2142  0.0039 -0.1189
  181SOL     OW 2026   1.005   5.794   4.611 -0.2522  0.3054  0.5579
  181SOL    HW1 2027   0.949   5.858   4.654  0.6786  2.1167 -0.8446
  181SOL    HW2 2028   1.094   5.823   4.632  0.1805 -1.0574  0.6484
  182SOL     OW 2029   0.296   7.639   6.085  0.4003 -0.2897  0.9205
  182SOL    HW1 2030   0.329   7.693   6.013  0.3170  0.6661  1.5891
  182SOL    HW2 2031   0.241   7.573   6.042 -2.0058  2.0233  0.3270
  183SOL     OW 2032   4.423   6.847   5.101  0.1898  0.3971 -0.4469
  183SOL    HW1 2033   4.454   6.800   5.179 -0.4638 -1.2421 -1.1522
  183SOL    HW2 2034   4.475   6.810   5.029 -1.2063 -0.1307 -1.1901
  184SOL     OW 2035   5.477   2.042   1.267  0.2674  0.2654  0.4931
  184SOL    HW1 2036   5.485   2.080   1.354  1.2494 -0.5458  0.7648
  184SOL    HW2 2037   5.444   1.953   1.283 -0.6266  0.4965 -0.0378
  185SOL     OW 2038   2.532   4.566   8.148  0.0977 -0.1130 -0.6326
  185SOL    HW1 2039   2.571   4.509   8.215  0.9685  0.9050 -0.2623
  185SOL    HW2 2040   2.607   4.604   8.104 -0.4879  1.1714 -0.5215
  186SOL     OW 2041   1.689   4.549   5.449 -0.4714 -0.4021  0.3335
  186SOL    HW1 2042   1.773   4.528   5.488 -1.2885 -3.1323  0.7271
  186SOL    HW2 2043   1.710   4.612   5.380  1.4788  1.2785  2.3823
  187SOL     OW 2044   7.317   6.621   7.042  0.0753 -0.6198 -0.0017
  187SOL    HW1 2045   7.375   6.551   7.072  2.1136  1.1294  0.2239
  187SOL    HW2 2046   7.255   6.634   7.113  2.0830  0.4154  1.6104
  188SOL     OW 2047   0.778   5.138   2.794 -0.0389 -0.1977 -0.2280
  188SOL    HW1 2048   0.872   5.155   2.782 -0.2118  1.5459  0.7489
  188SOL    HW2 2049   0.741   5.152   2.707  0.1822  2.2566  0.0311
  189SOL     OW 2050   4.889   5.329   4.470  0.4863  0.1633  0.0571
  189SOL    HW1 2051   4.979   5.299   4.482  0.8246  1.1404  0.0499
  189SOL    HW2 2052   4.897   5.424   4.463 -0.5955  0.2881  0.4730
  190SOL     OW 2053   4.413   0.142   3.448  0.3276 -0.2519 -0.0147
  190SOL    HW1 2054   4.507   0.125   3.446  0.4373  0.2347  0.6742
  190SOL    HW2 2055   4.406   0.237   3.461 -0.2466 -0.4043  0.8324
  191SOL     OW 2056   7.382   1.605   1.369 -0.5072  0.0832 -0.2625
  191SOL    HW1 2057   7.411   1.530   1.316  1.4509 -0.8048  1.9518
  191SOL    HW2 2058   7.311   1.570   1.423 -1.2277  0.4794 -0.9509
  192SOL     OW 2059   1.164   4.557   3.731  0.2389 -0.2301  0.1000
  192SOL    HW1 2060   1.167   4.475   3.782 -1.7240 -0.1515  0.3851
  192SOL    HW2 2061   1.184   4.529   3.641 -0.2217 -1.0064  0.2272
  193SOL     OW 2062   4.034   3.906   7.387  0.1950 -0.0125 -0.4952
  193SOL    HW1 2063   4.122   3.929   7.357  0.2029 -0.4228 -0.7948
  193SOL    HW2 2064   4.019   3.962   7.463  0.3623  0.7031 -0.9793
  194SOL     OW 2065   3.368   6.095   1.464 -0.1252 -0.2070  0.1313
  194SOL    HW1 2066   3.348   6.162   1.529  1.1325 -0.5472  0.8698
  194SOL    HW2 2067   3.301   6.028   1.477  0.4729 -0.5525  1.4754
  195SOL     OW 2068   0.931   7.154   6.867 -0.5784  0.1882 -0.1806
  195SOL    HW1 2069   0.975   7.073   6.894 -0.7715  0.7160  1.8615
  195SOL    HW2 2070   0.976   7.180   6.787  1.7328 -0.1840  0.9491
  196SOL     OW 2071   4.484   0.529   3.235 -0.0163  0.4858  0.3306
  196SOL    HW1 2072   4.398   0.564   3.212 -0.6303 -0.8163  0.6065
  196SOL    HW2 2073   4.546   0.596   3.204 -1.0991  1.2564 -0.2119
  197SOL     OW 2074   7.116   3.093   0.265 -0.3585 -0.2715  0.5536
  197SOL    HW1 2075   7.052   3.161   0.285 -0.6492 -0.2092 -0.5295
  197SOL    HW2 2076   7.176   3.092   0.340  0.2465  1.8959  0.1327
  198SOL     OW 2077   4.087   1.811   0.794 -0.1491  0.0573 -0.1889
  198SOL    HW1 2078   4.155   1.777   0.853  0.3529  0.8512 -0.2987
  198SOL    HW2 2079   4.012   1.754   0.808  0.2861 -0.3476  0.5175
  199SOL     OW 2080   7.568   5.291   1.243 -0.1459  0.2450  0.4411
  199SOL    HW1 2081   7.636   5.342   1.201 -1.7539  1.5899 -0.5797
  199SOL    HW2 2082   7.586   5.298   1.337  1.2895  0.3053  0.1632
  200SOL     OW 2083   7.870   0.499   5.413  0.0042  0.4118  0.0342
  200SOL    HW1 2084   7.962   0.472   5.419 -0.1308 -0.3621 -1.1846
  200SOL    HW2 2085   7.829   0.433   5.357 -0.7867  2.0352 -1.3710
  201SOL     OW 2086   1.491   6.882   0.428 -0.4502  0.2940  0.1662
  201SOL    HW1 2087   1.568   6.882   0.370 -0.7632  1.8312 -0.2548
  201SOL    HW2 2088   1.527   6.901   0.515 -0.4803  2.3114 -0.2356
  202SOL     OW 2089   3.802   3.739   5.883 -0.0100  0.1525  0.1614
  202SOL    HW1 2090   3.869   3.751   5.816  0.0526  0.7328  0.3281
  202SOL    HW2 2091   3.747   3.816   5.877 -0.2077  0.0447  0.5453
  203SOL     OW 2092   6.339   2.842   7.722  0.3002  0.5727  0.2407
  203SOL    HW1 2093   6.338   2.844   7.626 -0.1705  1.3191  0.2592
  203SOL    HW2 2094   6.297   2.924   7.749 -3.1198 -1.3035  1.0435
  204SOL     OW 2095   5.196   3.263   3.367  0.2136  0.0297 -0.1290
  204SOL    HW1 2096   5.231   3.348   3.341  0.5002 -0.2438 -0.6415
  204SOL    HW2 2097   5.258   3.199   3.332  1.3205 -0.3145  2.3374
  205SOL     OW 2098   2.232   1.985   2.491 -0.0958 -0.8068  0.4529
  205SOL    HW1 2099   2.263   2.062   2.539 -2.4805 -0.3983  1.4595
  205SOL    HW2 2100   2.137   1.999   2.483 -0.3156 -2.8242 -0.8389
  206SOL     OW 2101   4.399   6.843   2.029 -0.4266  0.0504  0.2229
  206SOL    HW1 2102   4.443   6.826   1.945 -1.0779 -4.1825  0.6256
  206SOL    HW2 2103   4.456   6.803   2.094 -1.1238  1.2176  1.5760
  207SOL     OW 2104   3.019   0.675   2.340 -0.5391 -0.4515  0.3839
  207SOL    HW1 2105   2.961   0.646   2.269 -0.3206 -3.1207  1.2505
  207SOL    HW2 2106   2.960   0.706   2.408 -0.8932 -1.3343  0.4836
  208SOL     OW 2107   5.112   2.278   4.726  0.2063 -0.1043 -0.5119
  208SOL    HW1 2108   5.185   2.298   4.667  0.4949  1.8872  0.4765
  208SOL    HW2 2109   5.148   2.213   4.786  1.0871  0.6025 -0.2468
  209SOL     OW 2110   7.084   5.511   2.626  0.0178 -0.3268  0.0974
  209SOL    HW1 2111   7.108   5.516   2.719  1.3941  0.7771 -0.2949
  209SOL    HW2 2112   7.005   5.564   2.619  1.2742  1.6252  0.2309
  210SOL     OW 2113   5.079   1.116   3.345  0.1806  0.0107  0.1469
  210SOL    HW1 2114   4.991   1.082   3.328 -1.1189  2.8591  0.7998
  210SOL    HW2 2115   5.068   1.176   3.419  3.0955 -1.1758  1.6081
  211SOL     OW 2116   6.279   6.466   1.115  0.0909 -1.0220  0.1476
  211SOL    HW1 2117   6.371   6.456   1.139  0.3695 -1.8235 -1.2116
  211SOL    HW2 2118   6.247   6.536   1.172  1.9910  0.4746 -0.5833
  212SOL     OW 2119   5.414   1.102   5.366  0.7567  0.1241  0.3514
  212SOL    HW1 2120   5.476   1.161   5.322 -0.8256  1.2123 -0.5081
  212SOL    HW2 2121   5.418   1.021   5.316  0.8425  0.5014 -0.2592
  213SOL     OW 2122   6.043   3.564   1.388  0.0199  0.0389 -0.2128
  213SOL    HW1 2123   6.091   3.647   1.382  0.0303  0.1088  0.7216
  213SOL    HW2 2124   5.997   3.570   1.472 -1.4256 -0.1275 -0.9796
  214SOL     OW 2125   1.551   0.882   6.811 -0.4250  0.0170 -0.6961
  214SOL    HW1 2126   1.499   0.948   6.858  0.1675 -0.8098  1.1935
  214SOL    HW2 2127   1.638   0.888   6.850 -0.0396 -1.0286 -1.3837
  215SOL     OW 2128   3.927   3.975   1.086 -0.6533 -0.2311  0.2957
  215SOL    HW1 2129   3.922   4.048   1.148 -0.5827  0.8953 -0.9930
  215SOL    HW2 2130   3.892   3.900   1.134 -1.0841  0.7333  1.5204
  216SOL     OW 2131   0.915   4.246   6.390  0.3659  0.0857 -0.0467
  216SOL    HW1 2132   0.852   4.250   6.318  0.3064 -0.9280 -0.0629
  216SOL    HW2 2133   0.999   4.266   6.350  0.0255  1.6914  0.0196
  217SOL     OW 2134   3.651   6.440   1.516  0.6209  0.0761 -0.5360
  217SOL    HW1 2135   3.740   6.472   1.501  0.6217  1.2024  1.6434
  217SOL    HW2 2136   3.664   6.357   1.563  0.5167 -0.2974 -1.1538
  218SOL     OW 2137   3.607   4.600   3.434  0.1092 -0.0634 -0.6671
  218SOL    HW1 2138   3.597   4.518   3.385 -0.8887 -0.6701  0.5158
  218SOL    HW2 2139   3.554   4.663   3.386  1.4745  0.0811 -2.0051
  219SOL     OW 2140   0.509   1.665   1.236  0.2101 -0.0250  0.3053
  219SOL    HW1 2141   0.564   1.674   1.159  1.8483  0.9390  1.5504
  219SOL    HW2 2142   0.481   1.755   1.256  1.6737  0.0631  2.1294
  220SOL     OW 2143   3.260   1.706   1.879 -0.4951  0.5162 -0.0274
  220SOL    HW1 2144   3.335   1.719   1.820  0.2858 -1.1789  0.5673
  220SOL    HW2 2145   3.191   1.760   1.841  1.1467  2.4965 -0.3368
  221SOL     OW 2146   0.243   3.533   8.280  0.4521 -0.2809 -0.3285
  221SOL    HW1 2147   0.231   3.592   8.206 -2.9568  0.0716  0.4215
  221SOL    HW2 2148   0.263   3.590   8.354  1.7029 -0.4586 -0.5211
  222SOL     OW 2149   1.533   6.458   6.465  0.1371 -0.0214 -0.1707
  222SOL    HW1 2150   1.518   6.372   6.506  1.7005 -0.4036 -0.4054
  222SOL    HW2 2151   1.479   6.456   6.386 -2.5654  0.5446  1.5717
  223SOL     OW 2152   2.784   1.148   1.656 -0.3342 -0.1319  0.0018
  223SOL    HW1 2153   2.810   1.103   1.575  1.2084  0.1178  0.3456
  223SOL    HW2 2154   2.696   1.115   1.675  0.1017 -1.7212 -0.6907
  224SOL     OW 2155   8.294   2.158   8.112 -0.1508 -0.8275  0.4871
  224SOL    HW1 2156   8.385   2.187   8.108 -0.4171  0.1447  1.3143
  224SOL    HW2 2157   8.263   2.189   8.197 -1.1587 -1.4322  0.3396
  225SOL     OW 2158   6.479   6.012   2.936 -0.3894  0.1567  0.2264
  225SOL    HW1 2159   6.486   5.938   2.995 -0.5730  1.4169  1.8623
  225SOL    HW2 2160   6.411   5.987   2.874  0.0975 -1.3436  0.2899
  226SOL     OW 2161   1.322   0.971   8.268 -0.1309 -0.1985 -0.6744
  226SOL    HW1 2162   1.396   0.929   8.313 -0.2473  0.3522  0.0494
  226SOL    HW2 2163   1.254   0.904   8.267 -0.1691 -0.1845  0.0999
  227SOL     OW 2164   7.168   1.697   0.674  0.6095  0.1492 -0.1702
  227SOL    HW1 2165   7.212   1.750   0.607 -0.2634  0.2233 -0.7038
  227SOL    HW2 2166   7.121   1.630   0.624 -0.8073  0.7666  0.3010
  228SOL     OW 2167   6.764   3.101   1.562  0.3781  0.0141 -0.2343
  228SOL    HW1 2168   6.762   3.095   1.466 -0.0103  3.3679 -0.4884
  228SOL    HW2 2169   6.679   3.068   1.590 -1.2829  3.0970 -1.3979
  229SOL     OW 2170   4.321   6.023   3.414 -0.1573 -0.3943 -0.2171
  229SOL    HW1 2171   4.299   5.984   3.329 -0.1377  2.0829 -1.4121
  229SOL    HW2 2172   4.381   6.094   3.393  0.3790 -0.1694  1.9616
  230SOL     OW 2173   1.284   7.728   2.110  0.3090 -0.3102 -0.3034
  230SOL    HW1 2174   1.217   7.660   2.119 -0.2570  0.1625 -0.9151
  230SOL    HW2 2175   1.236   7.810   2.120  0.8210  0.0240 -0.5766
  231SOL     OW 2176   3.356   3.766   7.503 -0.1443 -0.1096  0.1167
  231SOL    HW1 2177   3.270   3.808   7.495 -1.2901 -2.3167  0.5759
  231SOL    HW2 2178   3.351   3.689   7.447  2.1071  0.5936 -1.0868
  232SOL     OW 2179   6.205   0.664   8.257 -0.1107 -0.3713  0.2113
  232SOL    HW1 2180   6.219   0.671   8.163 -0.1937 -1.2363  0.1306
  232SOL    HW2 2181   6.279   0.711   8.296 -1.1753  1.8040 -0.2986
  233SOL     OW 2182   5.026   5.817   6.577 -0.2284 -0.0963 -0.7743
  233SOL    HW1 2183   5.115   5.849   6.590 -0.5660  0.3350  0.4913
  233SOL    HW2 2184   4.983   5.887   6.527 -0.8897  1.3528  1.7625
  234SOL     OW 2185   5.760   7.686   0.528  0.8755  0.1285 -0.4785
  234SOL    HW1 2186   5.825   7.689   0.457  0.3900 -0.5420 -0.9597
  234SOL    HW2 2187   5.810   7.706   0.607  1.7827 -0.9273 -0.7760
  235SOL     OW 2188   1.749   1.585   7.456  0.0873 -0.4684 -0.2338
  235SOL    HW1 2189   1.804   1.648   7.409  0.7830  0.1069  1.3449
  235SOL    HW2 2190   1.660   1.604   7.426  0.2311  1.6251  0.6362
  236SOL     OW 2191   2.787   6.824   6.936 -0.2670 -0.0572 -0.0981
  236SOL    HW1 2192   2.797   6.772   6.857  0.3688  0.4250 -0.3382
  236SOL    HW2 2193   2.747   6.906   6.906  0.5205  0.3604 -0.0109
  237SOL     OW 2194   2.750   1.440   0.754  0.2191  0.1533 -0.1698
  237SOL    HW1 2195   2.682   1.372   0.749  1.6901 -1.7103  3.6481
  237SOL    HW2 2196   2.816   1.411   0.691 -1.0721  0.3557 -1.6678
  238SOL     OW 2197   1.147   6.397   6.137 -0.1872 -0.0075 -0.0726
  238SOL    HW1 2198   1.101   6.463   6.085 -2.4079 -0.4985  1.1831
  238SOL    HW2 2199   1.079   6.334   6.160  1.7781 -2.4372 -0.7403
  239SOL     OW 2200   0.827   7.623   0.764 -0.6538  0.1912 -0.0506
  239SOL    HW1 2201   0.816   7.680   0.840 -1.9464  0.9150 -0.7646
  239SOL    HW2 2202   0.858   7.680   0.694  1.1530 -0.5896  0.0695
  240SOL     OW 2203   6.777   5.061   2.848 -0.9893 -0.0964  0.0291
  240SOL    HW1 2204   6.861   5.015   2.848 -0.9483 -0.1076  3.6705
  240SOL    HW2 2205   6.720   5.005   2.795  1.1395 -0.2486 -2.2334
  241SOL     OW 2206   7.264   4.366   5.845 -0.1885 -0.5437  0.0819
  241SOL    HW1 2207   7.240   4.383   5.754 -0.1597 -0.5380  0.0754
  241SOL    HW2 2208   7.231   4.278   5.862  0.8418 -1.0142 -0.2927
  242SOL     OW 2209   4.531   4.298   0.447 -0.3409  0.4100  0.7720
  242SOL    HW1 2210   4.593   4.239   0.489 -1.6981 -2.8753 -1.6477
  242SOL    HW2 2211   4.586   4.361   0.399  1.1035 -0.2308  1.5657
  243SOL     OW 2212   7.823   7.418   1.230  0.4186  0.0466 -0.1000
  243SOL    HW1 2213   7.783   7.382   1.151 -0.3341 -1.5654  0.9916
  243SOL    HW2 2214   7.822   7.346   1.293  0.4785  1.4760  1.5809
  244SOL     OW 2215   4.919   0.934   0.071 -1.0100  0.2525 -0.0247
  244SOL    HW1 2216   4.953   1.023   0.070 -0.6707  0.1358  0.8947
  244SOL    HW2 2217   4.951   0.896  -0.011 -1.8458  1.2247 -0.8050
  245SOL     OW 2218   3.494   1.998   6.201 -0.3063 -0.1571  0.4140
  245SOL    HW1 2219   3.533   1.966   6.120  0.3555 -0.5529  0.8849
  245SOL    HW2 2220   3.431   1.930   6.225 -1.3573  0.5293 -0.3979
  246SOL     OW 2221   2.871   3.338   8.064  0.5367 -0.2297  0.5700
  246SOL    HW1 2222   2.791   3.365   8.108 -0.5319  0.7045 -1.8785
  246SOL    HW2 2223   2.864   3.242   8.059  0.1708 -0.2526  1.4673
  247SOL     OW 2224   0.037   4.246   3.261  0.3158 -0.2375 -0.2851
  247SOL    HW1 2225   0.000   4.302   3.193 -0.2166 -0.4598 -0.1843
  247SOL    HW2 2226   0.052   4.305   3.335  1.0502  0.0351 -0.6449
  248SOL     OW 2227   4.595   2.650   1.933 -0.1868 -0.5085  0.3493
  248SOL    HW1 2228   4.576   2.683   2.021  0.0010 -0.7994  0.4980
  248SOL    HW2 2229   4.509   2.643   1.891 -0.3104 -0.7769  0.6533
  249SOL     OW 2230   4.614   8.028   7.266  0.1818  0.1136  0.3198
  249SOL    HW1 2231   4.592   8.001   7.177  0.5869  1.6712 -0.2614
  249SOL    HW2 2232   4.542   8.087   7.291  0.2803  0.0008  0.8648
  250SOL     OW 2233   1.676   0.670   0.740 -0.2195 -0.7442  0.2957
  250SOL    HW1 2234   1.632   0.659   0.656  0.4910 -1.7686  0.0523
  250SOL    HW2 2235   1.760   0.711   0.718 -0.3091 -0.4011  0.5830
  251SOL     OW 2236   2.319   6.064   3.021 -0.3920 -0.5043  0.3981
  251SOL    HW1 2237   2.366   6.037   3.100  0.5132 -1.1443 -0.3445
  251SOL    HW2 2238   2.379   6.122   2.975 -1.0427  0.1266  0.3416
  252SOL     OW 2239   3.629   4.001   1.618 -0.5586  0.4313 -0.5918
  252SOL    HW1 2240   3.721   4.028   1.623 -0.7961  1.5198 -1.8672
  252SOL    HW2 2241   3.583   4.063   1.675 -0.4522 -0.3818  0.3888
  253SOL     OW 2242   4.780   6.247   5.431  0.5399 -0.5719 -0.0947
  253SOL    HW1 2243   4.751   6.174   5.486  0.6606 -1.1498 -0.7975
  253SOL    HW2 2244   4.870   6.226   5.408  1.8611  1.6518  2.8085
  254SOL     OW 2245   6.875   3.091   8.087 -0.0451  0.0450  0.7350
  254SOL    HW1 2246   6.911   3.075   8.000  1.4343  2.9682  0.7457
  254SOL    HW2 2247   6.791   3.134   8.072 -0.2455 -0.3286  0.7672
  255SOL     OW 2248   7.819   2.100   5.412 -0.0216 -0.7094 -0.1776
  255SOL    HW1 2249   7.839   2.085   5.320 -1.6761 -1.0044 -0.5113
  255SOL    HW2 2250   7.751   2.035   5.433 -1.9008  1.3616  0.3838
  256SOL     OW 2251   1.342   6.692   6.952  0.3196 -0.3745  0.0143
  256SOL    HW1 2252   1.327   6.755   6.881  1.3794 -0.9069 -0.7184
  256SOL    HW2 2253   1.396   6.624   6.911  0.0447 -1.2299  1.0630
  257SOL     OW 2254   7.226   3.598   0.709 -0.8337 -0.0721  0.3866
  257SOL    HW1 2255   7.246   3.574   0.799  0.2745 -0.5951  0.0105
  257SOL    HW2 2256   7.284   3.672   0.690 -0.2330 -0.6962 -0.2578
  258SOL     OW 2257   5.533   6.854   4.676  0.4926  0.1919 -0.7102
  258SOL    HW1 2258   5.534   6.906   4.756 -0.0408 -3.0484  1.5134
  258SOL    HW2 2259   5.473   6.901   4.618  0.6067  2.4114  0.8836
  259SOL     OW 2260   1.942   1.732   5.030 -0.3379  0.1158  0.0868
  259SOL    HW1 2261   1.862   1.782   5.046 -0.4023  0.2482 -0.6075
  259SOL    HW2 2262   1.939   1.711   4.936  0.5438  0.3012  0.0065
  260SOL     OW 2263   5.745   0.588   0.625 -0.2873 -0.2099 -0.6075
  260SOL    HW1 2264   5.806   0.661   0.611 -1.0678  0.4238 -0.7595
  260SOL    HW2 2265   5.799   0.509   0.614  0.1101  0.3132 -2.6194
  261SOL     OW 2266   4.868   7.573   0.601  0.0039 -0.1635 -0.0063
  261SOL    HW1 2267   4.929   7.501   0.583 -1.2122 -1.3639  0.6297
  261SOL    HW2 2268   4.918   7.652   0.579  1.1819 -1.2144 -1.2139
  262SOL     OW 2269   7.969   2.573   0.378 -0.3771 -0.2244 -0.4106
  262SOL    HW1 2270   8.015   2.597   0.459 -0.0277 -0.4277 -0.5508
  262SOL    HW2 2271   8.037   2.542   0.319 -0.9675 -2.8539  0.2166
  263SOL     OW 2272   7.847   4.134   0.995  0.1921 -0.2112 -0.0246
  263SOL    HW1 2273   7.821   4.048   0.961 -2.8914  0.6118  0.1417
  263SOL    HW2 2274   7.799   4.196   0.941  0.7661  1.3661  1.2531
  264SOL     OW 2275   0.656   6.767   3.022 -0.1542  0.2458  0.3083
  264SOL    HW1 2276   0.565   6.797   3.019 -0.5333 -1.0080 -1.1457
  264SOL    HW2 2277   0.683   6.765   2.931  2.2639  3.3286  0.9028
  265SOL     OW 2278   5.295   5.356   0.163 -0.0519  0.4017  0.0844
  265SOL    HW1 2279   5.207   5.350   0.124 -0.3330  1.3929  0.5447
  265SOL    HW2 2280   5.282   5.410   0.241  0.6923 -0.7374  0.9978
  266SOL     OW 2281   5.218   5.544   4.455 -0.2331  0.2066 -0.3691
  266SOL    HW1 2282   5.287   5.597   4.496  1.4787  0.7332 -3.6919
  266SOL    HW2 2283   5.239   5.454   4.479 -0.7954  0.6705  1.9813
  267SOL     OW 2284   0.628   4.841   0.184  0.1489 -0.1819  0.2986
  267SOL    HW1 2285   0.574   4.909   0.142  0.8602 -0.1370 -0.5631
  267SOL    HW2 2286   0.619   4.765   0.126 -1.0289 -0.9868  1.5111
  268SOL     OW 2287   1.422   4.093   0.801 -0.4196  0.3793 -0.2735
  268SOL    HW1 2288   1.461   4.180   0.787 -0.2139  0.5031  1.0013
  268SOL    HW2 2289   1.469   4.036   0.741 -1.1372  1.3087 -1.7298
  269SOL     OW 2290   2.894   1.054   2.789 -0.0549 -0.1419 -1.2076
  269SOL    HW1 2291   2.880   1.070   2.882 -0.0178 -1.6161 -0.9442
  269SOL    HW2 2292   2.881   1.139   2.748 -0.6852  0.3838  0.0733
  270SOL     OW 2293   3.987   7.592   5.642  1.1420 -0.1415 -0.5762
  270SOL    HW1 2294   4.029   7.538   5.575  0.4645 -1.9790  0.4342
  270SOL    HW2 2295   3.998   7.541   5.723  1.0164  1.5429  0.5121
  271SOL     OW 2296   6.685   7.157   3.206 -0.2182  0.0990  0.3521
  271SOL    HW1 2297   6.629   7.108   3.146 -1.0807 -0.1560  1.3493
  271SOL    HW2 2298   6.757   7.097   3.226  0.2434  0.3097 -0.6861
  272SOL     OW 2299   7.457   5.923   1.862 -0.3580 -0.3663 -0.2553
  272SOL    HW1 2300   7.533   5.938   1.918  0.2641 -2.5816 -0.4486
  272SOL    HW2 2301   7.382   5.941   1.918  0.2787  1.9190 -0.0816
  273SOL     OW 2302   4.003   6.788   1.303 -0.0946 -0.1500 -0.0822
  273SOL    HW1 2303   4.061   6.836   1.244  0.1526 -1.2230 -0.7366
  273SOL    HW2 2304   3.918   6.789   1.258 -1.5514  4.5251  2.5531
  274SOL     OW 2305   2.243   3.750   3.888  0.9848 -0.0821  0.0079
  274SOL    HW1 2306   2.265   3.658   3.898  1.5019  0.0124 -0.2862
  274SOL    HW2 2307   2.326   3.794   3.872  0.5597  0.2417 -1.3332
  275SOL     OW 2308   8.156   0.361   5.859 -0.6445  0.9256  0.0980
  275SOL    HW1 2309   8.197   0.309   5.928 -0.4170  0.6517 -0.2411
  275SOL    HW2 2310   8.114   0.434   5.905  1.8698  2.2990  0.3231
  276SOL     OW 2311   0.725   2.791   4.301  0.3472  0.8272  0.0833
  276SOL    HW1 2312   0.809   2.768   4.262 -0.7093 -0.2354 -1.6235
  276SOL    HW2 2313   0.670   2.816   4.227 -0.9553  1.1624  1.1484
  277SOL     OW 2314   3.175   0.518   3.568  0.2854 -0.2468 -0.2477
  277SOL    HW1 2315   3.106   0.452   3.570  1.4482 -1.5254 -1.3134
  277SOL    HW2 2316   3.174   0.557   3.656 -0.7418 -1.3222  0.2248
  278SOL     OW 2317   2.471   4.848   0.692 -0.3763  0.5688  0.1314
  278SOL    HW1 2318   2.459   4.917   0.759 -0.1315  1.5249 -0.7948
  278SOL    HW2 2319   2.390   4.850   0.642 -0.1278  0.5900 -0.2658
  279SOL     OW 2320   3.585   3.055   0.938  1.2334 -0.0465  0.8893
  279SOL    HW1 2321   3.509   3.107   0.962  1.6418  0.7943  0.3803
  279SOL    HW2 2322   3.571   2.970   0.981 -0.6288 -0.3563 -0.2806
  280SOL     OW 2323   4.900   1.847   6.966  0.1806 -0.8001  0.6624
  280SOL    HW1 2324   4.935   1.856   6.877  1.9561  2.8311  1.5962
  280SOL    HW2 2325   4.963   1.790   7.011 -0.1753 -1.8259 -0.1381
  281SOL     OW 2326   0.511   0.742   0.694 -0.2024  0.2312 -0.0659
  281SOL    HW1 2327   0.562   0.785   0.625 -0.1000 -0.6291 -0.5314
  281SOL    HW2 2328   0.478   0.814   0.747  0.1052  0.8846 -0.7442
  282SOL     OW 2329   0.368   3.240   4.995  0.3950 -0.2568  0.6435
  282SOL    HW1 2330   0.406   3.249   4.908  0.0039  0.5400  0.5423
  282SOL    HW2 2331   0.414   3.306   5.048  0.7064 -0.8091  1.0694
  283SOL     OW 2332   7.008   2.713   2.231 -0.4273  0.2520  0.0601
  283SOL    HW1 2333   7.003   2.803   2.261  0.3171  0.3062  0.0187
  283SOL    HW2 2334   6.918   2.690   2.208 -0.7240  0.7617  0.7116
  284SOL     OW 2335   0.994   2.138   1.207  0.2247  0.0984 -0.5161
  284SOL    HW1 2336   1.021   2.201   1.274  0.3646 -0.2945 -0.1998
  284SOL    HW2 2337   1.072   2.084   1.194 -0.6194 -1.5335  0.9464
  285SOL     OW 2338   3.329   5.297   7.218 -0.0548 -0.8412 -0.0991
  285SOL    HW1 2339   3.358   5.318   7.307 -4.0578 -0.8683  1.2816
  285SOL    HW2 2340   3.332   5.380   7.171  2.9266 -0.9798 -0.2909
  286SOL     OW 2341   1.421   1.598   2.435  0.4369 -0.4617 -0.2858
  286SOL    HW1 2342   1.439   1.644   2.518  0.8541 -2.0826  0.5420
  286SOL    HW2 2343   1.347   1.540   2.455 -1.1939  1.0394 -1.7812
  287SOL     OW 2344   4.124   1.161   0.941 -0.1751  0.3541  0.4572
  287SOL    HW1 2345   4.073   1.220   0.885 -1.7596  0.0413  1.5398
  287SOL    HW2 2346   4.126   1.206   1.026  1.3183  0.3358  0.4352
  288SOL     OW 2347   4.626   3.826   2.152  0.7315  0.1061  0.0600
  288SOL    HW1 2348   4.545   3.871   2.128  1.2166 -0.7039 -3.2666
  288SOL    HW2 2349   4.605   3.781   2.234 -1.7149  1.1410  0.0262
  289SOL     OW 2350   3.688   7.885   7.457  1.0869  0.3162 -0.3727
  289SOL    HW1 2351   3.643   7.861   7.376 -0.7155 -0.5615  0.8540
  289SOL    HW2 2352   3.690   7.981   7.456 -2.0619  0.4236  0.1931
  290SOL     OW 2353   3.858   3.809   6.743  0.3563 -0.1966 -0.2070
  290SOL    HW1 2354   3.922   3.880   6.735  0.0374  0.2961  1.5775
  290SOL    HW2 2355   3.775   3.849   6.718  0.7359 -0.8849 -2.7101
  291SOL     OW 2356   7.198   0.061   1.482  0.6459  0.6730  0.1303
  291SOL    HW1 2357   7.247   0.109   1.415  0.4767  0.7249  0.0435
  291SOL    HW2 2358   7.210   0.113   1.562  1.4517  0.2262  0.3076
  292SOL     OW 2359   7.967   8.011   4.188 -0.5158  0.1382 -0.1409
  292SOL    HW1 2360   7.896   7.963   4.230  0.3318 -0.8684  0.1407
  292SOL    HW2 2361   7.943   8.014   4.095  0.4113 -2.5743 -0.4972
  293SOL     OW 2362   4.796   6.158   7.891  0.2431  0.0513  0.1554
  293SOL    HW1 2363   4.827   6.234   7.843  1.0174 -0.0970  0.4118
  293SOL    HW2 2364   4.814   6.178   7.983 -1.6156  0.5152  0.4503
  294SOL     OW 2365   2.919   3.779   2.052  0.5038 -0.1614  0.3262
  294SOL    HW1 2366   2.923   3.849   1.988 -1.4143  0.3330  0.7087
  294SOL    HW2 2367   2.834   3.738   2.038 -0.1493  0.2409  2.8312
  295SOL     OW 2368   5.255   6.307   5.987  0.4526  0.1864 -0.2108
  295SOL    HW1 2369   5.191   6.378   5.996  1.3585  1.0925 -0.8327
  295SOL    HW2 2370   5.202   6.228   5.973 -0.5015  1.0671 -1.5873
  296SOL     OW 2371   0.537   2.179   5.193 -0.0507  0.0119 -0.3782
  296SOL    HW1 2372   0.607   2.239   5.169  0.0184 -0.2935 -0.9363
  296SOL    HW2 2373   0.578   2.093   5.194 -0.1412 -0.0349  0.4571
  297SOL     OW 2374   6.861   4.375   1.385  0.6260 -0.0057  0.6800
  297SOL    HW1 2375   6.815   4.301   1.344  0.5309  0.6902 -0.4930
  297SOL    HW2 2376   6.921   4.406   1.317  1.9566 -0.1131  1.7733
  298SOL     OW 2377   4.923   3.734   0.355 -0.3630  0.7093  1.0149
  298SOL    HW1 2378   4.977   3.691   0.422 -1.5283 -0.4285  1.2409
  298SOL    HW2 2379   4.972   3.723   0.274 -0.7344 -1.2651  1.0255
  299SOL     OW 2380   7.308   6.023   6.574  0.1028  0.3846 -0.6999
  299SOL    HW1 2381   7.366   6.007   6.648 -0.6443  0.4181 -0.1054
  299SOL    HW2 2382   7.359   5.997   6.497  0.8994  0.4118 -0.1834
  300SOL     OW 2383   7.590   4.980   4.292 -0.1285  0.2091 -0.3065
  300SOL    HW1 2384   7.516   5.006   4.237  0.9742  0.9343 -1.4550
  300SOL    HW2 2385   7.574   5.023   4.376 -0.6921  0.8369 -0.7380
  301SOL     OW 2386   3.197   2.043   3.955 -0.0648 -0.3979  0.4987
  301SOL    HW1 2387   3.158   2.118   3.911  1.1133 -1.1036 -1.8395
  301SOL    HW2 2388   3.162   1.967   3.908 -0.8400 -1.3228  2.5032
  302SOL     OW 2389   1.837   5.003   4.846 -0.3685  0.0788 -0.1589
  302SOL    HW1 2390   1.791   5.076   4.887 -2.0703 -1.3794  0.6204
  302SOL    HW2 2391   1.867   4.950   4.920  1.9815  0.6291 -0.6813
  303SOL     OW 2392   5.109   4.522   6.228 -0.2517  0.1700 -0.6741
  303SOL    HW1 2393   5.171   4.449   6.240 -0.2431  0.3685  0.5370
  303SOL    HW2 2394   5.089   4.521   6.134  2.8383  1.1026 -1.4019
  304SOL     OW 2395   8.233   3.409   4.237 -0.0741 -0.3520 -0.3001
  304SOL    HW1 2396   8.311   3.381   4.190  0.1503  1.2659 -0.9056
  304SOL    HW2 2397   8.169   3.429   4.169 -0.3630  0.1987  0.1254
  305SOL     OW 2398   2.140   5.722   1.648  0.4723 -0.4688 -0.3900
  305SOL    HW1 2399   2.212   5.676   1.691 -1.3984 -1.4369  1.7935
  305SOL    HW2 2400   2.108   5.660   1.582 -1.4545 -2.0117  1.9287
  306SOL     OW 2401   3.087   2.377   6.083 -0.1975 -0.1292  0.2824
  306SOL    HW1 2402   3.003   2.416   6.056 -0.2511  0.1132  0.7855
  306SOL    HW2 2403   3.147   2.452   6.089 -0.2911 -0.1164  1.2174
  307SOL     OW 2404   5.438   7.380   2.184 -0.6438 -0.4049  0.2004
  307SOL    HW1 2405   5.390   7.462   2.179 -0.3050 -0.2931 -1.4851
  307SOL    HW2 2406   5.449   7.353   2.093  1.9528 -0.7493  0.5810
  308SOL     OW 2407   6.987   2.887   3.560 -0.2293  0.2899 -0.6835
  308SOL    HW1 2408   7.049   2.879   3.633  0.4747  1.9756 -1.0720
  308SOL    HW2 2409   7.034   2.853   3.485 -0.1062  0.6964 -0.7934
  309SOL     OW 2410   0.602   4.294   3.547 -0.0298 -0.2767 -0.4417
  309SOL    HW1 2411   0.529   4.334   3.501 -0.4806  1.1940  1.4732
  309SOL    HW2 2412   0.564   4.220   3.594 -0.2941  0.4682  0.5276
  310SOL     OW 2413   7.681   4.143   0.017 -0.4018 -0.0904  0.0895
  310SOL    HW1 2414   7.651   4.061  -0.020  1.8963 -0.7393 -0.4155
  310SOL    HW2 2415   7.647   4.210  -0.043  1.6833 -1.0009 -2.1974
  311SOL     OW 2416   4.742   2.335   8.276  0.0366  0.4561 -0.1968
  311SOL    HW1 2417   4.797   2.410   8.298 -1.0917  1.4304 -0.6894
  311SOL    HW2 2418   4.728   2.291   8.360 -0.7419  1.7756  0.3793
  312SOL     OW 2419   0.351   2.501   8.039  0.0325  0.7842 -0.0875
  312SOL    HW1 2420   0.355   2.578   8.095  0.8587  1.5976 -1.2396
  312SOL    HW2 2421   0.257   2.482   8.032 -0.3372  2.8462 -1.3269
  313SOL     OW 2422   0.863   5.895   7.718  0.3543 -0.1325 -0.5594
  313SOL    HW1 2423   0.782   5.943   7.700 -0.2065 -0.5053  0.9042
  313SOL    HW2 2424   0.916   5.908   7.640 -0.4391  1.5310 -0.8541
  314SOL     OW 2425   0.747   3.336   7.070  0.2513 -0.3349 -0.4612
  314SOL    HW1 2426   0.757   3.255   7.020 -0.1971 -1.5437  1.3599
  314SOL    HW2 2427   0.686   3.313   7.141  1.7173  1.0199  1.2846
  315SOL     OW 2428   4.561   4.612   2.584 -0.3800  0.8995 -0.4032
  315SOL    HW1 2429   4.583   4.665   2.660  0.3241  0.0132  0.0268
  315SOL    HW2 2430   4.466   4.601   2.589 -0.5959  2.5112 -0.7711
  316SOL     OW 2431   1.844   3.922   7.319 -0.2692 -0.4912  0.1521
  316SOL    HW1 2432   1.841   3.918   7.223 -0.1160 -0.3442  0.1402
  316SOL    HW2 2433   1.766   3.973   7.343 -0.8357 -1.3596  0.1641
  317SOL     OW 2434   1.992   7.570   5.292  0.0376  0.6665 -0.1075
  317SOL    HW1 2435   1.907   7.595   5.327  0.2914  0.6941  0.4942
  317SOL    HW2 2436   1.973   7.501   5.228 -0.3243 -0.1583  0.8850
  318SOL     OW 2437   1.959   2.910   3.713  0.5731 -0.0431 -0.5923
  318SOL    HW1 2438   1.937   2.874   3.799  0.4073 -2.6140 -1.6611
  318SOL    HW2 2439   1.930   3.001   3.717  0.6632 -0.0801  2.0945
  319SOL     OW 2440   6.653   1.404   3.531  0.6643  0.1173  0.6857
  319SOL    HW1 2441   6.710   1.474   3.563  0.1691  1.3679 -1.1419
  319SOL    HW2 2442   6.712   1.329   3.517  1.6550  1.0251 -0.0254
  320SOL     OW 2443   0.781   1.891   6.638  0.1067  0.1416 -0.3807
  320SOL    HW1 2444   0.778   1.864   6.547  0.0739  0.8883 -0.6066
  320SOL    HW2 2445   0.715   1.838   6.682  0.3151 -0.4100 -0.7382
  321SOL     OW 2446   8.295   6.260   6.602 -0.5349  0.2595  0.2315
  321SOL    HW1 2447   8.365   6.324   6.616 -0.0668 -0.3292  0.5514
  321SOL    HW2 2448   8.282   6.261   6.507  1.0681 -0.8676 -0.0197
  322SOL     OW 2449   5.075   8.303   8.080  0.3073  0.0398  0.2768
  322SOL    HW1 2450   5.102   8.299   7.989  0.2188  2.9522  0.0691
  322SOL    HW2 2451   4.980   8.314   8.077  0.5113  2.1323  0.6234
  323SOL     OW 2452   6.100   5.156   7.190 -0.3573  0.1593 -0.7444
  323SOL    HW1 2453   6.074   5.144   7.099  0.8099 -2.1550 -0.8219
  323SOL    HW2 2454   6.195   5.172   7.186  0.0346 -1.7228  0.1196
  324SOL     OW 2455   3.154   8.116   6.153  0.0880 -0.2266 -0.7519
  324SOL    HW1 2456   3.081   8.068   6.113  0.3179  0.4681 -2.0077
  324SOL    HW2 2457   3.153   8.201   6.111  1.1328  0.0712 -0.1868
  325SOL     OW 2458   3.825   4.668   3.586  0.2740 -0.5732 -0.1347
  325SOL    HW1 2459   3.864   4.719   3.515  1.0835 -0.6592  0.2444
  325SOL    HW2 2460   3.746   4.630   3.547  0.3659 -0.0981 -0.8005
  326SOL     OW 2461   6.997   1.344   2.733  0.1054 -0.1692  0.0419
  326SOL    HW1 2462   7.011   1.363   2.826 -0.8593  1.4535 -0.1358
  326SOL    HW2 2463   6.971   1.252   2.731  0.6177 -0.3580  1.3218
  327SOL     OW 2464   0.155   6.057   1.865  0.0589  0.1029  0.1070
  327SOL    HW1 2465   0.181   5.992   1.931  0.4072  0.6018  0.4570
  327SOL    HW2 2466   0.059   6.055   1.867  0.0643 -0.4056  0.1108
  328SOL     OW 2467   4.502   3.571   1.460 -0.1187  0.0318  0.3648
  328SOL    HW1 2468   4.556   3.574   1.381 -0.6608  2.0155  0.0533
  328SOL    HW2 2469   4.415   3.549   1.428 -0.5540  1.8418  0.2839
  329SOL     OW 2470   4.927   2.678   6.798  0.5271 -0.1548  0.0789
  329SOL    HW1 2471   4.896   2.746   6.737 -1.5265 -1.3424 -0.2588
  329SOL    HW2 2472   4.997   2.633   6.751  0.9741  0.8548 -0.2272
  330SOL     OW 2473   5.809   5.788   5.258 -0.2127  0.5572  0.1539
  330SOL    HW1 2474   5.851   5.871   5.235  0.5802  0.8861  2.6263
  330SOL    HW2 2475   5.823   5.732   5.182  1.9907  1.6794 -0.3190
  331SOL     OW 2476   7.058   0.875   6.302 -0.7182 -0.4434 -0.2100
  331SOL    HW1 2477   7.038   0.796   6.251 -0.5273 -1.1035  0.7045
  331SOL    HW2 2478   7.048   0.847   6.393  3.2403 -0.5364  0.2904
  332SOL     OW 2479   1.572   1.187   7.477 -0.4957  0.4066 -0.0654
  332SOL    HW1 2480   1.511   1.234   7.533 -1.3787 -0.0089 -0.6713
  332SOL    HW2 2481   1.560   1.225   7.390 -2.3291 -1.9154 -0.9045
  333SOL     OW 2482   1.760   6.179   7.705  0.1558  0.6153  0.3893
  333SOL    HW1 2483   1.808   6.225   7.774  2.6559  2.2972 -2.3317
  333SOL    HW2 2484   1.686   6.237   7.685 -0.2786  0.3737  1.2909
  334SOL     OW 2485   0.368   1.899   7.539 -0.1838 -0.1279 -0.5169
  334SOL    HW1 2486   0.325   1.982   7.556  0.1192  0.5269 -2.8564
  334SOL    HW2 2487   0.344   1.876   7.450  1.1781 -1.6785 -0.5270
  335SOL     OW 2488   2.033   5.609   7.368 -0.2662  0.1380 -0.1939
  335SOL    HW1 2489   1.973   5.676   7.402  0.4347  0.4592  0.4411
  335SOL    HW2 2490   1.976   5.537   7.341 -0.9610  0.5849  0.0516
  336SOL     OW 2491   7.679   6.284   3.779  0.2053 -0.1136  0.0378
  336SOL    HW1 2492   7.695   6.221   3.709 -0.3360 -0.0581 -0.1360
  336SOL    HW2 2493   7.603   6.250   3.826  0.2496  0.1218  0.2866
  337SOL     OW 2494   2.958   4.772   0.008  0.0257 -0.4430  0.5668
  337SOL    HW1 2495   2.952   4.712  -0.067  2.5981 -0.6391  0.4403
  337SOL    HW2 2496   2.954   4.715   0.085  1.6100 -0.7142  0.4642
  338SOL     OW 2497   6.422   0.008   0.446 -0.2919  0.3485 -0.6926
  338SOL    HW1 2498   6.374  -0.020   0.368 -0.4412  1.4789 -1.0226
  338SOL    HW2 2499   6.514   0.008   0.419 -0.2211 -0.5786 -0.4523
  339SOL     OW 2500   4.615   1.057   0.171 -0.2124 -0.1754  0.0310
  339SOL    HW1 2501   4.567   1.003   0.109 -0.9315 -1.6591  1.8509
  339SOL    HW2 2502   4.658   0.995   0.229  3.3602  1.1053 -1.0744
  340SOL     OW 2503   2.190   7.576   2.085 -0.2096  0.3022  0.5153
  340SOL    HW1 2504   2.194   7.658   2.035  0.8644 -0.9815 -1.5406
  340SOL    HW2 2505   2.106   7.537   2.060  0.9648 -1.0288 -1.4114
  341SOL     OW 2506   5.990   0.932   6.429 -0.2048 -0.7979 -0.5428
  341SOL    HW1 2507   5.913   0.970   6.472 -0.8164 -2.1934 -0.3763
  341SOL    HW2 2508   6.059   0.936   6.495 -0.2820 -0.0871 -0.4943
  342SOL     OW 2509   7.847   1.657   6.067  0.3083  0.3222 -0.0900
  342SOL    HW1 2510   7.931   1.702   6.063  0.6378 -0.2626  0.2316
  342SOL    HW2 2511   7.853   1.587   6.002  0.2923 -0.0816  0.3335
  343SOL     OW 2512   1.894   2.967   7.459  0.9265  0.3033  0.4248
  343SOL    HW1 2513   1.877   2.873   7.453  1.4385  0.2360 -0.0325
  343SOL    HW2 2514   1.979   2.974   7.502  1.3410  0.5182 -0.4111
  344SOL     OW 2515   7.957   0.839   3.346 -0.3299 -0.5512  0.2464
  344SOL    HW1 2516   7.994   0.920   3.312 -1.1475  0.3040  1.3558
  344SOL    HW2 2517   7.868   0.863   3.373 -0.8445 -1.9907 -0.1053
  345SOL     OW 2518   0.220   6.562   1.344  0.1362  0.0897 -0.2280
  345SOL    HW1 2519   0.269   6.578   1.425 -0.0160  1.0742 -0.3282
  345SOL    HW2 2520   0.278   6.594   1.275 -0.2412  0.3477 -0.4227
  346SOL     OW 2521   5.321   2.790   2.610 -0.1361 -0.3157  0.3492
  346SOL    HW1 2522   5.389   2.744   2.659 -1.0637 -0.5604  1.4547
  346SOL    HW2 2523   5.321   2.749   2.524  1.5277  0.1192  0.1321
  347SOL     OW 2524   6.627   5.739   1.455 -0.3715 -0.5728 -0.5181
  347SOL    HW1 2525   6.719   5.715   1.441 -0.5212 -1.4414 -0.0538
  347SOL    HW2 2526   6.581   5.702   1.380 -0.4697 -0.9526 -0.2747
  348SOL     OW 2527   3.388   5.117   1.416 -0.0391 -0.3282  0.3018
  348SOL    HW1 2528   3.453   5.155   1.475  0.1927  1.3351 -0.9868
  348SOL    HW2 2529   3.437   5.094   1.337 -0.7499 -0.4049 -0.1217
  349SOL     OW 2530   4.713   4.031   7.490 -0.3217  0.1798  0.3322
  349SOL    HW1 2531   4.779   3.983   7.440  0.7910 -0.4439  2.3549
  349SOL    HW2 2532   4.763   4.079   7.555 -1.5786  2.6495 -0.4458
  350SOL     OW 2533   3.802   4.914   0.847 -0.0940  0.1930 -0.0431
  350SOL    HW1 2534   3.854   4.989   0.877 -0.5295  0.1649  0.7991
  350SOL    HW2 2535   3.732   4.907   0.912 -0.9690  0.0398 -0.9981
  351SOL     OW 2536   3.165   1.307   7.636 -0.2773  0.3187  0.4110
  351SOL    HW1 2537   3.207   1.379   7.589 -0.2667 -0.7738 -1.3193
  351SOL    HW2 2538   3.220   1.292   7.712  1.0877  0.5713 -0.5038
  352SOL     OW 2539   7.200   7.932   3.143 -0.2055 -0.2225 -0.0238
  352SOL    HW1 2540   7.291   7.909   3.166  0.5127 -0.7400 -3.1975
  352SOL    HW2 2541   7.201   8.027   3.133 -0.4496 -0.0260  1.5928
  353SOL     OW 2542   1.815   5.041   3.286  0.1011  0.4831  0.0534
  353SOL    HW1 2543   1.767   4.961   3.309  0.5718  1.0607  3.3578
  353SOL    HW2 2544   1.907   5.016   3.292  0.2504  0.5060 -1.9376
  354SOL     OW 2545   5.824   6.595   7.509  0.1229  0.3453 -0.2464
  354SOL    HW1 2546   5.900   6.537   7.513  0.7734  1.2362  0.6730
  354SOL    HW2 2547   5.750   6.540   7.535  0.8197  0.0741  1.1815
  355SOL     OW 2548   5.933   3.296   0.052 -0.2441 -0.0239 -0.1155
  355SOL    HW1 2549   5.947   3.213   0.096 -1.1544  0.7012  1.5858
  355SOL    HW2 2550   5.932   3.275  -0.041 -0.8871 -1.9718  0.3228
  356SOL     OW 2551   6.469   5.751   7.694  0.3077  0.0727 -0.5773
  356SOL    HW1 2552   6.393   5.741   7.751  0.0560 -2.0887 -1.2500
  356SOL    HW2 2553   6.533   5.689   7.729  0.0952 -1.3855 -2.7071
  357SOL     OW 2554   5.444   8.221   7.334  0.2521  0.0762 -0.1542
  357SOL    HW1 2555   5.431   8.166   7.256  0.2240  0.1837 -0.2258
  357SOL    HW2 2556   5.539   8.224   7.346  0.2030 -1.0446  0.6005
  358SOL     OW 2557   5.157   5.487   1.419 -0.1574 -0.0588 -0.4881
  358SOL    HW1 2558   5.187   5.531   1.498 -0.7529  0.2829 -0.4459
  358SOL    HW2 2559   5.075   5.532   1.396 -0.7706 -1.1269 -0.4386
  359SOL     OW 2560   0.793   4.242   7.816 -0.0612 -0.0192 -0.3538
  359SOL    HW1 2561   0.778   4.203   7.730  0.6421 -0.4619 -0.2782
  359SOL    HW2 2562   0.869   4.196   7.850  1.1231  1.7754 -0.4863
  360SOL     OW 2563   1.961   4.230   0.700  0.3672  0.4271 -0.2852
  360SOL    HW1 2564   1.974   4.136   0.694 -0.6023  0.3343 -1.0483
  360SOL    HW2 2565   2.014   4.257   0.775  0.5527 -0.7369  0.0097
  361SOL     OW 2566   3.332   4.461   5.277  0.0532 -0.2722 -0.4049
  361SOL    HW1 2567   3.292   4.507   5.351  0.4903  0.4547 -0.6128
  361SOL    HW2 2568   3.415   4.427   5.312  0.1123 -0.1998 -0.4731
  362SOL     OW 2569   3.665   6.263   5.169  0.3436 -0.1952  0.1380
  362SOL    HW1 2570   3.625   6.215   5.097 -0.7047 -0.3656  0.8117
  362SOL    HW2 2571   3.750   6.290   5.136  0.0311 -0.5957 -1.0293
  363SOL     OW 2572   6.344   0.248   1.710  0.0398  0.1446 -0.4122
  363SOL    HW1 2573   6.295   0.214   1.636 -0.6449 -3.4303  1.5264
  363SOL    HW2 2574   6.435   0.222   1.693  0.4423  2.2135 -1.5275
  364SOL     OW 2575   0.065   4.325   4.748  0.0738  0.0967  0.2166
  364SOL    HW1 2576  -0.026   4.320   4.777 -0.2334  0.4832 -0.6512
  364SOL    HW2 2577   0.117   4.312   4.827 -0.7207 -2.9930  0.2853
  365SOL     OW 2578   5.243   5.684   2.199 -0.0612 -0.6909  0.4904
  365SOL    HW1 2579   5.322   5.716   2.242 -1.0621  2.7105 -0.0998
  365SOL    HW2 2580   5.187   5.653   2.270  0.2138  0.5165  1.2418
  366SOL     OW 2581   7.016   4.718   4.324  0.2078 -0.2114 -0.1658
  366SOL    HW1 2582   7.037   4.646   4.265  1.0573 -0.0258 -0.0963
  366SOL    HW2 2583   7.017   4.679   4.412  0.8000 -0.0950 -0.1158
  367SOL     OW 2584   2.960   0.865   7.105 -0.1607 -0.4570 -0.7830
  367SOL    HW1 2585   2.963   0.935   7.039  0.4860  0.0709 -0.2124
  367SOL    HW2 2586   3.008   0.793   7.065 -0.3827 -0.3964 -1.1712
  368SOL     OW 2587   5.471   2.142   4.192  0.2413 -0.4061 -0.3000
  368SOL    HW1 2588   5.385   2.184   4.191  0.2065 -0.2643  2.6699
  368SOL    HW2 2589   5.465   2.073   4.126 -2.0593 -0.2155 -0.3328
  369SOL     OW 2590   7.257   4.351   1.570 -0.0664  0.0715 -0.3744
  369SOL    HW1 2591   7.285   4.358   1.662  0.0296 -0.2970 -0.3732
  369SOL    HW2 2592   7.311   4.280   1.534  0.8603  1.1201 -1.0799
  370SOL     OW 2593   2.795   2.464   7.682 -0.0662 -0.1852  0.2163
  370SOL    HW1 2594   2.758   2.539   7.729  1.4025 -0.0430  1.1835
  370SOL    HW2 2595   2.741   2.456   7.604 -2.3691 -0.2238  1.7721
  371SOL     OW 2596   7.229   3.405   3.054 -0.2067  0.2993  0.4935
  371SOL    HW1 2597   7.223   3.471   2.985 -0.8442  1.0767  1.2843
  371SOL    HW2 2598   7.140   3.371   3.063 -0.4078  1.1953  1.9008
  372SOL     OW 2599   3.958   2.044   3.625  0.3621 -0.0990 -0.1993
  372SOL    HW1 2600   3.971   2.108   3.694 -0.4791  0.5546 -0.6289
  372SOL    HW2 2601   3.876   2.000   3.649  0.4817 -0.4096 -0.3632
  373SOL     OW 2602   0.785   4.084   7.338 -0.3269  0.3058  0.2221
  373SOL    HW1 2603   0.846   4.037   7.281 -0.8758  0.7540 -0.7598
  373SOL    HW2 2604   0.699   4.050   7.313 -0.8188  2.4289 -1.1189
  374SOL     OW 2605   1.876   0.240   7.355  0.4070  0.0188  0.0221
  374SOL    HW1 2606   1.840   0.214   7.440 -1.6065 -0.4368 -0.9580
  374SOL    HW2 2607   1.918   0.161   7.322  1.6419  0.3279  0.7787
  375SOL     OW 2608   2.536   0.048   5.862 -0.3943 -0.8430 -0.1080
  375SOL    HW1 2609   2.630   0.029   5.859 -0.7850 -2.7522 -0.9905
  375SOL    HW2 2610   2.512   0.066   5.771 -0.7054  0.6812  0.2544
  376SOL     OW 2611   3.858   5.584   2.934 -0.0703 -0.2779  1.0214
  376SOL    HW1 2612   3.880   5.531   3.010  0.3857 -0.8049  0.5302
  376SOL    HW2 2613   3.763   5.585   2.932 -0.0857 -0.9322  1.1451
  377SOL     OW 2614   7.206   3.088   5.651 -0.4510 -0.5559  0.0558
  377SOL    HW1 2615   7.252   3.167   5.622  0.8843 -0.8956  1.1463
  377SOL    HW2 2616   7.172   3.049   5.571  1.1084 -0.2261 -0.7898
  378SOL     OW 2617   2.435   6.769   5.677  0.2630  0.0742 -0.2036
  378SOL    HW1 2618   2.530   6.758   5.679  0.2456 -0.1597 -0.4952
  378SOL    HW2 2619   2.408   6.772   5.768  0.5519  0.1372 -0.1220
  379SOL     OW 2620   6.912   4.123   7.906 -0.6260  0.4433  0.3187
  379SOL    HW1 2621   6.940   4.172   7.983 -3.0313 -0.3820  1.7886
  379SOL    HW2 2622   6.987   4.069   7.882  1.6090  3.7302 -0.4874
  380SOL     OW 2623   8.234   0.416   1.455  0.8350 -0.0831  0.4687
  380SOL    HW1 2624   8.227   0.371   1.371  0.1673 -1.3952  1.2027
  380SOL    HW2 2625   8.143   0.424   1.486  1.0020  1.1896  0.6563
  381SOL     OW 2626   2.421   7.411   0.315  0.3786  0.6969 -0.7290
  381SOL    HW1 2627   2.391   7.332   0.360  3.1045 -0.7777 -1.4583
  381SOL    HW2 2628   2.364   7.417   0.238 -0.1023 -0.3217 -0.4682
  382SOL     OW 2629   6.290   6.795   3.639  0.2115 -0.1294 -0.4056
  382SOL    HW1 2630   6.218   6.745   3.600 -1.2329  1.3918  0.2727
  382SOL    HW2 2631   6.275   6.885   3.612  2.0163  0.1888 -0.4395
  383SOL     OW 2632   4.037   7.061   5.305  0.0560  0.1147 -0.5450
  383SOL    HW1 2633   4.083   7.043   5.223 -0.7031 -1.2692 -0.6852
  383SOL    HW2 2634   4.097   7.118   5.354  1.3616 -0.6368 -1.2379
  384SOL     OW 2635   7.164   1.849   1.688 -0.1609 -0.7100 -0.1750
  384SOL    HW1 2636   7.212   1.767   1.676  0.2578 -0.0688 -3.1559
  384SOL    HW2 2637   7.183   1.875   1.778  1.5983 -2.6687  0.0515
  385SOL     OW 2638   1.440   1.715   6.217  0.4466 -0.3030 -0.6081
  385SOL    HW1 2639   1.436   1.786   6.154  0.3749 -0.1836 -0.4699
  385SOL    HW2 2640   1.352   1.677   6.215  0.4269 -0.2621 -0.5392
  386SOL     OW 2641   2.216   5.035   6.539  0.0423  0.1104 -0.0472
  386SOL    HW1 2642   2.306   5.053   6.511  0.7994  0.9948  2.8556
  386SOL    HW2 2643   2.221   4.951   6.583 -1.0338 -0.9799 -1.9440
  387SOL     OW 2644   1.819   3.813   8.104 -0.6534 -0.5276  0.1661
  387SOL    HW1 2645   1.786   3.898   8.134 -2.1874 -0.6066 -1.2114
  387SOL    HW2 2646   1.895   3.795   8.160 -0.9396  1.2599  1.1569
  388SOL     OW 2647   5.167   2.919   4.334 -0.1179  0.3431 -0.0679
  388SOL    HW1 2648   5.113   2.843   4.310 -0.6633  1.2419 -1.7301
  388SOL    HW2 2649   5.255   2.897   4.302 -0.7545  1.3608 -2.6434
  389SOL     OW 2650   3.022   1.241   5.163 -0.6481  0.3123 -0.1460
  389SOL    HW1 2651   2.990   1.164   5.210  0.2513  0.9166  1.5241
  389SOL    HW2 2652   2.974   1.241   5.080 -1.5798 -1.3261  0.3728
  390SOL     OW 2653   0.532   4.945   7.777 -0.3832  0.3033 -0.2945
  390SOL    HW1 2654   0.530   4.850   7.766 -0.1045  0.4159 -1.3874
  390SOL    HW2 2655   0.489   4.979   7.699 -0.7495  1.0744  0.2313
  391SOL     OW 2656   6.213   1.470   2.827  0.0153  0.2577  0.4816
  391SOL    HW1 2657   6.178   1.552   2.862 -0.1925  0.5893 -0.4961
  391SOL    HW2 2658   6.200   1.407   2.898 -0.8126  0.8246  0.8463
  392SOL     OW 2659   4.814   4.282   8.181 -0.0530 -0.3701 -0.3866
  392SOL    HW1 2660   4.764   4.247   8.107 -0.0560  2.2089 -1.6693
  392SOL    HW2 2661   4.751   4.288   8.253 -0.0884 -2.7319 -0.1864
  393SOL     OW 2662   2.921   7.356   5.057  0.5143  0.0090 -0.1597
  393SOL    HW1 2663   2.994   7.399   5.102  0.3781  1.5179 -1.3125
  393SOL    HW2 2664   2.880   7.301   5.123  2.1917 -0.1937  0.7228
  394SOL     OW 2665   1.739   0.167   2.713  0.1977 -0.4099  0.1295
  394SOL    HW1 2666   1.694   0.109   2.774  0.8066 -0.0035  0.9681
  394SOL    HW2 2667   1.827   0.176   2.749  0.5522 -0.1435 -0.7954
  395SOL     OW 2668   5.047   6.958   2.841  0.2791 -0.1029  0.2605
  395SOL    HW1 2669   5.080   6.936   2.928  3.3964  0.9718 -0.5717
  395SOL    HW2 2670   5.048   7.054   2.838 -0.2974 -0.1215 -0.7498
  396SOL     OW 2671   2.331   0.519   6.001 -0.5920  0.3060  0.7229
  396SOL    HW1 2672   2.399   0.452   5.995 -0.9633  0.0218 -0.5046
  396SOL    HW2 2673   2.346   0.575   5.925  0.0137  1.9057  2.0178
  397SOL     OW 2674   0.975   5.448   6.085 -0.3949 -0.2713 -0.0316
  397SOL    HW1 2675   1.009   5.423   5.999  0.3576  1.8819 -0.3887
  397SOL    HW2 2676   1.041   5.508   6.120 -1.5113  0.1703  1.3445
  398SOL     OW 2677   5.447   2.853   4.273  0.2516  0.8194  0.7368
  398SOL    HW1 2678   5.502   2.799   4.216 -1.2044  0.1533 -0.0660
  398SOL    HW2 2679   5.505   2.878   4.346  1.7458  0.5523 -0.3305
  399SOL     OW 2680   4.721   7.346   1.032 -0.1793  0.5283  0.5894
  399SOL    HW1 2681   4.799   7.316   1.078  0.1289 -2.6023 -1.8034
  399SOL    HW2 2682   4.755   7.397   0.958 -0.4054  0.0335  0.1363
  400SOL     OW 2683   6.534   8.133   7.316  0.1936 -0.5636 -0.1010
  400SOL    HW1 2684   6.606   8.111   7.257  0.0404  0.5834 -0.7498
  400SOL    HW2 2685   6.570   8.122   7.404  0.0380 -3.5188 -0.3693
  401SOL     OW 2686   4.046   2.990   3.623  0.5014  0.2035  0.8539
  401SOL    HW1 2687   4.059   2.967   3.715  0.6182 -1.8281  0.3489
  401SOL    HW2 2688   4.030   2.907   3.579 -0.9924  1.2850 -0.7458
  402SOL     OW 2689   3.473   3.074   6.615 -0.0687 -0.3758 -0.4911
  402SOL    HW1 2690   3.481   2.979   6.610  1.3130 -0.2527 -1.0068
  402SOL    HW2 2691   3.380   3.092   6.605 -0.4358 -1.7238  0.4729
  403SOL     OW 2692   2.629   3.757   3.916  0.3232  0.3135  0.2993
  403SOL    HW1 2693   2.721   3.766   3.943  0.1133  3.0417  0.2509
  403SOL    HW2 2694   2.608   3.841   3.875 -2.2139 -0.2716  0.3307
  404SOL     OW 2695   2.835   0.094   4.493  0.5161 -0.3411 -0.0753
  404SOL    HW1 2696   2.773   0.159   4.459  0.5904 -0.8123 -1.1364
  404SOL    HW2 2697   2.903   0.146   4.535 -1.7299  0.1364  3.1727
  405SOL     OW 2698   6.833   2.598   3.718  0.2141 -0.1898 -0.1719
  405SOL    HW1 2699   6.739   2.579   3.722 -0.3613  2.6960  1.3256
  405SOL    HW2 2700   6.846   2.666   3.784  2.7731  1.7141 -2.5589
  406SOL     OW 2701   0.835   2.753   3.538 -0.3518 -0.6976  0.5124
  406SOL    HW1 2702   0.846   2.709   3.454 -0.4052 -2.3212  1.3409
  406SOL    HW2 2703   0.919   2.794   3.555  0.2762 -1.9744  0.5586
  407SOL     OW 2704   1.798   3.151   1.959 -0.2001  0.2493 -0.1103
  407SOL    HW1 2705   1.823   3.107   1.878 -0.4381  0.2749 -0.1981
  407SOL    HW2 2706   1.705   3.172   1.947  0.3418  2.4215 -0.8418
  408SOL     OW 2707   7.923   6.010   6.273 -0.1689 -0.2401 -0.0278
  408SOL    HW1 2708   7.851   5.986   6.331 -0.0476  0.6941  0.5014
  408SOL    HW2 2709   7.886   6.076   6.215  0.2658  0.2317  0.2351
  409SOL     OW 2710   7.589   5.286   2.275  0.0082  0.2113  0.1458
  409SOL    HW1 2711   7.650   5.242   2.334 -1.0246 -0.1976  0.9190
  409SOL    HW2 2712   7.600   5.241   2.191  0.6227  0.0158  0.3305
  410SOL     OW 2713   2.993   4.574   3.488  0.0334  0.1222 -0.0237
  410SOL    HW1 2714   2.987   4.669   3.495  1.3114  0.1785  0.3100
  410SOL    HW2 2715   3.086   4.556   3.479 -0.2449 -1.0653 -0.6738
  411SOL     OW 2716   2.071   4.026   7.389 -0.2314  0.1952 -0.1525
  411SOL    HW1 2717   2.031   4.103   7.349 -1.6164 -1.3907 -1.9219
  411SOL    HW2 2718   2.001   3.961   7.393  1.5485 -1.8543 -1.1030
  412SOL     OW 2719   1.964   5.475   6.262  0.2193  0.4421 -0.6910
  412SOL    HW1 2720   1.928   5.392   6.232 -0.1362 -0.2312  1.5091
  412SOL    HW2 2721   2.057   5.471   6.241 -0.0377  0.0243 -1.7418
  413SOL     OW 2722   0.684   6.294   4.479  0.3292 -0.1217 -0.0967
  413SOL    HW1 2723   0.763   6.303   4.426  0.5052  0.3480  0.2409
  413SOL    HW2 2724   0.715   6.301   4.570 -0.1408  0.3987  0.0264
  414SOL     OW 2725   8.192   1.469   3.228 -0.6874 -0.0943 -0.5174
  414SOL    HW1 2726   8.226   1.539   3.284  0.3676 -0.8049 -0.2609
  414SOL    HW2 2727   8.243   1.392   3.252 -0.9965 -0.6639 -1.6642
  415SOL     OW 2728   7.522   5.299   7.429  0.2629 -0.0456 -0.3357
  415SOL    HW1 2729   7.596   5.241   7.444 -2.4711 -3.5707  0.1350
  415SOL    HW2 2730   7.472   5.257   7.359 -1.5925  1.9820 -0.3109
  416SOL     OW 2731   4.900   6.846   7.911  0.1191  0.3587  0.1519
  416SOL    HW1 2732   4.822   6.803   7.877 -0.9130  3.3050 -1.3946
  416SOL    HW2 2733   4.874   6.881   7.996 -0.6759  2.4114 -0.9055
  417SOL     OW 2734   2.836   6.772   3.918  0.2575 -0.0028  0.0538
  417SOL    HW1 2735   2.901   6.711   3.953  1.0476  0.5158 -0.4943
  417SOL    HW2 2736   2.885   6.851   3.898 -0.8093  0.8951  0.9345
  418SOL     OW 2737   1.459   4.360   6.791 -0.1519  0.3967 -0.2561
  418SOL    HW1 2738   1.420   4.353   6.878 -0.8634 -0.8401 -0.6743
  418SOL    HW2 2739   1.504   4.445   6.793  0.0950  0.2565  1.4175
  419SOL     OW 2740   2.076   5.983   1.276 -0.2079  0.1912 -0.5269
  419SOL    HW1 2741   2.097   6.043   1.204  0.0872  1.4283  0.5640
  419SOL    HW2 2742   2.142   6.003   1.343 -0.9023 -0.4597  0.3576
  420SOL     OW 2743   6.923   7.690   5.850 -0.2335 -0.6127  0.0699
  420SOL    HW1 2744   6.955   7.705   5.939  2.0074 -1.2454 -0.5909
  420SOL    HW2 2745   6.831   7.667   5.861 -0.4307  1.0369  2.0805
  421SOL     OW 2746   3.752   0.416   0.714 -0.1221  0.1292 -0.0856
  421SOL    HW1 2747   3.796   0.333   0.701  0.3099  0.3801 -0.2229
  421SOL    HW2 2748   3.725   0.415   0.806 -2.3992 -1.2667 -0.7106
  422SOL     OW 2749   0.726   1.607   4.738  0.3196  0.0462 -0.3155
  422SOL    HW1 2750   0.688   1.519   4.748  2.2138 -0.7400  0.1912
  422SOL    HW2 2751   0.709   1.630   4.647 -1.2827 -0.3233 -0.1311
  423SOL     OW 2752   6.729   1.125   8.102  0.3405  0.4784  0.0185
  423SOL    HW1 2753   6.781   1.132   8.021  0.2248 -0.7629 -0.1771
  423SOL    HW2 2754   6.792   1.097   8.168  0.3461  1.0768  0.2701
  424SOL     OW 2755   8.172   2.153   2.647 -0.2054 -0.5621 -0.6159
  424SOL    HW1 2756   8.129   2.086   2.701 -0.7173  0.2608  0.0004
  424SOL    HW2 2757   8.149   2.130   2.557  2.0296 -2.9536 -0.6443
  425SOL     OW 2758   1.387   0.280   6.527 -0.4649  0.1212  0.2282
  425SOL    HW1 2759   1.413   0.198   6.485 -2.1972  0.6063 -1.8848
  425SOL    HW2 2760   1.378   0.258   6.619  0.6782 -1.6636 -0.0593
  426SOL     OW 2761   2.612   1.445   1.950 -0.0424  0.0353  0.4162
  426SOL    HW1 2762   2.612   1.480   1.861  0.9002  0.8982  0.7394
  426SOL    HW2 2763   2.581   1.355   1.941 -0.5022  0.3019 -0.7063
  427SOL     OW 2764   8.103   4.667   6.281  0.1853  0.4330 -0.1769
  427SOL    HW1 2765   8.125   4.576   6.300  2.3067  0.4964 -2.1007
  427SOL    HW2 2766   8.011   4.676   6.307 -0.6191 -2.7677 -1.7748
  428SOL     OW 2767   2.700   7.621   2.529  0.1568 -0.3491  0.8318
  428SOL    HW1 2768   2.706   7.698   2.586 -0.7041  2.6195 -2.8109
  428SOL    HW2 2769   2.606   7.610   2.514  0.3685 -0.9391 -0.1036
  429SOL     OW 2770   5.005   5.715   1.225 -0.6907 -0.3760  0.3092
  429SOL    HW1 2771   4.968   5.770   1.295  0.1417  0.9702 -0.3021
  429SOL    HW2 2772   4.929   5.685   1.176 -1.2111 -0.4525  1.1544
  430SOL     OW 2773   7.936   7.693   3.629 -0.1271 -0.3852 -0.1536
  430SOL    HW1 2774   8.012   7.750   3.642 -0.1816 -0.5735  1.0493
  430SOL    HW2 2775   7.863   7.753   3.614  0.0844 -0.1812 -0.3649
  431SOL     OW 2776   4.326   2.961   1.699  0.2194  0.4408 -0.1214
  431SOL    HW1 2777   4.412   2.989   1.668  0.7346 -0.0815  0.8234
  431SOL    HW2 2778   4.304   2.885   1.644  0.7574  0.0281  0.2351
  432SOL     OW 2779   4.229   6.111   0.776 -0.0929 -0.2165  0.5490
  432SOL    HW1 2780   4.289   6.045   0.741 -1.4272 -2.2209  1.9914
  432SOL    HW2 2781   4.184   6.145   0.699  0.7349 -0.8529 -0.2289
  433SOL     OW 2782   3.929   2.654   4.817  0.0459 -0.1143  0.4763
  433SOL    HW1 2783   3.923   2.559   4.816  0.3437 -0.1476  1.6004
  433SOL    HW2 2784   3.978   2.675   4.897  2.0983  0.8589 -0.9974
  434SOL     OW 2785   1.010   2.628   2.480 -0.2117 -0.3742 -0.3011
  434SOL    HW1 2786   1.028   2.534   2.486 -1.3102 -0.6384 -0.9644
  434SOL    HW2 2787   1.072   2.660   2.414 -0.0343 -0.6902 -0.2912
  435SOL     OW 2788   7.407   2.454   3.305  0.4687 -0.4903  0.4835
  435SOL    HW1 2789   7.502   2.447   3.291  0.5446 -1.0808  1.2503
  435SOL    HW2 2790   7.394   2.430   3.397 -0.4645 -0.7846  0.2844
  436SOL     OW 2791   8.136   1.903   4.023  0.1847  0.3472 -0.6922
  436SOL    HW1 2792   8.129   1.998   4.021  0.9585  0.4413  0.6406
  436SOL    HW2 2793   8.152   1.878   3.932 -1.5312  1.3537 -1.2836
  437SOL     OW 2794   1.286   6.689   0.750  0.2227  0.2340 -0.4889
  437SOL    HW1 2795   1.194   6.681   0.724 -0.1536 -1.3627  1.2401
  437SOL    HW2 2796   1.284   6.693   0.845  1.8673  1.4674 -0.4923
  438SOL     OW 2797   1.606   1.221   0.211 -0.0307 -0.1350 -0.5143
  438SOL    HW1 2798   1.600   1.140   0.261  1.0019 -0.7238 -1.3139
  438SOL    HW2 2799   1.627   1.192   0.122 -0.4512  0.9646 -0.9778
  439SOL     OW 2800   6.826   0.427   3.718  0.4958  0.0895  0.3535
  439SOL    HW1 2801   6.878   0.479   3.657  0.3453 -0.7224 -0.4714
  439SOL    HW2 2802   6.737   0.432   3.685  0.6258 -1.4875 -0.3148
  440SOL     OW 2803   1.518   5.818   2.894  0.1597  0.3072 -0.1318
  440SOL    HW1 2804   1.586   5.752   2.883  0.4391  0.5127  0.3249
  440SOL    HW2 2805   1.450   5.774   2.946 -0.4926 -0.1986 -1.4027
  441SOL     OW 2806   1.697   8.221   7.254  0.0884  1.3372 -0.1313
  441SOL    HW1 2807   1.755   8.174   7.194 -0.2438  0.5007  0.1916
  441SOL    HW2 2808   1.739   8.306   7.267  1.5963  0.4887  0.6528
  442SOL     OW 2809   2.795   2.621   5.277 -0.5130  1.0103  0.5476
  442SOL    HW1 2810   2.882   2.599   5.311 -0.1035  1.3788 -0.2257
  442SOL    HW2 2811   2.813   2.661   5.192 -1.4539  0.9797  0.3313
  443SOL     OW 2812   4.479   4.805   2.009 -0.0627  0.4869  0.3041
  443SOL    HW1 2813   4.433   4.826   1.929  3.2412  1.2701 -1.4898
  443SOL    HW2 2814   4.483   4.709   2.011 -1.1427  0.4387  0.1419
  444SOL     OW 2815   4.281   0.821   3.396 -0.4897 -0.1962  0.0891
  444SOL    HW1 2816   4.226   0.896   3.372 -0.6826 -0.4120 -0.1549
  444SOL    HW2 2817   4.339   0.809   3.321  0.3862  0.4847  0.6554
  445SOL     OW 2818   2.948   3.979   7.233 -0.1540 -0.2930 -0.2166
  445SOL    HW1 2819   2.997   4.062   7.237 -1.3240  0.4937 -1.7720
  445SOL    HW2 2820   2.930   3.967   7.140  0.2343 -2.4503 -0.0262
  446SOL     OW 2821   7.379   4.530   0.699 -0.3503  0.0399 -0.0802
  446SOL    HW1 2822   7.356   4.614   0.661 -2.2673  0.3116  1.6114
  446SOL    HW2 2823   7.474   4.534   0.711 -0.3904  1.8343 -0.2709
  447SOL     OW 2824   0.003   2.671   4.568  0.3927  0.2820  0.3126
  447SOL    HW1 2825  -0.010   2.608   4.497 -0.9283 -0.0192  0.8171
  447SOL    HW2 2826   0.085   2.715   4.546  1.6509 -2.0133  0.2594
  448SOL     OW 2827   8.094   4.401   8.213  0.2655  0.4927 -0.0166
  448SOL    HW1 2828   8.154   4.334   8.244 -0.8336 -0.8973 -0.8661
  448SOL    HW2 2829   8.134   4.484   8.240  2.7505 -0.3867 -0.9288
  449SOL     OW 2830   6.353   6.694   0.860  0.2753 -0.4276  0.1883
  449SOL    HW1 2831   6.404   6.699   0.940  0.3433 -1.5665  0.2280
  449SOL    HW2 2832   6.300   6.615   0.870 -0.5646  0.0546 -0.3898
  450SOL     OW 2833   0.841   0.610   2.100  0.2163  0.2900 -0.4735
  450SOL    HW1 2834   0.905   0.582   2.035  1.2200  0.0723  0.5823
  450SOL    HW2 2835   0.825   0.702   2.080  1.4692  0.5678 -0.2822
  451SOL     OW 2836   0.000   7.426   2.827 -0.0108  0.3527  0.0256
  451SOL    HW1 2837   0.042   7.340   2.819  0.4208  0.5786 -0.1567
  451SOL    HW2 2838   0.040   7.478   2.757  0.0613  0.8381  0.4295
  452SOL     OW 2839   7.866   5.475   7.852  0.1126 -0.1710 -0.1841
  452SOL    HW1 2840   7.927   5.539   7.816  1.0713 -0.6585  0.5542
  452SOL    HW2 2841   7.902   5.453   7.938 -1.4840  0.0654  0.5571
  453SOL     OW 2842   2.934   3.130   6.619 -0.4869 -0.3182 -0.0643
  453SOL    HW1 2843   2.842   3.118   6.597 -0.2371  0.7462 -1.7456
  453SOL    HW2 2844   2.933   3.173   6.705 -1.5174 -1.5178  0.5363
  454SOL     OW 2845   1.320   1.246   8.137  0.3962  0.5221  0.7879
  454SOL    HW1 2846   1.316   1.152   8.151 -0.0504  0.6930  1.8062
  454SOL    HW2 2847   1.414   1.266   8.135  0.6143 -0.4112 -2.7287
  455SOL     OW 2848   7.592   7.558   1.232 -0.1419  0.6853 -0.8592
  455SOL    HW1 2849   7.672   7.506   1.223 -0.5159  0.3423 -2.3874
  455SOL    HW2 2850   7.597   7.622   1.161 -0.3953  1.8022  0.1071
  456SOL     OW 2851   5.454   8.303   6.908 -0.0624  0.2967 -0.4559
  456SOL    HW1 2852   5.509   8.250   6.851 -0.1212  0.8396 -1.0100
  456SOL    HW2 2853   5.477   8.393   6.888  1.0910  0.4639  1.5277
  457SOL     OW 2854   3.672   4.723   6.749 -0.1438  0.7752 -0.0398
  457SOL    HW1 2855   3.590   4.683   6.778  0.8941 -1.7210 -0.4335
  457SOL    HW2 2856   3.688   4.794   6.812 -0.9832 -0.7301  1.9164
  458SOL     OW 2857   0.169   0.219   2.735  0.4080  0.3942 -0.3794
  458SOL    HW1 2858   0.257   0.247   2.714  0.5197 -1.0289 -1.9446
  458SOL    HW2 2859   0.171   0.123   2.727 -0.9569  0.2324  0.8079
  459SOL     OW 2860   6.787   1.216   4.349 -0.1517 -0.4361  0.6453
  459SOL    HW1 2861   6.873   1.174   4.340 -0.1555  0.0196 -1.7182
  459SOL    HW2 2862   6.807   1.309   4.363 -0.2668 -0.4481  0.9105
  460SOL     OW 2863   2.010   6.248   7.802 -0.3303 -0.0004  0.0299
  460SOL    HW1 2864   2.060   6.171   7.828  0.1275  0.2225 -0.1909
  460SOL    HW2 2865   2.032   6.261   7.710 -0.5586  0.2809  0.0136
  461SOL     OW 2866   4.457   5.169   2.158 -0.2220  0.3326  0.0799
  461SOL    HW1 2867   4.461   5.079   2.191  0.6738 -0.3078 -1.7654
  461SOL    HW2 2868   4.493   5.222   2.229 -2.1382 -0.5655  1.7936
  462SOL     OW 2869   2.885   0.906   2.122 -0.2909 -0.2443  0.0506
  462SOL    HW1 2870   2.871   0.995   2.089 -3.6642 -0.8800 -0.3946
  462SOL    HW2 2871   2.889   0.917   2.217 -0.8832  0.3669  0.0132
  463SOL     OW 2872   0.344   4.767   4.661  0.2167 -0.0023  0.0634
  463SOL    HW1 2873   0.263   4.716   4.665 -0.3139  0.7511 -0.6919
  463SOL    HW2 2874   0.354   4.802   4.750 -0.0110 -0.5113  0.2927
  464SOL     OW 2875   0.989   1.159   3.263  0.3114  0.3068  0.2343
  464SOL    HW1 2876   0.927   1.190   3.328 -0.4056 -0.4813 -0.0681
  464SOL    HW2 2877   1.075   1.182   3.299 -0.1332  1.0737  0.8177
  465SOL     OW 2878   3.559   5.397   4.915  0.4948  0.1013 -0.5273
  465SOL    HW1 2879   3.475   5.430   4.883  1.0418  1.5422 -0.4779
  465SOL    HW2 2880   3.624   5.443   4.863  1.3011  0.0620  0.4363
  466SOL     OW 2881   3.719   0.304   5.149  0.4350 -0.0439  0.1152
  466SOL    HW1 2882   3.789   0.268   5.094  0.2021  0.9608 -0.8512
  466SOL    HW2 2883   3.643   0.310   5.091  0.7232  2.8797 -0.0494
  467SOL     OW 2884   1.712   5.229   4.589  0.2093  0.1731  0.1764
  467SOL    HW1 2885   1.773   5.258   4.656  0.7848 -1.3942  0.3533
  467SOL    HW2 2886   1.767   5.186   4.523 -0.7145 -1.6101  0.5373
  468SOL     OW 2887   0.863   4.846   8.211 -0.6373 -0.2021 -0.2200
  468SOL    HW1 2888   0.838   4.931   8.176  0.5422  0.5193  0.6302
  468SOL    HW2 2889   0.929   4.866   8.277 -2.8865 -1.4712  2.5325
  469SOL     OW 2890   5.955   4.420   7.583  0.0374 -0.1795  0.2054
  469SOL    HW1 2891   5.960   4.451   7.673  1.1531 -0.8235  0.3787
  469SOL    HW2 2892   5.862   4.411   7.565 -0.1539 -1.8491  1.9329
  470SOL     OW 2893   0.886   6.145   2.131 -0.8568 -0.3636 -0.0557
  470SOL    HW1 2894   0.928   6.230   2.148 -2.2848  0.6066 -1.2057
  470SOL    HW2 2895   0.813   6.141   2.193 -1.1737 -0.4597 -0.4323
  471SOL     OW 2896   4.132   4.964   3.665 -0.5360  0.5927  0.2486
  471SOL    HW1 2897   4.069   4.926   3.727  0.5017  0.1015  1.0260
  471SOL    HW2 2898   4.196   5.009   3.721  1.1301 -0.9491 -0.3736
  472SOL     OW 2899   1.637   6.879   2.704  0.1502  0.4109 -0.1552
  472SOL    HW1 2900   1.649   6.899   2.611 -0.5300 -0.2619 -0.3954
  472SOL    HW2 2901   1.573   6.942   2.735  1.7680  1.8658  0.3308
  473SOL     OW 2902   1.526   5.135   1.471 -0.9523  0.2959 -0.7104
  473SOL    HW1 2903   1.488   5.140   1.383  1.4691  2.6284 -1.7073
  473SOL    HW2 2904   1.594   5.067   1.464 -0.0436  1.2208 -0.9506
  474SOL     OW 2905   4.344   6.920   3.659 -0.1337 -0.1788  0.1954
  474SOL    HW1 2906   4.388   6.899   3.741  0.7866 -0.3908 -0.3347
  474SOL    HW2 2907   4.272   6.857   3.654 -0.0952 -0.2723  0.7606
  475SOL     OW 2908   7.229   4.866   6.436 -0.2804 -0.2175  0.2860
  475SOL    HW1 2909   7.237   4.837   6.345 -0.1290 -2.0552  0.8508
  475SOL    HW2 2910   7.319   4.864   6.469 -0.1778  1.6401  0.1341
  476SOL     OW 2911   3.369   0.102   4.036 -0.3522  0.5332  0.6766
  476SOL    HW1 2912   3.433   0.071   3.971 -0.0136  2.4308  0.0717
  476SOL    HW2 2913   3.312   0.026   4.051  2.8072 -1.6266  2.2436
  477SOL     OW 2914   6.735   1.212   6.474  0.5406 -0.5690 -0.3612
  477SOL    HW1 2915   6.814   1.172   6.439  0.8757  0.5893 -0.9472
  477SOL    HW2 2916   6.707   1.273   6.406 -0.3312 -0.2856  0.2408
  478SOL     OW 2917   4.956   4.231   1.936 -0.1542 -0.4531 -0.3260
  478SOL    HW1 2918   4.896   4.232   1.862  1.2463  2.6726 -1.4989
  478SOL    HW2 2919   5.043   4.227   1.896  0.5509 -1.4497  1.2463
  479SOL     OW 2920   4.331   2.913   7.018  0.2640 -0.1382  0.2235
  479SOL    HW1 2921   4.331   2.996   7.065 -1.5433 -1.7425  3.2445
  479SOL    HW2 2922   4.397   2.860   7.063 -0.1803 -1.0857 -0.2311
  480SOL     OW 2923   7.326   0.244   3.588 -0.0982 -0.2617 -0.0151
  480SOL    HW1 2924   7.273   0.303   3.535 -1.1606 -2.0920 -1.0486
  480SOL    HW2 2925   7.332   0.164   3.536  2.4246 -0.6156  0.7616
  481SOL     OW 2926   0.295   2.229   1.237  0.1868  0.4246 -0.6154
  481SOL    HW1 2927   0.231   2.204   1.304  0.1158  0.9083 -0.5052
  481SOL    HW2 2928   0.302   2.151   1.181  0.5625 -0.1349  0.1974
  482SOL     OW 2929   2.660   4.306   4.741  0.0961 -0.0780  0.2040
  482SOL    HW1 2930   2.565   4.317   4.737  0.4068  2.7243 -0.6261
  482SOL    HW2 2931   2.694   4.395   4.752  2.6356 -1.0104  0.2422
  483SOL     OW 2932   6.526   4.552   3.775  0.4356 -0.1418 -0.1789
  483SOL    HW1 2933   6.493   4.587   3.692  1.9975 -0.3752 -0.9148
  483SOL    HW2 2934   6.603   4.501   3.750  1.2116  0.2092  1.4824
  484SOL     OW 2935   5.352   3.508   7.121 -0.4411  0.7410 -0.1685
  484SOL    HW1 2936   5.370   3.511   7.027 -0.3858 -0.2091 -0.1913
  484SOL    HW2 2937   5.397   3.429   7.151  0.4331  1.6074  0.8478
  485SOL     OW 2938   5.405   2.158   8.120 -0.1186 -0.1567 -0.1679
  485SOL    HW1 2939   5.392   2.197   8.033 -0.1208  2.1517  0.8342
  485SOL    HW2 2940   5.323   2.175   8.166  0.2589 -0.4758  0.6231
  486SOL     OW 2941   5.858   5.322   5.968  0.2993  0.0662 -0.2179
  486SOL    HW1 2942   5.930   5.383   5.955  0.4374 -0.3078 -1.1779
  486SOL    HW2 2943   5.780   5.378   5.974  0.6824  0.4783  0.9920
  487SOL     OW 2944   7.872   5.420   7.564 -0.2223 -0.0249  0.3076
  487SOL    HW1 2945   7.897   5.330   7.542  0.2870  0.1143  0.3112
  487SOL    HW2 2946   7.868   5.421   7.660 -1.2394 -0.3114  0.2694
  488SOL     OW 2947   2.406   5.189   2.143 -0.0672 -0.0046  0.6345
  488SOL    HW1 2948   2.379   5.235   2.222 -0.1575 -1.3867  1.4253
  488SOL    HW2 2949   2.370   5.100   2.153  0.2028 -0.2926 -0.7934
  489SOL     OW 2950   1.396   4.755   6.550 -0.5448 -0.0865 -0.0260
  489SOL    HW1 2951   1.422   4.847   6.542 -1.0842  0.0445 -0.2731
  489SOL    HW2 2952   1.463   4.708   6.501  1.0258 -0.0383  2.0119
  490SOL     OW 2953   2.980   4.833   3.510 -0.0404  0.4675  0.3916
  490SOL    HW1 2954   2.897   4.875   3.532  0.4133  0.9735  1.1499
  490SOL    HW2 2955   3.029   4.901   3.464 -1.1652 -0.7062 -2.7363
  491SOL     OW 2956   6.155   8.072   2.845  0.7867  0.0685 -0.3228
  491SOL    HW1 2957   6.161   7.989   2.893  1.7589 -0.6541 -1.6687
  491SOL    HW2 2958   6.216   8.130   2.890  0.7284 -0.1935  0.1029
  492SOL     OW 2959   4.883   4.509   4.413 -0.1494 -0.1274 -0.0401
  492SOL    HW1 2960   4.871   4.475   4.324 -0.4565  1.1369 -0.5024
  492SOL    HW2 2961   4.977   4.530   4.417 -0.2892  0.5846 -0.3612
  493SOL     OW 2962   6.230   4.857   7.325 -0.3565 -0.4055  0.4756
  493SOL    HW1 2963   6.310   4.812   7.298  0.2401  0.1666  1.2908
  493SOL    HW2 2964   6.255   4.949   7.331 -0.6532 -0.4254  2.2754
  494SOL     OW 2965   5.497   6.030   0.553 -0.7303  0.6861 -0.3781
  494SOL    HW1 2966   5.435   6.027   0.626 -0.7997  1.9774 -0.3673
  494SOL    HW2 2967   5.455   6.087   0.488 -0.2653  0.2847 -1.0344
  495SOL     OW 2968   3.277   5.039   3.181 -0.1784 -0.1598  0.5243
  495SOL    HW1 2969   3.345   5.096   3.216  0.3774 -1.0069  0.8497
  495SOL    HW2 2970   3.316   5.002   3.101 -0.8931  0.6441 -0.2111
  496SOL     OW 2971   4.506   6.127   2.643 -0.2848 -0.1434 -0.3009
  496SOL    HW1 2972   4.458   6.116   2.561  0.0266  0.1709 -0.5272
  496SOL    HW2 2973   4.440   6.155   2.706 -0.7020 -1.2789 -0.2164
  497SOL     OW 2974   4.636   5.722   3.746  0.5324 -0.2070  0.3798
  497SOL    HW1 2975   4.719   5.707   3.701  0.0574 -1.0671 -0.2301
  497SOL    HW2 2976   4.643   5.811   3.780  0.8333  0.5287 -1.5414
  498SOL     OW 2977   6.317   7.874   2.984  0.8154  0.3020 -0.6968
  498SOL    HW1 2978   6.285   7.813   3.049  1.2221 -0.5329 -1.2695
  498SOL    HW2 2979   6.411   7.882   3.002  1.0255 -0.3291 -1.4980
  499SOL     OW 2980   2.792   2.171   4.616  0.1715 -0.1878 -0.0801
  499SOL    HW1 2981   2.728   2.228   4.658  1.0568  1.1136 -0.4433
  499SOL    HW2 2982   2.829   2.120   4.687 -0.9976 -0.6720  0.1836
  500SOL     OW 2983   3.308   1.715   8.298  0.7584  0.4245  0.0150
  500SOL    HW1 2984   3.318   1.810   8.285 -0.3348  0.6274  0.6063
  500SOL    HW2 2985   3.235   1.691   8.240  0.0424  0.2215  0.9849
  501SOL     OW 2986   4.884   0.587   0.075 -0.5955 -0.1972  0.8279
  501SOL    HW1 2987   4.836   0.504   0.077  0.7816 -0.9939  1.6802
  501SOL    HW2 2988   4.869   0.625   0.162 -1.9486  0.8973  0.1437
  502SOL     OW 2989   7.963   4.891   3.421 -0.2154 -0.2920  0.0932
  502SOL    HW1 2990   7.872   4.893   3.390  0.3866  2.4568 -1.7034
  502SOL    HW2 2991   8.006   4.828   3.365  0.0232  1.9681 -2.3906
  503SOL     OW 2992   5.445   2.820   0.816 -0.1389  0.3232  0.2272
  503SOL    HW1 2993   5.383   2.793   0.748 -1.9041  2.6171  0.8827
  503SOL    HW2 2994   5.490   2.896   0.779  0.6531  0.0808  0.6732
  504SOL     OW 2995   3.945   1.882   6.884  0.1024  0.1652 -0.6702
  504SOL    HW1 2996   3.965   1.926   6.967  0.1189  0.4157 -0.8063
  504SOL    HW2 2997   4.026   1.839   6.859 -0.6442 -2.2370  0.8465
  505SOL     OW 2998   2.633   2.794   6.229 -0.3167 -0.5410 -0.0713
  505SOL    HW1 2999   2.614   2.803   6.323  0.2663 -3.8916  0.4323
  505SOL    HW2 3000   2.725   2.817   6.221 -0.0302 -1.4772  0.4190
  506SOL     OW 3001   2.935   5.539   4.305 -0.3564 -0.0700 -0.6259
  506SOL    HW1 3002   2.994   5.469   4.276  0.3798  1.0303 -1.8273
  506SOL    HW2 3003   2.982   5.580   4.379 -0.5100 -0.4460 -0.3186
  507SOL     OW 3004   6.623   0.187   8.190  0.2848 -0.5182 -0.5929
  507SOL    HW1 3005   6.645   0.107   8.238  1.7641 -1.0196 -2.0434
  507SOL    HW2 3006   6.695   0.198   8.127  0.4443  2.2888 -0.0278
  508SOL     OW 3007   7.970   3.366   5.859  0.1461 -0.0944  0.3436
  508SOL    HW1 3008   7.914   3.291   5.840  2.0186 -1.6126  0.6696
  508SOL    HW2 3009   8.049   3.351   5.808  1.5281  0.3969  2.2931
  509SOL     OW 3010   5.856   7.829   1.921 -0.0325 -0.1708 -0.2319
  509SOL    HW1 3011   5.774   7.879   1.929  0.0074 -0.0563 -0.5491
  509SOL    HW2 3012   5.924   7.896   1.923  0.0315 -0.2315 -0.4406
  510SOL     OW 3013   4.392   2.500   2.649  0.0108  0.4792  0.1120
  510SOL    HW1 3014   4.387   2.587   2.611  0.8281  1.4571  2.1526
  510SOL    HW2 3015   4.316   2.495   2.707  1.5319  0.9663  2.2002
  511SOL     OW 3016   4.688   8.140   2.670 -0.3143 -0.3893  0.1363
  511SOL    HW1 3017   4.656   8.133   2.580 -1.0643  0.5491  0.3294
  511SOL    HW2 3018   4.752   8.211   2.667 -1.5474  0.7642  0.6759
  512SOL     OW 3019   5.927   5.229   1.420 -0.0291 -0.2871  0.0790
  512SOL    HW1 3020   5.938   5.161   1.487 -0.2776  0.3249  0.7496
  512SOL    HW2 3021   5.857   5.196   1.364  1.7589 -1.9067 -1.2936
  513SOL     OW 3022   7.584   0.272   7.163 -0.0935 -0.1266 -0.0686
  513SOL    HW1 3023   7.659   0.234   7.117  0.4694  1.5181 -0.5522
  513SOL    HW2 3024   7.540   0.197   7.204  1.5152 -1.1689 -0.2048
  514SOL     OW 3025   0.426   4.632   8.059  0.3300  0.0991  0.1052
  514SOL    HW1 3026   0.515   4.628   8.024 -0.1088 -0.7767 -0.9471
  514SOL    HW2 3027   0.370   4.609   7.984 -0.6027 -2.4817  1.5084
  515SOL     OW 3028   7.205   1.195   2.970  0.6012  0.6042  0.4057
  515SOL    HW1 3029   7.141   1.143   3.018 -0.0093  0.9910  0.0144
  515SOL    HW2 3030   7.244   1.252   3.037  0.6299  0.2800  0.6675
  516SOL     OW 3031   3.970   7.413   3.556 -0.0643  0.2942 -0.8885
  516SOL    HW1 3032   3.927   7.448   3.633 -2.5160 -0.7375 -1.7524
  516SOL    HW2 3033   4.009   7.331   3.585  1.3549  1.2056 -0.1216
  517SOL     OW 3034   2.315   3.282   5.278 -0.3243  0.5966 -0.2620
  517SOL    HW1 3035   2.304   3.377   5.284 -1.2574  0.7574 -3.4926
  517SOL    HW2 3036   2.225   3.248   5.277 -0.0311 -0.1650 -0.9145
  518SOL     OW 3037   7.081   2.198   0.261  0.1197 -0.3562  0.5526
  518SOL    HW1 3038   7.092   2.136   0.189 -1.6490 -1.0685  0.8914
  518SOL    HW2 3039   7.119   2.279   0.228  2.1325 -1.4991 -0.0236
  519SOL     OW 3040   4.852   0.472   0.572 -0.3225 -0.4813  0.5218
  519SOL    HW1 3041   4.933   0.431   0.604 -0.4768 -1.7496 -0.6621
  519SOL    HW2 3042   4.826   0.531   0.643  1.8729  0.2753  0.7225
  520SOL     OW 3043   4.028   2.423   1.546 -0.3081  0.2250  0.6232
  520SOL    HW1 3044   4.101   2.436   1.607 -0.4149 -0.0475  0.8079
  520SOL    HW2 3045   4.062   2.452   1.461  0.4378 -1.1038  0.4593
  521SOL     OW 3046   1.722   7.830   4.593  0.3203  0.2650  0.6104
  521SOL    HW1 3047   1.770   7.909   4.567  1.1540 -0.3101  0.3636
  521SOL    HW2 3048   1.713   7.836   4.688  0.9385  0.3505  0.6627
  522SOL     OW 3049   5.792   6.800   7.231 -0.0709  0.4442  0.2783
  522SOL    HW1 3050   5.875   6.760   7.205 -1.0417 -1.1936 -0.3917
  522SOL    HW2 3051   5.753   6.737   7.292 -0.9893  1.0129  0.2962
  523SOL     OW 3052   5.834   7.618   1.396 -0.1400  0.5699 -0.2402
  523SOL    HW1 3053   5.836   7.525   1.418 -2.4117  0.2437 -1.2796
  523SOL    HW2 3054   5.747   7.647   1.421  0.4275  2.3495 -0.2597
  524SOL     OW 3055   2.003   6.609   4.873  0.0730 -0.0239  0.2930
  524SOL    HW1 3056   1.921   6.579   4.914 -0.0516  0.3409  0.3109
  524SOL    HW2 3057   1.985   6.607   4.779  0.4545 -1.1418  0.2370
  525SOL     OW 3058   7.816   0.466   4.332  0.2289 -0.0220 -0.4400
  525SOL    HW1 3059   7.845   0.391   4.280  0.7779  0.1362 -0.3656
  525SOL    HW2 3060   7.897   0.505   4.366  0.1699  2.2986 -2.8089
  526SOL     OW 3061   3.095   2.694   4.088 -0.2861  0.2582 -0.1758
  526SOL    HW1 3062   3.015   2.745   4.096 -0.7911 -0.3561 -1.2625
  526SOL    HW2 3063   3.116   2.667   4.178 -1.4355  0.2034  0.0777
  527SOL     OW 3064   5.689   3.633   7.670  0.1889  0.1976  0.4839
  527SOL    HW1 3065   5.690   3.628   7.765 -1.6926  0.7325  0.5465
  527SOL    HW2 3066   5.627   3.566   7.642  1.1867 -0.3766 -0.4131
  528SOL     OW 3067   0.349   6.728   0.279 -0.4190 -0.4131  0.0451
  528SOL    HW1 3068   0.307   6.784   0.213 -3.1019 -0.7481  1.4110
  528SOL    HW2 3069   0.277   6.676   0.316  0.7306  0.9287  4.4040
  529SOL     OW 3070   0.426   5.208   6.417  0.3802 -0.0871 -0.3632
  529SOL    HW1 3071   0.346   5.245   6.379 -0.6463 -1.8645  0.0166
  529SOL    HW2 3072   0.484   5.192   6.342 -1.0110 -2.0836 -1.0522
  530SOL     OW 3073   7.154   5.768   2.439 -0.1182  0.2600 -0.4739
  530SOL    HW1 3074   7.124   5.804   2.522 -1.2714  0.4641 -0.9824
  530SOL    HW2 3075   7.136   5.674   2.446  0.5023  0.1571 -0.1895
  531SOL     OW 3076   7.390   7.317   1.259  0.2807 -0.3752  0.0275
  531SOL    HW1 3077   7.376   7.296   1.167  1.6061  1.2837 -0.5757
  531SOL    HW2 3078   7.465   7.377   1.259  0.2764 -0.3336  2.1790
  532SOL     OW 3079   7.658   4.378   4.121 -0.0457 -0.1262  0.1496
  532SOL    HW1 3080   7.686   4.427   4.044 -1.3392  0.3694 -0.0041
  532SOL    HW2 3081   7.676   4.286   4.099 -1.6671 -0.1138 -1.2877
  533SOL     OW 3082   5.875   5.517   6.609  0.4487 -0.5867 -0.1989
  533SOL    HW1 3083   5.941   5.449   6.607  2.4909  1.3358 -0.0040
  533SOL    HW2 3084   5.841   5.520   6.519  1.5555 -0.6993 -0.6250
  534SOL     OW 3085   2.925   4.174   6.234 -0.4606 -0.6351  0.4691
  534SOL    HW1 3086   3.015   4.144   6.221 -0.7906 -2.3973  2.0872
  534SOL    HW2 3087   2.877   4.137   6.161  0.3107  1.2723 -1.0528
  535SOL     OW 3088   0.121   1.518   4.884  0.0965 -0.5792  0.1837
  535SOL    HW1 3089   0.118   1.572   4.804  1.5494 -1.5269 -0.5376
  535SOL    HW2 3090   0.161   1.575   4.950  1.1555 -0.5795 -0.4418
  536SOL     OW 3091   0.875   4.843   7.408  0.0446  0.2713 -0.7019
  536SOL    HW1 3092   0.800   4.795   7.374 -0.6649  0.0238  1.1589
  536SOL    HW2 3093   0.837   4.909   7.466  1.2495  0.1394  0.2712
  537SOL     OW 3094   3.429   5.421   6.874  0.1053 -0.0125 -1.0644
  537SOL    HW1 3095   3.506   5.372   6.899  0.4558  0.3857 -1.3462
  537SOL    HW2 3096   3.387   5.446   6.957  0.4507  0.0388 -0.9061
  538SOL     OW 3097   6.419   7.167   1.544 -0.0973  0.0036 -0.0115
  538SOL    HW1 3098   6.434   7.261   1.535  3.0856 -0.3968  0.2612
  538SOL    HW2 3099   6.402   7.137   1.455  1.1161  0.5479 -0.4513
  539SOL     OW 3100   2.057   6.439   5.292 -0.4008 -0.3557  0.5633
  539SOL    HW1 3101   2.059   6.374   5.221 -1.8261 -0.6706  0.8014
  539SOL    HW2 3102   2.035   6.521   5.249 -1.7999 -0.6509  0.7202
  540SOL     OW 3103   1.702   3.604   3.878  0.4048 -0.0125  0.4269
  540SOL    HW1 3104   1.793   3.618   3.905 -0.0252  0.8257  1.4737
  540SOL    HW2 3105   1.654   3.592   3.959 -0.5936  0.5954 -0.0576
  541SOL     OW 3106   2.826   2.800   6.528 -0.0735  0.1226  0.5088
  541SOL    HW1 3107   2.733   2.816   6.514 -0.3593 -0.1866  1.9889
  541SOL    HW2 3108   2.866   2.812   6.442 -1.5420 -0.1767 -0.2213
  542SOL     OW 3109   1.141   2.774   1.900 -0.3303 -0.2107  0.3770
  542SOL    HW1 3110   1.055   2.802   1.932  0.0848  2.3862 -0.6720
  542SOL    HW2 3111   1.200   2.847   1.922  0.9741 -0.5880 -1.6967
  543SOL     OW 3112   5.724   1.006   6.537  0.2552  0.5190  0.1041
  543SOL    HW1 3113   5.731   0.913   6.560  2.0417  0.5333 -0.3074
  543SOL    HW2 3114   5.667   1.043   6.605 -1.7069 -1.1465 -0.5629
  544SOL     OW 3115   4.277   6.827   3.111 -0.0789 -0.1773  0.5509
  544SOL    HW1 3116   4.254   6.736   3.128  1.3925 -0.8451 -0.9470
  544SOL    HW2 3117   4.318   6.857   3.192  0.4970 -1.2072  0.6446
  545SOL     OW 3118   2.406   2.946   6.086 -0.8008  0.2702  0.5807
  545SOL    HW1 3119   2.483   2.943   6.143 -0.0905  2.3915 -0.2210
  545SOL    HW2 3120   2.441   2.952   5.998 -1.8901  0.3053  0.1377
  546SOL     OW 3121   4.133   8.024   6.215  0.0645 -0.0966  0.7034
  546SOL    HW1 3122   4.155   7.949   6.269 -1.3887 -0.0194  1.4308
  546SOL    HW2 3123   4.047   8.053   6.247 -1.1711 -0.4777 -2.0756
  547SOL     OW 3124   2.539   6.481   8.090 -0.4807  0.4094  0.6006
  547SOL    HW1 3125   2.529   6.557   8.032  1.5706  0.4179  0.1924
  547SOL    HW2 3126   2.623   6.497   8.134 -0.8270 -0.8316  1.7205
  548SOL     OW 3127   5.172   5.400   4.808 -0.0539 -0.1355 -0.1966
  548SOL    HW1 3128   5.220   5.479   4.834  2.9031 -1.5352 -1.0992
  548SOL    HW2 3129   5.191   5.337   4.877 -1.4136 -0.4437 -0.0906
  549SOL     OW 3130   5.763   4.760   6.205 -0.2086 -0.0333 -0.1577
  549SOL    HW1 3131   5.693   4.697   6.222 -0.3021  0.6124  2.0032
  549SOL    HW2 3132   5.719   4.845   6.201  0.3365  0.2942  0.5064
  550SOL     OW 3133   7.854   6.500   2.583  0.5965 -0.3458  0.1569
  550SOL    HW1 3134   7.854   6.594   2.567 -1.1003 -0.5248 -1.1302
  550SOL    HW2 3135   7.912   6.464   2.516  1.7189 -0.1835  1.0233
  551SOL     OW 3136   3.317   8.065   6.346 -0.4673 -0.0003  0.2638
  551SOL    HW1 3137   3.237   8.093   6.301 -0.4114 -1.8993 -1.0980
  551SOL    HW2 3138   3.387   8.115   6.303 -0.6769 -0.0711 -0.1669
  552SOL     OW 3139   6.295   5.469   5.075 -0.6227 -0.6054 -0.1167
  552SOL    HW1 3140   6.266   5.508   4.992 -2.6639 -0.9022  0.4336
  552SOL    HW2 3141   6.332   5.385   5.051 -0.3690 -0.2946 -0.8209
  553SOL     OW 3142   2.397   1.947   6.759  0.0779 -0.0505 -0.2129
  553SOL    HW1 3143   2.479   1.906   6.730 -0.3807  0.2846 -2.0482
  553SOL    HW2 3144   2.331   1.879   6.748 -0.3760  0.5920 -1.5260
  554SOL     OW 3145   1.698   7.950   6.629  0.4545 -0.0693 -0.0311
  554SOL    HW1 3146   1.771   7.935   6.689  0.3493  0.6134  0.2653
  554SOL    HW2 3147   1.623   7.966   6.686  0.6286  1.9494 -0.3275
  555SOL     OW 3148   7.921   1.494   1.688 -0.0170 -0.1791 -0.1561
  555SOL    HW1 3149   7.976   1.541   1.625 -1.0221 -0.6739 -1.4232
  555SOL    HW2 3150   7.920   1.550   1.765 -0.7310  1.6283 -1.4452
  556SOL     OW 3151   0.403   3.494   3.962 -0.0644  0.0422 -0.0370
  556SOL    HW1 3152   0.444   3.438   4.028 -1.1404  0.0606  0.6709
  556SOL    HW2 3153   0.381   3.574   4.010 -2.5606 -0.6670  0.0570
  557SOL     OW 3154   5.074   4.553   3.047  0.2504  0.2164  0.2194
  557SOL    HW1 3155   5.099   4.495   2.975 -0.6648  0.1971 -0.0999
  557SOL    HW2 3156   5.025   4.624   3.005  0.5640  0.7288  0.7146
  558SOL     OW 3157   2.148   4.176   5.989  0.0308 -0.0919  0.6397
  558SOL    HW1 3158   2.104   4.110   5.935 -2.0682 -0.7553  3.0327
  558SOL    HW2 3159   2.224   4.131   6.024 -1.4785 -1.3806  2.3943
  559SOL     OW 3160   6.138   4.213   2.146  0.5447  0.5591  0.1726
  559SOL    HW1 3161   6.141   4.160   2.226  0.4183 -1.2463 -0.9766
  559SOL    HW2 3162   6.126   4.149   2.076  0.0862  2.1588 -1.2464
  560SOL     OW 3163   0.557   4.804   1.033 -0.8667  0.2386  0.0044
  560SOL    HW1 3164   0.491   4.873   1.036 -0.4571  0.6681 -0.8072
  560SOL    HW2 3165   0.557   4.768   1.122 -1.2160  1.1460  0.3824
  561SOL     OW 3166   2.960   0.012   0.657 -0.0049  0.3029 -1.1848
  561SOL    HW1 3167   3.020   0.085   0.674  0.5894 -0.2678 -0.8345
  561SOL    HW2 3168   2.899   0.014   0.731 -0.6238  1.0773 -1.7007
  562SOL     OW 3169   2.988   1.694   7.427  0.1506  0.1672 -0.0859
  562SOL    HW1 3170   2.910   1.750   7.420 -0.3789 -0.5051  0.3925
  562SOL    HW2 3171   2.967   1.633   7.497  1.4744  0.5505  0.6530
  563SOL     OW 3172   5.520   4.096   7.197 -0.0808  0.1862 -0.0498
  563SOL    HW1 3173   5.601   4.124   7.239  0.2368 -1.5491  0.5427
  563SOL    HW2 3174   5.469   4.176   7.188  1.5685  1.2572 -0.1528
  564SOL     OW 3175   0.657   0.220   4.612 -0.0045 -0.0901 -0.1579
  564SOL    HW1 3176   0.750   0.237   4.629 -0.0074  0.8393 -1.0384
  564SOL    HW2 3177   0.630   0.291   4.553 -1.3215 -0.2474  0.2517
  565SOL     OW 3178   1.134   4.137   8.179 -0.6150  0.4427  0.5719
  565SOL    HW1 3179   1.113   4.230   8.167  0.4219  0.7417  0.9873
  565SOL    HW2 3180   1.050   4.095   8.199 -1.1153  1.2628  0.2157
  566SOL     OW 3181   8.223   4.057   0.713 -1.2541  0.1261  0.3288
  566SOL    HW1 3182   8.211   4.120   0.642  2.0366 -1.0374 -1.3743
  566SOL    HW2 3183   8.174   3.980   0.684  0.1485 -0.3748 -0.7833
  567SOL     OW 3184   0.457   0.462   7.373 -0.0284  0.0920  0.4425
  567SOL    HW1 3185   0.424   0.405   7.303  1.5035 -1.8215  1.2355
  567SOL    HW2 3186   0.524   0.515   7.330  1.1925 -1.3596  0.5410
  568SOL     OW 3187   2.750   4.030   1.519  0.1577 -0.0708  0.3502
  568SOL    HW1 3188   2.655   4.034   1.530  0.0578  1.1767 -0.9043
  568SOL    HW2 3189   2.763   4.020   1.425  1.3063  1.5808  0.3178
  569SOL     OW 3190   7.432   4.792   5.897  0.3194  0.4217 -0.2843
  569SOL    HW1 3191   7.438   4.762   5.807  0.0548  0.4402 -0.3065
  569SOL    HW2 3192   7.391   4.879   5.892 -1.7284 -0.5131  0.0378
  570SOL     OW 3193   7.788   5.106   1.199  0.5391 -0.0977  0.1666
  570SOL    HW1 3194   7.757   5.193   1.173  0.6267 -0.0624  0.1810
  570SOL    HW2 3195   7.731   5.046   1.152 -0.3853 -0.0316  1.1823
  571SOL     OW 3196   2.648   7.198   5.052 -0.0409  0.3856 -0.1116
  571SOL    HW1 3197   2.634   7.270   4.990 -0.7660  0.5501  0.2304
  571SOL    HW2 3198   2.677   7.241   5.132 -1.0978  0.3650  0.2931
  572SOL     OW 3199   3.239   0.914   3.813 -0.2660  0.3963 -0.3431
  572SOL    HW1 3200   3.167   0.931   3.753  0.5912 -1.8813 -2.1001
  572SOL    HW2 3201   3.316   0.954   3.772  0.4170 -1.5933 -1.0851
  573SOL     OW 3202   3.306   3.514   1.085  0.5294 -0.1478 -0.1965
  573SOL    HW1 3203   3.328   3.553   1.000 -0.8722  0.3897 -0.3188
  573SOL    HW2 3204   3.229   3.460   1.068  0.2087  0.0079  0.7392
  574SOL     OW 3205   4.721   8.043   1.085 -0.0653  0.0266 -0.0593
  574SOL    HW1 3206   4.719   8.129   1.128 -0.6420 -0.4535  0.8960
  574SOL    HW2 3207   4.718   7.980   1.157 -0.8214 -0.7996 -0.7961
  575SOL     OW 3208   4.598   3.324   5.962 -0.0767  0.3483  0.0297
  575SOL    HW1 3209   4.538   3.251   5.979  0.5862 -0.2626 -0.2303
  575SOL    HW2 3210   4.542   3.401   5.964 -1.5370 -0.4683 -3.5502
  576SOL     OW 3211   4.398   5.455   6.496  0.1303 -0.1688  0.0213
  576SOL    HW1 3212   4.469   5.391   6.501  0.9246  0.8649  3.2271
  576SOL    HW2 3213   4.441   5.536   6.467 -0.0759  0.0205  0.2441
  577SOL     OW 3214   7.198   5.693   5.998  0.0350 -0.4176 -0.2467
  577SOL    HW1 3215   7.253   5.639   6.055  0.2110  0.6167  0.5746
  577SOL    HW2 3216   7.231   5.675   5.909  2.0964  0.5977  0.2688
  578SOL     OW 3217   3.363   4.414   0.448  0.3570 -0.5187  0.4322
  578SOL    HW1 3218   3.414   4.391   0.526  1.6019 -1.2562 -0.5917
  578SOL    HW2 3219   3.429   4.438   0.383 -0.6923  0.3651 -0.3149
  579SOL     OW 3220   2.686   3.490   3.533  0.9137  0.3793 -0.1095
  579SOL    HW1 3221   2.714   3.405   3.500 -0.1209 -1.0514  2.5696
  579SOL    HW2 3222   2.595   3.498   3.503  0.6643  0.0378  0.5411
  580SOL     OW 3223   0.714   5.019   3.369  0.4452  0.1264 -0.0539
  580SOL    HW1 3224   0.759   5.082   3.426  0.0573  0.3320  0.0252
  580SOL    HW2 3225   0.621   5.037   3.382  0.3620  0.4316 -1.0475
  581SOL     OW 3226   4.532   7.365   2.389 -0.3786 -0.0198 -0.8254
  581SOL    HW1 3227   4.471   7.314   2.443  1.4942 -1.5476 -0.0647
  581SOL    HW2 3228   4.489   7.372   2.304 -0.7989 -2.7728 -0.9027
  582SOL     OW 3229   7.198   5.227   2.786 -0.0190  0.4524  0.2690
  582SOL    HW1 3230   7.116   5.273   2.806 -0.3273  0.5544 -1.1560
  582SOL    HW2 3231   7.210   5.165   2.858 -0.3270  1.7914  1.5015
  583SOL     OW 3232   2.030   3.155   6.920 -0.1161  0.1295 -0.5186
  583SOL    HW1 3233   2.013   3.089   6.987  1.4873 -0.3192 -0.5271
  583SOL    HW2 3234   2.043   3.237   6.969 -1.7961  0.3874 -0.4873
  584SOL     OW 3235   6.401   5.126   4.917 -0.4260  0.4022  0.3549
  584SOL    HW1 3236   6.363   5.152   5.001 -0.1585  0.2968  0.5103
  584SOL    HW2 3237   6.389   5.201   4.860  1.4742  1.3447  1.1571
  585SOL     OW 3238   5.665   6.440   8.229  0.5536 -0.1504  0.2215
  585SOL    HW1 3239   5.704   6.506   8.172  0.8881  0.6092  1.3242
  585SOL    HW2 3240   5.709   6.359   8.204  1.8582  0.4552  0.5030
  586SOL     OW 3241   0.407   5.352   7.683  0.2653 -0.4718 -0.7123
  586SOL    HW1 3242   0.455   5.393   7.755 -1.2139  0.1151 -0.0393
  586SOL    HW2 3243   0.428   5.405   7.607  1.9781 -1.1980 -0.7720
  587SOL     OW 3244   0.527   3.738   4.697  0.2738  0.0176 -0.3197
  587SOL    HW1 3245   0.516   3.762   4.789 -3.2241  0.4468 -0.7747
  587SOL    HW2 3246   0.564   3.816   4.656  1.8532 -0.1804  0.7138
  588SOL     OW 3247   1.206   4.633   7.632  0.5350 -0.5717  0.0988
  588SOL    HW1 3248   1.216   4.663   7.722  0.3175 -1.2011  0.3431
  588SOL    HW2 3249   1.181   4.541   7.641 -1.3700 -0.1435 -0.5476
  589SOL     OW 3250   4.956   3.657   6.581 -0.3096 -0.6225  0.5257
  589SOL    HW1 3251   4.961   3.750   6.602  0.2225  0.0360 -2.3511
  589SOL    HW2 3252   5.047   3.628   6.577 -0.3730 -0.6296 -1.1859
  590SOL     OW 3253   5.998   3.677   8.176 -0.6449 -0.2970  0.4930
  590SOL    HW1 3254   6.035   3.707   8.260  1.7305 -1.7067  0.0043
  590SOL    HW2 3255   5.992   3.756   8.123 -0.2045  0.2807  1.2810
  591SOL     OW 3256   5.809   5.419   6.338  0.1110 -0.0270 -0.1146
  591SOL    HW1 3257   5.743   5.376   6.392 -0.0055 -0.9853 -1.0004
  591SOL    HW2 3258   5.888   5.366   6.349  0.0916 -0.2137 -0.8779
  592SOL     OW 3259   6.522   6.956   7.309 -0.0795  0.3899  0.8553
  592SOL    HW1 3260   6.472   6.987   7.234  0.3124 -1.3360 -0.1478
  592SOL    HW2 3261   6.539   7.034   7.361 -1.3830  1.4188 -0.2355
  593SOL     OW 3262   2.922   1.309   4.887 -0.3303 -0.3540 -0.0003
  593SOL    HW1 3263   2.837   1.324   4.928  0.1490  0.1795  0.7938
  593SOL    HW2 3264   2.904   1.243   4.819 -1.3220 -0.4413  0.3398
  594SOL     OW 3265   0.562   1.431   3.546  0.0235  0.4147  0.2353
  594SOL    HW1 3266   0.593   1.499   3.485  1.5411 -0.4289  0.0412
  594SOL    HW2 3267   0.481   1.399   3.506  0.0556  1.1194 -0.4135
  595SOL     OW 3268   7.262   6.915   3.202 -0.0948  0.0593  0.6885
  595SOL    HW1 3269   7.194   6.895   3.266  0.0898 -1.1081  0.5340
  595SOL    HW2 3270   7.302   6.996   3.234 -0.8026  0.1398  1.3897
  596SOL     OW 3271   8.070   8.280   3.335 -0.5131  0.2082 -0.1921
  596SOL    HW1 3272   8.082   8.311   3.424 -1.1965 -0.5083  0.1542
  596SOL    HW2 3273   7.991   8.225   3.338 -0.0061 -0.5940 -1.0286
  597SOL     OW 3274   7.351   2.742   6.270 -0.0624 -0.1639  0.2493
  597SOL    HW1 3275   7.358   2.817   6.210  0.5607 -1.1553 -0.9470
  597SOL    HW2 3276   7.267   2.754   6.313 -0.5209  0.5856 -0.8160
  598SOL     OW 3277   3.230   4.224   0.010 -0.4874  0.5893 -0.5949
  598SOL    HW1 3278   3.235   4.230   0.105 -0.6511  3.1424 -0.6894
  598SOL    HW2 3279   3.163   4.158  -0.007 -1.4291  1.0788  1.0877
  599SOL     OW 3280   3.770   5.477   4.463 -0.6380  0.5835  0.6995
  599SOL    HW1 3281   3.683   5.504   4.432 -0.4371 -2.1961 -2.5938
  599SOL    HW2 3282   3.765   5.381   4.467  2.3838  0.3622  0.1488
  600SOL     OW 3283   7.554   0.321   4.194 -0.3028  0.4303 -0.0091
  600SOL    HW1 3284   7.566   0.405   4.149 -1.5624 -0.2145 -1.6054
  600SOL    HW2 3285   7.550   0.257   4.124  2.9858 -1.3209  1.2839
  601SOL     OW 3286   8.156   5.616   6.693  0.6076  0.9805 -0.3911
  601SOL    HW1 3287   8.141   5.555   6.621  0.2379  1.1166 -0.4315
  601SOL    HW2 3288   8.205   5.565   6.758  1.0283  0.8880 -0.7772
  602SOL     OW 3289   5.429   0.440   0.031 -0.1072 -0.9047 -0.0976
  602SOL    HW1 3290   5.398   0.496  -0.041  0.8132 -1.8218 -1.2386
  602SOL    HW2 3291   5.350   0.405   0.070 -0.6892  0.9670  0.4516
  603SOL     OW 3292   3.697   7.610   4.994  0.2062  0.1565 -0.2708
  603SOL    HW1 3293   3.787   7.579   5.006 -0.0434 -0.2191  0.6509
  603SOL    HW2 3294   3.700   7.704   5.012  0.4439  0.1704 -0.3878
  604SOL     OW 3295   2.446   4.996   8.066  0.2556  0.9178 -0.0477
  604SOL    HW1 3296   2.525   4.956   8.029 -0.6683  0.7046 -1.8417
  604SOL    HW2 3297   2.396   5.025   7.990 -1.0368  1.7582  1.1006
  605SOL     OW 3298   6.212   2.042   3.655  0.2793 -0.1165 -0.4992
  605SOL    HW1 3299   6.237   1.959   3.613  2.4722  0.5485 -0.5621
  605SOL    HW2 3300   6.286   2.100   3.639 -0.4107  1.2638  1.2230
  606SOL     OW 3301   7.244   2.209   6.768  0.0339  0.3789 -0.4158
  606SOL    HW1 3302   7.253   2.214   6.673  1.4549 -0.0453 -0.3190
  606SOL    HW2 3303   7.216   2.119   6.785 -1.1727  0.7341 -0.4905
  607SOL     OW 3304   0.908   7.126   5.529 -0.6120  0.2097 -0.2218
  607SOL    HW1 3305   0.817   7.154   5.539 -0.2480  1.2690  0.2401
  607SOL    HW2 3306   0.920   7.117   5.434 -0.7569  1.6056 -0.3824
  608SOL     OW 3307   0.885   5.610   7.515 -0.3499 -0.9490 -0.9321
  608SOL    HW1 3308   0.914   5.519   7.505  2.0993 -0.3834  0.8564
  608SOL    HW2 3309   0.891   5.627   7.609 -3.3412  0.2811 -0.8877
  609SOL     OW 3310   0.852   8.309   6.123  0.1636 -0.0041 -0.5773
  609SOL    HW1 3311   0.806   8.228   6.102  1.1135 -0.3263 -1.4512
  609SOL    HW2 3312   0.933   8.282   6.165  1.6250  0.3492 -3.0329
  610SOL     OW 3313   2.543   2.311   1.688  0.0401  0.1425  0.3642
  610SOL    HW1 3314   2.613   2.246   1.688 -1.6394 -1.6900  0.6762
  610SOL    HW2 3315   2.580   2.385   1.737  2.2377 -0.2358 -0.6604
  611SOL     OW 3316   3.358   7.651   0.864 -0.0181 -0.2000 -0.1070
  611SOL    HW1 3317   3.413   7.718   0.822  0.4757 -0.1634  0.5808
  611SOL    HW2 3318   3.277   7.697   0.885 -0.1774 -0.1549 -0.7955
  612SOL     OW 3319   0.415   6.677   8.290 -0.2158 -0.1020  0.2243
  612SOL    HW1 3320   0.400   6.602   8.347 -1.7947  0.2171  0.2496
  612SOL    HW2 3321   0.332   6.725   8.290  0.4515  1.0931 -0.5975
  613SOL     OW 3322   4.710   5.268   2.349 -0.2291 -0.0197 -0.2134
  613SOL    HW1 3323   4.764   5.190   2.335 -0.5427 -0.1402 -0.7298
  613SOL    HW2 3324   4.718   5.319   2.268 -1.1494 -0.1918 -0.4174
  614SOL     OW 3325   3.548   2.271   6.140  0.2184 -0.0727  0.0173
  614SOL    HW1 3326   3.493   2.330   6.192  0.4079  0.0428  0.0876
  614SOL    HW2 3327   3.520   2.184   6.166  0.0549 -0.0143  0.0400
  615SOL     OW 3328   1.485   8.225   4.494  0.2836  0.3474  0.1519
  615SOL    HW1 3329   1.405   8.277   4.498  0.7097  1.0223  0.1183
  615SOL    HW2 3330   1.458   8.137   4.521 -0.4508  0.5819  0.2008
  616SOL     OW 3331   1.316   3.077   6.216  0.6530 -0.5270  0.0864
  616SOL    HW1 3332   1.298   3.111   6.303 -1.1498  0.2993 -0.5859
  616SOL    HW2 3333   1.240   3.022   6.195  0.8136 -0.2795 -1.1769
  617SOL     OW 3334   0.155   5.141   3.231  0.2344 -0.4427 -0.1837
  617SOL    HW1 3335   0.184   5.232   3.235  2.6063 -1.1912  0.7685
  617SOL    HW2 3336   0.229   5.094   3.194 -0.1889 -2.2729  1.2095
  618SOL     OW 3337   6.360   1.984   6.426  0.1406 -0.2494  0.4326
  618SOL    HW1 3338   6.428   2.032   6.473  1.0314 -1.4989  0.4372
  618SOL    HW2 3339   6.300   1.954   6.494  0.1773 -0.0814  0.5384
  619SOL     OW 3340   3.189   2.765   2.807 -0.5523 -0.4091  0.0404
  619SOL    HW1 3341   3.111   2.720   2.774  0.4894 -1.7264 -0.6707
  619SOL    HW2 3342   3.216   2.714   2.883  2.1310 -2.6063 -2.2749
  620SOL     OW 3343   6.418   5.479   4.227  0.8173 -0.0507 -0.6187
  620SOL    HW1 3344   6.486   5.499   4.162  0.9412 -2.0964 -1.1598
  620SOL    HW2 3345   6.345   5.445   4.175  0.4170 -0.4427  0.1986
  621SOL     OW 3346   1.249   1.693   0.169 -0.2427  0.2412  0.6013
  621SOL    HW1 3347   1.306   1.622   0.200 -1.2927 -0.4818  0.8766
  621SOL    HW2 3348   1.309   1.753   0.125  0.6262 -0.9289  0.1538
  622SOL     OW 3349   8.248   5.530   0.209  0.3360 -0.4934 -0.1470
  622SOL    HW1 3350   8.181   5.593   0.236 -0.0299  0.0237 -2.1442
  622SOL    HW2 3351   8.211   5.445   0.230  0.0256 -0.1196  0.8371
  623SOL     OW 3352   1.892   4.597   3.419  0.1932  0.7149 -0.1602
  623SOL    HW1 3353   1.862   4.585   3.510 -0.8319 -0.6043 -0.6559
  623SOL    HW2 3354   1.840   4.671   3.388 -0.0227  0.6696  0.0852
  624SOL     OW 3355   1.901   7.317   7.293  0.1213  0.4358 -0.1218
  624SOL    HW1 3356   1.855   7.285   7.371 -1.0771  0.2254 -0.9041
  624SOL    HW2 3357   1.993   7.294   7.309 -0.2637 -0.5870  0.7393
  625SOL     OW 3358   1.915   5.174   0.210  0.2780  0.1172  0.1748
  625SOL    HW1 3359   1.981   5.147   0.147 -1.0648 -1.2384 -0.6654
  625SOL    HW2 3360   1.931   5.268   0.223  2.1283 -0.1237 -0.2737
  626SOL     OW 3361   6.271   6.975   2.485  0.1621 -1.1424 -0.6435
  626SOL    HW1 3362   6.315   7.028   2.419 -0.0555 -0.2708 -0.1001
  626SOL    HW2 3363   6.275   6.886   2.451 -1.7748 -0.4410 -2.8264
  627SOL     OW 3364   1.017   6.829   2.980 -0.4063 -0.0913 -0.6061
  627SOL    HW1 3365   0.967   6.766   2.928 -1.6735 -0.2950  0.8285
  627SOL    HW2 3366   1.099   6.784   3.000 -1.4648 -1.4605  0.7532
  628SOL     OW 3367   0.531   5.616   1.089  0.1236 -0.2708 -0.7841
  628SOL    HW1 3368   0.567   5.566   1.016  0.7135  0.4974 -1.0304
  628SOL    HW2 3369   0.592   5.601   1.161 -0.6533 -1.3162 -0.3427
  629SOL     OW 3370   4.766   5.247   6.901 -0.3078 -0.6667  0.0694
  629SOL    HW1 3371   4.805   5.285   6.980 -0.1547  1.2993 -0.9228
  629SOL    HW2 3372   4.703   5.312   6.871  0.2203 -1.0122 -1.8864
  630SOL     OW 3373   7.462   0.014   8.270 -0.4044  0.1368  0.1359
  630SOL    HW1 3374   7.514   0.094   8.260 -0.4131  0.2124  0.6580
  630SOL    HW2 3375   7.527  -0.055   8.284 -0.4197  0.1430  0.2346
  631SOL     OW 3376   5.843   7.243   6.777  0.1040 -0.4978  0.2933
  631SOL    HW1 3377   5.771   7.183   6.798  1.7210 -2.5399  0.1116
  631SOL    HW2 3378   5.905   7.190   6.728  1.5202  1.3690  0.0307
  632SOL     OW 3379   5.809   3.317   1.613 -0.3247 -0.6530  0.0241
  632SOL    HW1 3380   5.727   3.320   1.660 -0.0531 -0.6634  0.4974
  632SOL    HW2 3381   5.790   3.356   1.528 -1.0447 -1.4810 -0.2020
  633SOL     OW 3382   0.987   0.613   2.595 -0.4843  0.1561  0.0329
  633SOL    HW1 3383   0.961   0.649   2.511  1.0121 -0.8515 -0.8917
  633SOL    HW2 3384   0.979   0.518   2.585  0.1460  0.0001  0.8581
  634SOL     OW 3385   0.923   7.410   1.923  0.2771 -0.1124 -0.6718
  634SOL    HW1 3386   0.975   7.435   1.846 -0.8828  0.2268 -1.3588
  634SOL    HW2 3387   0.882   7.327   1.898  1.0773 -0.7578  0.1483
  635SOL     OW 3388   7.084   7.527   1.497  0.2449 -0.1879 -0.3041
  635SOL    HW1 3389   7.041   7.550   1.415 -1.2428  0.9004  0.7595
  635SOL    HW2 3390   7.034   7.453   1.531  0.2837 -0.0386  0.0818
  636SOL     OW 3391   8.044   0.574   5.967 -0.4418  0.4283  0.3651
  636SOL    HW1 3392   8.016   0.640   6.030  0.7917 -0.4534  1.8584
  636SOL    HW2 3393   8.099   0.623   5.905 -0.3171  0.9893  0.9126
  637SOL     OW 3394   2.321   3.145   2.894 -0.2605 -0.0982  0.1090
  637SOL    HW1 3395   2.245   3.088   2.909  0.2632 -0.6034  0.8573
  637SOL    HW2 3396   2.394   3.085   2.881  0.3298  0.4016  1.0658
  638SOL     OW 3397   5.471   4.233   3.356 -0.0069 -0.2407  0.6321
  638SOL    HW1 3398   5.409   4.186   3.413 -0.8414 -1.5392 -1.2879
  638SOL    HW2 3399   5.506   4.165   3.299  0.6931  1.0773 -0.5217
  639SOL     OW 3400   2.245   7.075   2.702  0.2674  0.2738 -0.2793
  639SOL    HW1 3401   2.233   7.004   2.639  0.5755  0.5187 -0.6159
  639SOL    HW2 3402   2.304   7.136   2.658  0.1292  0.6602  0.0731
  640SOL     OW 3403   6.089   0.328   3.452 -0.1891  0.5626  0.4376
  640SOL    HW1 3404   6.173   0.340   3.497  0.1862 -0.6847  0.0789
  640SOL    HW2 3405   6.111   0.278   3.373 -1.2948  0.0598  0.4383
  641SOL     OW 3406   2.344   7.641   7.136  0.0388  0.4955  0.2446
  641SOL    HW1 3407   2.330   7.548   7.116 -1.7956  0.3281  2.1726
  641SOL    HW2 3408   2.393   7.675   7.061 -1.0549 -1.5524 -1.4235
  642SOL     OW 3409   1.781   1.961   4.867  0.4267  0.6913  0.2936
  642SOL    HW1 3410   1.688   1.945   4.850 -0.1640  1.7307  2.3703
  642SOL    HW2 3411   1.783   2.048   4.907  2.3068  0.7239  0.1569
  643SOL     OW 3412   2.463   0.528   7.989  0.9359 -0.7106  0.4458
  643SOL    HW1 3413   2.441   0.610   7.943 -0.3740 -0.8753  0.7533
  643SOL    HW2 3414   2.446   0.547   8.081  1.0956 -1.1748  0.5726
  644SOL     OW 3415   2.655   2.882   6.786 -0.2507  0.1953  0.1207
  644SOL    HW1 3416   2.571   2.914   6.818  0.9137  1.1326  2.3989
  644SOL    HW2 3417   2.672   2.932   6.706 -0.1250  2.7377  1.6943
  645SOL     OW 3418   5.872   3.412   4.458  0.1245  0.3286 -0.7187
  645SOL    HW1 3419   5.887   3.367   4.375 -0.0043  0.0085 -0.5681
  645SOL    HW2 3420   5.922   3.361   4.522  1.0561  1.1661 -0.7711
  646SOL     OW 3421   6.203   1.398   2.112  0.2199 -0.1592 -0.0099
  646SOL    HW1 3422   6.115   1.386   2.077  0.6330 -1.4984 -0.6291
  646SOL    HW2 3423   6.258   1.341   2.058  1.5414  1.0698  0.0284
  647SOL     OW 3424   6.633   3.888   6.801 -0.3494  0.8714 -0.1072
  647SOL    HW1 3425   6.714   3.937   6.815  0.3006 -0.7487  2.0191
  647SOL    HW2 3426   6.565   3.944   6.839 -0.2443  2.1175 -1.6668
  648SOL     OW 3427   5.512   3.933   4.900  0.2628  0.2415 -0.4214
  648SOL    HW1 3428   5.498   3.954   4.807  0.8330 -0.5182 -0.6807
  648SOL    HW2 3429   5.575   3.861   4.899  0.2837  0.2460  0.5614
  649SOL     OW 3430   3.587   0.452   4.903  0.2753  0.3273  0.1601
  649SOL    HW1 3431   3.553   0.515   4.840  0.4128  0.8680  0.6224
  649SOL    HW2 3432   3.521   0.447   4.972  1.5190  2.1086  1.5462
  650SOL     OW 3433   2.123   5.089   0.049  0.3514  0.2380  0.1456
  650SOL    HW1 3434   2.201   5.145   0.045  1.9483 -1.8517  0.9046
  650SOL    HW2 3435   2.152   5.005   0.012 -1.8227 -0.2975 -0.4401
  651SOL     OW 3436   7.695   1.837   5.395 -0.2684  0.2612  0.2141
  651SOL    HW1 3437   7.746   1.775   5.343 -1.7158 -1.2950  0.6183
  651SOL    HW2 3438   7.730   1.829   5.483  0.4087  0.9717  0.0151
  652SOL     OW 3439   7.450   0.106   6.206  0.5424  0.4035  0.3607
  652SOL    HW1 3440   7.511   0.109   6.280  0.9606  0.2686  0.0248
  652SOL    HW2 3441   7.503   0.129   6.130  0.2713 -0.1308  0.0038
  653SOL     OW 3442   2.026   2.612   2.509 -0.0502 -0.2039  0.3206
  653SOL    HW1 3443   2.073   2.545   2.558 -0.4629 -0.4297  0.4133
  653SOL    HW2 3444   1.970   2.654   2.575 -0.3567 -0.2805  0.1061
  654SOL     OW 3445   7.767   3.659   4.264  0.2572  0.4420  0.3542
  654SOL    HW1 3446   7.780   3.659   4.169  0.5357  0.8747  0.3948
  654SOL    HW2 3447   7.676   3.630   4.275  0.9542 -2.0235  0.0575
  655SOL     OW 3448   0.001   7.011   4.541 -0.4983 -0.2210 -0.1424
  655SOL    HW1 3449   0.085   7.028   4.498 -1.6314 -1.8090 -3.1249
  655SOL    HW2 3450  -0.058   7.076   4.505 -0.4331  1.3588  2.4916
  656SOL     OW 3451   5.125   4.586   4.290 -0.2312 -0.1315  0.2612
  656SOL    HW1 3452   5.127   4.680   4.310 -0.1811 -0.0836  0.0315
  656SOL    HW2 3453   5.165   4.579   4.204  1.3914 -0.5585  1.0143
  657SOL     OW 3454   6.001   6.980   1.589  0.1928 -0.1034  0.0203
  657SOL    HW1 3455   6.016   7.054   1.648 -0.6716 -0.6420  0.9309
  657SOL    HW2 3456   5.935   7.011   1.527 -0.0875 -0.0719  0.3335
  658SOL     OW 3457   3.342   5.214   0.346  0.1724  0.2116  0.2704
  658SOL    HW1 3458   3.331   5.298   0.392  0.1370  0.5998 -0.4348
  658SOL    HW2 3459   3.265   5.209   0.289  0.9167  0.3981 -0.7660
  659SOL     OW 3460   6.194   4.163   1.408  0.1701 -0.2552 -0.0314
  659SOL    HW1 3461   6.191   4.229   1.478  0.5761  0.5815 -0.7869
  659SOL    HW2 3462   6.135   4.094   1.437  1.5451 -0.6663  1.8945
  660SOL     OW 3463   3.016   4.576   1.084 -0.0182 -0.2615  0.1656
  660SOL    HW1 3464   2.956   4.550   1.014 -0.4727 -0.2395  0.5491
  660SOL    HW2 3465   3.019   4.501   1.143  2.3099 -1.2764 -1.1627
  661SOL     OW 3466   4.619   0.768   3.134 -0.0398 -0.1965 -0.2602
  661SOL    HW1 3467   4.561   0.835   3.171 -0.7512 -0.2513 -1.2717
  661SOL    HW2 3468   4.699   0.815   3.111  0.8104 -0.3229  2.2249
  662SOL     OW 3469   2.307   4.545   6.009 -0.5828  0.0803  0.3774
  662SOL    HW1 3470   2.368   4.471   6.008 -1.8595 -1.0033 -0.5768
  662SOL    HW2 3471   2.350   4.612   6.061  1.4675 -0.6068 -0.3895
  663SOL     OW 3472   3.344   3.468   6.860  0.3301  0.3492  0.0896
  663SOL    HW1 3473   3.345   3.373   6.872 -0.5852  0.2967 -0.1555
  663SOL    HW2 3474   3.368   3.480   6.768  2.1436  0.4586  0.5616
  664SOL     OW 3475   0.038   4.448   6.071 -0.4509  0.3170 -0.2184
  664SOL    HW1 3476  -0.043   4.463   6.021 -0.3780 -0.6034 -0.6195
  664SOL    HW2 3477   0.007   4.422   6.158 -0.6149 -1.1715 -0.7004
  665SOL     OW 3478   7.864   8.067   1.697  0.0602 -0.1134  0.2247
  665SOL    HW1 3479   7.867   8.102   1.608  1.4808 -2.0617 -0.5043
  665SOL    HW2 3480   7.955   8.048   1.719 -0.5469 -2.1587  1.0691
  666SOL     OW 3481   5.245   4.312   4.720  0.4622 -0.3875  0.2686
  666SOL    HW1 3482   5.246   4.407   4.727  2.1137 -0.1425 -2.5807
  666SOL    HW2 3483   5.192   4.294   4.643 -1.3852 -1.9207  1.8405
  667SOL     OW 3484   7.730   3.440   4.730 -0.0746  0.2075  0.3205
  667SOL    HW1 3485   7.639   3.435   4.759 -0.1931  0.7606  0.0636
  667SOL    HW2 3486   7.725   3.436   4.634  0.3426 -2.0226  0.3693
  668SOL     OW 3487   3.114   3.485   3.814  0.2576  0.3677 -0.0813
  668SOL    HW1 3488   3.183   3.420   3.827  0.3311  0.6420  0.9563
  668SOL    HW2 3489   3.093   3.479   3.720  1.2631 -0.1367 -0.2875
  669SOL     OW 3490   1.792   0.370   1.909 -0.9588  0.3368  0.3944
  669SOL    HW1 3491   1.749   0.407   1.987  0.2850 -1.4231  1.9687
  669SOL    HW2 3492   1.885   0.388   1.923 -0.7329  0.0464 -0.7156
  670SOL     OW 3493   2.198   7.727   4.482 -0.0948  0.7825 -0.1710
  670SOL    HW1 3494   2.172   7.732   4.390  0.2813  0.4068 -0.3006
  670SOL    HW2 3495   2.233   7.638   4.492 -1.1581  0.4312  0.6031
  671SOL     OW 3496   7.479   2.266   4.308  0.5812  0.2644  0.3712
  671SOL    HW1 3497   7.454   2.339   4.251 -0.0367  3.3383  4.3239
  671SOL    HW2 3498   7.404   2.255   4.367  0.7828 -3.4369  0.0504
  672SOL     OW 3499   4.437   8.263   4.336  0.1575  0.0449  0.0663
  672SOL    HW1 3500   4.528   8.238   4.353  0.4417  0.3504 -0.9688
  672SOL    HW2 3501   4.427   8.347   4.382  0.8131  0.6871 -0.9323
  673SOL     OW 3502   8.053   6.016   1.525  0.1922  0.9036  0.1272
  673SOL    HW1 3503   8.147   6.030   1.516  0.5304 -0.1844  1.8428
  673SOL    HW2 3504   8.016   6.054   1.445  1.7818  4.1127  0.8433
  674SOL     OW 3505   6.925   1.154   7.899 -0.2833  0.3630  0.0170
  674SOL    HW1 3506   6.973   1.190   7.824 -1.9898 -0.8479 -1.6820
  674SOL    HW2 3507   6.993   1.120   7.956  1.0134  0.7772 -1.2431
  675SOL     OW 3508   3.426   7.257   4.789  0.0890  0.1750  0.4278
  675SOL    HW1 3509   3.450   7.328   4.849 -1.0366 -0.1865  1.3261
  675SOL    HW2 3510   3.414   7.300   4.704 -0.1274  0.9943  0.8676
  676SOL     OW 3511   1.015   4.983   4.659 -0.8740  0.1698 -0.1587
  676SOL    HW1 3512   1.008   5.074   4.688 -3.2808  0.0566 -0.3421
  676SOL    HW2 3513   1.099   4.954   4.695 -0.3121  2.2889  0.3470
  677SOL     OW 3514   7.679   7.199   4.194  0.4996  0.3177  0.0984
  677SOL    HW1 3515   7.641   7.246   4.267 -1.7734 -1.6956  0.2858
  677SOL    HW2 3516   7.769   7.181   4.220 -0.1246  0.1277  2.1649
  678SOL     OW 3517   8.068   1.795   6.957 -0.1680 -0.2495 -0.0271
  678SOL    HW1 3518   8.105   1.814   7.043 -0.2482 -1.8025  0.3768
  678SOL    HW2 3519   8.134   1.739   6.914 -1.3231 -1.7636  0.1088
  679SOL     OW 3520   7.736   1.800   2.647 -0.1370  0.0170  0.2682
  679SOL    HW1 3521   7.812   1.829   2.696  0.1885 -0.9434  0.3475
  679SOL    HW2 3522   7.661   1.821   2.703  0.2270 -0.9935  1.1562
  680SOL     OW 3523   8.243   4.590   7.457  0.0890 -0.6784  0.0146
  680SOL    HW1 3524   8.200   4.510   7.427 -0.1785  0.0070 -1.5149
  680SOL    HW2 3525   8.173   4.640   7.500 -0.2085 -0.4465 -0.7145
  681SOL     OW 3526   1.781   0.918   7.843  0.0267  0.1951 -0.4272
  681SOL    HW1 3527   1.691   0.940   7.821 -0.8932 -1.0299  1.9764
  681SOL    HW2 3528   1.805   0.979   7.912  1.5845  1.4808 -2.0290
  682SOL     OW 3529   5.846   1.187   5.940  0.2850  0.2162 -0.6865
  682SOL    HW1 3530   5.838   1.092   5.944 -1.5272  0.3389 -0.6234
  682SOL    HW2 3531   5.898   1.210   6.017 -0.8173 -0.5919  0.3280
  683SOL     OW 3532   4.359   5.584   1.800 -0.5190 -0.0569  0.0773
  683SOL    HW1 3533   4.355   5.572   1.705 -0.4803 -1.1322  0.2051
  683SOL    HW2 3534   4.452   5.599   1.818 -0.4249 -0.5798  0.0283
  684SOL     OW 3535   2.404   0.418   5.546 -0.1701  0.0969  0.1710
  684SOL    HW1 3536   2.339   0.348   5.551  0.3619 -0.3919  0.2137
  684SOL    HW2 3537   2.374   0.483   5.610 -1.0701  0.2563 -0.4012
  685SOL     OW 3538   6.699   5.463   6.942 -0.5154  0.0953  0.1905
  685SOL    HW1 3539   6.651   5.508   6.873 -0.2450 -1.7738 -1.2498
  685SOL    HW2 3540   6.774   5.519   6.961 -0.8301  0.8270 -0.7218
  686SOL     OW 3541   8.192   6.428   0.891  0.3530 -0.2960  0.3470
  686SOL    HW1 3542   8.219   6.354   0.836  2.8512 -1.4653  3.0527
  686SOL    HW2 3543   8.271   6.480   0.902 -0.6018  0.9866  1.2115
  687SOL     OW 3544   8.241   5.508   8.225 -0.4665  0.1412  0.6448
  687SOL    HW1 3545   8.306   5.568   8.188  0.6582 -1.2690  0.3036
  687SOL    HW2 3546   8.229   5.538   8.315 -0.2397  1.1483  0.3484
  688SOL     OW 3547   0.303   7.149   0.831 -0.2716  0.1248  0.2126
  688SOL    HW1 3548   0.331   7.153   0.922 -0.4088  2.5910  0.1743
  688SOL    HW2 3549   0.381   7.171   0.781 -0.2624 -0.9725 -0.2646
  689SOL     OW 3550   3.677   2.518   0.726 -0.1668 -0.3799  0.4649
  689SOL    HW1 3551   3.740   2.448   0.709 -2.5482 -3.0180  2.1158
  689SOL    HW2 3552   3.731   2.594   0.747  2.4937 -1.5445 -1.8204
  690SOL     OW 3553   1.825   3.769   2.662 -0.1005 -0.0990  0.1336
  690SOL    HW1 3554   1.876   3.839   2.703 -0.2188 -0.8977  1.6825
  690SOL    HW2 3555   1.792   3.808   2.582  1.7649  0.8851 -0.1876
  691SOL     OW 3556   5.011   4.376   1.487  0.2045 -0.3214 -0.1609
  691SOL    HW1 3557   4.962   4.459   1.488  1.3274  0.3475  1.7466
  691SOL    HW2 3558   5.059   4.378   1.405 -0.3675  0.5722 -0.4821
  692SOL     OW 3559   7.449   1.678   6.466  0.8024 -0.1022 -0.6308
  692SOL    HW1 3560   7.385   1.746   6.447 -0.5563 -1.5424 -1.3601
  692SOL    HW2 3561   7.522   1.696   6.407  1.0473  1.5089  0.1506
  693SOL     OW 3562   3.059   4.105   4.786 -0.4986  0.0692  0.3320
  693SOL    HW1 3563   3.000   4.030   4.777  1.6600 -1.3829 -2.4624
  693SOL    HW2 3564   3.122   4.077   4.853 -0.5787 -0.0183  0.3713
  694SOL     OW 3565   7.601   2.233   0.204  0.1046 -0.2134  0.0610
  694SOL    HW1 3566   7.660   2.285   0.258  0.3631  1.3059 -1.6282
  694SOL    HW2 3567   7.650   2.217   0.124 -1.5559  0.6263 -1.1617
  695SOL     OW 3568   7.780   3.892   0.951 -0.0356 -0.0959  0.3397
  695SOL    HW1 3569   7.832   3.812   0.945 -0.0913 -0.0654 -0.7394
  695SOL    HW2 3570   7.692   3.865   0.925  0.3757  0.7051 -2.0273
  696SOL     OW 3571   3.257   7.523   3.543 -0.5719  0.3013 -0.0799
  696SOL    HW1 3572   3.280   7.600   3.491 -0.3442  1.1083  1.1957
  696SOL    HW2 3573   3.327   7.517   3.609 -2.0251  0.6026  1.5170
  697SOL     OW 3574   7.075   6.210   4.581  0.4516 -0.1598 -0.3218
  697SOL    HW1 3575   7.110   6.292   4.617 -2.2289  1.2180 -0.6787
  697SOL    HW2 3576   7.104   6.209   4.490  3.2913 -1.3192  0.5350
  698SOL     OW 3577   6.991   3.949   5.830 -1.0907 -0.1566 -0.1399
  698SOL    HW1 3578   6.957   4.024   5.781  0.6306  0.7828  0.0629
  698SOL    HW2 3579   6.944   3.952   5.914 -1.8575  0.0046 -0.5660
  699SOL     OW 3580   2.086   3.927   1.235 -0.0471 -0.0192  0.3059
  699SOL    HW1 3581   2.138   3.895   1.308  0.3608  0.9087  0.4319
  699SOL    HW2 3582   2.026   3.991   1.274  0.8672  1.2469 -0.3132
  700SOL     OW 3583   5.926   2.631   2.153  0.8665  0.1419 -0.5670
  700SOL    HW1 3584   5.906   2.669   2.067 -2.7445 -0.4502 -0.0408
  700SOL    HW2 3585   5.891   2.695   2.216  2.5726  0.0762  0.4917
  701SOL     OW 3586   5.339   2.853   1.191 -0.1612  0.6331  0.3128
  701SOL    HW1 3587   5.257   2.897   1.210 -0.1998  0.1387  1.3439
  701SOL    HW2 3588   5.333   2.769   1.238 -0.4425 -0.8359 -2.2573
  702SOL     OW 3589   4.351   4.295   0.180 -0.0065  0.5320  0.4954
  702SOL    HW1 3590   4.342   4.253   0.095  0.1659  1.4245  0.0258
  702SOL    HW2 3591   4.396   4.231   0.235  0.0472  0.0302 -0.1398
  703SOL     OW 3592   0.427   1.721   5.901  0.1657  0.0700  0.4611
  703SOL    HW1 3593   0.383   1.791   5.852 -3.6384 -2.2082  0.4121
  703SOL    HW2 3594   0.503   1.699   5.848 -0.5153  1.7775 -1.2872
  704SOL     OW 3595   3.825   2.140   5.278 -0.0213  0.0344  0.0665
  704SOL    HW1 3596   3.836   2.131   5.373  0.7982  1.6937  0.1606
  704SOL    HW2 3597   3.866   2.062   5.241 -0.5444 -0.7358  1.0756
  705SOL     OW 3598   6.871   5.408   4.796 -0.2644  0.3238  0.4909
  705SOL    HW1 3599   6.846   5.319   4.822 -1.4297  0.9592  1.5809
  705SOL    HW2 3600   6.926   5.396   4.719 -0.0006 -1.3753  0.9321
  706SOL     OW 3601   7.240   6.338   4.030 -0.2028 -0.5992 -0.5249
  706SOL    HW1 3602   7.145   6.340   4.016  0.0206  0.6575 -1.9940
  706SOL    HW2 3603   7.270   6.267   3.973 -0.0263  0.4287 -1.7413
  707SOL     OW 3604   4.772   6.402   3.398  0.2081  0.2123 -0.2701
  707SOL    HW1 3605   4.755   6.411   3.305 -0.2048  0.4771 -0.1691
  707SOL    HW2 3606   4.716   6.329   3.426 -0.3687  0.7406 -0.0438
  708SOL     OW 3607   1.438   2.407   2.368  0.4479  0.0712  0.4432
  708SOL    HW1 3608   1.374   2.458   2.418 -0.2599 -0.6074  0.2446
  708SOL    HW2 3609   1.427   2.317   2.400  0.1059 -0.3407 -0.8102
  709SOL     OW 3610   5.965   2.051   4.278  0.2710  0.2624 -0.3604
  709SOL    HW1 3611   5.925   2.106   4.345 -0.7969 -1.2361  0.2466
  709SOL    HW2 3612   6.054   2.035   4.310  0.2521  0.7712 -0.0475
  710SOL     OW 3613   1.350   7.820   0.543  0.3323  0.0433  0.1503
  710SOL    HW1 3614   1.265   7.863   0.530  1.7601  2.7436 -0.6678
  710SOL    HW2 3615   1.373   7.784   0.458 -0.6327 -1.9494  0.7171
  711SOL     OW 3616   6.956   1.850   6.996 -0.0494  0.1771 -0.4150
  711SOL    HW1 3617   6.896   1.876   7.065  0.5929  0.9621 -0.1517
  711SOL    HW2 3618   6.900   1.812   6.928 -0.7171 -0.1880  0.3408
  712SOL     OW 3619   0.400   0.645   5.759  0.1853 -0.1305 -0.2655
  712SOL    HW1 3620   0.334   0.627   5.827 -0.2382  0.4456 -0.5185
  712SOL    HW2 3621   0.470   0.690   5.806  1.1342 -2.1531  0.3224
  713SOL     OW 3622   3.996   3.041   0.862  0.1949  0.2608 -0.1602
  713SOL    HW1 3623   4.061   2.978   0.892 -0.9151 -0.0208  1.6868
  713SOL    HW2 3624   4.048   3.112   0.822  1.5702 -0.3780  0.4688
  714SOL     OW 3625   8.133   2.463   1.051 -0.1608 -0.5300 -0.4939
  714SOL    HW1 3626   8.115   2.544   1.097  1.5660  1.2970 -2.9006
  714SOL    HW2 3627   8.228   2.450   1.061 -0.2314 -1.6406 -1.0867
  715SOL     OW 3628   7.698   6.852   7.509 -0.4405 -0.5822 -0.0635
  715SOL    HW1 3629   7.756   6.829   7.582 -0.8048  0.4450  0.5588
  715SOL    HW2 3630   7.610   6.839   7.544 -0.7190  3.4320  0.9226
  716SOL     OW 3631   5.962   2.278   7.806  0.6843 -0.8485 -0.3686
  716SOL    HW1 3632   6.015   2.287   7.885  1.5986  0.6030 -1.1095
  716SOL    HW2 3633   5.917   2.194   7.815  0.4551 -0.4921  1.8738
  717SOL     OW 3634   2.223   3.813   1.449 -0.3456 -0.3664 -0.1443
  717SOL    HW1 3635   2.242   3.732   1.495 -0.6678 -0.3509  0.0159
  717SOL    HW2 3636   2.301   3.867   1.463  0.3840 -1.1188 -1.3081
  718SOL     OW 3637   4.604   2.549   6.580 -0.1092 -0.3422 -0.9149
  718SOL    HW1 3638   4.659   2.476   6.552 -0.0408 -0.7968  0.3466
  718SOL    HW2 3639   4.635   2.624   6.529  1.1404 -0.7635 -0.7926
  719SOL     OW 3640   4.164   3.904   3.602  0.3528  0.0046  0.5267
  719SOL    HW1 3641   4.178   3.998   3.596 -1.0407  0.1187 -1.2851
  719SOL    HW2 3642   4.075   3.890   3.570  0.8555 -2.0229 -0.0817
  720SOL     OW 3643   6.765   7.175   5.380  0.3607  0.4799 -0.9021
  720SOL    HW1 3644   6.859   7.178   5.364  0.2900  0.5787 -1.3249
  720SOL    HW2 3645   6.750   7.234   5.453  1.0386 -1.9006  1.2124
  721SOL     OW 3646   2.608   1.489   0.359 -0.4877 -0.2319 -0.1283
  721SOL    HW1 3647   2.654   1.406   0.351  0.6764  0.4178 -0.2840
  721SOL    HW2 3648   2.551   1.478   0.435 -2.1261 -1.9934 -1.5583
  722SOL     OW 3649   0.107   2.850   5.356 -0.6116  0.6052  0.1033
  722SOL    HW1 3650   0.154   2.767   5.359  0.0568  1.0213  1.5453
  722SOL    HW2 3651   0.161   2.907   5.302 -1.4054 -0.0801 -1.4531
  723SOL     OW 3652   1.293   2.295   2.917 -0.0788  0.5123 -0.2240
  723SOL    HW1 3653   1.345   2.224   2.955  0.4151  0.8273 -0.3062
  723SOL    HW2 3654   1.233   2.252   2.857 -0.5652  0.0517  0.5800
  724SOL     OW 3655   7.531   6.484   1.020 -0.4511 -0.4532  0.2123
  724SOL    HW1 3656   7.438   6.465   1.013 -0.3642 -0.5850 -0.6636
  724SOL    HW2 3657   7.560   6.435   1.097 -1.2368  0.1286  0.8875
  725SOL     OW 3658   5.648   5.610   1.179  0.6132  0.2910 -0.0562
  725SOL    HW1 3659   5.606   5.617   1.265  1.6784 -0.7087  0.5487
  725SOL    HW2 3660   5.605   5.678   1.127  0.3752  1.3250  1.4353
  726SOL     OW 3661   2.979   4.346   2.674  0.0167 -0.1088 -1.0840
  726SOL    HW1 3662   2.886   4.369   2.679 -0.1538 -0.4334 -2.4895
  726SOL    HW2 3663   3.007   4.378   2.588  0.9650 -0.8537 -1.0669
  727SOL     OW 3664   5.778   5.205   7.572 -0.1013  0.0376 -0.0569
  727SOL    HW1 3665   5.739   5.127   7.532  0.0522 -0.2533  0.3521
  727SOL    HW2 3666   5.872   5.185   7.574 -0.1960 -0.2861  1.1737
  728SOL     OW 3667   3.183   2.789   7.718  0.1094 -0.5072 -0.2761
  728SOL    HW1 3668   3.244   2.806   7.646 -0.8589 -0.6480 -1.1339
  728SOL    HW2 3669   3.143   2.705   7.696 -2.2647  0.7820 -1.0324
  729SOL     OW 3670   2.629   2.501   4.511 -0.4695  0.2924 -0.1886
  729SOL    HW1 3671   2.585   2.502   4.596 -0.4015  0.7258 -0.1536
  729SOL    HW2 3672   2.561   2.525   4.448 -0.2076  1.3077 -0.0934
  730SOL     OW 3673   5.988   3.329   3.998 -0.2581 -0.0126 -0.7850
  730SOL    HW1 3674   6.074   3.345   3.959 -0.9669  0.5154 -2.1786
  730SOL    HW2 3675   5.941   3.279   3.931 -1.2659  0.2955 -0.3085
  731SOL     OW 3676   1.537   2.801   7.971 -0.4685  0.2490 -0.3140
  731SOL    HW1 3677   1.594   2.765   7.903  0.2371 -0.4789  0.6631
  731SOL    HW2 3678   1.513   2.726   8.025  0.6174  1.1338  1.4471
  732SOL     OW 3679   4.764   1.215   7.198 -0.0246 -0.0332 -0.1937
  732SOL    HW1 3680   4.687   1.219   7.254  0.7558  1.5748  0.7894
  732SOL    HW2 3681   4.757   1.291   7.141  0.1750 -0.6025 -0.9833
  733SOL     OW 3682   3.476   5.231   3.200  0.2172  0.0559  0.2510
  733SOL    HW1 3683   3.462   5.210   3.108 -0.8400  2.6304 -0.2249
  733SOL    HW2 3684   3.566   5.266   3.204 -0.4243  1.8425 -0.2133
  734SOL     OW 3685   4.574   7.634   1.276 -0.4068  0.2370  0.5843
  734SOL    HW1 3686   4.648   7.690   1.251  0.2339 -0.7311  0.2671
  734SOL    HW2 3687   4.505   7.695   1.300 -0.3451  1.1961 -1.5264
  735SOL     OW 3688   3.117   1.707   2.129  0.1789 -0.7642 -0.2874
  735SOL    HW1 3689   3.175   1.698   2.053  1.6135 -0.6926  0.7797
  735SOL    HW2 3690   3.116   1.619   2.168  1.4783 -0.2161  1.0391
  736SOL     OW 3691   0.447   0.516   3.566  0.2769 -0.4522  0.3681
  736SOL    HW1 3692   0.403   0.463   3.499 -0.1632  1.6313 -1.0456
  736SOL    HW2 3693   0.525   0.549   3.522 -0.2286  1.2828  0.7225
  737SOL     OW 3694   6.113   5.572   0.038 -0.1481 -0.3161  0.2773
  737SOL    HW1 3695   6.201   5.594   0.008  0.0984 -0.9016  0.5666
  737SOL    HW2 3696   6.119   5.576   0.134 -0.3486 -0.7026  0.3050
  738SOL     OW 3697   4.744   3.513   4.166  0.7063  0.5920 -0.5650
  738SOL    HW1 3698   4.687   3.477   4.235  0.3957  2.3803  0.1311
  738SOL    HW2 3699   4.806   3.568   4.212  3.1074 -1.3869 -1.3262
  739SOL     OW 3700   6.123   1.463   3.470  0.1753 -0.6818 -0.0562
  739SOL    HW1 3701   6.215   1.485   3.456  0.3549 -1.7726 -0.6451
  739SOL    HW2 3702   6.075   1.529   3.421  0.6627 -0.6352 -0.4790
  740SOL     OW 3703   4.404   7.790   4.088  0.0389  0.9219 -0.1225
  740SOL    HW1 3704   4.481   7.840   4.114  1.8668 -1.2246 -1.1579
  740SOL    HW2 3705   4.433   7.699   4.092 -1.5034  0.2122 -3.4992
  741SOL     OW 3706   6.541   1.461   5.717 -0.2890 -0.0169  0.7786
  741SOL    HW1 3707   6.590   1.541   5.733 -0.8658  0.4592  0.1982
  741SOL    HW2 3708   6.561   1.438   5.626 -1.4436  0.4035  0.4074
  742SOL     OW 3709   1.555   8.104   3.696 -0.0429 -0.1173 -0.6677
  742SOL    HW1 3710   1.603   8.027   3.726 -1.7515 -0.7185  0.6456
  742SOL    HW2 3711   1.470   8.069   3.669 -0.7000  1.2549 -0.4157
  743SOL     OW 3712   3.736   2.885   6.432  0.2634  0.4566  0.0724
  743SOL    HW1 3713   3.688   2.935   6.366  1.2208  0.6068 -0.5178
  743SOL    HW2 3714   3.784   2.952   6.482 -0.3166  0.3289  0.7995
  744SOL     OW 3715   7.986   1.828   1.408 -0.4281  0.0997  0.1418
  744SOL    HW1 3716   8.023   1.755   1.456  1.0900  1.7234  1.5051
  744SOL    HW2 3717   7.892   1.823   1.425 -0.3044 -1.3037  0.4868
  745SOL     OW 3718   1.984   5.401   4.409  0.2011  0.2832 -0.3948
  745SOL    HW1 3719   1.977   5.466   4.479  0.4724  0.3944 -0.4706
  745SOL    HW2 3720   2.078   5.385   4.400  0.0857 -0.7408  0.1902
  746SOL     OW 3721   3.526   0.403   4.527  0.2484 -0.1730  0.2258
  746SOL    HW1 3722   3.533   0.482   4.474  0.0997  0.2866  0.8859
  746SOL    HW2 3723   3.469   0.345   4.475 -0.6023  0.6018  0.2749
  747SOL     OW 3724   3.892   1.907   3.107  0.0414  0.3426  0.2701
  747SOL    HW1 3725   3.806   1.948   3.109 -0.3130 -0.3964  0.3463
  747SOL    HW2 3726   3.874   1.814   3.091  0.8507  0.2678 -0.2307
  748SOL     OW 3727   5.887   5.946   3.951 -0.3179  0.1898  0.1670
  748SOL    HW1 3728   5.851   5.861   3.975 -0.4605 -0.3987 -2.0197
  748SOL    HW2 3729   5.940   5.972   4.027 -0.8774 -1.4892  1.1579
  749SOL     OW 3730   7.579   5.614   0.523 -0.9871 -0.0518  0.0845
  749SOL    HW1 3731   7.527   5.534   0.516  0.4785 -1.1302  1.1678
  749SOL    HW2 3732   7.554   5.652   0.607 -1.6993  0.6475 -0.4407
  750SOL     OW 3733   2.819   2.129   3.852  0.1413 -0.0262  0.4417
  750SOL    HW1 3734   2.874   2.205   3.872  0.7282 -0.4205  0.3393
  750SOL    HW2 3735   2.851   2.099   3.767 -0.2689 -0.2296  0.3589
  751SOL     OW 3736   1.417   4.218   4.109 -0.2302  0.1204 -0.1438
  751SOL    HW1 3737   1.463   4.148   4.063 -1.2122 -1.0482  0.6337
  751SOL    HW2 3738   1.464   4.298   4.083  0.7877 -0.7852 -1.1771
  752SOL     OW 3739   7.441   3.304   7.484  0.4685  0.4678 -0.2271
  752SOL    HW1 3740   7.407   3.220   7.515  0.9689  0.4263  0.2169
  752SOL    HW2 3741   7.488   3.340   7.559  1.0884  0.6909 -0.7185
  753SOL     OW 3742   0.526   3.355   1.049 -0.2443 -0.4594  0.4873
  753SOL    HW1 3743   0.455   3.420   1.052 -0.3886 -0.5495 -1.0035
  753SOL    HW2 3744   0.532   3.329   0.957 -1.2792 -3.7860  1.2922
  754SOL     OW 3745   4.397   6.717   2.601  0.0959  0.4829 -0.1332
  754SOL    HW1 3746   4.320   6.771   2.614 -1.3590 -1.6001  0.1246
  754SOL    HW2 3747   4.430   6.699   2.689  0.4605  0.7627 -0.2095
  755SOL     OW 3748   6.295   6.940   0.788  0.5358  0.0672  0.0050
  755SOL    HW1 3749   6.307   6.847   0.810  0.9647  0.4036  1.2430
  755SOL    HW2 3750   6.378   6.981   0.811  0.8589  0.5364 -1.8938
  756SOL     OW 3751   6.975   1.215   1.786  0.5589  0.2792 -0.6812
  756SOL    HW1 3752   7.061   1.196   1.823 -0.3294 -0.1804  1.1954
  756SOL    HW2 3753   6.968   1.156   1.711  0.5457 -2.1073  1.1497
  757SOL     OW 3754   6.503   2.789   6.689  0.6008 -0.5338 -0.4299
  757SOL    HW1 3755   6.565   2.813   6.758 -0.1964  0.9443 -0.1937
  757SOL    HW2 3756   6.554   2.791   6.609  1.2887 -1.1944 -0.0104
  758SOL     OW 3757   3.181   0.754   6.722 -0.3691 -0.7453  0.5334
  758SOL    HW1 3758   3.199   0.843   6.750 -2.4664 -0.1355  0.0384
  758SOL    HW2 3759   3.174   0.704   6.803 -0.2011 -0.2444  0.8576
  759SOL     OW 3760   3.778   5.852   1.944 -0.4080 -0.3117 -0.0487
  759SOL    HW1 3761   3.815   5.765   1.929 -0.7869 -0.3152 -1.0097
  759SOL    HW2 3762   3.721   5.841   2.020  0.9269 -0.4825  0.9540
  760SOL     OW 3763   0.431   6.075   5.603  0.5358 -0.7081 -0.1510
  760SOL    HW1 3764   0.390   6.156   5.631 -0.1507 -0.7906 -0.9003
  760SOL    HW2 3765   0.474   6.041   5.682 -0.6350 -0.4959  0.5882
  761SOL     OW 3766   5.593   3.980   0.267 -0.8754  0.1793 -1.0691
  761SOL    HW1 3767   5.652   3.942   0.202  0.0346  3.4787 -2.2637
  761SOL    HW2 3768   5.643   3.978   0.349 -0.4135 -0.1393 -1.3565
  762SOL     OW 3769   7.509   5.648   2.273  0.1130 -0.5062 -0.2686
  762SOL    HW1 3770   7.531   5.664   2.181 -0.8028 -0.7994 -0.5387
  762SOL    HW2 3771   7.440   5.582   2.270 -0.0147 -0.4175  0.6301
  763SOL     OW 3772   7.872   4.261   7.412 -0.2281  0.1600 -0.1741
  763SOL    HW1 3773   7.829   4.323   7.353  0.1545  0.0918 -0.5242
  763SOL    HW2 3774   7.800   4.223   7.463 -0.5716  0.0997 -0.7074
  764SOL     OW 3775   0.685   3.120   1.107 -0.0700  0.0656 -0.1916
  764SOL    HW1 3776   0.622   3.191   1.116 -1.1105 -1.0210  1.4127
  764SOL    HW2 3777   0.714   3.102   1.196  1.2995 -0.5396 -0.7394
  765SOL     OW 3778   6.493   5.899   7.093  0.1986 -0.1162 -0.3279
  765SOL    HW1 3779   6.566   5.953   7.124  1.3738 -0.9166 -1.6336
  765SOL    HW2 3780   6.488   5.828   7.157  1.0028 -0.4254 -0.6009
  766SOL     OW 3781   5.135   6.161   3.856 -0.1976  0.0250 -0.1034
  766SOL    HW1 3782   5.072   6.127   3.792 -0.9311  0.7048  0.2594
  766SOL    HW2 3783   5.108   6.252   3.871  0.7345  0.2518  0.2178
  767SOL     OW 3784   3.833   5.635   6.232  0.2385 -0.2814 -0.2948
  767SOL    HW1 3785   3.793   5.665   6.313  2.0443  1.7902 -0.1295
  767SOL    HW2 3786   3.892   5.564   6.259 -0.2672 -0.5968 -0.0128
  768SOL     OW 3787   4.667   4.394   7.623  0.0981 -0.6289  0.2305
  768SOL    HW1 3788   4.583   4.410   7.581  0.6184  0.9327 -0.2424
  768SOL    HW2 3789   4.684   4.474   7.674  0.4056 -1.6884  1.8319
  769SOL     OW 3790   6.447   3.986   1.894 -0.9737  0.8225 -0.2758
  769SOL    HW1 3791   6.502   3.910   1.907 -1.3421  0.6307  0.1584
  769SOL    HW2 3792   6.482   4.028   1.815  2.0337  2.6877  1.9614
  770SOL     OW 3793   0.958   5.734   8.307  0.0540  0.2716 -0.3039
  770SOL    HW1 3794   0.863   5.743   8.299  0.1916  0.4931 -1.7800
  770SOL    HW2 3795   0.993   5.815   8.271  0.8256 -0.0738 -0.3433
  771SOL     OW 3796   0.279   1.689   3.645  0.3378  0.1868 -0.2773
  771SOL    HW1 3797   0.360   1.661   3.689  1.3981  1.1747 -1.5360
  771SOL    HW2 3798   0.309   1.753   3.580 -1.3273 -0.3741 -1.6166
  772SOL     OW 3799   7.384   6.132   7.528 -0.6127 -0.5542  0.8549
  772SOL    HW1 3800   7.363   6.039   7.520  1.1279 -0.9566  0.6763
  772SOL    HW2 3801   7.361   6.155   7.618 -1.0545 -1.1541  0.8976
  773SOL     OW 3802   3.986   1.654   7.937  0.4937  0.1614 -0.0205
  773SOL    HW1 3803   3.952   1.691   7.856 -1.7524  1.8919  1.6624
  773SOL    HW2 3804   3.909   1.624   7.985  1.7485 -0.4091  1.7054
  774SOL     OW 3805   1.675   6.429   1.820  0.0492  0.2385 -0.7724
  774SOL    HW1 3806   1.653   6.502   1.762 -0.2685  2.0572  1.5407
  774SOL    HW2 3807   1.761   6.451   1.855 -0.9067  0.5916  1.4813
  775SOL     OW 3808   3.299   2.558   5.359 -0.3091  0.3674  0.5847
  775SOL    HW1 3809   3.391   2.533   5.359  0.1651  2.1064 -0.0395
  775SOL    HW2 3810   3.253   2.478   5.386  1.2318 -0.9979 -0.7047
  776SOL     OW 3811   7.389   3.326   5.655 -0.2384 -0.3076  0.3243
  776SOL    HW1 3812   7.460   3.385   5.630 -0.3088 -0.1139  0.5820
  776SOL    HW2 3813   7.345   3.371   5.727 -2.5807  1.0846 -1.8862
  777SOL     OW 3814   3.063   4.481   0.593 -0.1203 -0.3490  0.2587
  777SOL    HW1 3815   3.136   4.531   0.556  0.9895 -0.9580  1.5811
  777SOL    HW2 3816   2.989   4.541   0.591  0.0542 -0.1804 -2.3851
  778SOL     OW 3817   0.328   7.113   1.659 -0.3675 -0.1831 -0.2762
  778SOL    HW1 3818   0.405   7.068   1.625  0.0946  0.0664  0.4370
  778SOL    HW2 3819   0.273   7.042   1.695 -1.1025 -0.5013 -1.9938
  779SOL     OW 3820   3.371   0.360   3.956  0.5395  0.2411  0.2187
  779SOL    HW1 3821   3.357   0.270   3.985 -0.0014 -0.1134 -1.0875
  779SOL    HW2 3822   3.459   0.359   3.918  1.1551  0.6486  1.6121
  780SOL     OW 3823   0.273   1.895   6.614 -0.3645  0.4373  0.1234
  780SOL    HW1 3824   0.355   1.944   6.622  0.5927 -0.6307 -2.7111
  780SOL    HW2 3825   0.221   1.945   6.551 -1.4308  0.4465  0.9907
  781SOL     OW 3826   2.512   2.170   6.192 -0.1587  0.4502 -0.1839
  781SOL    HW1 3827   2.551   2.252   6.219 -0.7464  0.1650  1.6063
  781SOL    HW2 3828   2.501   2.178   6.097  2.4334  1.2737 -0.4420
  782SOL     OW 3829   7.970   5.389   7.189 -0.4515 -0.1636  0.1533
  782SOL    HW1 3830   7.897   5.427   7.140  0.4053  0.0984 -0.9314
  782SOL    HW2 3831   8.029   5.353   7.123  0.6048 -0.0199  0.9865
  783SOL     OW 3832   8.053   2.691   2.101  0.4988 -0.4058 -0.0639
  783SOL    HW1 3833   8.148   2.694   2.110  0.5088 -0.1231 -0.2495
  783SOL    HW2 3834   8.020   2.683   2.190  0.5517  3.1375  0.3177
  784SOL     OW 3835   2.865   1.860   7.908  0.0231  0.3577  0.2703
  784SOL    HW1 3836   2.788   1.839   7.960 -0.1052 -0.1172 -0.1079
  784SOL    HW2 3837   2.834   1.923   7.843  0.2312  1.1166  0.9017
  785SOL     OW 3838   1.366   0.448   0.842  0.5549  0.7761 -0.0924
  785SOL    HW1 3839   1.304   0.476   0.908 -0.0616  2.3150 -1.2934
  785SOL    HW2 3840   1.325   0.371   0.802  0.3806  0.5619  0.4896
  786SOL     OW 3841   0.653   2.525   5.900  0.5723 -0.3102 -0.4876
  786SOL    HW1 3842   0.613   2.611   5.915  0.4472 -0.4703  0.1019
  786SOL    HW2 3843   0.680   2.496   5.987  0.5010 -0.9229 -0.6707
  787SOL     OW 3844   1.296   4.206   3.611  0.5205  0.3838  0.1682
  787SOL    HW1 3845   1.222   4.182   3.667  2.0442 -1.5402  1.4441
  787SOL    HW2 3846   1.308   4.130   3.553 -0.1926  1.8055 -1.8779
  788SOL     OW 3847   1.881   7.523   4.774  0.1210  0.2346  0.1104
  788SOL    HW1 3848   1.857   7.609   4.810 -1.8029 -0.5548  0.7957
  788SOL    HW2 3849   1.804   7.468   4.791  0.1217 -0.8362 -3.0060
  789SOL     OW 3850   3.067   0.422   6.782  0.2064  0.3870 -0.2865
  789SOL    HW1 3851   3.053   0.349   6.842  0.4826  0.0162 -0.6626
  789SOL    HW2 3852   3.160   0.445   6.794  0.2957  0.2297 -0.6533
  790SOL     OW 3853   5.435   0.151   1.225 -0.1350  0.6987 -0.3025
  790SOL    HW1 3854   5.377   0.220   1.258 -0.6059  0.6133 -0.9394
  790SOL    HW2 3855   5.481   0.119   1.302 -1.1537  0.5679  0.2650
  791SOL     OW 3856   0.322   1.240   5.386  0.0555 -1.1636 -0.0240
  791SOL    HW1 3857   0.284   1.319   5.347 -1.4522 -1.2590  1.1846
  791SOL    HW2 3858   0.415   1.246   5.367 -0.3235 -0.0292 -1.5538
  792SOL     OW 3859   5.949   4.191   1.806 -0.2558 -0.6324  0.0320
  792SOL    HW1 3860   6.031   4.190   1.854 -1.1972  1.3152  1.7969
  792SOL    HW2 3861   5.958   4.265   1.746 -0.6392 -0.5299  0.1001
  793SOL     OW 3862   7.908   6.189   2.984 -0.3549  0.2111  0.0889
  793SOL    HW1 3863   7.890   6.197   2.891  0.6621 -1.6322 -0.2838
  793SOL    HW2 3864   7.830   6.226   3.027 -1.5583 -0.4297 -1.4824
  794SOL     OW 3865   7.684   1.972   5.007  0.0388  0.2721  0.2511
  794SOL    HW1 3866   7.769   2.003   5.037 -0.2787 -1.3838  3.0045
  794SOL    HW2 3867   7.620   2.032   5.047 -0.2698 -0.6865  1.2222
  795SOL     OW 3868   3.580   3.088   6.032  0.3801 -0.2078 -0.2038
  795SOL    HW1 3869   3.653   3.136   5.993 -0.0508  0.5085 -0.1318
  795SOL    HW2 3870   3.502   3.135   6.003 -0.0793 -1.2252 -0.6401
  796SOL     OW 3871   4.106   3.536   6.490 -0.1812 -0.5871  0.0746
  796SOL    HW1 3872   4.110   3.548   6.395  1.5821 -1.9503 -0.0628
  796SOL    HW2 3873   4.017   3.507   6.507 -0.9690  1.1523 -0.9571
  797SOL     OW 3874   0.264   2.681   4.827 -0.5677  0.0436  0.1768
  797SOL    HW1 3875   0.234   2.597   4.792  0.4769 -0.2266 -0.0971
  797SOL    HW2 3876   0.359   2.674   4.825 -0.4780  1.3556 -0.1267
  798SOL     OW 3877   3.850   3.231   3.695 -0.1160 -0.5439  0.3893
  798SOL    HW1 3878   3.888   3.181   3.623 -0.7461 -0.5274  0.0494
  798SOL    HW2 3879   3.864   3.323   3.670  0.7223 -0.5344  0.8479
  799SOL     OW 3880   4.906   0.913   4.575  0.3018  0.1590 -0.6127
  799SOL    HW1 3881   4.880   1.000   4.544  0.4904 -0.2451 -1.9467
  799SOL    HW2 3882   4.973   0.885   4.513 -0.9606 -1.6361 -1.1878
  800SOL     OW 3883   0.617   0.689   7.511  0.2558 -0.2272  0.5639
  800SOL    HW1 3884   0.599   0.719   7.600  1.9988  1.6435  0.3130
  800SOL    HW2 3885   0.707   0.658   7.514  0.5115  0.3858 -0.7023
  801SOL     OW 3886   1.889   5.169   7.171  0.3040  0.2155  0.4980
  801SOL    HW1 3887   1.831   5.110   7.218  0.8738 -0.0571  0.8739
  801SOL    HW2 3888   1.916   5.120   7.094  0.6178  0.0556  0.7067
  802SOL     OW 3889   0.094   5.739   7.459 -0.6857  0.3269 -0.0368
  802SOL    HW1 3890   0.168   5.728   7.518 -2.2066 -0.6220  1.7214
  802SOL    HW2 3891   0.134   5.744   7.372  1.4673  0.3692  0.9184
  803SOL     OW 3892   0.905   1.235   4.160 -0.6507  0.1036 -0.5029
  803SOL    HW1 3893   0.891   1.273   4.073 -2.3577  1.6478  0.4142
  803SOL    HW2 3894   0.820   1.242   4.203  0.2167 -0.5082  1.3568
  804SOL     OW 3895   6.637   4.367   3.090  0.0433  0.4578  0.1561
  804SOL    HW1 3896   6.691   4.405   3.020 -0.0417  0.3219  0.0160
  804SOL    HW2 3897   6.627   4.438   3.154  1.7309 -0.0145  0.9543
  805SOL     OW 3898   5.140   6.870   3.846 -0.6737  0.6448 -0.6934
  805SOL    HW1 3899   5.099   6.954   3.826 -1.0572  0.5798 -0.1761
  805SOL    HW2 3900   5.088   6.807   3.796 -1.0787  0.5848 -0.1915
  806SOL     OW 3901   5.455   5.887   1.754 -0.2497  0.0741 -0.0210
  806SOL    HW1 3902   5.481   5.799   1.728  0.4716 -0.6411  2.9494
  806SOL    HW2 3903   5.372   5.901   1.709 -0.5183 -2.2167 -0.3141
  807SOL     OW 3904   5.793   4.691   7.413 -0.1155  0.0094  0.0722
  807SOL    HW1 3905   5.881   4.685   7.450 -0.7384  0.6737  1.7334
  807SOL    HW2 3906   5.803   4.752   7.340  0.1272  3.2220  2.6429
  808SOL     OW 3907   1.425   5.706   1.301 -0.1044 -0.2248  0.0634
  808SOL    HW1 3908   1.400   5.643   1.234 -0.8745  0.8690 -0.6882
  808SOL    HW2 3909   1.469   5.777   1.253 -1.1261  0.8128  0.6110
  809SOL     OW 3910   1.120   4.348   4.495  0.3808  0.6105 -0.5966
  809SOL    HW1 3911   1.153   4.300   4.419 -1.0515 -1.2476 -0.0835
  809SOL    HW2 3912   1.102   4.280   4.560 -0.8735  1.9419  0.4676
  810SOL     OW 3913   7.982   6.812   6.714  0.4040 -0.3117 -0.3701
  810SOL    HW1 3914   8.012   6.739   6.660 -1.0875 -1.3521  0.1859
  810SOL    HW2 3915   8.051   6.824   6.779  2.2161  0.9352 -2.4426
  811SOL     OW 3916   6.256   0.634   2.462  0.5242 -0.2824  0.2874
  811SOL    HW1 3917   6.289   0.606   2.547  0.9180 -0.7137 -0.0041
  811SOL    HW2 3918   6.208   0.715   2.480  0.7198 -0.2991  0.8937
  812SOL     OW 3919   8.210   3.140   5.348  0.5550  0.3872  0.4828
  812SOL    HW1 3920   8.123   3.102   5.363 -0.0561  1.7481  0.4266
  812SOL    HW2 3921   8.194   3.215   5.291  2.0849 -0.9007 -1.7259
  813SOL     OW 3922   6.678   7.310   8.060 -0.5740  0.0483 -0.7994
  813SOL    HW1 3923   6.719   7.223   8.058 -0.7143 -0.0496  0.2173
  813SOL    HW2 3924   6.674   7.332   8.153 -2.3482  0.2998 -0.9219
  814SOL     OW 3925   3.620   7.578   1.983 -0.1039 -0.1311  0.3768
  814SOL    HW1 3926   3.625   7.484   1.966  1.1490 -0.0361  0.2042
  814SOL    HW2 3927   3.709   7.603   2.007 -0.1421  1.2677 -0.9248
  815SOL     OW 3928   5.004   4.292   6.513 -0.0351 -0.1415  0.0346
  815SOL    HW1 3929   5.007   4.388   6.509  0.0776 -0.0613  1.4911
  815SOL    HW2 3930   4.927   4.273   6.567  0.6583 -0.8118  0.8077
  816SOL     OW 3931   8.080   6.755   0.325  0.0806 -0.1398  0.0329
  816SOL    HW1 3932   8.029   6.810   0.385 -0.6548  0.4447 -1.1246
  816SOL    HW2 3933   8.062   6.666   0.354 -1.0934  0.0866  0.0446
  817SOL     OW 3934   2.908   3.285   3.653 -0.3564 -0.1987  0.2305
  817SOL    HW1 3935   2.860   3.284   3.571 -1.1962 -2.3036  0.7152
  817SOL    HW2 3936   2.994   3.249   3.632 -0.4874 -0.5029  0.2111
  818SOL     OW 3937   1.759   4.516   7.531  0.2549 -0.4588  0.1418
  818SOL    HW1 3938   1.700   4.444   7.553  2.0834 -2.4065 -1.0753
  818SOL    HW2 3939   1.844   4.487   7.564  0.8523  1.6025  0.4762
  819SOL     OW 3940   5.844   4.176   1.297  0.5292 -0.3457  0.6401
  819SOL    HW1 3941   5.773   4.158   1.235  0.7350 -0.0958  0.3295
  819SOL    HW2 3942   5.849   4.097   1.351  1.6259 -1.3509 -0.8910
  820SOL     OW 3943   6.322   5.979   2.184  1.0336 -0.2334  0.5974
  820SOL    HW1 3944   6.256   6.020   2.240 -0.0999 -1.1841 -0.0215
  820SOL    HW2 3945   6.274   5.910   2.138  2.3597 -0.6139 -0.2178
  821SOL     OW 3946   0.306   0.352   5.396 -0.1796 -0.2759 -0.1423
  821SOL    HW1 3947   0.367   0.366   5.469 -1.2810 -0.9234  0.9254
  821SOL    HW2 3948   0.334   0.415   5.329 -0.3728  1.7355  1.6215
  822SOL     OW 3949   8.179   7.182   8.269 -0.0316 -0.5381  0.5087
  822SOL    HW1 3950   8.085   7.178   8.288 -0.4183  2.6364 -0.4713
  822SOL    HW2 3951   8.187   7.140   8.183 -0.8084  0.4542 -0.0693
  823SOL     OW 3952   2.459   6.520   5.519  0.4814  0.3788  0.4691
  823SOL    HW1 3953   2.455   6.598   5.575 -0.2333 -0.2305  1.2853
  823SOL    HW2 3954   2.396   6.537   5.449  2.0444  1.5369 -0.6783
  824SOL     OW 3955   8.190   2.977   2.306 -0.0615 -0.9214  0.8337
  824SOL    HW1 3956   8.189   2.899   2.249  1.1775 -0.7466  0.5551
  824SOL    HW2 3957   8.131   2.955   2.378 -0.0801 -1.9357  0.5144
  825SOL     OW 3958   1.001   2.542   5.914 -0.8128  0.2312 -0.3753
  825SOL    HW1 3959   0.994   2.553   5.820  1.8188  1.7230 -0.4229
  825SOL    HW2 3960   0.941   2.607   5.951  2.2449  3.4901 -0.9632
  826SOL     OW 3961   6.956   3.779   4.197  0.0583  0.1115 -0.1578
  826SOL    HW1 3962   6.909   3.727   4.131 -0.8000  0.4064  0.2185
  826SOL    HW2 3963   7.047   3.773   4.170 -0.1676 -0.5920 -0.8186
  827SOL     OW 3964   6.133   0.372   5.738  0.2045  0.4369 -0.5938
  827SOL    HW1 3965   6.090   0.453   5.763 -0.6316 -0.9508  2.6269
  827SOL    HW2 3966   6.062   0.312   5.718  0.7585 -0.3302 -0.2728
  828SOL     OW 3967   0.286   2.268   7.346  0.6080  0.3827  0.1733
  828SOL    HW1 3968   0.293   2.356   7.385  0.6856  0.6444 -0.4332
  828SOL    HW2 3969   0.247   2.215   7.415  1.4955  0.6639  0.9013
  829SOL     OW 3970   7.479   1.682   5.540  0.1229  0.2749 -0.3634
  829SOL    HW1 3971   7.502   1.771   5.567 -0.9448  0.2796  0.5496
  829SOL    HW2 3972   7.559   1.649   5.498  0.5905  1.5875 -0.5486
  830SOL     OW 3973   0.563   5.975   5.001 -0.0119  0.3363 -0.5783
  830SOL    HW1 3974   0.558   5.890   4.958 -0.8395 -1.9911  3.9285
  830SOL    HW2 3975   0.474   5.992   5.031  0.8592  1.1254  1.6311
  831SOL     OW 3976   6.071   0.978   1.170 -0.4372 -0.2476 -0.5158
  831SOL    HW1 3977   6.131   0.972   1.096  1.0197  0.2738  0.6195
  831SOL    HW2 3978   6.123   0.954   1.246 -1.6084  0.4069  0.5209
  832SOL     OW 3979   2.681   3.177   5.012 -0.0757  0.4828  0.5566
  832SOL    HW1 3980   2.647   3.246   5.068  1.6291  1.7824  0.0164
  832SOL    HW2 3981   2.651   3.200   4.924 -0.0178  0.1977  0.4602
  833SOL     OW 3982   5.509   1.132   4.961  0.1261  0.3947  0.1303
  833SOL    HW1 3983   5.479   1.204   4.906 -0.1334 -0.2035 -0.5336
  833SOL    HW2 3984   5.581   1.093   4.911  0.5803  0.4990  0.7096
  834SOL     OW 3985   6.190   5.169   4.263  0.4969 -0.5336 -0.0008
  834SOL    HW1 3986   6.131   5.244   4.269  2.0065  0.5554  1.9902
  834SOL    HW2 3987   6.232   5.165   4.349  3.8907 -0.7444 -1.5591
  835SOL     OW 3988   3.967   2.095   0.627 -0.2254 -0.5048  0.1264
  835SOL    HW1 3989   4.042   2.036   0.632  0.3044  0.1026 -0.4586
  835SOL    HW2 3990   3.935   2.087   0.537 -0.5715 -0.4141  0.2399
  836SOL     OW 3991   6.870   0.622   2.802 -0.3711  0.6102  0.4021
  836SOL    HW1 3992   6.924   0.700   2.788 -0.0344  0.0464 -1.6370
  836SOL    HW2 3993   6.861   0.616   2.897  1.5680  1.8023  0.6951
  837SOL     OW 3994   8.119   3.129   8.146  0.2049 -0.0942 -0.1569
  837SOL    HW1 3995   8.089   3.220   8.145 -0.1482 -0.2092 -1.2261
  837SOL    HW2 3996   8.172   3.120   8.066  0.4685 -0.7469  0.0823
  838SOL     OW 3997   2.419   6.436   1.825 -0.0698  0.7768 -0.6687
  838SOL    HW1 3998   2.456   6.419   1.739  0.4578 -1.5423 -0.0243
  838SOL    HW2 3999   2.487   6.485   1.871  0.5235  0.1536 -0.8696
  839SOL     OW 4000   1.435   0.976   4.363 -0.0436  0.1073 -0.0024
  839SOL    HW1 4001   1.429   1.071   4.362 -0.1337  0.1127  0.6406
  839SOL    HW2 4002   1.463   0.952   4.275 -2.0552  0.5879 -0.7859
  840SOL     OW 4003   3.188   6.492   3.308  0.6358  0.3795  0.4667
  840SOL    HW1 4004   3.214   6.573   3.264  1.0708  0.9147  1.6700
  840SOL    HW2 4005   3.105   6.514   3.351  0.1990 -0.1404 -0.1145
  841SOL     OW 4006   5.460   4.203   6.078 -0.1339 -0.0815  0.0058
  841SOL    HW1 4007   5.549   4.185   6.109  1.4055  2.8205 -2.4671
  841SOL    HW2 4008   5.422   4.116   6.063  2.1718 -1.3794  1.3575
  842SOL     OW 4009   4.849   0.764   7.735 -0.3390  0.4542  0.6413
  842SOL    HW1 4010   4.939   0.750   7.706  0.2609  0.0186  2.6589
  842SOL    HW2 4011   4.817   0.835   7.679  1.5817  1.3164  0.5783
  843SOL     OW 4012   2.261   2.138   1.267 -0.5308  0.0810 -0.0424
  843SOL    HW1 4013   2.344   2.167   1.303  0.6843 -2.0724 -1.0019
  843SOL    HW2 4014   2.207   2.117   1.343  0.6486 -0.7296  0.5929
  844SOL     OW 4015   7.848   5.037   3.637  1.0800  0.0137 -0.6176
  844SOL    HW1 4016   7.890   5.049   3.551 -1.1112  0.0079 -1.7336
  844SOL    HW2 4017   7.831   4.943   3.642  2.3401 -0.1681  0.3936
  845SOL     OW 4018   1.496   1.741   3.624  0.1149  0.3954  0.1192
  845SOL    HW1 4019   1.568   1.701   3.574  0.5623  1.6554 -0.2648
  845SOL    HW2 4020   1.484   1.827   3.584  0.2005  1.2621  1.9399
  846SOL     OW 4021   3.877   7.950   2.152  0.2422  0.7944 -0.6154
  846SOL    HW1 4022   3.859   8.033   2.197  1.5226  0.9426 -0.3451
  846SOL    HW2 4023   3.862   7.883   2.219 -0.6323  0.8118 -0.7877
  847SOL     OW 4024   5.060   6.491   6.005 -0.2780  0.6270 -0.5941
  847SOL    HW1 4025   5.121   6.557   5.973 -0.1852  0.4279 -0.8263
  847SOL    HW2 4026   4.974   6.527   5.988 -0.2331  0.3835 -1.3529
  848SOL     OW 4027   4.520   1.426   4.719  0.1922  0.2159  0.2423
  848SOL    HW1 4028   4.525   1.391   4.630  0.7242 -2.7634  1.3865
  848SOL    HW2 4029   4.546   1.518   4.710 -2.5457  0.7946 -3.0789
  849SOL     OW 4030   5.100   0.740   1.085 -0.4836  0.1621  0.6952
  849SOL    HW1 4031   5.126   0.804   1.152 -1.8913  0.8614  0.5783
  849SOL    HW2 4032   5.139   0.773   1.004  1.7082 -0.9846  1.2361
  850SOL     OW 4033   4.666   1.150   2.164 -0.6751 -0.4680 -0.5981
  850SOL    HW1 4034   4.732   1.082   2.176  0.6955  0.7997 -0.7717
  850SOL    HW2 4035   4.610   1.117   2.094  0.3730 -1.1233 -1.1422
  851SOL     OW 4036   7.895   5.258   6.572 -0.2485 -0.0957  0.1279
  851SOL    HW1 4037   7.952   5.325   6.533 -1.1596  1.1865  0.9568
  851SOL    HW2 4038   7.814   5.305   6.592 -0.7040 -1.3387  1.2094
  852SOL     OW 4039   6.838   4.151   1.001 -0.1973 -0.2407  0.2470
  852SOL    HW1 4040   6.766   4.118   0.947 -2.1632  1.1752  1.9296
  852SOL    HW2 4041   6.825   4.111   1.087  0.1075  1.2198  0.9942
  853SOL     OW 4042   0.311   8.194   4.616 -0.0439  0.0504 -0.2272
  853SOL    HW1 4043   0.256   8.174   4.540 -1.5454 -0.4533  0.9727
  853SOL    HW2 4044   0.297   8.287   4.631 -1.9337 -0.4326  1.1201
  854SOL     OW 4045   5.126   7.264   4.493 -0.0129 -0.4438  0.4006
  854SOL    HW1 4046   5.089   7.262   4.405 -0.1862 -1.6006  0.4907
  854SOL    HW2 4047   5.121   7.174   4.524 -1.2516  0.1936  2.1530
  855SOL     OW 4048   1.983   4.035   5.020  0.1145  0.2346 -0.5468
  855SOL    HW1 4049   1.921   4.000   4.956 -0.2869  1.4321 -0.8153
  855SOL    HW2 4050   1.970   3.981   5.098 -1.6062  0.7740 -0.4353
  856SOL     OW 4051   6.476   2.160   5.577  0.0039  0.7719  0.1118
  856SOL    HW1 4052   6.525   2.136   5.498 -0.2955  0.5859 -0.0176
  856SOL    HW2 4053   6.462   2.255   5.569  1.3716  1.0358  0.7260
  857SOL     OW 4054   5.717   2.589   2.536 -0.5227 -0.3060 -0.8352
  857SOL    HW1 4055   5.703   2.495   2.533  0.0893 -0.5699  2.3385
  857SOL    HW2 4056   5.811   2.600   2.549 -0.2771  0.8508 -3.3032
  858SOL     OW 4057   4.707   7.649   1.885 -0.7686  0.9024  0.2058
  858SOL    HW1 4058   4.768   7.713   1.922  0.2218  0.0009  0.1540
  858SOL    HW2 4059   4.620   7.681   1.910 -0.3432  2.7938 -0.6589
  859SOL     OW 4060   4.622   5.357   2.967 -0.0890 -0.0873 -0.1797
  859SOL    HW1 4061   4.678   5.292   2.924 -0.1894  1.2870 -2.4380
  859SOL    HW2 4062   4.674   5.437   2.967 -0.7453  0.3510  0.8133
  860SOL     OW 4063   7.211   6.996   7.146  0.4738 -0.0050  0.4065
  860SOL    HW1 4064   7.225   6.953   7.062 -3.2664 -0.6451  0.0533
  860SOL    HW2 4065   7.276   7.067   7.147  0.2895  0.3296 -3.2363
  861SOL     OW 4066   3.163   3.956   6.428  0.1606 -0.2147 -0.0967
  861SOL    HW1 4067   3.082   3.914   6.457 -0.6750  1.1848 -0.3406
  861SOL    HW2 4068   3.208   3.889   6.377 -0.4936 -1.2439  0.6506
  862SOL     OW 4069   7.605   1.276   3.702  1.1456 -0.1561  0.4006
  862SOL    HW1 4070   7.683   1.324   3.729  0.9963  0.1235  0.3356
  862SOL    HW2 4071   7.546   1.344   3.670  0.3273 -0.2137  1.7538
  863SOL     OW 4072   0.423   3.044   6.976 -0.4791 -0.3959  0.5672
  863SOL    HW1 4073   0.442   3.107   6.906 -0.0489  0.2925  1.2906
  863SOL    HW2 4074   0.415   2.960   6.931  0.9689 -0.1669 -0.1710
  864SOL     OW 4075   5.231   7.590   5.978  0.0759 -0.5047 -0.0595
  864SOL    HW1 4076   5.249   7.496   5.972 -0.5711 -0.6105 -0.4950
  864SOL    HW2 4077   5.316   7.632   5.967  0.4270 -1.0551  0.5355
  865SOL     OW 4078   3.599   4.365   7.784  0.4282  1.0479 -0.2953
  865SOL    HW1 4079   3.614   4.318   7.867  2.0374 -0.8897 -1.6357
  865SOL    HW2 4080   3.543   4.438   7.808 -1.3407 -0.9930  2.0694
  866SOL     OW 4081   6.572   0.637   0.510  0.3399 -0.1111  0.1147
  866SOL    HW1 4082   6.528   0.644   0.425  0.9560 -0.3706 -0.2280
  866SOL    HW2 4083   6.606   0.548   0.512  1.2615  0.2422  0.1763
  867SOL     OW 4084   2.901   3.831   6.436  0.1064 -0.5266 -0.4284
  867SOL    HW1 4085   2.913   3.737   6.432  0.0773 -0.4891 -1.5984
  867SOL    HW2 4086   2.831   3.849   6.373 -1.1152  0.0739  1.0761
  868SOL     OW 4087   1.806   1.781   1.284 -0.0082 -0.1650 -0.3284
  868SOL    HW1 4088   1.849   1.863   1.261  0.0695 -0.2292 -0.4142
  868SOL    HW2 4089   1.713   1.801   1.285  0.0154 -0.0618 -0.2931
  869SOL     OW 4090   4.782   5.787   2.796  0.0469 -0.4791  0.0932
  869SOL    HW1 4091   4.698   5.739   2.796  0.2835 -0.8998  0.7343
  869SOL    HW2 4092   4.792   5.817   2.706 -1.0767  0.0686  0.1398
  870SOL     OW 4093   7.829   4.697   6.319  0.0974  0.3155  0.3860
  870SOL    HW1 4094   7.772   4.675   6.245  0.8349 -2.0002  0.4652
  870SOL    HW2 4095   7.795   4.645   6.391  1.6888 -0.3005  0.6912
  871SOL     OW 4096   8.239   5.900   0.103  0.4663  0.1496  0.0591
  871SOL    HW1 4097   8.169   5.837   0.121  0.1831  0.8405  1.3971
  871SOL    HW2 4098   8.195   5.976   0.066  0.4326  0.8124  1.4403
  872SOL     OW 4099   8.126   8.010   2.294 -0.3445 -0.5409 -0.0802
  872SOL    HW1 4100   8.202   8.028   2.349 -0.5115  2.9805 -0.8693
  872SOL    HW2 4101   8.063   7.968   2.352  0.5478  0.5575  1.7098
  873SOL     OW 4102   1.752   4.994   1.632  0.3843 -0.0049 -0.1494
  873SOL    HW1 4103   1.758   5.074   1.684 -2.8925  0.3917 -0.2458
  873SOL    HW2 4104   1.784   4.925   1.691 -0.8753  0.7884  1.5103
  874SOL     OW 4105   6.531   4.447   6.644 -0.1009 -0.0468 -0.5572
  874SOL    HW1 4106   6.578   4.460   6.562 -0.0578 -0.1021 -0.5413
  874SOL    HW2 4107   6.587   4.488   6.710  0.7101 -1.4980 -0.3140
  875SOL     OW 4108   3.497   4.715   2.311 -0.3645 -0.1801 -0.0690
  875SOL    HW1 4109   3.410   4.712   2.271 -0.1376 -0.2674 -0.5518
  875SOL    HW2 4110   3.502   4.803   2.349 -1.1797 -0.6257  1.1323
  876SOL     OW 4111   5.643   5.257   6.473  0.0489  0.3286  0.2055
  876SOL    HW1 4112   5.639   5.168   6.508 -1.6777  0.7517  1.1469
  876SOL    HW2 4113   5.553   5.289   6.478  0.2708  1.3713 -2.1633
  877SOL     OW 4114   2.767   2.531   1.195 -0.2667 -0.3199  0.2136
  877SOL    HW1 4115   2.836   2.565   1.251  0.0448  3.4917 -2.3093
  877SOL    HW2 4116   2.686   2.548   1.242  0.1925 -0.1860  0.9574
  878SOL     OW 4117   8.203   4.751   4.225 -0.0525 -0.4100 -0.1906
  878SOL    HW1 4118   8.182   4.680   4.164  1.2111 -0.5303 -0.5116
  878SOL    HW2 4119   8.222   4.826   4.168  1.8792 -0.7244 -0.0175
  879SOL     OW 4120   5.359   3.746   0.421  0.3597  0.4868  0.5589
  879SOL    HW1 4121   5.280   3.693   0.433  0.9403 -0.4806  0.1262
  879SOL    HW2 4122   5.385   3.731   0.330  1.6743 -0.0919  1.0196
  880SOL     OW 4123   7.124   5.486   3.293 -0.3033  0.2556  0.8373
  880SOL    HW1 4124   7.117   5.398   3.328  1.8732 -0.7012 -1.0102
  880SOL    HW2 4125   7.141   5.474   3.199 -1.3489  2.6537  0.2866
  881SOL     OW 4126   2.118   2.143   0.316  0.2028 -0.1429 -0.3652
  881SOL    HW1 4127   2.129   2.054   0.282  0.9939  0.0261 -0.5720
  881SOL    HW2 4128   2.028   2.166   0.293  0.8522  0.1291 -2.8044
  882SOL     OW 4129   6.271   1.530   5.478 -0.3846 -0.2693  0.3347
  882SOL    HW1 4130   6.356   1.522   5.435 -0.9677 -0.7684 -0.7587
  882SOL    HW2 4131   6.211   1.482   5.420 -1.1831 -0.9627  1.7185
  883SOL     OW 4132   5.519   1.416   6.757 -0.3599  0.1716 -0.1221
  883SOL    HW1 4133   5.530   1.420   6.662  0.7834 -1.8526 -0.0857
  883SOL    HW2 4134   5.608   1.413   6.792 -0.7299  2.3405  1.1082
  884SOL     OW 4135   7.603   8.041   7.681 -0.2482 -0.0836 -0.2910
  884SOL    HW1 4136   7.584   7.948   7.693  0.0233  0.0670  1.4304
  884SOL    HW2 4137   7.657   8.044   7.602  0.0699 -1.4378 -0.1369
  885SOL     OW 4138   6.174   5.213   2.959  0.1304 -0.1428 -0.1709
  885SOL    HW1 4139   6.166   5.266   2.879 -0.4601 -0.4203 -0.2951
  885SOL    HW2 4140   6.086   5.179   2.975  0.6358 -1.6623 -0.4842
  886SOL     OW 4141   2.247   5.700   7.828 -0.4283  0.4435  0.4125
  886SOL    HW1 4142   2.333   5.739   7.812 -0.8676  0.8071 -1.1192
  886SOL    HW2 4143   2.218   5.669   7.743 -0.5929 -2.2821  1.4139
  887SOL     OW 4144   1.756   1.005   0.992 -0.6009  0.2667 -0.3133
  887SOL    HW1 4145   1.830   0.945   0.991 -1.3277 -0.6355 -1.4363
  887SOL    HW2 4146   1.716   0.996   0.905 -1.8062  1.0082  0.1423
  888SOL     OW 4147   6.147   5.956   6.755  0.1169 -0.5951  0.1893
  888SOL    HW1 4148   6.189   5.874   6.782 -0.3590 -0.1651  2.3354
  888SOL    HW2 4149   6.063   5.956   6.802 -1.0935 -0.1329 -1.8859
  889SOL     OW 4150   2.123   5.347   7.189 -0.3520  0.1994 -0.6400
  889SOL    HW1 4151   2.167   5.328   7.273  1.1291 -0.4117 -1.5328
  889SOL    HW2 4152   2.054   5.281   7.183  0.4243 -0.6400 -0.5291
  890SOL     OW 4153   6.925   3.389   5.435  0.1960 -0.3944 -0.5439
  890SOL    HW1 4154   6.903   3.300   5.408 -0.5250 -0.4284  0.1219
  890SOL    HW2 4155   6.871   3.445   5.379  0.4949 -0.3879 -0.8221
  891SOL     OW 4156   7.299   8.062   7.406  0.3278 -0.7333  0.0705
  891SOL    HW1 4157   7.315   7.990   7.467 -0.3855 -0.4728  0.5797
  891SOL    HW2 4158   7.370   8.123   7.422 -0.7175  0.0809  1.7976
  892SOL     OW 4159   3.897   3.262   4.707  0.1690 -0.3440  0.0844
  892SOL    HW1 4160   3.910   3.286   4.799 -1.7425 -0.2444  0.3485
  892SOL    HW2 4161   3.966   3.309   4.660  0.4324  0.5417  1.3299
  893SOL     OW 4162   4.085   3.079   8.048 -0.0788  0.0682  0.0919
  893SOL    HW1 4163   4.106   2.989   8.022 -0.0066  0.0918  0.0703
  893SOL    HW2 4164   4.055   3.121   7.967  0.4003  0.2169 -0.0057
  894SOL     OW 4165   2.538   0.347   6.087  0.0787  0.1307 -0.5760
  894SOL    HW1 4166   2.474   0.277   6.099 -1.8204  2.0606  0.9686
  894SOL    HW2 4167   2.578   0.357   6.173 -0.0454  1.2836 -0.6436
  895SOL     OW 4168   4.145   7.594   2.297 -0.0533  0.1254 -0.5075
  895SOL    HW1 4169   4.231   7.617   2.334  0.4775 -0.2223 -1.5159
  895SOL    HW2 4170   4.165   7.549   2.215 -1.1948 -0.4047 -0.5038
  896SOL     OW 4171   2.309   0.623   5.694  0.4747  0.0494  0.1011
  896SOL    HW1 4172   2.214   0.630   5.707 -0.2968 -1.8562 -3.8104
  896SOL    HW2 4173   2.335   0.709   5.662  0.4376  1.1093  2.7517
  897SOL     OW 4174   8.039   4.271   5.788  0.3637 -0.2609  0.0154
  897SOL    HW1 4175   7.967   4.218   5.821 -0.1102 -0.0267 -0.6085
  897SOL    HW2 4176   7.996   4.338   5.734  1.0319  0.0181 -0.1811
  898SOL     OW 4177   3.850   0.470   6.239  0.3511 -0.7088  0.5105
  898SOL    HW1 4178   3.918   0.536   6.225  0.1357 -0.6403 -0.1990
  898SOL    HW2 4179   3.880   0.393   6.191 -1.6145  0.3365 -2.4932
  899SOL     OW 4180   5.383   0.065   3.546  0.1421  0.4238 -0.2175
  899SOL    HW1 4181   5.323   0.086   3.475  0.9401  0.7069 -0.8182
  899SOL    HW2 4182   5.460   0.028   3.502  1.3083  2.0927  0.3647
  900SOL     OW 4183   0.020   7.945   3.607 -0.9827 -0.0129  0.0194
  900SOL    HW1 4184   0.034   8.012   3.673  0.8298 -0.2196 -0.1150
  900SOL    HW2 4185  -0.006   7.867   3.656  0.2378 -0.1343  0.4981
  901SOL     OW 4186   2.209   0.142   3.827  0.0897  0.4563  0.2641
  901SOL    HW1 4187   2.197   0.085   3.752  0.6103 -0.5288  0.9146
  901SOL    HW2 4188   2.204   0.083   3.903  1.5219  1.1336  0.9054
  902SOL     OW 4189   1.606   7.639   0.586  0.5254 -0.3719 -0.6144
  902SOL    HW1 4190   1.693   7.634   0.625  0.0908 -1.3418  0.2630
  902SOL    HW2 4191   1.562   7.708   0.635  0.9072  0.3562 -1.2882
  903SOL     OW 4192   1.423   6.304   5.202 -0.4422 -0.6633  0.1754
  903SOL    HW1 4193   1.453   6.229   5.151 -0.0943 -0.9143  0.7375
  903SOL    HW2 4194   1.441   6.379   5.147  1.6394 -0.7697  0.6528
  904SOL     OW 4195   6.874   8.083   8.269  0.3036 -0.4368 -0.3286
  904SOL    HW1 4196   6.892   7.992   8.249  0.4996 -0.4041 -0.2952
  904SOL    HW2 4197   6.870   8.126   8.184  1.4115 -0.2442 -0.2874
  905SOL     OW 4198   5.873   4.792   1.224 -0.1842 -0.1365 -0.2596
  905SOL    HW1 4199   5.862   4.789   1.319  0.1653 -0.7058 -0.2322
  905SOL    HW2 4200   5.866   4.700   1.196  0.8928 -0.1100 -0.6468
  906SOL     OW 4201   5.201   0.303   5.857 -0.1493  0.2345 -0.0192
  906SOL    HW1 4202   5.157   0.338   5.934 -0.0741  0.6249 -0.1526
  906SOL    HW2 4203   5.294   0.314   5.875 -0.1197 -0.0379  0.0027
  907SOL     OW 4204   3.207   5.775   0.681 -0.4220  1.1443  0.0228
  907SOL    HW1 4205   3.249   5.770   0.595 -1.4486  2.5327 -0.5745
  907SOL    HW2 4206   3.138   5.709   0.678 -0.0147  0.7178  0.0344
  908SOL     OW 4207   3.210   6.015   5.602 -0.2687  0.2182 -0.9907
  908SOL    HW1 4208   3.163   6.056   5.675  1.7166  0.7252  0.0367
  908SOL    HW2 4209   3.273   6.081   5.574 -0.4270 -0.2969 -2.6216
  909SOL     OW 4210   0.970   6.468   1.366  0.2641 -0.4654 -0.0910
  909SOL    HW1 4211   0.952   6.462   1.272  0.9501  0.1830 -0.2722
  909SOL    HW2 4212   0.956   6.379   1.399  1.0501 -0.9416 -1.0026
  910SOL     OW 4213   6.707   1.931   7.167 -0.0819 -0.7031  0.2915
  910SOL    HW1 4214   6.639   1.876   7.130  0.4368 -0.0012 -1.8104
  910SOL    HW2 4215   6.670   2.019   7.166  0.0175 -0.6482  1.2564
  911SOL     OW 4216   1.557   4.456   8.040  0.1147 -0.4005  0.1020
  911SOL    HW1 4217   1.570   4.371   7.998  1.2518 -0.8708  1.3723
  911SOL    HW2 4218   1.532   4.435   8.130  1.0731  0.6033  0.6156
  912SOL     OW 4219   3.434   5.691   5.217 -0.4302 -0.6964  0.4127
  912SOL    HW1 4220   3.379   5.644   5.154 -0.2864  1.4233 -1.3550
  912SOL    HW2 4221   3.523   5.664   5.195 -0.4581 -0.7972  0.4212
  913SOL     OW 4222   4.514   2.623   4.540 -0.1076  0.1829  0.3260
  913SOL    HW1 4223   4.516   2.639   4.446  2.4189  1.5536  0.5588
  913SOL    HW2 4224   4.516   2.528   4.548  4.2764  0.0667 -1.0283
  914SOL     OW 4225   7.005   2.520   5.395 -0.6665  0.7557 -0.1953
  914SOL    HW1 4226   6.960   2.575   5.459 -1.9110 -1.9716  1.3825
  914SOL    HW2 4227   7.064   2.465   5.447  0.0989  0.1704 -1.6486
  915SOL     OW 4228   4.395   7.990   2.250  0.2096  0.0291  0.4256
  915SOL    HW1 4229   4.319   7.944   2.215  1.1806 -1.7871  0.5993
  915SOL    HW2 4230   4.372   8.083   2.247 -1.0701 -0.3453 -1.7410
  916SOL     OW 4231   6.618   6.265   7.465 -0.0039 -0.4810  0.1675
  916SOL    HW1 4232   6.531   6.306   7.464  0.2811  0.1076 -0.9334
  916SOL    HW2 4233   6.646   6.271   7.557 -0.7779  0.0543  0.3770
  917SOL     OW 4234   5.359   0.058   5.975  0.4171  0.3568 -0.0955
  917SOL    HW1 4235   5.393   0.075   6.063 -1.1360  0.0334  0.5872
  917SOL    HW2 4236   5.273   0.101   5.974 -0.4059 -1.2783 -0.7893
  918SOL     OW 4237   4.991   1.525   7.739  0.4127 -0.1149  0.6398
  918SOL    HW1 4238   4.947   1.442   7.725  0.0786 -0.0563  1.2970
  918SOL    HW2 4239   4.949   1.586   7.678  1.0077 -0.5436 -0.2027
  919SOL     OW 4240   0.752   2.372   3.743  0.2231  0.1458  0.0099
  919SOL    HW1 4241   0.772   2.455   3.787  1.5821 -0.2643  0.2006
  919SOL    HW2 4242   0.818   2.366   3.674  0.2248 -0.8365  0.0917
  920SOL     OW 4243   1.573   7.021   2.151 -0.3727 -0.0061  0.0830
  920SOL    HW1 4244   1.491   7.047   2.108 -1.7756 -2.9229  0.8573
  920SOL    HW2 4245   1.558   7.040   2.244 -0.1659 -0.5385  0.2258
  921SOL     OW 4246   7.405   4.655   1.569  0.2493  0.2459  0.4191
  921SOL    HW1 4247   7.495   4.626   1.583  0.5506  1.3451  0.8738
  921SOL    HW2 4248   7.413   4.750   1.555 -0.7749  0.2506 -0.1912
  922SOL     OW 4249   6.308   3.374   0.763 -0.4231 -0.2666 -0.6426
  922SOL    HW1 4250   6.306   3.280   0.780  0.5750 -0.5075 -1.7496
  922SOL    HW2 4251   6.264   3.384   0.679 -0.9923  0.3213 -0.2757
  923SOL     OW 4252   1.520   2.626   5.082 -0.6424 -0.5416 -0.0399
  923SOL    HW1 4253   1.563   2.663   5.160 -0.9291 -0.5210  0.1109
  923SOL    HW2 4254   1.536   2.690   5.013 -0.8342 -0.3049  0.1330
  924SOL     OW 4255   5.798   2.133   3.829  0.1838 -0.4628 -0.0595
  924SOL    HW1 4256   5.887   2.101   3.811 -0.1051 -1.3226  0.0272
  924SOL    HW2 4257   5.790   2.130   3.924  0.5534  0.9568  0.0213
  925SOL     OW 4258   5.706   5.940   0.174 -0.3002  0.0952  0.0931
  925SOL    HW1 4259   5.775   5.873   0.178 -0.7733 -0.4920 -1.1602
  925SOL    HW2 4260   5.737   6.010   0.232  1.7275  0.1881 -1.0511
  926SOL     OW 4261   5.603   6.286   6.453  0.1828  0.1369  0.5223
  926SOL    HW1 4262   5.532   6.347   6.437  0.0170  1.1397  4.4423
  926SOL    HW2 4263   5.669   6.337   6.500  0.9877 -2.1130  1.9669
  927SOL     OW 4264   7.466   1.326   6.691 -0.5339  0.0064  0.1595
  927SOL    HW1 4265   7.427   1.295   6.773  0.7154 -2.7642 -0.2360
  927SOL    HW2 4266   7.491   1.417   6.709 -0.6626 -0.4283  2.7202
  928SOL     OW 4267   6.407   1.207   3.105  0.1175 -0.1505  0.6570
  928SOL    HW1 4268   6.326   1.257   3.114 -0.2462 -0.7348  0.5931
  928SOL    HW2 4269   6.405   1.144   3.176  0.6118 -0.0417  0.7731
  929SOL     OW 4270   0.547   8.223   6.017 -0.6035  0.1415 -0.2915
  929SOL    HW1 4271   0.480   8.162   6.047 -0.8756  0.0965 -0.9757
  929SOL    HW2 4272   0.623   8.168   5.996 -0.5848  0.1192 -0.1621
  930SOL     OW 4273   0.129   2.109   1.458  0.4904  0.2957  0.1445
  930SOL    HW1 4274   0.037   2.085   1.445  0.1886  0.9403  0.9971
  930SOL    HW2 4275   0.127   2.166   1.535  1.1361  3.1116 -1.8453
  931SOL     OW 4276   1.903   1.874   2.649 -0.3278  0.4594 -0.1179
  931SOL    HW1 4277   1.862   1.943   2.598 -1.1038  1.3085  1.5949
  931SOL    HW2 4278   1.909   1.800   2.589 -1.6419  1.2802 -1.2928
  932SOL     OW 4279   2.293   7.227   0.482 -0.3460  0.0309 -0.4557
  932SOL    HW1 4280   2.238   7.300   0.510  0.7434 -0.2639  2.6764
  932SOL    HW2 4281   2.325   7.189   0.564 -0.4715 -3.6571 -2.0438
  933SOL     OW 4282   3.260   0.585   5.040  0.0823  0.2816 -0.2266
  933SOL    HW1 4283   3.173   0.598   5.078 -0.4588 -2.0290 -0.5816
  933SOL    HW2 4284   3.289   0.672   5.013 -2.1921  1.0405 -0.2535
  934SOL     OW 4285   8.271   5.543   1.755  0.2926 -0.0905  0.1700
  934SOL    HW1 4286   8.342   5.607   1.744  0.2548 -0.0497  0.1678
  934SOL    HW2 4287   8.221   5.576   1.830  1.3125 -1.0772  1.3136
  935SOL     OW 4288   5.804   6.565   1.161 -0.1091 -0.3325  0.3383
  935SOL    HW1 4289   5.737   6.526   1.218 -0.4555  1.5914  1.2812
  935SOL    HW2 4290   5.854   6.490   1.128 -1.8235 -1.6945  0.7507
  936SOL     OW 4291   5.318   5.144   0.367 -0.6402  0.3143 -1.1104
  936SOL    HW1 4292   5.239   5.191   0.339 -0.6359  0.8134 -0.3088
  936SOL    HW2 4293   5.299   5.052   0.349 -0.9892  0.5353 -1.8996
  937SOL     OW 4294   5.916   6.025   1.477 -0.2452  0.3034  0.0182
  937SOL    HW1 4295   5.974   6.035   1.552 -0.5875 -1.6443  0.5695
  937SOL    HW2 4296   5.943   5.942   1.437 -0.8789  0.7149 -1.2909
  938SOL     OW 4297   5.318   5.868   7.768 -0.0318  0.3959  0.0959
  938SOL    HW1 4298   5.235   5.838   7.803 -0.8579  2.9167  0.4293
  938SOL    HW2 4299   5.312   5.852   7.674  0.2087 -1.8450  0.4334
  939SOL     OW 4300   1.160   0.874   5.763  0.3947  0.3608 -0.0923
  939SOL    HW1 4301   1.121   0.955   5.728 -0.9708 -1.1216 -2.1423
  939SOL    HW2 4302   1.089   0.835   5.814  1.0625  0.4586  0.9137
  940SOL     OW 4303   5.753   4.563   4.328 -0.0816  0.5031 -0.0051
  940SOL    HW1 4304   5.813   4.633   4.354 -0.8911  1.2338 -0.0461
  940SOL    HW2 4305   5.805   4.505   4.273  1.5228 -0.7908  2.8149
  941SOL     OW 4306   6.653   7.538   7.658  0.4454  0.1864  0.0617
  941SOL    HW1 4307   6.593   7.510   7.727  2.3251 -2.7566  0.5873
  941SOL    HW2 4308   6.624   7.490   7.580  2.2114 -1.4386  0.3781
  942SOL     OW 4309   6.097   6.771   4.361  0.2681  0.6609  0.0221
  942SOL    HW1 4310   6.021   6.778   4.419 -0.9517  1.4279 -1.6236
  942SOL    HW2 4311   6.061   6.778   4.273  2.2737  1.3134 -0.7865
  943SOL     OW 4312   2.427   0.227   0.802  0.0315  0.2915 -0.1329
  943SOL    HW1 4313   2.401   0.305   0.852  0.2471  0.2641  0.0266
  943SOL    HW2 4314   2.428   0.157   0.867  1.9479  0.5889  0.1823
  944SOL     OW 4315   1.513   8.122   0.744 -0.4414 -0.3701 -0.2323
  944SOL    HW1 4316   1.424   8.144   0.768  0.3647  1.7201  0.9917
  944SOL    HW2 4317   1.526   8.162   0.658 -0.4302  0.0489 -0.0367
  945SOL     OW 4318   5.637   4.695   0.221  0.2184 -0.2899  0.3351
  945SOL    HW1 4319   5.599   4.690   0.134 -0.9790  1.1513  0.7663
  945SOL    HW2 4320   5.689   4.776   0.220 -0.6348  0.2713  1.2894
  946SOL     OW 4321   3.623   2.354   4.849  0.5356  0.3156 -0.6888
  946SOL    HW1 4322   3.576   2.275   4.821 -0.4665  0.7409 -0.2083
  946SOL    HW2 4323   3.713   2.323   4.865 -0.0508 -0.9086  0.3202
  947SOL     OW 4324   0.640   2.257   7.182 -0.0882  0.3061  0.4286
  947SOL    HW1 4325   0.546   2.270   7.169  0.0005  1.7912  1.0916
  947SOL    HW2 4326   0.662   2.181   7.128 -1.4465  0.6650 -0.6654
  948SOL     OW 4327   0.075   1.641   3.415 -0.1048  0.3924  0.0396
  948SOL    HW1 4328   0.058   1.734   3.400  1.7986  0.5576 -1.3120
  948SOL    HW2 4329   0.150   1.640   3.475 -0.2170 -0.2652  0.1742
  949SOL     OW 4330   4.902   2.346   6.020  0.7852 -0.0690  0.3194
  949SOL    HW1 4331   4.850   2.365   6.098 -0.8176  3.3347 -1.4622
  949SOL    HW2 4332   4.840   2.308   5.959  1.1693  0.7868 -0.6088
  950SOL     OW 4333   5.175   2.011   7.116 -0.2881  0.2404 -0.4392
  950SOL    HW1 4334   5.107   1.946   7.129 -0.2094  0.3667  0.6287
  950SOL    HW2 4335   5.234   1.971   7.051  0.9246 -1.6724  1.7811
  951SOL     OW 4336   1.412   2.746   3.724 -0.3039 -0.2290  0.5590
  951SOL    HW1 4337   1.486   2.710   3.675 -0.7822  0.2081 -0.4990
  951SOL    HW2 4338   1.411   2.696   3.805  1.2635 -0.1202  0.6619
  952SOL     OW 4339   3.848   4.787   2.913  0.0666 -0.1159  0.4001
  952SOL    HW1 4340   3.814   4.730   2.982 -2.6860 -1.2552 -1.7702
  952SOL    HW2 4341   3.896   4.728   2.855  0.5015  0.4544  0.1772
  953SOL     OW 4342   5.509   1.891   0.275  0.2353  0.0596 -0.3202
  953SOL    HW1 4343   5.472   1.805   0.254  0.3295  0.1604 -0.9020
  953SOL    HW2 4344   5.432   1.947   0.284  0.1170 -0.3311  1.1822
  954SOL     OW 4345   4.456   7.604   3.548  0.0905  0.2815 -0.0233
  954SOL    HW1 4346   4.434   7.634   3.460 -0.0858 -1.5960 -0.6341
  954SOL    HW2 4347   4.544   7.567   3.540  0.7148  1.5064  0.9393
  955SOL     OW 4348   1.315   6.925   6.772 -0.2087 -0.5168  0.1364
  955SOL    HW1 4349   1.365   6.925   6.691  2.1939  0.4246  1.5560
  955SOL    HW2 4350   1.270   7.010   6.772 -2.3437 -1.6086 -1.4204
  956SOL     OW 4351   8.196   0.667   8.187  0.2951 -0.1093  0.4414
  956SOL    HW1 4352   8.135   0.740   8.177  0.4655  0.0500  0.5566
  956SOL    HW2 4353   8.219   0.667   8.280  2.6023  1.5608 -0.0860
  957SOL     OW 4354   4.228   3.301   5.644 -1.0782  0.2113  0.6310
  957SOL    HW1 4355   4.271   3.386   5.636 -0.9369  0.0519 -0.3358
  957SOL    HW2 4356   4.285   3.240   5.599 -1.5905 -0.2581  0.6053
  958SOL     OW 4357   8.084   0.678   7.703  0.4233  0.2660  0.7188
  958SOL    HW1 4358   8.048   0.598   7.664  1.0067 -0.0145  0.7477
  958SOL    HW2 4359   8.030   0.749   7.668  0.7513 -0.0129 -0.3631
  959SOL     OW 4360   2.806   3.062   1.953  0.1362 -0.0114  0.7600
  959SOL    HW1 4361   2.897   3.076   1.979  0.7726 -0.1605 -1.2844
  959SOL    HW2 4362   2.767   3.016   2.027  2.1124 -1.2589  1.0582
  960SOL     OW 4363   2.504   1.336   3.786  0.3408 -0.0227 -0.2228
  960SOL    HW1 4364   2.523   1.428   3.805 -1.8638  0.4766 -0.3364
  960SOL    HW2 4365   2.451   1.306   3.860  0.1107 -0.9041 -0.7283
  961SOL     OW 4366   6.388   5.370   3.057  0.0131 -0.2466 -0.6038
  961SOL    HW1 4367   6.309   5.343   3.009 -1.3507  0.6306  1.0779
  961SOL    HW2 4368   6.460   5.334   3.006 -1.4188 -0.0231 -2.8708
  962SOL     OW 4369   5.727   6.270   2.778 -0.6396  0.0290 -0.2857
  962SOL    HW1 4370   5.775   6.216   2.840 -0.1620 -0.1110 -0.7759
  962SOL    HW2 4371   5.793   6.300   2.716 -1.0942  0.2647 -0.6593
  963SOL     OW 4372   0.253   0.651   2.382  0.0050  0.1593  0.4561
  963SOL    HW1 4373   0.313   0.587   2.420  1.2550  1.2376  0.3148
  963SOL    HW2 4374   0.293   0.677   2.300 -0.6832  0.8372  0.3198
  964SOL     OW 4375   3.789   7.472   6.832 -0.2774  0.0454  0.0280
  964SOL    HW1 4376   3.766   7.537   6.765 -0.8951  1.0502  1.2059
  964SOL    HW2 4377   3.721   7.406   6.825 -1.0091  0.7509  0.4691
  965SOL     OW 4378   0.567   5.549   7.494  0.5374  0.5574  0.3360
  965SOL    HW1 4379   0.575   5.525   7.402 -1.4892 -2.6964  0.9221
  965SOL    HW2 4380   0.654   5.536   7.531  0.0312 -4.1305  0.1356
  966SOL     OW 4381   1.079   2.106   0.484 -0.2049 -0.1435 -0.2231
  966SOL    HW1 4382   1.133   2.073   0.556 -0.0161  0.9199  0.1319
  966SOL    HW2 4383   1.119   2.069   0.405  1.8008  1.6218 -0.0613
  967SOL     OW 4384   5.549   1.779   7.560 -0.0286  0.2191 -0.5419
  967SOL    HW1 4385   5.519   1.870   7.564 -2.3052 -0.5237  0.3683
  967SOL    HW2 4386   5.643   1.785   7.543 -0.0960  2.7332 -0.1978
  968SOL     OW 4387   2.569   6.690   3.090 -0.1519  0.2355 -0.1287
  968SOL    HW1 4388   2.512   6.744   3.144 -3.1760  0.3930 -3.2799
  968SOL    HW2 4389   2.627   6.752   3.046 -0.2953  0.4765  0.0253
  969SOL     OW 4390   3.291   1.104   3.249  0.1635 -0.4255 -0.1013
  969SOL    HW1 4391   3.378   1.070   3.269 -0.2142 -1.2735  0.1191
  969SOL    HW2 4392   3.265   1.152   3.328 -0.2011 -1.4795  0.4363
  970SOL     OW 4393   4.410   4.086   7.479 -0.3536 -0.3702  0.2647
  970SOL    HW1 4394   4.415   4.181   7.485  0.6006 -0.2589 -2.0928
  970SOL    HW2 4395   4.464   4.055   7.552 -2.3841  0.8560  2.3452
  971SOL     OW 4396   4.995   7.875   6.326 -0.4841 -0.1398  0.3551
  971SOL    HW1 4397   5.039   7.818   6.389 -0.7569 -1.2658 -0.4432
  971SOL    HW2 4398   5.005   7.829   6.242  0.1927  1.4992 -0.4865
  972SOL     OW 4399   4.735   0.441   6.547  0.0023 -0.0886  0.8106
  972SOL    HW1 4400   4.734   0.467   6.455 -0.7479 -1.1802  0.5030
  972SOL    HW2 4401   4.720   0.347   6.545  2.3610 -0.5267  1.9106
  973SOL     OW 4402   2.037   3.281   2.373 -0.2982  0.4346 -0.5464
  973SOL    HW1 4403   2.000   3.194   2.389  0.1649  0.1730 -0.9130
  973SOL    HW2 4404   2.126   3.265   2.343 -0.0997  1.0487 -0.2949
  974SOL     OW 4405   2.936   7.328   3.165  0.0392  0.0854 -0.0789
  974SOL    HW1 4406   2.904   7.401   3.217 -0.3565  1.0432 -1.6250
  974SOL    HW2 4407   2.894   7.250   3.202 -0.4378  0.7809  0.8391
  975SOL     OW 4408   3.411   3.978   4.841 -0.0308  0.2430 -0.1449
  975SOL    HW1 4409   3.431   3.922   4.916  1.1845 -0.5468 -1.0398
  975SOL    HW2 4410   3.390   3.917   4.770  1.7625  0.8877 -1.2623
  976SOL     OW 4411   3.004   2.709   2.582  0.1014  0.2783  0.5152
  976SOL    HW1 4412   3.067   2.636   2.591  0.1471 -0.2678 -3.2645
  976SOL    HW2 4413   2.924   2.676   2.622  0.0044 -2.0850 -1.4768
  977SOL     OW 4414   1.287   0.695   1.314  0.1625  0.5424  0.2958
  977SOL    HW1 4415   1.347   0.664   1.246  1.6116  1.6825  1.0223
  977SOL    HW2 4416   1.208   0.643   1.302  1.2435 -0.8962 -0.7774
  978SOL     OW 4417   6.445   4.893   6.958 -0.0184 -0.2268 -0.4928
  978SOL    HW1 4418   6.367   4.855   6.999  1.4830 -2.0681  0.7153
  978SOL    HW2 4419   6.518   4.850   7.001  1.7762  3.3392  0.2541
  979SOL     OW 4420   1.580   7.566   0.336  0.3689  0.3478 -0.7805
  979SOL    HW1 4421   1.513   7.620   0.294  0.0911  1.0102  0.4821
  979SOL    HW2 4422   1.569   7.584   0.430  2.3198  0.4906 -0.5655
  980SOL     OW 4423   7.081   4.686   0.681  0.0507  0.3632 -0.6117
  980SOL    HW1 4424   7.173   4.712   0.687  0.3601 -0.8556  0.2731
  980SOL    HW2 4425   7.036   4.744   0.742  0.4202  0.1803 -0.1577
  981SOL     OW 4426   6.740   5.801   1.167  0.1148  0.0652 -0.3251
  981SOL    HW1 4427   6.790   5.879   1.144  0.0789  0.6135  1.3792
  981SOL    HW2 4428   6.662   5.805   1.111  1.2603 -0.0353 -1.9624
  982SOL     OW 4429   4.417   3.737   0.420 -0.2748  0.2857 -0.0627
  982SOL    HW1 4430   4.423   3.826   0.453 -4.1381  1.1636 -1.5009
  982SOL    HW2 4431   4.433   3.682   0.498 -0.5752  2.2206  1.3979
  983SOL     OW 4432   3.384   3.447   5.565  0.5142 -0.0751  0.2481
  983SOL    HW1 4433   3.300   3.425   5.606 -0.2310 -0.6362 -1.5411
  983SOL    HW2 4434   3.422   3.363   5.540  0.8401  0.2728 -0.4535
  984SOL     OW 4435   5.918   5.052   1.113 -0.3943  0.4054 -0.3912
  984SOL    HW1 4436   5.925   4.962   1.145 -0.2971  0.1273 -1.1679
  984SOL    HW2 4437   5.849   5.092   1.167  0.3170  0.1920  0.6737
  985SOL     OW 4438   8.114   1.806   2.607  0.0985  0.3183  0.3165
  985SOL    HW1 4439   8.191   1.767   2.647 -0.8740 -2.3075 -0.2548
  985SOL    HW2 4440   8.073   1.856   2.677 -0.8161 -3.0374  2.3253
  986SOL     OW 4441   3.588   2.310   2.360 -0.2664  0.0581 -0.4569
  986SOL    HW1 4442   3.586   2.404   2.374  1.2936 -0.1755  1.4262
  986SOL    HW2 4443   3.679   2.289   2.340 -0.3609 -1.2105  0.3351
  987SOL     OW 4444   1.964   6.243   0.886  0.3477  0.2776  0.1845
  987SOL    HW1 4445   1.884   6.271   0.842 -0.2470 -0.9427  0.4524
  987SOL    HW2 4446   2.027   6.230   0.814  0.1613  0.7913 -0.0700
  988SOL     OW 4447   8.108   7.212   7.868 -0.1869 -0.0722  0.3031
  988SOL    HW1 4448   8.068   7.282   7.919  1.5548  2.0487 -1.1720
  988SOL    HW2 4449   8.201   7.216   7.891  0.1776 -0.8606 -1.0055
  989SOL     OW 4450   1.884   6.901   5.297  1.3133 -0.1060 -0.0523
  989SOL    HW1 4451   1.876   6.844   5.374 -0.3324  0.3329  0.1289
  989SOL    HW2 4452   1.929   6.979   5.330  0.3224  0.2208  0.5616
  990SOL     OW 4453   6.277   2.457   2.883 -0.1894 -0.2271  0.1693
  990SOL    HW1 4454   6.241   2.389   2.826  0.3527  1.6906 -2.5651
  990SOL    HW2 4455   6.371   2.445   2.878 -0.1593 -0.3523  1.0597
  991SOL     OW 4456   5.413   4.621   1.569  0.3682  0.3205  0.3113
  991SOL    HW1 4457   5.377   4.619   1.658  0.3958 -2.6805  0.3188
  991SOL    HW2 4458   5.338   4.639   1.512  0.0438  0.5757  0.8171
  992SOL     OW 4459   2.869   1.789   0.912 -0.2386  0.0307  0.1215
  992SOL    HW1 4460   2.876   1.702   0.952 -0.1836 -0.4745 -0.9769
  992SOL    HW2 4461   2.775   1.804   0.904 -0.2692  0.6316  1.5045
  993SOL     OW 4462   5.494   3.845   0.953 -0.4090 -0.2698  0.3904
  993SOL    HW1 4463   5.481   3.847   0.858 -1.3415  0.7706  0.5278
  993SOL    HW2 4464   5.568   3.786   0.966  0.1772  0.1342 -1.0300
  994SOL     OW 4465   0.237   4.303   5.783  0.2166  0.0409  0.1048
  994SOL    HW1 4466   0.258   4.245   5.856 -0.8377  1.4527  1.5519
  994SOL    HW2 4467   0.321   4.317   5.738  0.7885 -1.1609  0.7800
  995SOL     OW 4468   2.415   7.251   4.357  0.5629 -0.6174  0.1963
  995SOL    HW1 4469   2.400   7.228   4.449  1.2984 -1.7017  0.0406
  995SOL    HW2 4470   2.471   7.182   4.323 -1.3324 -1.3123 -1.6104
  996SOL     OW 4471   7.664   3.183   7.316  0.9970  0.5879  0.0563
  996SOL    HW1 4472   7.572   3.188   7.341  0.4570  0.0449 -1.8094
  996SOL    HW2 4473   7.711   3.182   7.400 -0.6601  1.2505  1.0084
  997SOL     OW 4474   0.212   6.854   6.881  0.5511  0.1180  0.7616
  997SOL    HW1 4475   0.229   6.935   6.929 -3.9364  1.6915 -0.0348
  997SOL    HW2 4476   0.178   6.883   6.796 -1.4659 -2.5587  0.5835
  998SOL     OW 4477   4.541   5.235   1.464  0.1883 -0.0930  0.3373
  998SOL    HW1 4478   4.498   5.221   1.379 -0.1170  1.9076  0.1501
  998SOL    HW2 4479   4.471   5.261   1.523  0.8595  1.5302  0.4475
  999SOL     OW 4480   1.184   4.366   3.981  0.2263 -0.1612  0.0949
  999SOL    HW1 4481   1.250   4.301   4.003  0.0768 -0.3994 -0.1575
  999SOL    HW2 4482   1.187   4.430   4.053 -0.0069 -0.7340  0.6163
 1000SOL     OW 4483   0.135   5.488   4.535 -0.8776  0.7374  0.2221
 1000SOL    HW1 4484   0.084   5.561   4.570 -0.1006  0.7008  1.4674
 1000SOL    HW2 4485   0.196   5.529   4.473  0.6560  1.3704  2.1221
 1001SOL     OW 4486   2.335   0.382   7.108  0.0362 -0.6456  0.4666
 1001SOL    HW1 4487   2.367   0.294   7.088  1.1437  0.2653 -2.0388
 1001SOL    HW2 4488   2.241   0.378   7.088  0.2896 -0.9792 -0.6904
 1002SOL     OW 4489   3.923   4.358   0.304 -0.2549  0.2013  0.1891
 1002SOL    HW1 4490   3.935   4.315   0.389 -0.3462  0.0358  0.1198
 1002SOL    HW2 4491   3.845   4.317   0.268  0.9917 -1.2607 -0.9098
 1003SOL     OW 4492   4.984   1.705   3.837 -0.3853 -0.0762 -0.0690
 1003SOL    HW1 4493   5.058   1.761   3.861 -0.8627  0.2596  0.6475
 1003SOL    HW2 4494   4.911   1.765   3.822 -0.5035 -0.4018 -0.7968
 1004SOL     OW 4495   1.592   5.905   1.163  0.8493  0.4255  0.4639
 1004SOL    HW1 4496   1.610   5.976   1.225  1.1247 -0.3445  1.2745
 1004SOL    HW2 4497   1.659   5.839   1.182 -0.2739 -0.6652  0.6873
 1005SOL     OW 4498   0.413   6.338   7.778  0.1546  0.3413  0.8462
 1005SOL    HW1 4499   0.399   6.323   7.685  1.6340 -2.8643  1.0681
 1005SOL    HW2 4500   0.368   6.421   7.797 -2.1873 -0.1813 -2.1848
 1006SOL     OW 4501   4.456   0.912   7.508  0.2172  0.5069 -0.3690
 1006SOL    HW1 4502   4.425   0.829   7.471 -1.8932  1.2324 -0.3327
 1006SOL    HW2 4503   4.471   0.893   7.600  1.3723 -0.2393 -0.6985
 1007SOL     OW 4504   3.573   4.280   4.902  0.5998 -0.1304 -0.2887
 1007SOL    HW1 4505   3.622   4.276   4.820  1.2629  1.5455 -0.0155
 1007SOL    HW2 4506   3.490   4.321   4.878  0.7568  0.2736 -0.1470
 1008SOL     OW 4507   3.366   4.203   2.011 -0.0538  0.3393 -0.2688
 1008SOL    HW1 4508   3.376   4.152   2.091  0.2130  1.0597  0.1652
 1008SOL    HW2 4509   3.316   4.280   2.037 -0.2072  0.4417 -0.8541
 1009SOL     OW 4510   1.865   5.835   5.951  0.2087  0.3526 -0.5417
 1009SOL    HW1 4511   1.788   5.836   6.008  1.3999  0.0894  1.0921
 1009SOL    HW2 4512   1.927   5.896   5.991  1.7463 -1.1401 -0.5596
 1010SOL     OW 4513   5.821   1.983   0.998  0.1794  0.7392  0.2171
 1010SOL    HW1 4514   5.846   2.056   1.055 -0.2202  2.7765 -2.1226
 1010SOL    HW2 4515   5.883   1.988   0.925 -1.7711  0.6552 -1.4829
 1011SOL     OW 4516   4.690   6.460   1.212  0.0971 -0.7103  0.4071
 1011SOL    HW1 4517   4.612   6.419   1.174 -0.0081 -0.3689  0.2492
 1011SOL    HW2 4518   4.763   6.426   1.161  0.1148 -1.4824  0.9253
 1012SOL     OW 4519   1.453   4.197   3.366  0.0411  0.1828 -0.1448
 1012SOL    HW1 4520   1.364   4.227   3.349  0.0287 -0.1415 -0.6938
 1012SOL    HW2 4521   1.508   4.272   3.345  0.0260 -0.2289 -1.7058
 1013SOL     OW 4522   7.675   3.553   5.089  0.1669  0.4281 -0.3771
 1013SOL    HW1 4523   7.665   3.502   5.009  1.1517  1.1682 -0.9956
 1013SOL    HW2 4524   7.613   3.515   5.150  0.3499 -1.0145 -1.0666
 1014SOL     OW 4525   7.738   2.391   2.240  0.0290 -0.3413  0.1987
 1014SOL    HW1 4526   7.769   2.307   2.275 -2.2511 -0.9091  0.9461
 1014SOL    HW2 4527   7.642   2.383   2.240 -0.2285  2.3684  0.5388
 1015SOL     OW 4528   7.690   4.664   8.206 -0.6947  0.1653 -0.3595
 1015SOL    HW1 4529   7.642   4.589   8.241  0.5639 -0.9837 -1.0659
 1015SOL    HW2 4530   7.622   4.721   8.170 -1.6522 -0.6400  0.1518
 1016SOL     OW 4531   0.858   0.323   6.246  0.0193 -0.1156  0.2386
 1016SOL    HW1 4532   0.819   0.238   6.268  2.7816 -1.6340 -0.4495
 1016SOL    HW2 4533   0.860   0.324   6.150 -2.3034  1.8706  0.1651
 1017SOL     OW 4534   6.786   4.850   3.419 -0.4046 -0.1114 -0.4098
 1017SOL    HW1 4535   6.813   4.758   3.409  0.0683  0.1956 -1.9899
 1017SOL    HW2 4536   6.867   4.896   3.442 -0.4044  0.1214 -0.8827
 1018SOL     OW 4537   2.579   2.880   2.132  0.4738 -0.5497  0.4134
 1018SOL    HW1 4538   2.672   2.865   2.152  0.5874  0.1881  0.4513
 1018SOL    HW2 4539   2.542   2.914   2.214 -0.1516 -2.1930  0.8294
 1019SOL     OW 4540   4.229   3.819   6.606  0.5180 -0.1852 -0.8162
 1019SOL    HW1 4541   4.244   3.800   6.513 -0.1955 -1.7699 -0.6257
 1019SOL    HW2 4542   4.280   3.753   6.653 -1.3994 -1.2041 -0.1135
 1020SOL     OW 4543   1.016   4.933   4.097  0.4752 -0.1595  0.4301
 1020SOL    HW1 4544   1.074   4.914   4.022 -1.3816 -1.5051 -0.6875
 1020SOL    HW2 4545   0.928   4.913   4.065 -0.4828  0.5061  2.5835
 1021SOL     OW 4546   5.595   5.768   0.587  0.2499 -0.2024 -0.0260
 1021SOL    HW1 4547   5.508   5.729   0.584 -0.0691  0.4513  0.6835
 1021SOL    HW2 4548   5.584   5.856   0.551  0.5628 -0.0212  0.3191
 1022SOL     OW 4549   7.583   0.214   3.530 -0.8288  0.5879 -0.0378
 1022SOL    HW1 4550   7.495   0.237   3.559 -1.1693 -0.4486 -0.2630
 1022SOL    HW2 4551   7.636   0.291   3.552 -1.4871  0.6115  1.4694
 1023SOL     OW 4552   7.812   5.615   3.900  0.3237 -0.2821  0.1371
 1023SOL    HW1 4553   7.847   5.528   3.919 -1.1334 -0.7524  0.7260
 1023SOL    HW2 4554   7.822   5.625   3.805  2.7619 -0.0746  0.3806
 1024SOL     OW 4555   5.227   0.792   7.913 -0.4672  0.3360  0.0516
 1024SOL    HW1 4556   5.260   0.704   7.896 -1.3038  0.2142 -0.9535
 1024SOL    HW2 4557   5.306   0.846   7.919  0.0263 -0.3918  0.1547
 1025SOL     OW 4558   2.900   3.280   4.493  0.3068 -0.3650 -0.2010
 1025SOL    HW1 4559   2.867   3.190   4.502  0.1084 -0.3535 -0.7820
 1025SOL    HW2 4560   2.862   3.327   4.567  0.1728 -0.6907 -0.0598
 1026SOL     OW 4561   0.165   7.007   5.627 -0.2619 -0.0994  0.1072
 1026SOL    HW1 4562   0.115   6.926   5.644  1.5810 -1.2620  0.0995
 1026SOL    HW2 4563   0.121   7.047   5.552 -1.0151 -1.2463 -0.0753
 1027SOL     OW 4564   4.142   0.211   5.177  0.3465  0.1249 -0.4000
 1027SOL    HW1 4565   4.131   0.184   5.086 -0.1272  0.8307 -0.5582
 1027SOL    HW2 4566   4.071   0.166   5.224 -0.0528  0.5874 -0.5565
 1028SOL     OW 4567   3.705   4.516   2.387 -0.4856 -0.7263  0.3715
 1028SOL    HW1 4568   3.666   4.597   2.353 -1.1056 -1.8160 -1.6137
 1028SOL    HW2 4569   3.799   4.534   2.390 -0.4356 -0.4780 -1.7183
 1029SOL     OW 4570   6.659   5.787   3.547 -0.4207 -0.1577 -0.3368
 1029SOL    HW1 4571   6.581   5.741   3.515 -1.3567  0.5871  0.8674
 1029SOL    HW2 4572   6.668   5.759   3.638  0.0001  0.7449 -0.0995
 1030SOL     OW 4573   7.058   5.227   7.025 -0.3127 -0.8769  0.4858
 1030SOL    HW1 4574   7.030   5.299   7.083  0.9273 -0.1095  0.1355
 1030SOL    HW2 4575   7.035   5.257   6.937  1.6583 -0.2175  0.1891
 1031SOL     OW 4576   4.413   8.033   5.411  0.4245 -0.4452 -0.2234
 1031SOL    HW1 4577   4.323   8.055   5.432  0.9231  1.1921  0.2120
 1031SOL    HW2 4578   4.418   8.042   5.316  0.6040  1.2891 -0.0604
 1032SOL     OW 4579   2.354   2.292   5.170 -0.1374  0.1021  0.0868
 1032SOL    HW1 4580   2.271   2.281   5.123 -0.3816 -0.4515  0.6382
 1032SOL    HW2 4581   2.343   2.373   5.220 -0.2482  0.1700 -0.0490
 1033SOL     OW 4582   5.593   2.806   6.088 -0.1346  0.3120  0.0800
 1033SOL    HW1 4583   5.637   2.840   6.010 -2.1694 -3.2399 -2.7870
 1033SOL    HW2 4584   5.509   2.852   6.090  0.4689  1.4006  1.0232
 1034SOL     OW 4585   4.331   5.572   7.862 -0.6762  0.3819  0.0982
 1034SOL    HW1 4586   4.300   5.660   7.837 -1.1221  0.1544 -0.1535
 1034SOL    HW2 4587   4.271   5.512   7.818 -1.1078 -0.0344  1.2347
 1035SOL     OW 4588   1.780   5.504   7.952  0.5591 -0.6387 -0.7306
 1035SOL    HW1 4589   1.726   5.576   7.984  0.1307 -1.2534 -0.0336
 1035SOL    HW2 4590   1.830   5.541   7.879  0.6316  0.4644 -0.1351
 1036SOL     OW 4591   2.460   2.803   5.417 -0.4712 -0.5571  0.1427
 1036SOL    HW1 4592   2.443   2.887   5.375 -2.9852 -1.0036  0.1783
 1036SOL    HW2 4593   2.411   2.806   5.499 -0.8571 -2.1684 -0.0052
 1037SOL     OW 4594   6.523   6.701   1.073 -0.5740 -0.4854  0.2916
 1037SOL    HW1 4595   6.574   6.622   1.089 -1.6139 -1.2809 -0.2690
 1037SOL    HW2 4596   6.579   6.772   1.104  1.5339 -1.1962 -1.6678
 1038SOL     OW 4597   2.136   2.608   7.341 -0.2798 -0.0914  0.4328
 1038SOL    HW1 4598   2.043   2.587   7.348 -0.1694 -0.5441  0.5989
 1038SOL    HW2 4599   2.146   2.644   7.253  0.0742 -3.9256 -1.2106
 1039SOL     OW 4600   2.600   1.509   1.157  0.1968 -0.1361  0.5627
 1039SOL    HW1 4601   2.652   1.589   1.169 -1.0309  0.4331  2.2032
 1039SOL    HW2 4602   2.513   1.531   1.188 -1.0971 -1.0606 -2.3143
 1040SOL     OW 4603   4.997   4.480   2.077 -0.0662  0.2790  0.9035
 1040SOL    HW1 4604   4.990   4.418   2.004 -0.3166  0.0575  1.1151
 1040SOL    HW2 4605   5.083   4.462   2.115 -0.1869 -0.0213  1.0366
 1041SOL     OW 4606   7.750   5.302   5.021 -0.2295  0.1898  0.2494
 1041SOL    HW1 4607   7.704   5.385   5.030 -1.8549 -0.8292  1.5618
 1041SOL    HW2 4608   7.688   5.236   5.052  1.2756 -1.4589 -0.1361
 1042SOL     OW 4609   4.994   2.054   1.824 -0.4612  0.2792 -0.1932
 1042SOL    HW1 4610   5.086   2.032   1.813 -0.7986 -0.6821 -1.2521
 1042SOL    HW2 4611   4.980   2.058   1.918  0.6435  0.3531 -0.0350
 1043SOL     OW 4612   2.994   0.222   4.676  0.2495 -0.0876 -0.1384
 1043SOL    HW1 4613   3.019   0.144   4.725  0.4947 -0.9302 -1.5769
 1043SOL    HW2 4614   3.038   0.294   4.721  0.3815 -0.8310  0.9329
 1044SOL     OW 4615   1.237   0.043   7.155 -0.6226 -0.1816  0.4696
 1044SOL    HW1 4616   1.244   0.039   7.250  0.2333  0.6559  0.4587
 1044SOL    HW2 4617   1.328   0.039   7.124 -0.9126 -0.8335 -0.3318
 1045SOL     OW 4618   8.116   4.091   0.086  0.1850 -0.0995  0.5678
 1045SOL    HW1 4619   8.194   4.046   0.053 -1.0197 -1.8171 -0.0319
 1045SOL    HW2 4620   8.150   4.168   0.132  2.1117  0.4578 -1.6776
 1046SOL     OW 4621   1.648   5.883   2.188 -0.6252 -0.1243 -0.3526
 1046SOL    HW1 4622   1.563   5.844   2.167 -1.1956  1.1369 -0.4684
 1046SOL    HW2 4623   1.674   5.841   2.269 -2.4830  1.1221  0.9513
 1047SOL     OW 4624   7.875   2.984   6.851  0.4673  0.4086 -0.1220
 1047SOL    HW1 4625   7.813   3.036   6.902  1.3284  1.1276  0.2104
 1047SOL    HW2 4626   7.821   2.939   6.786 -0.3523  1.3463 -0.1045
 1048SOL     OW 4627   3.035   3.210   7.186  0.4033  0.6115  0.1421
 1048SOL    HW1 4628   3.078   3.149   7.126 -0.0154  2.4559 -2.0787
 1048SOL    HW2 4629   3.097   3.220   7.258  1.6330 -0.3594 -0.7583
 1049SOL     OW 4630   3.037   5.001   1.820 -0.1491  0.5566  0.2625
 1049SOL    HW1 4631   2.996   4.960   1.743 -0.3897 -0.6274  1.0130
 1049SOL    HW2 4632   3.111   5.050   1.784 -1.1792  1.2948 -0.9069
 1050SOL     OW 4633   4.964   2.295   7.173 -0.0312 -0.0589  0.6033
 1050SOL    HW1 4634   5.049   2.326   7.204  0.6747 -0.6580 -0.6704
 1050SOL    HW2 4635   4.956   2.333   7.085 -1.0873  0.0042  0.7292
 1051SOL     OW 4636   7.907   6.920   8.024  0.6323  0.0238 -0.0393
 1051SOL    HW1 4637   7.990   6.957   8.054  0.1640  1.3176 -0.2957
 1051SOL    HW2 4638   7.894   6.842   8.078  1.5931  0.2862  0.5821
 1052SOL     OW 4639   4.980   7.993   8.006  0.0974 -0.2081 -0.3808
 1052SOL    HW1 4640   4.963   7.996   7.911 -0.0873 -2.1324 -0.4296
 1052SOL    HW2 4641   4.997   8.084   8.030 -1.7854  0.5884 -1.9075
 1053SOL     OW 4642   8.141   4.443   3.297 -0.3801  0.0300  0.1268
 1053SOL    HW1 4643   8.219   4.497   3.312 -0.9281  0.4780  1.5003
 1053SOL    HW2 4644   8.143   4.423   3.204  1.4854 -0.1253  0.1666
 1054SOL     OW 4645   5.303   3.266   6.262 -0.2251 -0.2560  0.0932
 1054SOL    HW1 4646   5.269   3.189   6.308  1.1104 -2.0721 -1.8607
 1054SOL    HW2 4647   5.225   3.311   6.230 -0.9645 -2.2166 -0.9496
 1055SOL     OW 4648   1.348   5.680   5.800  0.1183 -0.5314  0.6366
 1055SOL    HW1 4649   1.411   5.704   5.868 -0.8112  0.0687  1.2990
 1055SOL    HW2 4650   1.366   5.741   5.728 -0.1294  0.0813  1.0837
 1056SOL     OW 4651   6.656   1.604   8.141  0.3592  0.1667 -0.2668
 1056SOL    HW1 4652   6.617   1.520   8.166 -0.7215  0.5067 -0.7652
 1056SOL    HW2 4653   6.715   1.581   8.069 -2.0737  0.1795 -2.3593
 1057SOL     OW 4654   2.265   1.234   1.475  0.2351 -0.4734  0.1215
 1057SOL    HW1 4655   2.246   1.307   1.415 -2.2827 -1.5843 -0.5281
 1057SOL    HW2 4656   2.214   1.255   1.554  1.6431 -0.2087  0.9672
 1058SOL     OW 4657   0.905   4.943   1.894 -0.3481 -0.3262  0.1758
 1058SOL    HW1 4658   0.832   4.964   1.837  0.1617  0.9174 -0.0536
 1058SOL    HW2 4659   0.983   4.956   1.839  0.1409  0.7304  1.0894
 1059SOL     OW 4660   1.991   2.015   5.454 -0.6267  0.0823 -0.5145
 1059SOL    HW1 4661   1.982   1.923   5.477 -1.2014 -0.0324 -1.1753
 1059SOL    HW2 4662   2.052   2.017   5.381 -0.3609  0.2593 -0.2911
 1060SOL     OW 4663   2.932   4.123   7.639 -0.3598 -0.1484 -0.1565
 1060SOL    HW1 4664   2.913   4.205   7.685 -1.6685 -0.8547  0.5811
 1060SOL    HW2 4665   2.848   4.093   7.606  0.2527 -0.7388 -1.2183
 1061SOL     OW 4666   8.017   3.437   6.511  0.5060  0.0837 -0.2824
 1061SOL    HW1 4667   7.992   3.493   6.438  1.3210 -0.6457 -1.1436
 1061SOL    HW2 4668   8.105   3.405   6.487  1.2738  0.7627  1.5521
 1062SOL     OW 4669   1.544   3.501   1.468  0.4767 -0.1052  0.3653
 1062SOL    HW1 4670   1.452   3.515   1.447  0.6300  1.0655  0.4370
 1062SOL    HW2 4671   1.547   3.501   1.564  0.5438 -0.1587  0.3634
 1063SOL     OW 4672   2.648   6.148   4.430 -0.1190  0.1484  0.2432
 1063SOL    HW1 4673   2.656   6.176   4.339 -0.0261  0.7413  0.4333
 1063SOL    HW2 4674   2.633   6.053   4.425  2.1475 -0.2023 -0.3099
 1064SOL     OW 4675   0.701   4.513   3.865  0.1697  0.1256 -0.3667
 1064SOL    HW1 4676   0.758   4.579   3.826  0.3024 -0.9465 -2.0395
 1064SOL    HW2 4677   0.761   4.452   3.908  0.0493  1.0179  1.1330
 1065SOL     OW 4678   5.869   2.924   8.207  0.5834 -0.0157  0.1194
 1065SOL    HW1 4679   5.917   2.952   8.129  0.6950 -2.5371 -0.7517
 1065SOL    HW2 4680   5.827   2.842   8.182 -2.0716  0.7670  1.6886
 1066SOL     OW 4681   8.204   6.301   7.265  0.1954  0.5448  0.5461
 1066SOL    HW1 4682   8.297   6.290   7.283  0.3225  0.6337 -0.0268
 1066SOL    HW2 4683   8.199   6.307   7.169 -0.1712  2.6387  0.6891
 1067SOL     OW 4684   1.097   5.028   1.408 -0.3535 -0.1617 -0.2670
 1067SOL    HW1 4685   1.163   4.959   1.404 -0.5145 -0.3831  0.5780
 1067SOL    HW2 4686   1.028   4.998   1.349 -0.6127 -0.9559  0.4107
 1068SOL     OW 4687   2.341   0.991   1.207 -0.2579  0.1203 -0.2725
 1068SOL    HW1 4688   2.357   0.903   1.172  3.3853  1.6060 -2.6198
 1068SOL    HW2 4689   2.373   0.987   1.297  1.5781 -0.5121 -0.9307
 1069SOL     OW 4690   1.407   2.839   7.054 -0.2449 -0.7065 -0.0138
 1069SOL    HW1 4691   1.458   2.803   6.981 -0.8034 -1.3375 -0.0957
 1069SOL    HW2 4692   1.427   2.781   7.127  0.3982 -0.0095  0.3673
 1070SOL     OW 4693   4.966   6.884   4.081 -0.6719 -0.0846 -0.5736
 1070SOL    HW1 4694   4.974   6.953   4.016 -1.4035  0.9732  0.4298
 1070SOL    HW2 4695   5.055   6.871   4.114 -0.6974  1.1486  0.0016
 1071SOL     OW 4696   5.847   8.093   3.716 -0.7943  0.5623 -0.4824
 1071SOL    HW1 4697   5.850   8.189   3.726  1.6503  0.4646  0.0075
 1071SOL    HW2 4698   5.841   8.060   3.805  2.7742  0.1830 -0.3130
 1072SOL     OW 4699   6.408   7.066   2.266 -0.2664  0.7789 -0.2254
 1072SOL    HW1 4700   6.375   7.140   2.215 -0.6442  0.1884 -0.8536
 1072SOL    HW2 4701   6.376   6.989   2.219 -1.8273  0.2086  1.6719
 1073SOL     OW 4702   6.041   8.252   2.675  0.2521  0.3870 -0.2409
 1073SOL    HW1 4703   6.097   8.282   2.603  2.2793  1.5318  1.7476
 1073SOL    HW2 4704   6.080   8.169   2.703 -1.5322 -0.9069 -1.5355
 1074SOL     OW 4705   6.068   6.092   8.032 -0.6728 -0.2812  0.3442
 1074SOL    HW1 4706   5.973   6.081   8.024 -0.9626  0.8363  1.8704
 1074SOL    HW2 4707   6.081   6.109   8.125  1.0049 -0.1275  0.0856
 1075SOL     OW 4708   6.437   6.076   4.049  0.0110  0.0825  0.2248
 1075SOL    HW1 4709   6.364   6.129   4.081 -0.3911 -0.2867 -0.0583
 1075SOL    HW2 4710   6.510   6.096   4.108  0.9609  3.7049 -2.0568
 1076SOL     OW 4711   5.480   0.720   5.243  0.6962  0.3131 -0.0457
 1076SOL    HW1 4712   5.400   0.677   5.273  1.5207 -0.5222  1.0252
 1076SOL    HW2 4713   5.450   0.797   5.196 -0.7422 -0.0779  0.2055
 1077SOL     OW 4714   2.652   6.613   7.417 -0.1278  0.0192  0.1679
 1077SOL    HW1 4715   2.559   6.621   7.441 -0.1881 -2.9208  1.0187
 1077SOL    HW2 4716   2.651   6.587   7.325 -0.0987  1.0226 -0.1256
 1078SOL     OW 4717   0.242   6.610   5.966  0.5225  0.0836 -0.0858
 1078SOL    HW1 4718   0.210   6.519   5.973  0.2942  0.3231  2.4598
 1078SOL    HW2 4719   0.236   6.644   6.056 -0.1411  2.8765 -1.1501
 1079SOL     OW 4720   7.040   4.805   7.874 -0.3512 -0.3045 -0.4707
 1079SOL    HW1 4721   7.122   4.805   7.825  0.0371 -0.1636  0.1659
 1079SOL    HW2 4722   7.065   4.831   7.963 -1.0133 -0.7464 -0.1451
 1080SOL     OW 4723   3.542   3.687   0.146 -0.0842  0.2338  0.2809
 1080SOL    HW1 4724   3.569   3.641   0.225 -1.4536 -0.0445  0.6054
 1080SOL    HW2 4725   3.623   3.702   0.098  0.4853 -1.6948  0.6028
 1081SOL     OW 4726   6.398   1.620   1.043  0.1075  1.0107  0.0365
 1081SOL    HW1 4727   6.315   1.582   1.017 -0.9662  2.5900  1.0580
 1081SOL    HW2 4728   6.404   1.702   0.994  0.2522  1.7278  1.2266
 1082SOL     OW 4729   6.349   0.939   7.106 -0.3219 -0.0281  0.4640
 1082SOL    HW1 4730   6.302   1.009   7.151 -0.0970  0.8527 -0.6256
 1082SOL    HW2 4731   6.330   0.860   7.156  0.0582  0.9481  2.1794
 1083SOL     OW 4732   0.272   6.374   3.613 -0.2965 -0.1336  0.0393
 1083SOL    HW1 4733   0.232   6.325   3.541 -1.2245 -0.3673  0.7073
 1083SOL    HW2 4734   0.366   6.371   3.594 -0.7237  2.5369 -2.8815
 1084SOL     OW 4735   6.215   6.001   2.509 -0.0983 -0.2119 -0.1751
 1084SOL    HW1 4736   6.157   6.026   2.437  0.3579 -2.3624 -1.3487
 1084SOL    HW2 4737   6.192   6.061   2.580 -1.0315  1.5246 -1.8716
 1085SOL     OW 4738   6.693   6.958   4.649  0.0079  0.3089 -0.3048
 1085SOL    HW1 4739   6.708   7.020   4.721  2.0078 -1.1886  0.6146
 1085SOL    HW2 4740   6.765   6.896   4.655 -2.2921 -2.5161 -0.8161
 1086SOL     OW 4741   3.151   6.488   0.735  0.4650 -0.1861  0.0112
 1086SOL    HW1 4742   3.162   6.582   0.753 -0.7420 -0.2821  1.3179
 1086SOL    HW2 4743   3.142   6.483   0.639  2.4925  0.8104 -0.2587
 1087SOL     OW 4744   0.636   7.489   2.249  0.1636 -0.4610  0.0332
 1087SOL    HW1 4745   0.713   7.451   2.207  1.2469  2.1388 -0.4516
 1087SOL    HW2 4746   0.626   7.575   2.207 -0.8606  0.7127  2.5938
 1088SOL     OW 4747   4.606   0.928   7.986 -0.4934  0.2158  0.1959
 1088SOL    HW1 4748   4.524   0.923   8.036 -0.5279 -0.8766  0.0371
 1088SOL    HW2 4749   4.583   0.892   7.900  0.2342 -0.3653  0.2455
 1089SOL     OW 4750   4.775   4.850   3.709  0.2649 -0.2256 -0.0014
 1089SOL    HW1 4751   4.682   4.850   3.688  0.3483 -0.1377 -0.3893
 1089SOL    HW2 4752   4.799   4.758   3.717 -0.1087 -0.2199  1.2686
 1090SOL     OW 4753   7.014   8.040   2.190  0.1182 -0.3891  0.0156
 1090SOL    HW1 4754   6.981   7.950   2.191  1.5341 -0.9330  0.0579
 1090SOL    HW2 4755   6.936   8.095   2.200 -0.8969 -1.5662 -1.2483
 1091SOL     OW 4756   0.760   6.372   7.688  0.1372  0.0592  0.1896
 1091SOL    HW1 4757   0.709   6.319   7.627  1.1578 -1.7921  0.8975
 1091SOL    HW2 4758   0.848   6.335   7.685  1.4408  3.0298 -0.8101
 1092SOL     OW 4759   8.093   4.475   1.386 -0.2401  0.6033  0.0011
 1092SOL    HW1 4760   8.016   4.484   1.330 -0.1282  0.4251 -0.1824
 1092SOL    HW2 4761   8.086   4.547   1.448 -0.4917  0.6579 -0.0897
 1093SOL     OW 4762   6.113   3.831   1.691 -0.2927 -0.0897 -0.7629
 1093SOL    HW1 4763   6.173   3.757   1.706 -1.1824 -0.0575  3.6586
 1093SOL    HW2 4764   6.026   3.791   1.693 -0.7487  0.9444  1.0994
 1094SOL     OW 4765   3.274   0.630   8.263 -0.1755 -0.6447 -0.5980
 1094SOL    HW1 4766   3.359   0.589   8.249  0.0504 -0.5649  0.5326
 1094SOL    HW2 4767   3.255   0.674   8.180  0.5898 -1.1841 -1.0662
 1095SOL     OW 4768   4.577   3.125   1.065  0.4428 -0.5900 -0.8746
 1095SOL    HW1 4769   4.588   3.073   1.144  2.1484  0.2453 -0.5489
 1095SOL    HW2 4770   4.666   3.150   1.039 -0.1892  0.2856 -2.2822
 1096SOL     OW 4771   5.900   6.342   2.583 -0.3699  0.7701  0.0386
 1096SOL    HW1 4772   5.933   6.427   2.554  2.1796 -0.2405 -0.2015
 1096SOL    HW2 4773   5.854   6.307   2.506  0.1921  1.1346 -0.4712
 1097SOL     OW 4774   4.473   2.782   8.030 -0.3216  0.2850  0.1056
 1097SOL    HW1 4775   4.552   2.732   8.008 -0.2450  0.4799 -0.0599
 1097SOL    HW2 4776   4.466   2.847   7.961 -0.3700  0.5656  0.3748
 1098SOL     OW 4777   0.756   3.245   8.120 -0.1959  0.8384  0.0465
 1098SOL    HW1 4778   0.688   3.243   8.054 -3.0361 -0.7980  2.8775
 1098SOL    HW2 4779   0.822   3.183   8.088 -1.8180 -0.4212 -0.9872
 1099SOL     OW 4780   3.606   3.279   6.853 -0.1238 -0.2489 -0.0467
 1099SOL    HW1 4781   3.621   3.373   6.863 -0.6659 -0.1420 -0.2593
 1099SOL    HW2 4782   3.587   3.268   6.760 -0.5712 -0.5020  0.0744
 1100SOL     OW 4783   1.846   4.230   4.687 -0.2184  0.6349 -0.0458
 1100SOL    HW1 4784   1.753   4.207   4.696 -0.0960 -0.8360 -2.0804
 1100SOL    HW2 4785   1.848   4.294   4.616  0.4768 -0.7992 -1.3704
 1101SOL     OW 4786   0.837   3.636   4.749 -0.4627  0.1623 -0.4606
 1101SOL    HW1 4787   0.773   3.706   4.764 -0.6856  0.1472 -1.3042
 1101SOL    HW2 4788   0.805   3.591   4.670  1.0960  0.7315 -1.4241
 1102SOL     OW 4789   4.594   0.143   3.870  0.3048  0.5415 -0.9027
 1102SOL    HW1 4790   4.570   0.130   3.962 -0.0416 -0.3228 -1.1129
 1102SOL    HW2 4791   4.532   0.090   3.821  1.0256  0.3288 -1.5930
 1103SOL     OW 4792   7.703   0.874   3.413 -0.2629  0.6393 -0.4557
 1103SOL    HW1 4793   7.640   0.804   3.429  0.0624 -0.0237 -2.0232
 1103SOL    HW2 4794   7.655   0.954   3.434 -1.3544  0.0865 -0.7963
 1104SOL     OW 4795   4.920   1.963   4.226  0.1327 -0.0342  0.2591
 1104SOL    HW1 4796   4.965   2.019   4.288 -0.1188 -0.6190  0.9813
 1104SOL    HW2 4797   4.988   1.904   4.192  0.7264  1.7148 -1.6891
 1105SOL     OW 4798   2.232   1.070   0.005  0.0471 -0.6566  0.1156
 1105SOL    HW1 4799   2.313   1.121   0.005 -1.3039  1.5807 -0.4076
 1105SOL    HW2 4800   2.209   1.062   0.098  0.1600 -0.1174  0.1915
 1106SOL     OW 4801   3.160   1.473   5.271 -0.5177 -0.0197 -0.3470
 1106SOL    HW1 4802   3.227   1.435   5.214 -0.5211 -0.8312  0.1762
 1106SOL    HW2 4803   3.081   1.476   5.217 -0.8739 -2.0537  0.0206
 1107SOL     OW 4804   4.339   2.666   7.268 -0.0266  0.0796  0.2795
 1107SOL    HW1 4805   4.386   2.593   7.307 -1.8709 -0.2915  1.8993
 1107SOL    HW2 4806   4.248   2.637   7.265 -0.2631  0.9097 -2.4159
 1108SOL     OW 4807   3.590   1.823   6.004 -0.0771  0.3390  0.2505
 1108SOL    HW1 4808   3.583   1.729   5.993  1.5425  0.0618  1.4269
 1108SOL    HW2 4809   3.683   1.842   5.994 -0.4953  1.9370 -0.8413
 1109SOL     OW 4810   2.980   0.811   1.692  0.6185 -0.4293  0.0428
 1109SOL    HW1 4811   2.985   0.839   1.600 -0.9646 -1.2165 -0.2946
 1109SOL    HW2 4812   3.071   0.803   1.719  1.1167  1.0758 -1.0681
 1110SOL     OW 4813   3.029   0.150   5.576  0.1184  0.6359 -0.6302
 1110SOL    HW1 4814   2.990   0.066   5.549  0.4276 -0.1325  1.2608
 1110SOL    HW2 4815   3.033   0.201   5.495  1.3280 -1.7413 -2.1087
 1111SOL     OW 4816   3.890   0.161   1.457 -0.0169  0.2113 -0.1270
 1111SOL    HW1 4817   3.891   0.185   1.549 -0.6861  1.1450 -0.3470
 1111SOL    HW2 4818   3.982   0.150   1.434  0.1418 -0.1673  0.6851
 1112SOL     OW 4819   1.155   4.269   2.917  0.0881  0.2609 -0.2697
 1112SOL    HW1 4820   1.197   4.206   2.976  0.7460  1.1000  0.1653
 1112SOL    HW2 4821   1.095   4.318   2.973  0.5010  0.8648 -0.3528
 1113SOL     OW 4822   3.123   3.525   4.579 -0.4612 -0.4240  0.4821
 1113SOL    HW1 4823   3.146   3.529   4.486  0.6069 -0.8455  0.7174
 1113SOL    HW2 4824   3.185   3.462   4.616  0.8071  1.6041  1.9349
 1114SOL     OW 4825   1.214   7.185   6.506 -0.4039  0.0813  0.3690
 1114SOL    HW1 4826   1.255   7.271   6.495 -0.3539  0.0816  0.5521
 1114SOL    HW2 4827   1.190   7.182   6.599  1.8920 -1.1485  0.9455
 1115SOL     OW 4828   0.210   1.573   5.804 -0.4033  0.0034  0.3961
 1115SOL    HW1 4829   0.290   1.613   5.839  1.9292 -1.2016 -3.2914
 1115SOL    HW2 4830   0.187   1.627   5.729 -1.2950 -1.3960 -0.3613
 1116SOL     OW 4831   5.760   0.039   6.710  0.6277 -0.3448  0.3716
 1116SOL    HW1 4832   5.715   0.049   6.626 -1.5209 -0.6995  1.4509
 1116SOL    HW2 4833   5.851   0.023   6.686  0.2991  0.9116 -1.8571
 1117SOL     OW 4834   3.746   7.878   5.058 -0.1982  0.3303  0.7907
 1117SOL    HW1 4835   3.755   7.930   5.138  1.0019  0.4401  0.5956
 1117SOL    HW2 4836   3.836   7.857   5.033 -0.5656  0.2223 -0.4848
 1118SOL     OW 4837   3.178   1.297   1.692  0.3900 -0.0106  0.0670
 1118SOL    HW1 4838   3.241   1.293   1.765 -0.1512 -1.6757  0.4500
 1118SOL    HW2 4839   3.102   1.342   1.729 -1.1013 -3.5677  1.4823
 1119SOL     OW 4840   4.882   1.322   5.447  1.0831  0.0004  0.1141
 1119SOL    HW1 4841   4.903   1.394   5.387 -1.0894  0.7296  0.1777
 1119SOL    HW2 4842   4.878   1.363   5.533 -2.1508  0.2384 -0.1085
 1120SOL     OW 4843   4.022   2.012   3.342  0.1312 -0.4624 -0.1415
 1120SOL    HW1 4844   4.031   1.925   3.381 -1.9785 -0.8800 -0.5041
 1120SOL    HW2 4845   3.992   1.996   3.253  1.2501  0.6072 -0.7237
 1121SOL     OW 4846   2.188   8.276   3.600  0.1978  0.0780 -0.1315
 1121SOL    HW1 4847   2.110   8.257   3.548 -0.6284  0.2369  1.0440
 1121SOL    HW2 4848   2.244   8.326   3.541  0.0603 -1.3001 -1.4777
 1122SOL     OW 4849   6.968   5.569   5.739  0.0733  0.1857 -0.1736
 1122SOL    HW1 4850   6.897   5.579   5.802  0.9476 -3.7055  1.5785
 1122SOL    HW2 4851   7.044   5.611   5.780 -0.0515  0.1583  0.0813
 1123SOL     OW 4852   8.034   6.067   3.676 -0.6385  0.5927  0.6800
 1123SOL    HW1 4853   8.057   6.143   3.729 -2.4447  1.0779  0.8274
 1123SOL    HW2 4854   7.992   6.007   3.739  2.8713 -1.5760  1.0660
 1124SOL     OW 4855   7.116   2.706   1.428  0.8623  0.2395 -0.3262
 1124SOL    HW1 4856   7.021   2.710   1.421  0.8807  1.6308  0.1226
 1124SOL    HW2 4857   7.146   2.697   1.337  0.4123  2.7198 -0.7578
 1125SOL     OW 4858   1.745   4.056   3.696 -0.0320 -0.4809 -0.0790
 1125SOL    HW1 4859   1.722   3.971   3.734  1.7034 -1.0083 -0.1670
 1125SOL    HW2 4860   1.841   4.055   3.690 -0.0009  1.3677 -0.3480
 1126SOL     OW 4861   4.861   1.599   5.970 -0.2000  0.2088  0.3288
 1126SOL    HW1 4862   4.779   1.582   5.924  1.1002 -1.4519 -1.4584
 1126SOL    HW2 4863   4.893   1.681   5.933  1.4160 -1.6805 -2.7518
 1127SOL     OW 4864   7.597   4.494   2.190 -0.0623  0.6200 -0.8360
 1127SOL    HW1 4865   7.603   4.589   2.181 -1.4586  0.9610  1.4916
 1127SOL    HW2 4866   7.684   4.467   2.219 -1.0623  1.8822  3.7205
 1128SOL     OW 4867   0.142   3.256   1.013  0.2645  0.2302  0.0974
 1128SOL    HW1 4868   0.188   3.340   1.020  1.2336 -0.2760 -0.1738
 1128SOL    HW2 4869   0.198   3.203   0.956 -1.5898  0.2404 -1.7798
 1129SOL     OW 4870   7.393   8.060   6.759 -0.7843 -0.4155  0.3285
 1129SOL    HW1 4871   7.301   8.074   6.782 -0.6421  0.2490  0.4953
 1129SOL    HW2 4872   7.391   7.991   6.693 -1.2256 -2.1688  2.1207
 1130SOL     OW 4873   4.418   2.199   2.341 -0.4632  0.8845  0.0841
 1130SOL    HW1 4874   4.465   2.208   2.424  0.1094 -1.4924  0.0576
 1130SOL    HW2 4875   4.468   2.252   2.279  0.8784  0.2426  0.5865
 1131SOL     OW 4876   4.321   5.932   6.031  0.1498  0.0459  0.4910
 1131SOL    HW1 4877   4.268   5.882   6.092  0.9180 -0.3063  0.8791
 1131SOL    HW2 4878   4.258   5.977   5.975 -0.5491 -0.8777  0.5275
 1132SOL     OW 4879   5.550   7.979   1.408 -0.1888  0.5910 -0.4988
 1132SOL    HW1 4880   5.487   8.012   1.343 -0.8447  1.4368  0.5538
 1132SOL    HW2 4881   5.513   7.896   1.438  0.2361  0.0794 -1.3807
 1133SOL     OW 4882   5.650   2.554   1.350 -0.0158  0.1785  0.3207
 1133SOL    HW1 4883   5.704   2.600   1.285  3.1440 -1.1790  1.8810
 1133SOL    HW2 4884   5.597   2.622   1.390  0.1621  1.4907 -1.6036
 1134SOL     OW 4885   5.609   2.121   1.754  0.3599  0.4615 -0.2436
 1134SOL    HW1 4886   5.636   2.210   1.778  1.6812 -0.0593  0.2473
 1134SOL    HW2 4887   5.635   2.067   1.829 -0.5234 -0.3196 -0.4990
 1135SOL     OW 4888   3.940   0.092   5.331  0.0127  0.0588 -0.0766
 1135SOL    HW1 4889   3.915   0.149   5.404  0.5321  1.9056 -1.2886
 1135SOL    HW2 4890   3.864   0.036   5.317  0.6298 -1.7158  3.1568
 1136SOL     OW 4891   1.588   4.609   6.739 -0.7885 -0.4597 -0.5839
 1136SOL    HW1 4892   1.542   4.687   6.707 -0.5581  0.4175  1.1974
 1136SOL    HW2 4893   1.653   4.590   6.671 -0.6413  1.0770 -0.8894
 1137SOL     OW 4894   2.600   8.024   3.753 -0.2505 -0.3742 -0.0989
 1137SOL    HW1 4895   2.516   7.987   3.779 -0.4980  0.5372  0.4354
 1137SOL    HW2 4896   2.607   8.006   3.660 -0.1448 -2.1778  0.2427
 1138SOL     OW 4897   3.899   1.410   0.998  0.4197  0.5140 -0.7315
 1138SOL    HW1 4898   3.904   1.365   0.914  2.6009 -0.3944 -0.1289
 1138SOL    HW2 4899   3.988   1.438   1.017  0.1904 -0.2797  1.8171
 1139SOL     OW 4900   8.033   4.810   2.332 -0.1393 -0.1054 -0.0545
 1139SOL    HW1 4901   8.066   4.746   2.269  0.6764  1.2363 -1.0227
 1139SOL    HW2 4902   8.099   4.813   2.401  1.7948  2.4583 -1.9108
 1140SOL     OW 4903   1.942   3.379   7.708 -0.3017 -0.3088  0.0566
 1140SOL    HW1 4904   1.961   3.469   7.683 -1.2708 -0.3340 -0.8472
 1140SOL    HW2 4905   1.914   3.337   7.626  0.4445 -1.5072  0.4094
 1141SOL     OW 4906   5.110   5.540   6.100  0.5763  0.5632 -0.4485
 1141SOL    HW1 4907   5.204   5.545   6.084  0.2928 -0.5404 -2.6761
 1141SOL    HW2 4908   5.099   5.464   6.157  0.9516  0.1471 -0.9298
 1142SOL     OW 4909   5.297   4.261   1.015 -0.0996 -0.5720  0.3873
 1142SOL    HW1 4910   5.266   4.186   0.965  2.2536 -0.7561 -0.8582
 1142SOL    HW2 4911   5.341   4.317   0.951 -1.1829  1.5263  1.4294
 1143SOL     OW 4912   0.531   6.413   2.878 -0.0135  0.1291  0.0417
 1143SOL    HW1 4913   0.519   6.487   2.819 -0.3112  0.8968  1.0550
 1143SOL    HW2 4914   0.567   6.452   2.958 -0.5460 -0.7643  0.7219
 1144SOL     OW 4915   3.054   7.643   6.808 -0.0138  0.0260  0.2863
 1144SOL    HW1 4916   3.116   7.691   6.752 -2.1972 -0.1564 -2.4344
 1144SOL    HW2 4917   2.974   7.696   6.804 -0.4698 -0.4717  2.5880
 1145SOL     OW 4918   1.266   6.367   3.404 -0.4895  0.0574  0.2473
 1145SOL    HW1 4919   1.308   6.450   3.427 -2.1944  1.3010 -1.0284
 1145SOL    HW2 4920   1.211   6.347   3.480  0.2733 -0.1672  0.7538
 1146SOL     OW 4921   0.042   7.560   5.904  0.2768 -0.0668  0.2320
 1146SOL    HW1 4922   0.030   7.653   5.921 -2.8795 -0.1988 -0.9957
 1146SOL    HW2 4923   0.078   7.555   5.816 -0.5400 -0.0608 -0.0985
 1147SOL     OW 4924   5.230   4.793   6.554  0.5121 -0.5745  0.4121
 1147SOL    HW1 4925   5.175   4.724   6.592  1.7395 -1.2773  0.9432
 1147SOL    HW2 4926   5.178   4.873   6.564 -1.8377 -1.6984 -2.1323
 1148SOL     OW 4927   3.340   4.160   7.081  0.2286  0.1833 -0.6501
 1148SOL    HW1 4928   3.429   4.166   7.117 -0.5292  0.8298  1.1713
 1148SOL    HW2 4929   3.323   4.066   7.074  1.1537  0.0509 -1.2898
 1149SOL     OW 4930   1.347   4.008   0.139  0.3234  0.3129 -0.2042
 1149SOL    HW1 4931   1.284   3.938   0.157  0.2980  0.4320  0.1733
 1149SOL    HW2 4932   1.357   4.053   0.223 -0.0637  1.0936 -0.5738
 1150SOL     OW 4933   3.580   2.737   2.930  0.5062 -0.1517  0.5944
 1150SOL    HW1 4934   3.493   2.739   2.970  0.6755  0.5744  0.9439
 1150SOL    HW2 4935   3.621   2.820   2.957  0.8598  0.0608 -0.5437
 1151SOL     OW 4936   5.337   6.731   1.323  0.2546  0.3920  0.1440
 1151SOL    HW1 4937   5.264   6.744   1.383  0.2000  2.1641 -0.2786
 1151SOL    HW2 4938   5.388   6.812   1.329  0.7711  0.2104 -1.5008
 1152SOL     OW 4939   0.048   7.165   5.425 -0.8885  0.5486  0.3194
 1152SOL    HW1 4940   0.127   7.217   5.408  1.0019 -1.9463  1.2102
 1152SOL    HW2 4941   0.033   7.116   5.344 -1.4084  0.8630  0.2228
 1153SOL     OW 4942   4.249   4.706   6.653 -0.5650 -0.2318 -0.1947
 1153SOL    HW1 4943   4.321   4.767   6.636  0.0419 -0.9271 -0.1312
 1153SOL    HW2 4944   4.223   4.725   6.743 -2.5593  2.1815 -1.2233
 1154SOL     OW 4945   6.454   5.613   3.456  0.1634  0.3695  0.7180
 1154SOL    HW1 4946   6.362   5.617   3.432  0.6407 -0.0566 -1.2652
 1154SOL    HW2 4947   6.501   5.639   3.376  1.7491  1.0564  1.8384
 1155SOL     OW 4948   3.851   2.394   1.233 -0.2700 -0.5047  0.2354
 1155SOL    HW1 4949   3.835   2.484   1.260 -0.3651 -0.2818 -0.5507
 1155SOL    HW2 4950   3.788   2.377   1.163 -0.1443 -1.1253  0.2631
 1156SOL     OW 4951   6.004   3.126   1.347 -0.0959 -0.0973  0.0956
 1156SOL    HW1 4952   5.985   3.075   1.268 -2.4101  0.9514 -0.0577
 1156SOL    HW2 4953   6.058   3.198   1.315 -0.6398  0.0708 -0.4650
 1157SOL     OW 4954   6.652   2.857   0.761  0.0647 -0.2692  0.4877
 1157SOL    HW1 4955   6.600   2.778   0.779 -0.3245 -0.0916  0.1470
 1157SOL    HW2 4956   6.722   2.826   0.702 -0.7868 -0.1254 -0.6101
 1158SOL     OW 4957   1.859   1.253   1.445  0.0312  0.2172 -0.1216
 1158SOL    HW1 4958   1.850   1.235   1.351 -1.3535  0.3291 -0.0195
 1158SOL    HW2 4959   1.895   1.342   1.449 -0.5007  0.4534 -0.5442
 1159SOL     OW 4960   1.463   7.443   8.124 -0.3844 -0.5673  0.3777
 1159SOL    HW1 4961   1.499   7.424   8.038  0.9258  2.5004  0.2038
 1159SOL    HW2 4962   1.370   7.460   8.108 -0.6726 -2.4364 -0.0423
 1160SOL     OW 4963   7.958   0.432   1.549 -0.1353 -0.1986  0.5511
 1160SOL    HW1 4964   7.902   0.502   1.516 -0.4152 -0.5073  0.3593
 1160SOL    HW2 4965   7.911   0.352   1.526  0.8822 -0.4993 -0.5150
 1161SOL     OW 4966   1.644   2.584   7.112 -0.3296  0.1791 -0.1139
 1161SOL    HW1 4967   1.556   2.553   7.092 -0.3199  1.5290 -2.4857
 1161SOL    HW2 4968   1.691   2.505   7.141 -1.8736 -0.8545 -0.3666
 1162SOL     OW 4969   6.122   2.499   7.315  0.4341  0.4371 -0.3508
 1162SOL    HW1 4970   6.061   2.516   7.243  0.5164 -0.2064 -0.5756
 1162SOL    HW2 4971   6.075   2.527   7.393 -0.5382 -0.9812 -0.4195
 1163SOL     OW 4972   3.463   6.315   3.628  0.0865 -0.5820  0.0789
 1163SOL    HW1 4973   3.449   6.345   3.717 -0.5169  0.4633 -0.3604
 1163SOL    HW2 4974   3.379   6.279   3.601 -0.0164  0.0078 -0.4018
 1164SOL     OW 4975   2.746   2.047   6.845 -0.0344 -0.3889 -0.4157
 1164SOL    HW1 4976   2.770   1.990   6.772  0.1995 -0.1702 -0.5107
 1164SOL    HW2 4977   2.825   2.099   6.862  0.8894 -2.4415  1.8835
 1165SOL     OW 4978   1.081   1.264   1.520 -0.3223 -0.1302  0.7042
 1165SOL    HW1 4979   0.986   1.262   1.509 -0.2243 -0.4008 -0.1706
 1165SOL    HW2 4980   1.110   1.330   1.456  0.1854 -0.9468  0.0852
 1166SOL     OW 4981   2.676   0.194   3.781  0.7058  0.0181  0.3195
 1166SOL    HW1 4982   2.619   0.122   3.808  1.5652 -1.1556 -0.9681
 1166SOL    HW2 4983   2.631   0.234   3.706  0.6378  0.2980  0.5082
 1167SOL     OW 4984   3.338   3.671   3.396  0.4386 -1.1133  0.2741
 1167SOL    HW1 4985   3.426   3.706   3.384  0.4920 -1.2935  0.1281
 1167SOL    HW2 4986   3.349   3.600   3.459  0.4027 -1.1535  0.2350
 1168SOL     OW 4987   0.665   6.175   7.489 -0.0523 -0.0205  0.3365
 1168SOL    HW1 4988   0.644   6.110   7.557 -0.3535 -0.6038 -0.3106
 1168SOL    HW2 4989   0.643   6.131   7.407  0.7574  0.5223 -0.1679
 1169SOL     OW 4990   1.641   1.140   2.792 -0.0972 -0.0373 -0.1110
 1169SOL    HW1 4991   1.693   1.144   2.872  1.0825 -0.0419 -0.8651
 1169SOL    HW2 4992   1.594   1.057   2.798  2.3096 -1.4961 -0.8275
 1170SOL     OW 4993   5.414   5.283   4.445  0.1813  0.1161 -0.2806
 1170SOL    HW1 4994   5.509   5.273   4.449  0.3637  2.1454  0.8036
 1170SOL    HW2 4995   5.395   5.295   4.352  1.1090  0.9953 -0.3616
 1171SOL     OW 4996   5.263   1.404   7.356 -0.0358  0.4193 -0.2780
 1171SOL    HW1 4997   5.183   1.437   7.315 -2.1604  0.2264  3.5076
 1171SOL    HW2 4998   5.255   1.309   7.352 -1.2769  0.3939  2.4175
 1172SOL     OW 4999   4.527   6.160   5.308  0.0691 -0.4134  0.6055
 1172SOL    HW1 5000   4.459   6.163   5.376  0.1383 -0.9465  0.6989
 1172SOL    HW2 5001   4.598   6.214   5.344  0.2855 -1.0583  1.1593
 1173SOL     OW 5002   3.015   2.268   3.311  0.2913  0.5638 -0.4015
 1173SOL    HW1 5003   2.938   2.324   3.317  0.6711  1.0875 -0.3453
 1173SOL    HW2 5004   3.080   2.311   3.368  0.0182 -0.8601  1.0287
 1174SOL     OW 5005   1.511   5.212   6.101  0.3149 -0.9171  0.3479
 1174SOL    HW1 5006   1.492   5.272   6.173 -0.2941  0.5465 -0.9835
 1174SOL    HW2 5007   1.559   5.140   6.141  2.3271  1.1543  1.7645
 1175SOL     OW 5008   0.088   6.747   5.797  0.6015  0.1915 -0.0852
 1175SOL    HW1 5009  -0.000   6.720   5.824  0.4945  0.8296  0.2030
 1175SOL    HW2 5010   0.146   6.705   5.861  0.4228  0.7983  0.4762
 1176SOL     OW 5011   4.433   6.249   2.277  0.5372  0.0564 -0.6246
 1176SOL    HW1 5012   4.391   6.188   2.338  0.9993  1.6515  1.3492
 1176SOL    HW2 5013   4.360   6.289   2.229  0.0116  0.1993  0.2687
 1177SOL     OW 5014   8.235   8.005   4.289 -0.4456  0.2955  0.4044
 1177SOL    HW1 5015   8.164   7.944   4.308 -1.1995  0.7064 -1.0216
 1177SOL    HW2 5016   8.194   8.076   4.240  0.7741  0.9962  0.3633
 1178SOL     OW 5017   4.662   5.981   4.437  0.3185 -0.1847  0.0121
 1178SOL    HW1 5018   4.709   5.904   4.469  0.2616  0.2924  1.2934
 1178SOL    HW2 5019   4.577   5.976   4.481 -1.0064 -1.2523 -2.5882
 1179SOL     OW 5020   4.049   2.682   1.917  0.0226  0.3011  0.6510
 1179SOL    HW1 5021   4.007   2.666   1.832 -1.5808  1.4311  1.2004
 1179SOL    HW2 5022   4.031   2.603   1.968  0.0296  0.0796  0.3128
 1180SOL     OW 5023   0.234   5.460   7.102 -0.1817 -0.6151  0.3331
 1180SOL    HW1 5024   0.145   5.429   7.083 -0.5396 -0.4256  1.6930
 1180SOL    HW2 5025   0.268   5.400   7.168  1.3318 -1.6866 -1.3729
 1181SOL     OW 5026   5.865   6.655   0.904  0.0465 -0.0410  0.5864
 1181SOL    HW1 5027   5.775   6.687   0.900  0.4302  0.9463 -0.8177
 1181SOL    HW2 5028   5.891   6.666   0.995  0.1116  3.6321  0.1890
 1182SOL     OW 5029   3.310   7.321   3.965 -0.1184  0.0108 -0.0013
 1182SOL    HW1 5030   3.357   7.275   3.896 -1.6710 -0.3264 -0.8633
 1182SOL    HW2 5031   3.335   7.275   4.045  1.3758  0.1456 -0.3778
 1183SOL     OW 5032   3.344   7.804   4.817 -0.4492 -0.5394 -0.4604
 1183SOL    HW1 5033   3.343   7.834   4.726 -0.2100  0.3288 -0.1792
 1183SOL    HW2 5034   3.254   7.776   4.834 -0.5226 -0.5977 -0.9285
 1184SOL     OW 5035   2.847   1.366   3.737 -0.2175 -0.4429  0.1523
 1184SOL    HW1 5036   2.921   1.407   3.693  0.0590  1.5489  2.3646
 1184SOL    HW2 5037   2.886   1.308   3.801 -0.4547  2.2141  2.8093
 1185SOL     OW 5038   0.221   8.238   4.106  0.9440  0.0587  0.1507
 1185SOL    HW1 5039   0.222   8.144   4.128 -1.7075 -0.2255 -0.7736
 1185SOL    HW2 5040   0.205   8.240   4.012 -3.3664  1.4277  0.8067
 1186SOL     OW 5041   2.761   5.967   1.289  0.1795  0.1830  0.0539
 1186SOL    HW1 5042   2.704   5.893   1.311 -0.0612  0.3773  0.0869
 1186SOL    HW2 5043   2.704   6.044   1.294 -0.0653  0.1582 -1.9523
 1187SOL     OW 5044   0.467   7.808   3.138 -0.4571  0.3850  0.3072
 1187SOL    HW1 5045   0.461   7.744   3.209  0.4570  0.9781  0.9336
 1187SOL    HW2 5046   0.377   7.830   3.117 -0.7009  1.0415  2.0439
 1188SOL     OW 5047   7.748   8.145   2.107  0.8784  0.2937 -0.0123
 1188SOL    HW1 5048   7.686   8.170   2.175 -0.0953 -0.8047 -0.4776
 1188SOL    HW2 5049   7.712   8.183   2.026  0.4564 -0.8967 -0.3886
 1189SOL     OW 5050   5.402   4.840   4.032 -0.0191  0.1748 -0.0778
 1189SOL    HW1 5051   5.323   4.803   3.993 -0.3274  0.4156  0.3196
 1189SOL    HW2 5052   5.468   4.771   4.023 -0.3518 -0.1355 -0.1380
 1190SOL     OW 5053   2.879   0.782   2.541  0.0396  0.1521  0.2078
 1190SOL    HW1 5054   2.947   0.849   2.553  0.0482  0.4063 -1.1514
 1190SOL    HW2 5055   2.805   0.814   2.593  1.2135 -0.5293  2.3458
 1191SOL     OW 5056   7.832   1.250   1.112  0.3388  0.0011 -0.1654
 1191SOL    HW1 5057   7.926   1.266   1.109  0.1640  1.0116 -0.4825
 1191SOL    HW2 5058   7.824   1.158   1.137  1.4171 -0.2942 -0.8708
 1192SOL     OW 5059   3.279   6.335   2.050 -0.2088 -0.0434  0.3232
 1192SOL    HW1 5060   3.266   6.430   2.056 -0.1815  0.0726 -1.3001
 1192SOL    HW2 5061   3.206   6.304   1.995 -0.6175 -1.0623  1.4126
 1193SOL     OW 5062   7.251   0.365   4.298 -0.4982 -0.4559 -0.3112
 1193SOL    HW1 5063   7.189   0.337   4.231 -0.0525 -1.2999 -0.3894
 1193SOL    HW2 5064   7.305   0.431   4.255 -0.5846 -0.5791 -0.6123
 1194SOL     OW 5065   1.860   8.211   7.886 -0.0855 -0.2752 -0.0169
 1194SOL    HW1 5066   1.946   8.175   7.866  0.3862  1.6650 -1.5644
 1194SOL    HW2 5067   1.805   8.133   7.900  1.7027 -1.5349  0.2509
 1195SOL     OW 5068   0.582   7.027   4.589  0.1935  0.1765 -0.1771
 1195SOL    HW1 5069   0.632   6.973   4.650 -0.8209  1.2778  1.6728
 1195SOL    HW2 5070   0.496   6.984   4.586 -0.0460  0.6534 -0.1048
 1196SOL     OW 5071   6.552   5.620   0.855 -0.5327 -0.1451 -0.1335
 1196SOL    HW1 5072   6.568   5.649   0.764 -1.2075 -0.3802 -0.3287
 1196SOL    HW2 5073   6.506   5.537   0.846 -0.3755 -0.2915  0.4279
 1197SOL     OW 5074   0.603   1.271   5.332 -0.2098  0.3614 -0.2624
 1197SOL    HW1 5075   0.669   1.301   5.268 -1.4926  2.0400 -0.8117
 1197SOL    HW2 5076   0.655   1.237   5.405  1.2817  1.3528 -0.8340
 1198SOL     OW 5077   4.396   3.731   6.343  0.1584  0.4058 -0.5334
 1198SOL    HW1 5078   4.432   3.644   6.326 -0.3993 -0.4664  2.3344
 1198SOL    HW2 5079   4.468   3.778   6.385 -0.4999  0.2445  0.8113
 1199SOL     OW 5080   1.464   0.691   4.361 -0.4762 -0.3389  0.3121
 1199SOL    HW1 5081   1.441   0.784   4.370  0.5237 -0.3516  3.5880
 1199SOL    HW2 5082   1.386   0.651   4.322 -0.8467  1.8766 -1.3430
 1200SOL     OW 5083   7.594   0.471   7.337  0.2673  0.4770  0.4096
 1200SOL    HW1 5084   7.507   0.505   7.314  2.3261  3.6935 -3.0855
 1200SOL    HW2 5085   7.607   0.397   7.278 -0.1133 -0.0997  1.0368
 1201SOL     OW 5086   7.588   5.837   5.335 -0.1423 -0.5707 -0.5507
 1201SOL    HW1 5087   7.566   5.752   5.374 -0.9841 -0.7285 -1.3659
 1201SOL    HW2 5088   7.509   5.863   5.288  0.1143  0.6635 -0.3136
 1202SOL     OW 5089   4.540   4.615   3.950  0.3923  0.5382  0.7268
 1202SOL    HW1 5090   4.517   4.680   4.015 -2.8525 -1.2521  1.4692
 1202SOL    HW2 5091   4.492   4.640   3.871 -0.1889 -0.4497  0.7539
 1203SOL     OW 5092   7.258   4.738   7.685  0.1131 -0.3437  0.1195
 1203SOL    HW1 5093   7.292   4.775   7.604 -1.1218 -1.9949 -1.1848
 1203SOL    HW2 5094   7.333   4.733   7.744  1.1605  0.1797 -1.1774
 1204SOL     OW 5095   1.966   6.752   6.267  0.5414  0.1752  0.2546
 1204SOL    HW1 5096   2.037   6.692   6.289  1.3725  1.1865  0.4092
 1204SOL    HW2 5097   1.886   6.706   6.292  1.1796 -0.7329  0.6423
 1205SOL     OW 5098   5.640   6.287   5.914 -0.4042 -0.4213  0.4281
 1205SOL    HW1 5099   5.710   6.223   5.924 -0.7212 -0.9101 -0.4002
 1205SOL    HW2 5100   5.613   6.309   6.004  0.2727 -0.8125  0.7259
 1206SOL     OW 5101   6.599   2.590   3.340 -0.2756  0.4219  1.0315
 1206SOL    HW1 5102   6.692   2.573   3.346 -0.3413 -0.2283  0.2793
 1206SOL    HW2 5103   6.563   2.512   3.297 -1.2510  0.3811  1.9024
 1207SOL     OW 5104   7.296   2.388   3.595  0.0998  0.5872 -0.1835
 1207SOL    HW1 5105   7.337   2.301   3.590 -0.5290  0.1549  1.6921
 1207SOL    HW2 5106   7.209   2.371   3.631 -0.0720  1.9820  0.0661
 1208SOL     OW 5107   1.272   5.793   2.020 -1.3961  0.3087  0.5422
 1208SOL    HW1 5108   1.343   5.784   2.082  1.2541  1.0643 -2.2526
 1208SOL    HW2 5109   1.213   5.858   2.059 -0.7029 -0.4798  2.9716
 1209SOL     OW 5110   5.189   5.438   1.061  0.1180  0.5022  0.5684
 1209SOL    HW1 5111   5.213   5.395   0.979  0.8651  0.6792  0.6891
 1209SOL    HW2 5112   5.128   5.376   1.103  0.8914 -0.2712  0.5673
 1210SOL     OW 5113   2.654   1.653   2.420 -0.2088  0.3256 -0.3953
 1210SOL    HW1 5114   2.628   1.668   2.329 -2.5355 -0.0647  0.1676
 1210SOL    HW2 5115   2.583   1.691   2.472 -0.4303 -2.1559  1.2177
 1211SOL     OW 5116   5.391   1.491   2.566  0.7354 -0.3196  0.3698
 1211SOL    HW1 5117   5.451   1.550   2.522 -3.1758  2.7561 -1.0596
 1211SOL    HW2 5118   5.364   1.428   2.499 -1.7342  1.6148 -0.5137
 1212SOL     OW 5119   2.951   2.060   1.536  0.0849  0.5768 -0.4929
 1212SOL    HW1 5120   2.877   2.014   1.497  0.7864 -0.6037 -0.4696
 1212SOL    HW2 5121   2.950   2.034   1.628  0.5597  0.5192 -0.5048
 1213SOL     OW 5122   2.116   8.143   1.441 -0.7680 -0.1626 -0.1971
 1213SOL    HW1 5123   2.043   8.095   1.402 -2.1809  0.3889  1.7065
 1213SOL    HW2 5124   2.171   8.074   1.479 -1.3320 -0.4466  0.1080
 1214SOL     OW 5125   0.981   5.081   4.352 -0.0256  0.7386  0.0676
 1214SOL    HW1 5126   0.960   5.016   4.285  1.6676  1.4787 -1.2213
 1214SOL    HW2 5127   0.982   5.032   4.434 -2.7194 -0.0785 -0.3215
 1215SOL     OW 5128   1.265   6.670   1.055 -0.4937 -0.1382  0.5134
 1215SOL    HW1 5129   1.354   6.694   1.082 -1.3224  0.5967  2.7323
 1215SOL    HW2 5130   1.271   6.578   1.030  1.3208  0.4804 -1.3870
 1216SOL     OW 5131   0.215   3.030   2.486  0.2532  0.3944 -0.0470
 1216SOL    HW1 5132   0.160   3.021   2.564  0.8457 -0.1880  0.3098
 1216SOL    HW2 5133   0.303   3.010   2.517  0.6058  0.8987 -0.7088
 1217SOL     OW 5134   2.617   2.146   3.370  0.5367 -0.4175 -0.6707
 1217SOL    HW1 5135   2.661   2.226   3.340  0.2428 -0.6245 -1.6654
 1217SOL    HW2 5136   2.650   2.078   3.311 -0.8267 -0.6432 -1.1738
 1218SOL     OW 5137   0.856   7.812   3.522 -0.1366  0.4745  0.1700
 1218SOL    HW1 5138   0.899   7.759   3.590  1.9112 -0.9509 -2.1490
 1218SOL    HW2 5139   0.903   7.895   3.523  1.0003 -0.1502 -0.6136
 1219SOL     OW 5140   5.012   3.860   1.958 -0.0505  0.1729  0.1379
 1219SOL    HW1 5141   4.984   3.875   1.867  3.0476 -1.0177 -1.1042
 1219SOL    HW2 5142   4.953   3.913   2.011 -2.4524  0.2689 -2.5136
 1220SOL     OW 5143   0.006   2.572   7.733  0.3214 -0.2009  0.4108
 1220SOL    HW1 5144   0.072   2.543   7.669 -0.1246 -0.6633  0.1560
 1220SOL    HW2 5145  -0.073   2.526   7.708  0.5769 -1.7709  2.3950
 1221SOL     OW 5146   2.068   5.555   5.504  0.2154  0.4382 -0.4423
 1221SOL    HW1 5147   2.080   5.581   5.412  0.0422  0.2337 -0.5253
 1221SOL    HW2 5148   2.024   5.470   5.498  1.7581 -0.3933 -0.1911
 1222SOL     OW 5149   2.375   3.903   6.428 -0.1087 -0.4176 -0.2849
 1222SOL    HW1 5150   2.449   3.844   6.416 -0.4155 -0.7867 -0.3585
 1222SOL    HW2 5151   2.408   3.989   6.402  0.1358 -0.6728 -0.8188
 1223SOL     OW 5152   4.220   1.563   6.657 -0.5935  0.4146  0.3344
 1223SOL    HW1 5153   4.160   1.497   6.692  0.5436  0.1339  1.8096
 1223SOL    HW2 5154   4.304   1.518   6.654 -0.4054  0.8822 -1.4919
 1224SOL     OW 5155   1.794   0.538   2.138 -0.1463  0.1902  0.0523
 1224SOL    HW1 5156   1.782   0.525   2.232  2.3906 -1.3816  0.2119
 1224SOL    HW2 5157   1.839   0.622   2.130  0.2321  0.0089  0.2902
 1225SOL     OW 5158   7.901   0.421   0.174  0.5932 -0.2407  0.3741
 1225SOL    HW1 5159   7.907   0.489   0.241 -0.5762 -0.5164  0.7695
 1225SOL    HW2 5160   7.809   0.420   0.148  1.2604  0.7413 -2.1882
 1226SOL     OW 5161   5.535   4.725   5.238  0.2851 -0.8701  0.8246
 1226SOL    HW1 5162   5.483   4.674   5.176  1.1574 -0.2641 -0.4219
 1226SOL    HW2 5163   5.585   4.786   5.183 -0.6059  1.2072  2.2590
 1227SOL     OW 5164   0.204   3.477   1.694  0.0000  0.1020 -0.0646
 1227SOL    HW1 5165   0.253   3.396   1.712  0.1379  0.5191  1.4756
 1227SOL    HW2 5166   0.254   3.519   1.624  1.7097  0.3540  1.2542
 1228SOL     OW 5167   2.286   6.922   4.579  0.3285 -0.1205  0.1511
 1228SOL    HW1 5168   2.335   6.886   4.505 -0.3636  0.3586 -0.5460
 1228SOL    HW2 5169   2.321   6.876   4.656  0.6511 -1.0212 -0.5291
 1229SOL     OW 5170   6.638   8.130   4.051 -0.1256 -0.5809 -0.1612
 1229SOL    HW1 5171   6.569   8.118   3.985 -1.0185  1.3772  0.4006
 1229SOL    HW2 5172   6.626   8.056   4.111 -2.8345  0.6416  0.8716
 1230SOL     OW 5173   6.952   3.525   6.781 -0.0022  0.0387  0.6334
 1230SOL    HW1 5174   7.031   3.570   6.751 -0.7611  2.8579  2.6984
 1230SOL    HW2 5175   6.969   3.502   6.872 -0.0157 -3.0776 -0.0943
 1231SOL     OW 5176   4.570   1.789   1.938  0.1468  0.0255 -0.3009
 1231SOL    HW1 5177   4.510   1.864   1.938  1.4447  1.0788  0.5072
 1231SOL    HW2 5178   4.539   1.733   2.009 -0.2259  0.2779 -0.2626
 1232SOL     OW 5179   7.974   0.833   7.499 -0.2385  0.5523 -0.3903
 1232SOL    HW1 5180   8.033   0.789   7.439 -0.5207 -0.5487  0.1280
 1232SOL    HW2 5181   7.893   0.844   7.450 -1.2640 -2.4666  0.5025
 1233SOL     OW 5182   4.178   2.309   2.146 -0.1937  0.2741  0.3540
 1233SOL    HW1 5183   4.235   2.252   2.197 -0.7855 -0.0893  0.6213
 1233SOL    HW2 5184   4.159   2.259   2.066  0.7214  0.8369 -0.2133
 1234SOL     OW 5185   0.069   6.642   4.663 -0.0859  0.4028  0.3162
 1234SOL    HW1 5186  -0.012   6.613   4.621  0.3979  1.1369 -1.1372
 1234SOL    HW2 5187   0.039   6.690   4.741 -0.9639 -1.5210  1.2145
 1235SOL     OW 5188   2.385   0.960   6.281  0.0896  0.1886 -0.2927
 1235SOL    HW1 5189   2.304   0.979   6.327  0.9837  0.2325  1.2827
 1235SOL    HW2 5190   2.431   1.044   6.275  1.4671 -0.3832  1.6836
 1236SOL     OW 5191   2.168   6.149   5.276  0.5452  0.4217 -0.1233
 1236SOL    HW1 5192   2.249   6.175   5.320  1.6134  0.3248 -2.0036
 1236SOL    HW2 5193   2.185   6.060   5.244 -1.2925 -0.6928  1.8510
 1237SOL     OW 5194   7.684   5.472   4.760  0.5534 -0.2240  0.3492
 1237SOL    HW1 5195   7.658   5.407   4.825 -1.0512 -0.2335 -0.2608
 1237SOL    HW2 5196   7.719   5.421   4.687 -2.4926 -0.5753 -0.9328
 1238SOL     OW 5197   2.836   2.351   5.069 -0.3115 -0.0303  0.1341
 1238SOL    HW1 5198   2.873   2.436   5.091 -0.0846 -0.0951  0.0108
 1238SOL    HW2 5199   2.759   2.342   5.125 -1.1304  0.8535 -0.8325
 1239SOL     OW 5200   8.207   4.232   1.251  0.3576 -0.2740 -0.6523
 1239SOL    HW1 5201   8.182   4.314   1.296 -0.8615  0.0608 -1.9044
 1239SOL    HW2 5202   8.125   4.183   1.246  1.0707 -1.5422 -0.0126
 1240SOL     OW 5203   6.819   5.785   6.505 -0.1504  0.2580 -0.0221
 1240SOL    HW1 5204   6.886   5.717   6.517  0.2848  0.8498  0.9567
 1240SOL    HW2 5205   6.745   5.754   6.557 -0.2246  0.1638 -0.1840
 1241SOL     OW 5206   2.520   3.375   5.140 -0.0783 -0.2158  1.1662
 1241SOL    HW1 5207   2.462   3.335   5.204 -1.0022  0.1167  0.5393
 1241SOL    HW2 5208   2.462   3.409   5.072  0.9436 -1.6392 -0.4695
 1242SOL     OW 5209   4.835   7.359   7.842  0.1206  0.1892 -0.5948
 1242SOL    HW1 5210   4.794   7.442   7.815 -2.3923 -0.6808  0.3652
 1242SOL    HW2 5211   4.761   7.302   7.863  1.8587 -1.7089  0.5457
 1243SOL     OW 5212   4.330   0.735   4.574  0.4728  0.0177 -0.1036
 1243SOL    HW1 5213   4.364   0.736   4.664  1.8826  0.2463 -0.6247
 1243SOL    HW2 5214   4.236   0.722   4.584  0.7532 -0.9433  1.3718
 1244SOL     OW 5215   5.423   4.198   5.425 -0.0323 -0.6422  0.0389
 1244SOL    HW1 5216   5.503   4.164   5.464 -1.3721 -2.5948  1.1665
 1244SOL    HW2 5217   5.414   4.287   5.460  1.2169 -0.7042  0.5266
 1245SOL     OW 5218   4.236   2.250   5.283  0.4974 -0.4052  0.4164
 1245SOL    HW1 5219   4.299   2.245   5.355  0.2224 -0.3828  0.6584
 1245SOL    HW2 5220   4.167   2.308   5.315  0.6713  0.0938 -0.0912
 1246SOL     OW 5221   6.023   6.722   7.713 -0.5924 -0.4222  0.0110
 1246SOL    HW1 5222   6.029   6.799   7.657  2.5807 -1.4145 -1.1476
 1246SOL    HW2 5223   5.944   6.677   7.684 -0.1699  0.2027 -2.2294
 1247SOL     OW 5224   0.698   4.536   8.055  0.3985 -0.3954  0.5189
 1247SOL    HW1 5225   0.791   4.552   8.043  0.5575 -0.7182  1.2976
 1247SOL    HW2 5226   0.689   4.440   8.050  0.2646 -0.4382  1.4942
 1248SOL     OW 5227   3.240   1.550   5.979  0.5417  0.2014  0.5111
 1248SOL    HW1 5228   3.261   1.639   5.951  0.0935  0.4627  1.0063
 1248SOL    HW2 5229   3.295   1.536   6.056 -0.5736  0.6331  1.3923
 1249SOL     OW 5230   4.911   7.107   5.901  0.3517 -0.2522  0.1648
 1249SOL    HW1 5231   4.942   7.113   5.992  1.5608  0.7334 -0.3009
 1249SOL    HW2 5232   4.898   7.198   5.874 -1.1328 -0.5799 -0.2884
 1250SOL     OW 5233   4.480   0.297   1.332 -0.4930 -0.2297 -0.4587
 1250SOL    HW1 5234   4.500   0.282   1.240 -0.1343  1.4197 -0.6675
 1250SOL    HW2 5235   4.515   0.221   1.377  1.1150 -0.1071 -1.4675
 1251SOL     OW 5236   7.421   3.755   1.234  0.2329  0.0156  0.0576
 1251SOL    HW1 5237   7.332   3.789   1.244  0.8685  1.8810 -0.4289
 1251SOL    HW2 5238   7.477   3.833   1.232  1.9677 -1.1499  1.0887
 1252SOL     OW 5239   6.801   6.949   0.202  0.3899 -0.2712 -0.5484
 1252SOL    HW1 5240   6.814   6.888   0.129  0.2003  0.9081 -1.5918
 1252SOL    HW2 5241   6.723   6.999   0.177 -0.9699 -1.3204  1.4935
 1253SOL     OW 5242   6.512   1.335   4.166  0.0675  0.7037  0.2970
 1253SOL    HW1 5243   6.431   1.338   4.115 -0.8793  3.9650  1.8927
 1253SOL    HW2 5244   6.580   1.363   4.106 -0.4931  1.0603 -0.1749
 1254SOL     OW 5245   0.325   0.898   7.939  0.1207 -0.0692  0.0944
 1254SOL    HW1 5246   0.280   0.862   8.016 -1.8186  1.0807 -0.4537
 1254SOL    HW2 5247   0.327   0.825   7.877 -1.2779 -0.0747  0.0310
 1255SOL     OW 5248   6.362   5.181   3.236  0.2327  0.8921 -0.0226
 1255SOL    HW1 5249   6.371   5.255   3.176 -0.8774  0.4578 -0.7304
 1255SOL    HW2 5250   6.342   5.106   3.180  0.4255  0.2330  0.7744
 1256SOL     OW 5251   2.775   3.245   0.325  0.3990 -0.0608  0.0403
 1256SOL    HW1 5252   2.798   3.311   0.259  2.3089 -0.8117 -0.0735
 1256SOL    HW2 5253   2.818   3.274   0.405  0.5713 -0.7231  0.1962
 1257SOL     OW 5254   4.148   3.654   5.150 -0.1166  0.1834 -0.6318
 1257SOL    HW1 5255   4.152   3.714   5.075 -1.6864 -1.0705 -1.7532
 1257SOL    HW2 5256   4.056   3.650   5.173  0.0983 -1.0270  0.0630
 1258SOL     OW 5257   3.728   6.395   4.772  0.1752  0.2776  0.3402
 1258SOL    HW1 5258   3.736   6.301   4.782  2.2226  0.2641 -1.0923
 1258SOL    HW2 5259   3.725   6.409   4.677 -2.3649  1.5143  0.5536
 1259SOL     OW 5260   4.554   8.038   6.990 -0.3385  0.2829 -0.1838
 1259SOL    HW1 5261   4.534   7.965   6.931 -0.8741  0.7909 -0.6372
 1259SOL    HW2 5262   4.536   8.116   6.938  1.2466  0.7437 -0.0481
 1260SOL     OW 5263   7.683   2.776   6.130  0.1735 -0.8296  0.1682
 1260SOL    HW1 5264   7.626   2.754   6.057  0.6950  2.2174 -1.2546
 1260SOL    HW2 5265   7.767   2.738   6.108  0.1669 -0.4425 -0.5282
 1261SOL     OW 5266   6.367   5.329   6.822 -0.4002  0.9191  0.2630
 1261SOL    HW1 5267   6.295   5.270   6.801  0.3218  0.1213  0.0065
 1261SOL    HW2 5268   6.443   5.272   6.832  0.3588  1.8258 -0.2467
 1262SOL     OW 5269   7.459   3.795   7.792 -0.5594 -0.1844 -0.2486
 1262SOL    HW1 5270   7.501   3.715   7.760 -1.1506 -0.7687  0.4187
 1262SOL    HW2 5271   7.531   3.856   7.804  0.1735 -1.3078  1.2646
 1263SOL     OW 5272   1.484   1.473   5.925 -0.5170 -0.3080  0.7501
 1263SOL    HW1 5273   1.414   1.458   5.989 -1.2367  1.7428  0.4865
 1263SOL    HW2 5274   1.557   1.507   5.976 -0.3032 -0.8166  0.7850
 1264SOL     OW 5275   2.031   2.505   4.450  0.4614 -0.1657 -0.0321
 1264SOL    HW1 5276   2.037   2.598   4.470 -1.2063  0.2684 -1.5217
 1264SOL    HW2 5277   2.068   2.497   4.362  1.6408 -1.1004  0.5233
 1265SOL     OW 5278   8.302   7.793   8.076  0.1531  0.1097  0.0983
 1265SOL    HW1 5279   8.378   7.744   8.046  0.8657  0.5113  1.1992
 1265SOL    HW2 5280   8.339   7.865   8.128 -1.0016 -0.5847  1.9591
 1266SOL     OW 5281   0.255   1.958   7.851 -0.6502 -0.2950 -0.6658
 1266SOL    HW1 5282   0.327   1.958   7.913 -1.5837 -1.1037  0.4369
 1266SOL    HW2 5283   0.250   2.049   7.820 -0.7358  0.3119  1.0979
 1267SOL     OW 5284   1.508   6.751   6.305 -0.2401  0.2937 -0.0929
 1267SOL    HW1 5285   1.509   6.821   6.240 -0.4596  1.0372  0.6876
 1267SOL    HW2 5286   1.597   6.715   6.303 -0.5374 -0.4090 -1.5477
 1268SOL     OW 5287   0.870   3.073   7.823  0.2694 -0.2595  0.6478
 1268SOL    HW1 5288   0.943   3.027   7.864  0.0925 -0.2640  0.9621
 1268SOL    HW2 5289   0.884   3.061   7.729  0.3572 -0.7513  0.7214
 1269SOL     OW 5290   1.804   6.946   1.053  0.1944 -0.7073 -0.2493
 1269SOL    HW1 5291   1.768   6.874   1.104  1.3572 -1.0302  0.1388
 1269SOL    HW2 5292   1.882   6.909   1.011  2.1949  0.9532  1.8658
 1270SOL     OW 5293   1.252   2.001   0.668  0.2703  0.0477 -0.6051
 1270SOL    HW1 5294   1.286   1.926   0.621  0.3074  0.1827 -0.7930
 1270SOL    HW2 5295   1.229   1.967   0.755  0.8167 -0.0595 -0.5013
 1271SOL     OW 5296   1.683   5.633   7.168  0.1927  0.2151 -0.1819
 1271SOL    HW1 5297   1.770   5.672   7.177  0.3202 -0.1485  0.1812
 1271SOL    HW2 5298   1.667   5.590   7.252 -0.1170 -0.1780 -0.4399
 1272SOL     OW 5299   6.922   1.691   0.011  0.1003  0.5228 -0.4622
 1272SOL    HW1 5300   6.840   1.739   0.003  0.3613  1.4347  1.9027
 1272SOL    HW2 5301   6.948   1.704   0.102  2.2168 -0.8150 -0.8524
 1273SOL     OW 5302   0.747   2.680   4.942  0.3646 -0.0965  0.1614
 1273SOL    HW1 5303   0.716   2.737   5.012 -0.8444  1.1486 -1.3383
 1273SOL    HW2 5304   0.802   2.736   4.887 -1.8380  0.0449 -2.0289
 1274SOL     OW 5305   8.304   2.414   0.693 -0.1051  0.4382  0.3540
 1274SOL    HW1 5306   8.361   2.462   0.632 -0.3162 -1.0672 -1.0712
 1274SOL    HW2 5307   8.365   2.362   0.746 -0.0822 -0.7405 -0.7922
 1275SOL     OW 5308   6.011   7.582   4.530 -0.3642 -0.3304  0.4324
 1275SOL    HW1 5309   6.039   7.611   4.617 -1.6905  1.2483  0.3602
 1275SOL    HW2 5310   6.011   7.662   4.477  0.4892 -1.2805 -1.0439
 1276SOL     OW 5311   3.079   4.212   5.611  0.1151  0.1583 -0.7199
 1276SOL    HW1 5312   3.153   4.243   5.662  1.3696 -1.6861 -1.3759
 1276SOL    HW2 5313   3.114   4.198   5.523 -0.5672 -2.4125 -0.6092
 1277SOL     OW 5314   1.283   6.842   1.570 -0.2249  0.5786 -0.1514
 1277SOL    HW1 5315   1.248   6.753   1.566 -1.2067  0.8880  1.1745
 1277SOL    HW2 5316   1.215   6.896   1.529  0.1865  0.7688 -0.5818
 1278SOL     OW 5317   3.924   0.016   3.101  0.0446 -0.2290 -0.4808
 1278SOL    HW1 5318   3.854   0.079   3.118  0.5953 -0.6606  4.0356
 1278SOL    HW2 5319   3.999   0.069   3.074 -0.1643  0.8919  1.0854
 1279SOL     OW 5320   6.681   4.430   7.079 -0.4096 -0.3809 -0.3530
 1279SOL    HW1 5321   6.717   4.444   6.992 -0.5821  0.9843 -0.2205
 1279SOL    HW2 5322   6.618   4.359   7.068 -0.3676 -0.2696 -1.3218
 1280SOL     OW 5323   1.673   1.472   2.445 -0.1429  0.1645  0.4106
 1280SOL    HW1 5324   1.601   1.526   2.477 -0.7103 -0.7852  0.7760
 1280SOL    HW2 5325   1.749   1.530   2.446 -0.9214  1.2076 -0.0892
 1281SOL     OW 5326   5.606   2.436   5.994  0.6607  0.2919  0.1089
 1281SOL    HW1 5327   5.532   2.466   6.047 -1.9705 -0.4190 -3.0120
 1281SOL    HW2 5328   5.623   2.509   5.934  1.7241 -0.0387 -0.0048
 1282SOL     OW 5329   1.100   3.048   1.142 -0.5137 -0.4762 -0.0261
 1282SOL    HW1 5330   1.048   3.043   1.222 -1.5790  0.5953 -0.6191
 1282SOL    HW2 5331   1.072   3.130   1.101  1.2124 -0.1975 -0.6788
 1283SOL     OW 5332   0.980   6.923   5.046 -0.3545 -0.2104  0.3147
 1283SOL    HW1 5333   0.986   6.828   5.048  0.3753 -0.2257 -1.6581
 1283SOL    HW2 5334   0.891   6.940   5.014 -0.6337 -0.2311  1.0859
 1284SOL     OW 5335   6.817   4.619   0.667 -0.2850  0.0129 -0.4653
 1284SOL    HW1 5336   6.810   4.530   0.633  0.3257 -0.2624  0.0977
 1284SOL    HW2 5337   6.911   4.637   0.667 -0.3671  0.4665 -0.0986
 1285SOL     OW 5338   3.292   5.167   4.733  0.1386 -0.0165 -0.4394
 1285SOL    HW1 5339   3.301   5.147   4.826  0.3558 -0.8224 -0.6342
 1285SOL    HW2 5340   3.202   5.142   4.711  0.1661 -0.0620 -0.5028
 1286SOL     OW 5341   0.484   4.632   1.264  0.3630  0.5536  0.1984
 1286SOL    HW1 5342   0.578   4.650   1.266  0.5762 -0.1436 -2.0385
 1286SOL    HW2 5343   0.468   4.577   1.340  1.6350  1.2996  1.0097
 1287SOL     OW 5344   6.510   1.794   6.290  0.1140 -0.0552  0.0707
 1287SOL    HW1 5345   6.566   1.798   6.367 -0.9099  0.7898  0.8018
 1287SOL    HW2 5346   6.443   1.861   6.307 -0.2946 -0.0813 -1.4111
 1288SOL     OW 5347   7.809   4.120   7.152  0.5953 -0.6462 -0.3073
 1288SOL    HW1 5348   7.814   4.162   7.238 -0.1073 -0.0275 -0.5589
 1288SOL    HW2 5349   7.732   4.063   7.158 -0.4425  0.6557 -1.0632
 1289SOL     OW 5350   6.475   7.948   2.207 -0.7817 -0.4422  0.3093
 1289SOL    HW1 5351   6.536   7.908   2.269 -1.3266 -0.9437  0.5226
 1289SOL    HW2 5352   6.418   7.877   2.179 -0.0350 -0.4005 -1.4055
 1290SOL     OW 5353   8.126   4.203   0.502 -0.4165 -0.6030 -0.3874
 1290SOL    HW1 5354   8.147   4.208   0.409 -0.3163 -0.3213 -0.3495
 1290SOL    HW2 5355   8.054   4.265   0.514  0.1396 -0.0042 -0.1177
 1291SOL     OW 5356   4.071   2.017   7.099  0.3197  0.1522 -0.7718
 1291SOL    HW1 5357   4.033   2.104   7.084  3.1297  1.7618  1.0139
 1291SOL    HW2 5358   4.065   2.005   7.194 -0.2859 -1.7436 -1.0369
 1292SOL     OW 5359   5.938   6.811   2.050  0.8177 -0.4505 -0.3961
 1292SOL    HW1 5360   5.952   6.789   2.142  1.7161 -0.8020 -0.6157
 1292SOL    HW2 5361   5.992   6.749   2.001  1.1509  0.3977 -1.1279
 1293SOL     OW 5362   0.406   8.071   0.662 -0.0448 -0.3819  0.3814
 1293SOL    HW1 5363   0.428   8.043   0.751 -1.1472 -2.7958 -0.0540
 1293SOL    HW2 5364   0.451   8.155   0.651  1.7487 -1.0201  2.5040
 1294SOL     OW 5365   1.531   5.988   1.605  0.0072 -0.4087  0.2994
 1294SOL    HW1 5366   1.604   6.033   1.648 -1.0107  0.8366  0.7636
 1294SOL    HW2 5367   1.555   5.986   1.513 -0.0661  1.3835  0.2201
 1295SOL     OW 5368   3.326   0.747   3.477 -0.2339 -0.3132 -0.0292
 1295SOL    HW1 5369   3.267   0.821   3.488 -0.2037 -0.2199 -0.4927
 1295SOL    HW2 5370   3.273   0.670   3.497 -0.0156 -0.1116  1.4088
 1296SOL     OW 5371   4.891   0.121   4.899 -0.0313  0.2212  0.1485
 1296SOL    HW1 5372   4.974   0.080   4.875 -0.9118 -1.2486 -0.4795
 1296SOL    HW2 5373   4.852   0.060   4.963 -1.3314  0.0850 -0.7519
 1297SOL     OW 5374   8.017   0.440   1.892  0.0163 -0.5127  0.4944
 1297SOL    HW1 5375   7.970   0.388   1.957  0.1373  0.0276  1.0237
 1297SOL    HW2 5376   7.974   0.420   1.809  0.0911 -1.4858  0.6854
 1298SOL     OW 5377   6.403   4.216   6.530 -0.1211 -0.6852  0.2413
 1298SOL    HW1 5378   6.416   4.293   6.586 -0.0972  0.2970 -1.0998
 1298SOL    HW2 5379   6.315   4.186   6.551 -1.0147  1.0797 -0.8602
 1299SOL     OW 5380   6.620   4.946   2.673  0.5950 -0.1453  0.2829
 1299SOL    HW1 5381   6.605   4.863   2.628  1.2646 -0.1670  0.0790
 1299SOL    HW2 5382   6.595   5.013   2.609  1.5062 -0.1774 -0.1230
 1300SOL     OW 5383   2.838   2.933   2.211  0.1194  0.3130  0.4339
 1300SOL    HW1 5384   2.853   3.025   2.230 -1.2796  0.6894 -0.2051
 1300SOL    HW2 5385   2.926   2.895   2.202  0.7224  2.0362 -1.3950
 1301SOL     OW 5386   7.686   3.376   2.384 -0.0913  0.0936  0.1744
 1301SOL    HW1 5387   7.641   3.454   2.415 -0.3560  0.2408 -0.5669
 1301SOL    HW2 5388   7.649   3.360   2.297  0.3843 -0.5161  0.0794
 1302SOL     OW 5389   4.984   4.898   6.173  0.2028 -0.6114 -0.2038
 1302SOL    HW1 5390   4.905   4.889   6.226 -1.6139  1.7855 -2.4095
 1302SOL    HW2 5391   5.048   4.937   6.232 -0.7153 -1.1733  1.1950
 1303SOL     OW 5392   7.530   6.800   4.737  0.6889  0.3359  0.4180
 1303SOL    HW1 5393   7.498   6.714   4.708  1.5964  0.6175 -1.4280
 1303SOL    HW2 5394   7.620   6.784   4.766  0.9175  0.7075 -0.0924
 1304SOL     OW 5395   2.140   1.460   5.439 -0.3343  0.2655 -0.2861
 1304SOL    HW1 5396   2.232   1.485   5.447 -0.4847  0.2925  1.4268
 1304SOL    HW2 5397   2.140   1.365   5.442 -0.3537  0.2587 -0.4698
 1305SOL     OW 5398   1.337   1.944   4.609 -0.2869 -0.2658 -0.8105
 1305SOL    HW1 5399   1.253   1.991   4.605 -0.9059 -0.9573  2.5175
 1305SOL    HW2 5400   1.318   1.858   4.569 -1.2406 -0.4891  0.0912
 1306SOL     OW 5401   1.225   4.426   0.658 -0.6913  0.1939  0.4399
 1306SOL    HW1 5402   1.305   4.384   0.689 -0.5429  0.7876  0.8763
 1306SOL    HW2 5403   1.253   4.514   0.632 -0.4313 -0.8674 -3.2164
 1307SOL     OW 5404   7.264   0.318   2.506 -0.0757  0.1001 -0.4337
 1307SOL    HW1 5405   7.184   0.357   2.471  0.2609  0.8794 -0.3390
 1307SOL    HW2 5406   7.319   0.392   2.531  0.5924 -0.4283 -0.2958
 1308SOL     OW 5407   6.814   0.266   7.522  0.4968  0.5178 -0.0257
 1308SOL    HW1 5408   6.874   0.261   7.447  1.9131  1.7038  1.0074
 1308SOL    HW2 5409   6.868   0.242   7.597 -0.5097  0.9527  0.8459
 1309SOL     OW 5410   0.308   3.863   6.649  0.3284 -0.0266 -0.1506
 1309SOL    HW1 5411   0.403   3.875   6.647  0.0676  2.2925 -0.0903
 1309SOL    HW2 5412   0.278   3.890   6.562 -0.4309  0.7976  0.3553
 1310SOL     OW 5413   3.116   6.118   1.193  0.4965  0.4696 -0.6509
 1310SOL    HW1 5414   3.154   6.181   1.254  0.9864 -0.3240 -0.1278
 1310SOL    HW2 5415   3.113   6.164   1.109  1.6171  0.9180 -0.4597
 1311SOL     OW 5416   1.163   4.050   3.072  0.0557  0.4513 -0.2157
 1311SOL    HW1 5417   1.180   4.104   3.150  1.0884  0.9069 -0.7363
 1311SOL    HW2 5418   1.070   4.028   3.077 -0.5165  2.7620 -0.2830
 1312SOL     OW 5419   1.227   3.817   1.045 -0.1447  0.4146  0.1520
 1312SOL    HW1 5420   1.207   3.878   0.974 -1.4758  0.4484  0.5529
 1312SOL    HW2 5421   1.264   3.741   1.001  0.0831  0.8897 -0.4853
 1313SOL     OW 5422   3.611   8.125   2.756  0.0290  0.3788 -0.1956
 1313SOL    HW1 5423   3.595   8.178   2.834 -1.2999 -0.3622  0.0612
 1313SOL    HW2 5424   3.696   8.153   2.724  0.7973  0.3631  1.7819
 1314SOL     OW 5425   0.964   7.311   7.339  0.5916  0.2332  0.5372
 1314SOL    HW1 5426   1.031   7.359   7.388 -0.8471  0.9003  1.9175
 1314SOL    HW2 5427   0.958   7.226   7.383 -0.8064  0.8873  1.6319
 1315SOL     OW 5428   1.359   0.927   0.730 -0.0762  1.0043 -0.0276
 1315SOL    HW1 5429   1.356   1.019   0.756  1.6166  0.9461  0.4320
 1315SOL    HW2 5430   1.328   0.879   0.807 -2.9586  1.2921 -0.9812
 1316SOL     OW 5431   5.334   2.087   5.762 -0.0947 -0.5789  0.0465
 1316SOL    HW1 5432   5.286   2.008   5.739 -0.4054  0.0346 -1.5126
 1316SOL    HW2 5433   5.267   2.156   5.765  0.3406 -0.1575  0.2693
 1317SOL     OW 5434   4.955   0.646   5.223  0.2366 -0.1367 -0.6769
 1317SOL    HW1 5435   4.998   0.723   5.259  0.8714  0.1443 -1.9894
 1317SOL    HW2 5436   4.862   0.658   5.243  0.0115  2.0879 -2.8278
 1318SOL     OW 5437   6.856   2.686   5.589 -0.1677  0.4994  0.3646
 1318SOL    HW1 5438   6.918   2.694   5.661  1.8994  1.3452 -1.4490
 1318SOL    HW2 5439   6.812   2.602   5.604  1.8427 -0.4109  1.3602
 1319SOL     OW 5440   0.580   7.864   2.856 -0.0544  0.1955  0.0131
 1319SOL    HW1 5441   0.567   7.877   2.950  0.6686  0.0699  0.1354
 1319SOL    HW2 5442   0.571   7.769   2.844  1.6793 -0.0192  0.2600
 1320SOL     OW 5443   4.894   1.500   1.481  0.2707  0.1518 -0.0911
 1320SOL    HW1 5444   4.916   1.511   1.388 -2.3480  1.1357 -0.6253
 1320SOL    HW2 5445   4.855   1.583   1.507 -2.5775 -1.3991  0.8450
 1321SOL     OW 5446   7.854   5.581   4.942 -0.1503 -0.3373 -0.4190
 1321SOL    HW1 5447   7.776   5.559   4.890  0.2821 -2.6513 -0.1572
 1321SOL    HW2 5448   7.926   5.537   4.896  0.9406  1.3730 -0.3786
 1322SOL     OW 5449   0.870   0.360   4.004 -0.1736 -0.3903 -0.7997
 1322SOL    HW1 5450   0.791   0.361   4.058  0.9176 -2.1898  0.8614
 1322SOL    HW2 5451   0.895   0.452   3.996 -1.1890  0.0066  0.5209
 1323SOL     OW 5452   0.805   1.981   4.426  0.7238  0.1025  0.2762
 1323SOL    HW1 5453   0.849   2.037   4.490  0.1615  0.6668  0.1698
 1323SOL    HW2 5454   0.794   2.037   4.349 -2.0381  0.6297  1.0031
 1324SOL     OW 5455   6.074   7.825   4.383 -0.3125 -0.4278 -0.3045
 1324SOL    HW1 5456   6.025   7.902   4.412 -0.0097 -0.0485 -0.7809
 1324SOL    HW2 5457   6.079   7.835   4.288  0.2683 -0.7135 -0.3051
 1325SOL     OW 5458   0.009   2.658   6.425  0.4931  0.2214  0.6677
 1325SOL    HW1 5459   0.004   2.628   6.516 -0.0470  0.9278  0.8712
 1325SOL    HW2 5460  -0.061   2.722   6.417 -0.2333 -0.7151 -0.5856
 1326SOL     OW 5461   7.957   5.652   3.199  0.1397 -0.5975  0.2188
 1326SOL    HW1 5462   8.041   5.654   3.244  1.0275  0.3215 -1.4488
 1326SOL    HW2 5463   7.954   5.734   3.149 -2.2152 -0.1137  1.0875
 1327SOL     OW 5464   3.450   8.306   7.485 -0.3752 -0.0289 -0.6017
 1327SOL    HW1 5465   3.436   8.237   7.419 -3.1523 -0.5394  0.4290
 1327SOL    HW2 5466   3.412   8.385   7.445  0.4491  0.2971 -0.7367
 1328SOL     OW 5467   2.377   6.822   4.090  0.2314  0.2875 -0.3712
 1328SOL    HW1 5468   2.350   6.861   4.007  1.8763  0.8420 -0.6708
 1328SOL    HW2 5469   2.350   6.731   4.084 -1.0662  0.6928 -0.8666
 1329SOL     OW 5470   2.308   3.551   7.349 -0.4903  0.2508 -0.4578
 1329SOL    HW1 5471   2.324   3.617   7.417  0.5820 -1.0443  0.5926
 1329SOL    HW2 5472   2.395   3.523   7.322 -0.9289 -0.4021 -1.2159
 1330SOL     OW 5473   4.793   3.539   7.459 -0.1362 -0.2929  0.1361
 1330SOL    HW1 5474   4.875   3.496   7.435 -0.4666 -0.9760  0.2286
 1330SOL    HW2 5475   4.753   3.480   7.523 -0.6581  0.0843  0.1585
 1331SOL     OW 5476   3.429   7.081   8.043 -0.2735  0.0664 -0.2277
 1331SOL    HW1 5477   3.521   7.076   8.016 -0.1440  2.3459 -0.3176
 1331SOL    HW2 5478   3.388   7.004   8.004  1.1629  0.1392 -1.9521
 1332SOL     OW 5479   6.572   4.780   0.590 -0.4581 -0.4616 -0.0774
 1332SOL    HW1 5480   6.505   4.766   0.656 -0.4036 -1.1329 -0.1651
 1332SOL    HW2 5481   6.644   4.722   0.616  0.4007  0.8068  0.4559
 1333SOL     OW 5482   5.574   2.228   0.835  0.2547 -0.3021 -0.0411
 1333SOL    HW1 5483   5.502   2.169   0.813  0.7141 -0.6013 -0.7769
 1333SOL    HW2 5484   5.546   2.314   0.804 -0.7811  0.0415  1.8106
 1334SOL     OW 5485   7.743   5.932   2.854  0.6603 -1.0803 -0.2774
 1334SOL    HW1 5486   7.758   6.009   2.799 -0.4278 -1.3571 -0.9833
 1334SOL    HW2 5487   7.740   5.859   2.793 -1.4471 -1.2740  0.0225
 1335SOL     OW 5488   2.718   6.835   5.357 -0.1048  0.4907 -0.3607
 1335SOL    HW1 5489   2.715   6.784   5.275 -0.3365 -0.7266  0.3960
 1335SOL    HW2 5490   2.809   6.863   5.364  0.2081 -0.4948 -0.3840
 1336SOL     OW 5491   4.068   7.369   0.511 -0.4676 -0.0655  0.1423
 1336SOL    HW1 5492   4.070   7.438   0.579 -0.8208  0.0113  0.0751
 1336SOL    HW2 5493   4.070   7.287   0.561  0.3501 -0.0063  0.2095
 1337SOL     OW 5494   6.208   8.166   4.673  0.0023  0.3084 -0.3051
 1337SOL    HW1 5495   6.136   8.217   4.710  1.1601  1.5529  0.2491
 1337SOL    HW2 5496   6.252   8.226   4.613  1.9845  0.3284  1.1013
 1338SOL     OW 5497   5.119   2.892   7.677  0.4152  0.1220  0.7593
 1338SOL    HW1 5498   5.205   2.901   7.717  0.2873  1.5252  0.7382
 1338SOL    HW2 5499   5.136   2.888   7.583  0.5621 -1.1266  0.8306
 1339SOL     OW 5500   2.955   0.300   3.199 -0.3054 -0.8822  0.1047
 1339SOL    HW1 5501   3.007   0.223   3.174  0.4793  0.0636 -1.2695
 1339SOL    HW2 5502   3.021   0.366   3.221 -0.9434 -0.0652 -0.4274
 1340SOL     OW 5503   5.481   4.815   6.679 -0.1925 -0.4270  0.9787
 1340SOL    HW1 5504   5.482   4.721   6.697  1.6242 -1.0257 -1.9154
 1340SOL    HW2 5505   5.399   4.829   6.632 -0.1070 -0.6811  0.7557
 1341SOL     OW 5506   0.724   5.996   4.475  0.3850  0.3151  0.2438
 1341SOL    HW1 5507   0.656   6.029   4.535 -0.5151  0.0445 -0.6176
 1341SOL    HW2 5508   0.732   5.904   4.497 -1.3822 -0.2546 -1.3825
 1342SOL     OW 5509   1.951   3.029   2.409 -0.0837  0.3413 -0.7829
 1342SOL    HW1 5510   1.879   3.061   2.355 -1.4759 -2.3040 -0.5732
 1342SOL    HW2 5511   1.992   2.960   2.357  1.8473  1.3109 -0.5836
 1343SOL     OW 5512   6.304   7.964   7.292  0.3304 -0.1151 -0.3687
 1343SOL    HW1 5513   6.259   8.047   7.311 -0.1482 -1.0672  3.0517
 1343SOL    HW2 5514   6.396   7.987   7.287  0.1092  0.7840 -0.3603
 1344SOL     OW 5515   6.622   2.744   4.480 -0.1439  0.0412  0.0291
 1344SOL    HW1 5516   6.615   2.827   4.433  1.5242  0.6356  0.8075
 1344SOL    HW2 5517   6.554   2.749   4.547 -1.2622 -0.0061 -1.0776
 1345SOL     OW 5518   2.307   6.531   6.611 -0.0017 -0.2903  0.3579
 1345SOL    HW1 5519   2.317   6.436   6.613  0.6607 -0.2168  0.8756
 1345SOL    HW2 5520   2.214   6.545   6.599 -0.1717 -1.0093  0.7753
 1346SOL     OW 5521   7.652   3.096   7.012 -0.2735  0.2585 -0.2296
 1346SOL    HW1 5522   7.611   3.015   6.981  1.2643 -0.3781 -0.6145
 1346SOL    HW2 5523   7.623   3.104   7.103 -1.4247 -0.0568 -0.5530
 1347SOL     OW 5524   1.853   3.010   6.272 -0.1095  0.0669  0.4187
 1347SOL    HW1 5525   1.853   2.942   6.204 -0.2997 -0.0169  0.5031
 1347SOL    HW2 5526   1.904   2.972   6.344  0.4563  0.3224  0.1549
 1348SOL     OW 5527   7.945   0.081   7.276  0.0933  0.1001 -0.6124
 1348SOL    HW1 5528   7.870   0.068   7.334  0.3398 -1.0071 -0.5305
 1348SOL    HW2 5529   7.964  -0.006   7.241  2.8357 -0.0961  1.1960
 1349SOL     OW 5530   6.566   7.901   5.967  0.4082  0.3901 -0.1242
 1349SOL    HW1 5531   6.534   7.918   5.878  0.3839 -0.6528 -0.3245
 1349SOL    HW2 5532   6.599   7.811   5.964  0.4212  0.3518  0.9221
 1350SOL     OW 5533   5.907   3.902   4.088  0.7472  0.3161  0.2495
 1350SOL    HW1 5534   5.958   3.822   4.072  0.3755  0.7620 -3.7913
 1350SOL    HW2 5535   5.972   3.972   4.086  0.5252  0.5015 -0.6963
 1351SOL     OW 5536   2.028   6.015   6.081 -0.4019 -0.8496 -0.1804
 1351SOL    HW1 5537   2.061   5.939   6.129 -1.0522 -0.1780  1.3683
 1351SOL    HW2 5538   2.011   6.080   6.149 -1.2304  0.1674 -1.3527
 1352SOL     OW 5539   5.726   3.940   5.272  0.2194  0.3369 -0.5447
 1352SOL    HW1 5540   5.642   3.964   5.231  0.7374 -0.1040 -1.8931
 1352SOL    HW2 5541   5.771   4.023   5.285  1.1049  0.3166 -3.2299
 1353SOL     OW 5542   5.527   0.362   5.617 -0.1256  0.0115 -0.1663
 1353SOL    HW1 5543   5.498   0.453   5.616  1.7282  0.6097 -0.5165
 1353SOL    HW2 5544   5.482   0.321   5.543  0.9964  1.2791 -1.5748
 1354SOL     OW 5545   0.102   2.483   2.332 -0.0794 -0.0407 -0.5267
 1354SOL    HW1 5546   0.152   2.565   2.334  1.9702 -1.2894  0.4799
 1354SOL    HW2 5547   0.166   2.416   2.310 -1.6371 -1.4639 -0.8302
 1355SOL     OW 5548   3.007   0.493   0.509  0.1193  0.5248  0.3674
 1355SOL    HW1 5549   2.994   0.546   0.587  2.3522  0.8355  0.5735
 1355SOL    HW2 5550   2.950   0.531   0.443 -0.8826  1.0066  1.4991
 1356SOL     OW 5551   6.138   2.364   7.986  0.2275  0.5134 -0.2067
 1356SOL    HW1 5552   6.207   2.409   8.036 -0.3358  0.9627  0.1685
 1356SOL    HW2 5553   6.100   2.433   7.931 -0.3414  0.3984  0.0456
 1357SOL     OW 5554   7.654   5.734   4.552 -0.5639 -0.6466  0.0459
 1357SOL    HW1 5555   7.739   5.691   4.554 -0.1675  0.1171 -0.3007
 1357SOL    HW2 5556   7.660   5.804   4.616 -0.1554  0.8396 -1.5843
 1358SOL     OW 5557   6.608   4.572   3.312 -0.2015 -0.1393  0.4858
 1358SOL    HW1 5558   6.554   4.624   3.253  1.3474  1.6421  0.5759
 1358SOL    HW2 5559   6.569   4.585   3.399 -0.4232  0.0585  0.3559
 1359SOL     OW 5560   6.934   4.849   4.101  0.3366 -0.8394  0.4257
 1359SOL    HW1 5561   6.969   4.837   4.189 -1.1914 -1.1223  1.0162
 1359SOL    HW2 5562   6.839   4.846   4.113  0.0850  1.3757 -0.9263
 1360SOL     OW 5563   4.426   6.440   2.603 -0.4970 -0.5129 -0.5139
 1360SOL    HW1 5564   4.391   6.528   2.617 -1.5403 -0.8394 -1.0663
 1360SOL    HW2 5565   4.352   6.382   2.621  0.2946 -1.3013  0.2376
 1361SOL     OW 5566   7.876   7.016   0.826  0.3658  0.1492 -0.3215
 1361SOL    HW1 5567   7.808   6.958   0.791  0.2337  1.2514 -1.9407
 1361SOL    HW2 5568   7.882   7.087   0.762  0.2011  2.1929  1.8621
 1362SOL     OW 5569   6.697   5.580   7.716 -0.1284 -0.2531  0.3207
 1362SOL    HW1 5570   6.731   5.542   7.797  0.1071 -1.1803 -0.2026
 1362SOL    HW2 5571   6.773   5.591   7.660 -0.3634 -0.1185  0.0235
 1363SOL     OW 5572   5.738   3.583   4.259  0.1465 -0.6025 -0.1389
 1363SOL    HW1 5573   5.817   3.579   4.205 -0.0680  0.7262 -0.5720
 1363SOL    HW2 5574   5.759   3.530   4.336  2.0661  1.0576  0.5387
 1364SOL     OW 5575   3.680   4.354   4.172 -0.4591  0.5063  0.3088
 1364SOL    HW1 5576   3.676   4.445   4.202 -1.1373  0.2845  0.8938
 1364SOL    HW2 5577   3.655   4.302   4.248  0.9764 -0.2391  0.2962
 1365SOL     OW 5578   7.065   3.511   0.052 -0.0321  0.5133 -0.5395
 1365SOL    HW1 5579   7.066   3.439  -0.010  1.9656  1.3324 -1.5226
 1365SOL    HW2 5580   6.973   3.522   0.075 -0.5571 -1.1790 -1.7273
 1366SOL     OW 5581   1.919   0.287   4.754 -0.1751 -0.4286 -0.1687
 1366SOL    HW1 5582   1.999   0.302   4.804  0.5868 -0.4780 -1.3523
 1366SOL    HW2 5583   1.857   0.352   4.788  0.9918  0.9534 -0.6046
 1367SOL     OW 5584   2.536   3.138   0.054  0.3743 -0.2412 -0.0462
 1367SOL    HW1 5585   2.616   3.121   0.103  0.2474  0.1841  0.3198
 1367SOL    HW2 5586   2.493   3.209   0.103 -0.4138 -0.7285 -0.0169
 1368SOL     OW 5587   0.018   2.636   5.631 -0.2834  0.0816 -0.0406
 1368SOL    HW1 5588  -0.066   2.671   5.603 -0.4064  1.2106  1.6557
 1368SOL    HW2 5589  -0.004   2.558   5.681 -0.2352 -0.3239 -0.6452
 1369SOL     OW 5590   0.570   4.483   5.269  0.4736  0.3737 -0.2979
 1369SOL    HW1 5591   0.542   4.532   5.347  0.4529  1.3791 -0.9313
 1369SOL    HW2 5592   0.642   4.429   5.300  0.3606  0.6461  0.4628
 1370SOL     OW 5593   1.301   0.971   6.649  0.0610  0.0111  0.3181
 1370SOL    HW1 5594   1.287   0.877   6.649 -0.4301  0.0857  0.5447
 1370SOL    HW2 5595   1.394   0.981   6.629  0.6294 -0.5883  2.5870
 1371SOL     OW 5596   0.761   6.285   2.581 -0.1687 -0.0629 -0.0845
 1371SOL    HW1 5597   0.825   6.214   2.567  0.1144  0.2050 -0.1608
 1371SOL    HW2 5598   0.683   6.257   2.533  1.1212  1.3131 -3.1332
 1372SOL     OW 5599   0.023   5.288   0.743  0.2350 -0.5008  0.1871
 1372SOL    HW1 5600  -0.002   5.369   0.789  1.0017 -0.4543  0.5257
 1372SOL    HW2 5601  -0.012   5.299   0.655  0.1814  0.1270  0.2831
 1373SOL     OW 5602   5.318   2.548   5.956 -0.6171 -0.1215 -0.6353
 1373SOL    HW1 5603   5.277   2.462   5.944 -0.5301 -0.3580  0.7646
 1373SOL    HW2 5604   5.374   2.537   6.032 -1.5874  1.5375  0.3385
 1374SOL     OW 5605   6.241   3.112   3.169 -0.6108 -0.6199 -0.3478
 1374SOL    HW1 5606   6.232   3.138   3.261 -2.9237  1.8151 -1.1876
 1374SOL    HW2 5607   6.156   3.073   3.147 -0.3504 -0.4647 -1.6548
 1375SOL     OW 5608   2.367   6.180   3.783 -0.4431  0.1391  0.3017
 1375SOL    HW1 5609   2.430   6.251   3.771 -1.8616  1.4537  0.4854
 1375SOL    HW2 5610   2.319   6.202   3.863  1.1729 -2.6562  2.1550
 1376SOL     OW 5611   6.482   8.187   2.338  0.1889 -0.3774  0.2466
 1376SOL    HW1 5612   6.481   8.109   2.283 -0.8130 -0.5564  0.5163
 1376SOL    HW2 5613   6.493   8.153   2.427  0.8160 -0.1435  0.2644
 1377SOL     OW 5614   3.818   2.600   4.118  0.3951 -0.1738  0.7599
 1377SOL    HW1 5615   3.726   2.610   4.093  1.0336 -1.5738 -2.4155
 1377SOL    HW2 5616   3.856   2.687   4.106 -0.0272 -0.1081 -0.1491
 1378SOL     OW 5617   0.387   4.120   1.458 -0.6079  0.7306 -0.2450
 1378SOL    HW1 5618   0.434   4.180   1.400 -1.5973 -0.0236 -1.8466
 1378SOL    HW2 5619   0.295   4.142   1.445 -1.0123 -1.5223 -1.3095
 1379SOL     OW 5620   1.140   7.249   0.153 -0.3766 -0.2318 -0.2977
 1379SOL    HW1 5621   1.104   7.162   0.135  0.3233 -0.4260 -0.7627
 1379SOL    HW2 5622   1.081   7.287   0.218  0.1637 -1.6293  1.0107
 1380SOL     OW 5623   6.788   8.135   3.592 -0.1711  0.1916 -0.0279
 1380SOL    HW1 5624   6.793   8.099   3.681  1.0696 -1.1779 -0.6277
 1380SOL    HW2 5625   6.879   8.136   3.562 -0.6873 -0.3651 -1.6636
 1381SOL     OW 5626   0.055   3.556   3.920  0.0455 -1.0702 -0.3319
 1381SOL    HW1 5627   0.100   3.581   4.001 -0.8487  0.9338 -0.4411
 1381SOL    HW2 5628  -0.037   3.548   3.945 -0.5552  1.5687 -1.5663
 1382SOL     OW 5629   1.761   2.515   5.612  0.2952 -0.1972  0.1342
 1382SOL    HW1 5630   1.737   2.605   5.634 -0.1322 -0.8304  2.3613
 1382SOL    HW2 5631   1.678   2.472   5.591  0.3862 -0.3365  0.0540
 1383SOL     OW 5632   2.660   2.723   3.477  0.3105  0.5261 -0.0441
 1383SOL    HW1 5633   2.691   2.644   3.521  0.9726 -0.1903 -1.7239
 1383SOL    HW2 5634   2.568   2.730   3.503  0.2495 -0.7846  0.1607
 1384SOL     OW 5635   7.809   0.946   6.701  0.5662  0.3602  0.0449
 1384SOL    HW1 5636   7.789   1.014   6.764  1.3891  1.3167 -0.7036
 1384SOL    HW2 5637   7.727   0.930   6.655 -0.3137 -1.1124  2.0444
 1385SOL     OW 5638   2.105   2.586   6.671  0.0331  0.0006 -0.2571
 1385SOL    HW1 5639   2.079   2.517   6.732  0.5398 -0.1108 -0.1691
 1385SOL    HW2 5640   2.025   2.638   6.659 -0.2841 -0.4543 -0.1344
 1386SOL     OW 5641   1.201   4.764   2.985  0.0345 -0.7428  0.2434
 1386SOL    HW1 5642   1.169   4.825   2.919 -1.1822  1.0176  2.4126
 1386SOL    HW2 5643   1.197   4.678   2.942 -2.9944  0.0447 -1.1950
 1387SOL     OW 5644   5.185   0.003   7.840 -0.0835 -0.0784 -0.1798
 1387SOL    HW1 5645   5.276  -0.024   7.838 -0.5813 -1.8282  0.2596
 1387SOL    HW2 5646   5.137  -0.069   7.797 -1.6811 -0.9997  3.0122
 1388SOL     OW 5647   8.127   4.211   4.253 -0.0263  0.6381 -0.2090
 1388SOL    HW1 5648   8.138   4.265   4.332  1.3295 -0.3164  0.2743
 1388SOL    HW2 5649   8.121   4.121   4.286  1.2532  0.1694 -1.2212
 1389SOL     OW 5650   0.371   1.662   5.397 -0.3122  0.1908  0.0155
 1389SOL    HW1 5651   0.301   1.599   5.379 -0.4130  0.1211  0.6575
 1389SOL    HW2 5652   0.335   1.720   5.463 -0.9101  2.0781 -1.9065
 1390SOL     OW 5653   6.831   5.239   1.563 -0.2262 -0.3786  0.5189
 1390SOL    HW1 5654   6.878   5.310   1.520 -0.5283  0.2117  1.1582
 1390SOL    HW2 5655   6.797   5.186   1.491 -2.2055  1.5499 -0.0291
 1391SOL     OW 5656   7.636   5.079   2.669  0.0265  0.2876 -0.2670
 1391SOL    HW1 5657   7.679   5.092   2.584  2.6911  1.2500  1.1734
 1391SOL    HW2 5658   7.629   4.984   2.678  0.6963  0.1483 -1.0927
 1392SOL     OW 5659   5.304   0.745   3.544 -0.3303  0.1345  0.3335
 1392SOL    HW1 5660   5.214   0.733   3.573  0.0005  1.3196  1.8967
 1392SOL    HW2 5661   5.303   0.826   3.494 -0.4583 -0.7640 -1.1607
 1393SOL     OW 5662   1.127   1.150   6.230  0.4492 -0.0573  0.7272
 1393SOL    HW1 5663   1.113   1.126   6.138  0.3427  2.1744  0.1182
 1393SOL    HW2 5664   1.207   1.105   6.255  2.8365  2.6279 -1.7817
 1394SOL     OW 5665   3.011   7.753   4.578  0.2836  0.4553  0.3487
 1394SOL    HW1 5666   2.926   7.794   4.596  0.7384  1.2709  0.6147
 1394SOL    HW2 5667   3.039   7.719   4.663  0.3069  0.3367  0.2932
 1395SOL     OW 5668   6.720   5.945   7.243 -0.2164  0.7824 -0.0329
 1395SOL    HW1 5669   6.754   5.856   7.236 -0.5510  0.5642  1.1469
 1395SOL    HW2 5670   6.732   5.969   7.335 -2.5336  0.9863  0.2356
 1396SOL     OW 5671   5.798   1.781   0.123 -0.6426  0.0964 -0.1563
 1396SOL    HW1 5672   5.756   1.717   0.066 -0.5766  1.0645 -1.3136
 1396SOL    HW2 5673   5.729   1.844   0.144 -0.0886  0.9973 -1.0323
 1397SOL     OW 5674   8.260   1.120   1.993  0.4756 -0.1006  0.1486
 1397SOL    HW1 5675   8.288   1.108   1.902 -0.2636  0.7668 -0.2057
 1397SOL    HW2 5676   8.228   1.034   2.020 -2.2357  0.3572 -1.4483
 1398SOL     OW 5677   8.283   5.519   2.397  0.0852  0.3397  0.1010
 1398SOL    HW1 5678   8.288   5.610   2.426  0.0153  0.2094  0.5296
 1398SOL    HW2 5679   8.263   5.525   2.304 -0.3074  0.7630  0.2055
 1399SOL     OW 5680   0.245   4.703   3.016 -0.0858 -0.4656  0.2228
 1399SOL    HW1 5681   0.198   4.724   2.935 -1.2855 -1.7956  0.5648
 1399SOL    HW2 5682   0.302   4.630   2.992 -0.3377 -0.7657  0.5383
 1400SOL     OW 5683   3.062   1.905   7.094  0.2927  0.3130 -0.5259
 1400SOL    HW1 5684   2.995   1.972   7.107  0.2042  0.0227  0.5548
 1400SOL    HW2 5685   3.016   1.832   7.053 -0.2654 -0.2504  1.0716
 1401SOL     OW 5686   5.772   0.669   4.321  0.4391 -0.2418  0.4265
 1401SOL    HW1 5687   5.817   0.595   4.279  1.6370  0.3253  0.6842
 1401SOL    HW2 5688   5.698   0.629   4.366  1.4645 -1.3946  1.1422
 1402SOL     OW 5689   4.913   0.556   2.014  0.3355  0.3318 -0.7470
 1402SOL    HW1 5690   4.988   0.587   1.964  0.0793  2.2902  0.0210
 1402SOL    HW2 5691   4.872   0.490   1.958  1.9210  0.1247 -1.6908
 1403SOL     OW 5692   2.555   0.551   2.742  0.0628  0.2066 -0.1549
 1403SOL    HW1 5693   2.572   0.528   2.651  3.4932 -0.1681  0.5434
 1403SOL    HW2 5694   2.591   0.639   2.752  0.5864 -0.1327  1.0863
 1404SOL     OW 5695   5.796   8.249   1.272 -0.1204  0.2072 -0.3848
 1404SOL    HW1 5696   5.834   8.322   1.321 -0.1362  1.5570 -2.3112
 1404SOL    HW2 5697   5.859   8.233   1.201 -0.6555 -0.9231 -0.6187
 1405SOL     OW 5698   7.428   5.000   3.415 -0.0712 -1.0042  0.4706
 1405SOL    HW1 5699   7.360   5.067   3.425 -1.7796 -2.4676 -0.9677
 1405SOL    HW2 5700   7.436   4.960   3.501 -0.2280 -0.0694  0.9245
 1406SOL     OW 5701   6.713   1.532   3.231 -0.4512  0.0394 -0.0486
 1406SOL    HW1 5702   6.697   1.612   3.280  0.8267 -0.5708  1.4125
 1406SOL    HW2 5703   6.807   1.533   3.213 -0.6147 -0.5939 -0.9808
 1407SOL     OW 5704   0.865   3.987   7.094 -0.5302  0.0262  0.1866
 1407SOL    HW1 5705   0.928   4.055   7.119 -1.4589  1.3485 -0.9944
 1407SOL    HW2 5706   0.815   4.026   7.022 -0.2859 -2.3646 -1.3192
 1408SOL     OW 5707   6.074   7.556   2.208 -0.2252  0.1723 -0.1316
 1408SOL    HW1 5708   6.020   7.599   2.275 -0.2180  0.5673 -0.3821
 1408SOL    HW2 5709   6.011   7.509   2.153 -0.3483  0.9156 -0.6316
 1409SOL     OW 5710   5.053   5.651   7.469  0.1039  0.4043  0.1416
 1409SOL    HW1 5711   5.096   5.572   7.436 -0.6251 -0.1694  0.5312
 1409SOL    HW2 5712   4.975   5.660   7.414  0.2211  0.8911  0.0582
 1410SOL     OW 5713   0.708   2.408   6.873 -0.5794 -0.1228 -0.6520
 1410SOL    HW1 5714   0.674   2.464   6.942 -0.2809  0.1435 -0.7223
 1410SOL    HW2 5715   0.632   2.391   6.816 -0.4933  0.8599 -1.0701
 1411SOL     OW 5716   2.689   6.319   0.478  0.4179  0.1378  0.4696
 1411SOL    HW1 5717   2.721   6.343   0.391  0.9046 -0.8909  0.3589
 1411SOL    HW2 5718   2.767   6.314   0.532  0.0314  1.7211  1.2237
 1412SOL     OW 5719   6.189   1.052   0.698 -0.2043 -0.0819 -0.0521
 1412SOL    HW1 5720   6.211   1.011   0.782  1.1813 -0.0915 -0.4012
 1412SOL    HW2 5721   6.191   1.146   0.717 -2.1365 -0.1168  0.4475
 1413SOL     OW 5722   6.066   6.106   2.250  0.1166  0.1956  0.0336
 1413SOL    HW1 5723   6.019   6.026   2.227 -0.0337 -0.3444  2.1402
 1413SOL    HW2 5724   6.077   6.152   2.167 -0.5414 -1.6042 -1.0782
 1414SOL     OW 5725   7.898   3.374   1.067  0.3266  0.2941 -0.2134
 1414SOL    HW1 5726   7.848   3.293   1.063 -0.4804  0.7998 -0.5323
 1414SOL    HW2 5727   7.958   3.361   1.141  0.2979 -0.6370 -0.3472
 1415SOL     OW 5728   7.758   5.428   1.954 -0.1832  0.3589  0.3676
 1415SOL    HW1 5729   7.807   5.347   1.953 -1.7350 -0.6262  1.1986
 1415SOL    HW2 5730   7.767   5.464   1.866  1.4213 -0.1472  0.3200
 1416SOL     OW 5731   2.083   0.195   1.686  0.3413 -0.3939 -0.0700
 1416SOL    HW1 5732   2.039   0.185   1.601 -0.7511  0.6781  0.3580
 1416SOL    HW2 5733   2.140   0.118   1.692 -1.1005 -1.5537 -0.8607
 1417SOL     OW 5734   7.768   8.162   4.862 -0.4531  0.4714 -0.2636
 1417SOL    HW1 5735   7.759   8.163   4.767 -0.2991 -0.8365 -0.3031
 1417SOL    HW2 5736   7.707   8.093   4.891  2.9211 -2.4726  0.1785
 1418SOL     OW 5737   0.061   5.839   0.373 -0.0920 -0.2748 -0.1091
 1418SOL    HW1 5738  -0.003   5.830   0.302 -0.5346  1.4481  0.0456
 1418SOL    HW2 5739   0.081   5.749   0.399 -0.2950 -0.9140 -2.0826
 1419SOL     OW 5740   5.462   1.500   4.028  0.3868 -0.2304  0.0218
 1419SOL    HW1 5741   5.467   1.579   4.081 -0.6313  0.1806 -0.4844
 1419SOL    HW2 5742   5.391   1.517   3.966  0.0517 -1.6036  0.0123
 1420SOL     OW 5743   1.478   7.664   6.168  0.1292 -0.2411 -0.2170
 1420SOL    HW1 5744   1.527   7.746   6.171 -0.5889  0.1151  2.2339
 1420SOL    HW2 5745   1.508   7.615   6.245 -0.4513 -1.7094 -0.9080
 1421SOL     OW 5746   7.011   7.276   7.800  0.7452 -0.3043 -0.2735
 1421SOL    HW1 5747   7.062   7.197   7.780  1.4308  0.0251  0.1775
 1421SOL    HW2 5748   6.949   7.283   7.728  0.2140 -1.6513  0.0366
 1422SOL     OW 5749   1.364   7.240   2.085  0.1312 -0.2055 -0.5012
 1422SOL    HW1 5750   1.417   7.318   2.098 -1.3944  0.7120  0.2236
 1422SOL    HW2 5751   1.334   7.215   2.172 -1.7861  0.0959 -1.0552
 1423SOL     OW 5752   1.515   2.632   2.906 -0.4972  0.2854  0.0115
 1423SOL    HW1 5753   1.428   2.661   2.878 -0.4459  2.2914  1.8304
 1423SOL    HW2 5754   1.498   2.577   2.982 -0.0392  2.5792  1.7892
 1424SOL     OW 5755   2.258   2.574   7.761  0.0742 -0.2674 -0.1675
 1424SOL    HW1 5756   2.208   2.578   7.842  0.8575 -2.4362  0.4490
 1424SOL    HW2 5757   2.193   2.551   7.694  0.1010 -2.5912  0.5528
 1425SOL     OW 5758   8.184   5.973   1.965 -0.7515  0.1746  0.1467
 1425SOL    HW1 5759   8.106   6.026   1.978 -0.7142 -0.1310  1.6227
 1425SOL    HW2 5760   8.164   5.920   1.887 -1.3721  1.2536 -0.4321
 1426SOL     OW 5761   6.960   7.101   7.226  0.2629 -0.0751  0.5670
 1426SOL    HW1 5762   7.048   7.066   7.215 -0.7993 -2.3383 -0.9547
 1426SOL    HW2 5763   6.958   7.179   7.170  0.6983 -1.0985 -0.8859
 1427SOL     OW 5764   1.172   3.955   1.676  0.2870 -0.4985 -0.3927
 1427SOL    HW1 5765   1.244   4.018   1.682  0.7626 -1.1776  1.4981
 1427SOL    HW2 5766   1.112   3.982   1.746 -0.2122 -1.2547 -0.5271
 1428SOL     OW 5767   0.036   3.460   4.859  0.2769  0.1645  0.1122
 1428SOL    HW1 5768   0.056   3.367   4.869  0.0582  0.1184  0.1252
 1428SOL    HW2 5769   0.002   3.486   4.944 -0.7509 -0.0157 -0.2430
 1429SOL     OW 5770   2.358   4.519   0.427  0.4503  0.0579 -0.1259
 1429SOL    HW1 5771   2.372   4.552   0.338  0.2119 -0.7730 -0.4804
 1429SOL    HW2 5772   2.300   4.584   0.468 -0.7020 -0.3367 -1.0858
 1430SOL     OW 5773   0.720   3.268   3.634  0.1938 -0.6285  0.4901
 1430SOL    HW1 5774   0.659   3.202   3.603  1.0671 -1.0979 -0.2756
 1430SOL    HW2 5775   0.697   3.281   3.726 -0.0697 -1.9111  0.6168
 1431SOL     OW 5776   1.611   2.372   2.150 -0.4210 -0.4198  0.1089
 1431SOL    HW1 5777   1.555   2.300   2.120  0.0412 -0.2903 -1.1354
 1431SOL    HW2 5778   1.578   2.395   2.237 -2.2529 -0.3760 -0.5768
 1432SOL     OW 5779   2.815   3.919   5.460  0.3670 -0.2294  0.3212
 1432SOL    HW1 5780   2.845   3.914   5.369  1.2949  0.7903  0.5597
 1432SOL    HW2 5781   2.823   3.829   5.493  1.0510 -0.3966 -0.2871
 1433SOL     OW 5782   6.888   3.752   6.313  0.1894  0.3339 -0.1084
 1433SOL    HW1 5783   6.814   3.710   6.357 -0.6765  1.6972 -0.2484
 1433SOL    HW2 5784   6.949   3.772   6.384  0.7025 -1.3288 -0.0637
 1434SOL     OW 5785   4.597   3.782   0.976 -0.3116 -0.0915 -0.4022
 1434SOL    HW1 5786   4.571   3.761   1.066  0.1278  1.5413  0.1265
 1434SOL    HW2 5787   4.569   3.873   0.964  0.3970 -0.0284 -1.6294
 1435SOL     OW 5788   3.434   4.285   6.415 -0.3242 -0.7015 -0.9225
 1435SOL    HW1 5789   3.520   4.323   6.432 -0.7284 -0.6578  1.1213
 1435SOL    HW2 5790   3.448   4.225   6.342  1.4194 -0.6423 -0.6429
 1436SOL     OW 5791   5.822   5.852   3.005  0.4074 -0.7755  0.0797
 1436SOL    HW1 5792   5.883   5.831   2.934  0.1724 -1.8470  0.1833
 1436SOL    HW2 5793   5.825   5.776   3.062 -0.9196 -0.7721  0.1664
 1437SOL     OW 5794   6.930   4.265   5.933 -0.6265 -0.7202  0.3695
 1437SOL    HW1 5795   6.852   4.267   5.987 -0.6821  1.9443  0.2690
 1437SOL    HW2 5796   6.897   4.260   5.843 -0.6616 -0.7381  0.3838
 1438SOL     OW 5797   4.724   2.428   7.586 -0.5741  0.0962  0.2364
 1438SOL    HW1 5798   4.652   2.476   7.545 -1.4849 -0.6120  0.9848
 1438SOL    HW2 5799   4.693   2.338   7.592  1.2908 -0.7098 -1.5524
 1439SOL     OW 5800   5.435   1.829   7.251 -0.4927  0.0559  0.8698
 1439SOL    HW1 5801   5.432   1.745   7.298  0.6327 -0.7070 -0.3723
 1439SOL    HW2 5802   5.516   1.870   7.280 -0.2125 -0.0455  0.2489
 1440SOL     OW 5803   5.682   2.816   6.657 -0.1692 -0.5288 -0.1030
 1440SOL    HW1 5804   5.624   2.757   6.706 -1.2142 -0.0647 -0.7630
 1440SOL    HW2 5805   5.623   2.866   6.601  0.8419  0.2437 -0.4863
 1441SOL     OW 5806   0.517   6.814   7.298 -0.0594 -0.2793  0.2534
 1441SOL    HW1 5807   0.604   6.792   7.267  0.2769  0.3287  0.7550
 1441SOL    HW2 5808   0.498   6.899   7.257 -0.6960 -0.7324 -0.4014
 1442SOL     OW 5809   1.007   8.272   6.716  0.1800  0.5746  0.3027
 1442SOL    HW1 5810   0.936   8.314   6.765  0.0099  0.0266  0.5257
 1442SOL    HW2 5811   0.971   8.189   6.688  0.6935  0.3495  0.3092
 1443SOL     OW 5812   5.019   6.342   2.206 -0.3690 -0.5131  0.0573
 1443SOL    HW1 5813   4.957   6.352   2.135 -0.4339 -3.9530 -0.4264
 1443SOL    HW2 5814   4.969   6.301   2.276  0.4292  0.2210  1.0844
 1444SOL     OW 5815   4.981   1.527   5.317 -0.5580 -0.8495 -0.4422
 1444SOL    HW1 5816   5.068   1.562   5.300 -1.3961  1.7071  0.1810
 1444SOL    HW2 5817   4.948   1.500   5.231  0.1539 -0.1009 -0.9575
 1445SOL     OW 5818   3.254   3.263   2.321  0.5219  0.0328  0.0136
 1445SOL    HW1 5819   3.308   3.188   2.297  0.6359 -0.3296  1.3489
 1445SOL    HW2 5820   3.266   3.326   2.250  0.4729 -1.1898 -1.0789
 1446SOL     OW 5821   2.071   5.728   0.302 -0.2936 -0.1112 -0.6258
 1446SOL    HW1 5822   2.099   5.693   0.387 -0.7581 -0.8082 -0.7597
 1446SOL    HW2 5823   2.150   5.727   0.248 -0.8140 -3.3319 -1.4320
 1447SOL     OW 5824   1.902   4.608   2.925 -0.1546  0.1608  1.3012
 1447SOL    HW1 5825   1.908   4.586   3.018 -0.3162 -3.3258  0.5514
 1447SOL    HW2 5826   1.955   4.541   2.881  0.1771  1.9375 -1.1297
 1448SOL     OW 5827   2.498   8.209   2.665 -0.1355  0.1890  0.4362
 1448SOL    HW1 5828   2.438   8.161   2.608  0.4880  0.4144 -0.4288
 1448SOL    HW2 5829   2.464   8.195   2.754 -3.0494  2.5613 -0.2158
 1449SOL     OW 5830   4.625   4.282   0.873 -0.2357  0.2939  0.2274
 1449SOL    HW1 5831   4.605   4.346   0.942 -0.6426  0.5266 -0.1083
 1449SOL    HW2 5832   4.672   4.333   0.807  2.3405 -0.4273  1.4263
 1450SOL     OW 5833   4.784   2.330   6.534 -0.0773 -0.0422 -0.3610
 1450SOL    HW1 5834   4.842   2.346   6.608  1.2238  0.9124 -1.5609
 1450SOL    HW2 5835   4.783   2.234   6.524  0.6294 -0.1074  0.1908
 1451SOL     OW 5836   5.064   2.506   7.981 -0.0852 -0.3851 -0.1034
 1451SOL    HW1 5837   4.984   2.512   8.034  0.3784 -1.6159  0.7587
 1451SOL    HW2 5838   5.048   2.565   7.907 -0.7820  1.3033  1.3470
 1452SOL     OW 5839   6.749   0.473   5.816 -0.4503  0.3550  0.4366
 1452SOL    HW1 5840   6.811   0.534   5.776  0.8966 -0.2370  1.6057
 1452SOL    HW2 5841   6.789   0.448   5.899 -1.7011 -0.9496  0.6705
 1453SOL     OW 5842   7.525   7.769   3.076 -0.2239  0.6061  0.4765
 1453SOL    HW1 5843   7.556   7.717   3.150  2.6592  1.7306  0.1224
 1453SOL    HW2 5844   7.541   7.714   3.000  0.7903  1.1067  0.3141
 1454SOL     OW 5845   5.981   2.476   1.354 -0.1231 -0.0450  0.6384
 1454SOL    HW1 5846   5.894   2.492   1.389 -0.3422 -0.8509  0.4651
 1454SOL    HW2 5847   5.967   2.447   1.264  0.3776  0.7746  0.2818
 1455SOL     OW 5848   2.271   3.529   7.075  0.4138  0.3251  0.2061
 1455SOL    HW1 5849   2.326   3.563   7.146  0.0226  0.5402  0.4053
 1455SOL    HW2 5850   2.332   3.519   7.002  0.2565  2.9603 -0.3532
 1456SOL     OW 5851   3.368   2.374   3.020 -0.4700  0.1727  0.2310
 1456SOL    HW1 5852   3.294   2.317   3.041 -0.4358  0.6150  1.5688
 1456SOL    HW2 5853   3.437   2.314   2.991 -1.5119 -0.2019 -1.5591
 1457SOL     OW 5854   2.716   4.233   7.094 -0.0681  0.2580 -0.1173
 1457SOL    HW1 5855   2.710   4.219   7.189  1.2083 -1.4759 -0.2571
 1457SOL    HW2 5856   2.630   4.266   7.070 -0.8466 -0.5316  1.4603
 1458SOL     OW 5857   1.691   6.665   5.413 -0.2187  0.1960  0.1587
 1458SOL    HW1 5858   1.719   6.574   5.424 -1.1553 -0.2001 -0.6623
 1458SOL    HW2 5859   1.693   6.702   5.502  0.6593 -0.4728  0.4248
 1459SOL     OW 5860   2.331   3.620   1.210 -0.4113  0.4745 -0.0429
 1459SOL    HW1 5861   2.285   3.685   1.264  0.4073  1.4066 -0.4366
 1459SOL    HW2 5862   2.281   3.540   1.220 -1.2378  1.0823  0.7545
 1460SOL     OW 5863   8.028   3.814   5.305  0.2654 -0.6524  0.1946
 1460SOL    HW1 5864   7.978   3.763   5.369 -2.4026  0.5813 -0.8701
 1460SOL    HW2 5865   8.012   3.770   5.222  0.5280  0.0765 -0.2380
 1461SOL     OW 5866   4.717   1.459   4.477  0.1242  0.3597  0.1830
 1461SOL    HW1 5867   4.698   1.553   4.470  0.1370  0.5395  2.1872
 1461SOL    HW2 5868   4.702   1.425   4.389  0.3468  2.2807 -0.6260
 1462SOL     OW 5869   1.392   3.949   4.555  0.1362 -0.3858  0.3371
 1462SOL    HW1 5870   1.455   4.020   4.568 -0.5254  0.4686 -1.0017
 1462SOL    HW2 5871   1.377   3.914   4.643 -0.1925  1.7136  1.1450
 1463SOL     OW 5872   7.298   3.521   6.568 -0.1344 -0.1875 -0.4099
 1463SOL    HW1 5873   7.383   3.494   6.531  0.3998  0.4213  0.3655
 1463SOL    HW2 5874   7.250   3.555   6.493  0.2951 -0.5625 -0.8652
 1464SOL     OW 5875   5.334   1.171   7.696  0.0214  0.1806 -0.2773
 1464SOL    HW1 5876   5.380   1.132   7.771 -0.5865 -0.7820 -0.3979
 1464SOL    HW2 5877   5.252   1.205   7.733  0.5150  1.2922 -0.1870
 1465SOL     OW 5878   5.249   2.616   0.899 -0.1053  0.3219 -0.1886
 1465SOL    HW1 5879   5.316   2.686   0.900 -0.1018  0.3279 -0.6293
 1465SOL    HW2 5880   5.174   2.656   0.856  0.6956 -0.6591 -2.5988
 1466SOL     OW 5881   4.428   3.112   6.003  0.0409  0.0556 -0.1603
 1466SOL    HW1 5882   4.446   3.103   6.097  1.2856 -0.2771 -0.4243
 1466SOL    HW2 5883   4.445   3.025   5.967  0.5931  0.4540 -0.8600
 1467SOL     OW 5884   0.565   3.127   5.397 -0.0016  0.4389 -0.6363
 1467SOL    HW1 5885   0.587   3.205   5.346  1.5869  0.5035  0.1198
 1467SOL    HW2 5886   0.589   3.054   5.339 -0.0876  0.5133 -0.7667
 1468SOL     OW 5887   5.107   3.848   6.298  0.0178 -0.1591  0.2081
 1468SOL    HW1 5888   5.081   3.893   6.379 -1.5583 -1.2114  0.3132
 1468SOL    HW2 5889   5.048   3.884   6.231  0.7369  0.0728 -0.3102
 1469SOL     OW 5890   6.007   6.016   3.433  0.0473  0.3117 -0.5799
 1469SOL    HW1 5891   6.033   6.033   3.523  0.7088  0.4087 -0.7897
 1469SOL    HW2 5892   6.037   5.927   3.415 -1.6427 -0.3761 -0.1360
 1470SOL     OW 5893   0.222   2.929   3.056  0.1726  0.5135  0.4152
 1470SOL    HW1 5894   0.238   3.005   2.999  0.1034  0.1917 -0.0385
 1470SOL    HW2 5895   0.178   2.966   3.132 -2.9993  0.4909 -1.3142
 1471SOL     OW 5896   5.971   2.235   6.449 -0.2312  0.5953 -0.0717
 1471SOL    HW1 5897   5.910   2.279   6.390 -0.2547  1.4710  0.5849
 1471SOL    HW2 5898   5.915   2.200   6.519 -0.1880 -0.2872 -0.4789
 1472SOL     OW 5899   0.135   0.319   1.202 -0.1524  0.9966 -0.0972
 1472SOL    HW1 5900   0.079   0.359   1.135 -0.0429  1.4387  0.0756
 1472SOL    HW2 5901   0.082   0.247   1.237  1.0357 -1.3572 -2.9490
 1473SOL     OW 5902   7.627   7.451   2.645  0.0587 -0.1041 -0.3242
 1473SOL    HW1 5903   7.632   7.506   2.566  1.6211  0.9092  0.4517
 1473SOL    HW2 5904   7.713   7.410   2.650 -0.0905 -0.2889  0.7701
 1474SOL     OW 5905   7.195   7.868   0.873 -0.2245 -0.1159 -0.1404
 1474SOL    HW1 5906   7.240   7.798   0.921 -1.2881 -0.9117 -0.2899
 1474SOL    HW2 5907   7.160   7.926   0.941  0.0756 -0.0998  0.0007
 1475SOL     OW 5908   0.540   1.813   3.794  0.1104  0.7221 -0.2911
 1475SOL    HW1 5909   0.566   1.829   3.703 -1.9086 -0.3991 -1.1169
 1475SOL    HW2 5910   0.493   1.892   3.819  0.3552  0.8901 -0.3652
 1476SOL     OW 5911   4.879   4.267   5.231 -0.6739 -0.0230  0.5481
 1476SOL    HW1 5912   4.842   4.334   5.288 -1.4970  0.8243 -0.9710
 1476SOL    HW2 5913   4.889   4.310   5.146  1.6022 -0.9218  0.3157
 1477SOL     OW 5914   6.642   5.907   8.215 -0.2503  0.1022 -0.0517
 1477SOL    HW1 5915   6.583   5.882   8.286 -0.3537  1.0112  0.1972
 1477SOL    HW2 5916   6.706   5.836   8.210 -0.4662 -0.1531  0.7003
 1478SOL     OW 5917   3.816   2.476   6.148  0.0040 -0.0926 -0.2899
 1478SOL    HW1 5918   3.824   2.419   6.224  1.5926  0.0884 -0.2964
 1478SOL    HW2 5919   3.750   2.540   6.172  0.2166 -0.2743  0.7969
 1479SOL     OW 5920   0.692   4.693   1.897 -0.2200  0.1994 -0.2784
 1479SOL    HW1 5921   0.703   4.617   1.954  2.7101 -0.0613 -1.1288
 1479SOL    HW2 5922   0.753   4.759   1.931 -1.0031  1.3273 -0.9942
 1480SOL     OW 5923   0.080   5.177   7.340 -0.0515 -0.0713 -1.0152
 1480SOL    HW1 5924   0.068   5.212   7.251 -0.0571 -0.3199 -1.1133
 1480SOL    HW2 5925  -0.002   5.198   7.385 -0.0030  0.1596 -1.0318
 1481SOL     OW 5926   4.464   3.765   4.898  0.2385 -0.0778  0.3246
 1481SOL    HW1 5927   4.541   3.717   4.927 -0.3689 -1.2592 -0.0152
 1481SOL    HW2 5928   4.390   3.718   4.936 -0.3740  0.4299 -0.2164
 1482SOL     OW 5929   6.572   7.540   2.409 -0.0499 -0.1698 -0.6131
 1482SOL    HW1 5930   6.647   7.502   2.455 -1.0487 -0.1542  1.0725
 1482SOL    HW2 5931   6.505   7.471   2.412 -0.3466  0.0738 -1.4897
 1483SOL     OW 5932   1.989   6.046   3.887 -0.1136  0.0834  0.0305
 1483SOL    HW1 5933   2.043   5.979   3.846  0.4138 -0.6980  1.9763
 1483SOL    HW2 5934   1.901   6.008   3.890  0.4304 -1.0845  2.2906
 1484SOL     OW 5935   6.815   2.973   2.100  0.3505  0.3455 -0.1662
 1484SOL    HW1 5936   6.869   3.018   2.165 -1.9553  1.5396  0.9806
 1484SOL    HW2 5937   6.779   2.898   2.147  0.0947  0.2123 -0.5764
 1485SOL     OW 5938   0.917   1.242   0.377 -0.2378  0.5095 -0.1591
 1485SOL    HW1 5939   0.873   1.159   0.391 -0.6177  0.7763  0.2219
 1485SOL    HW2 5940   0.971   1.227   0.299 -0.7458  0.0858 -0.4350
 1486SOL     OW 5941   1.361   6.262   7.216 -0.3464  0.4835  0.1070
 1486SOL    HW1 5942   1.334   6.351   7.191 -0.3410  0.4786  0.0832
 1486SOL    HW2 5943   1.415   6.274   7.294  1.9815  0.7700 -1.5034
 1487SOL     OW 5944   2.108   3.314   7.361 -0.9126 -0.3353  0.1344
 1487SOL    HW1 5945   2.187   3.278   7.401 -0.4470 -1.0628 -1.3905
 1487SOL    HW2 5946   2.130   3.404   7.340 -0.1208 -0.8242 -1.2005
 1488SOL     OW 5947   7.472   1.766   6.101  0.2730 -0.2947 -0.4224
 1488SOL    HW1 5948   7.524   1.793   6.177 -0.1523 -1.1452  0.1801
 1488SOL    HW2 5949   7.470   1.670   6.105 -1.0786 -0.2962 -0.6061
 1489SOL     OW 5950   3.267   1.594   3.423  0.3606 -0.5823  0.2914
 1489SOL    HW1 5951   3.276   1.558   3.335 -0.4586  1.5610 -0.7070
 1489SOL    HW2 5952   3.327   1.668   3.425  0.2207 -0.4940  1.4713
 1490SOL     OW 5953   7.282   3.808   8.225  0.0784 -0.0114 -0.4786
 1490SOL    HW1 5954   7.375   3.819   8.203 -0.0520  0.7850 -0.6571
 1490SOL    HW2 5955   7.254   3.731   8.176  0.3691  0.3981 -1.2991
 1491SOL     OW 5956   6.754   3.997   2.139 -0.4156 -0.1473  0.0128
 1491SOL    HW1 5957   6.778   4.090   2.141 -0.1735 -0.2402  1.2713
 1491SOL    HW2 5958   6.698   3.985   2.215  1.3829 -1.5328  1.1374
 1492SOL     OW 5959   2.361   2.717   7.563 -0.1136 -0.1721 -0.0598
 1492SOL    HW1 5960   2.289   2.702   7.502  0.3606 -3.0555  0.0336
 1492SOL    HW2 5961   2.332   2.678   7.645  1.0287 -0.2007  0.3426
 1493SOL     OW 5962   4.486   1.834   3.686  0.2127  0.6912 -0.2832
 1493SOL    HW1 5963   4.414   1.890   3.713 -1.1482 -1.1208 -0.0570
 1493SOL    HW2 5964   4.561   1.865   3.738 -0.5469  2.1388 -0.0284
 1494SOL     OW 5965   5.714   3.059   0.354  0.2461  0.2280  0.3678
 1494SOL    HW1 5966   5.778   3.130   0.358  0.6149  0.1662 -2.9831
 1494SOL    HW2 5967   5.756   2.993   0.300 -3.6150  1.3187 -4.2723
 1495SOL     OW 5968   6.808   4.985   7.943 -0.2601 -0.8298  0.0366
 1495SOL    HW1 5969   6.854   4.901   7.932  2.7061  0.5513  1.5083
 1495SOL    HW2 5970   6.757   4.974   8.023 -1.2035 -1.7932 -0.6831
 1496SOL     OW 5971   1.141   5.134   2.241 -0.4288  0.4870  0.4097
 1496SOL    HW1 5972   1.217   5.152   2.296 -1.1156  1.9478  0.9096
 1496SOL    HW2 5973   1.067   5.169   2.291 -1.5003 -1.4491  0.2034
 1497SOL     OW 5974   5.869   4.012   0.954 -0.5062  0.1746  0.0731
 1497SOL    HW1 5975   5.858   3.975   1.042 -1.0470  1.9248  0.7717
 1497SOL    HW2 5976   5.904   4.100   0.970 -0.8116  0.5790 -1.4543
 1498SOL     OW 5977   6.285   1.847   3.474 -0.0641  0.1319 -0.5169
 1498SOL    HW1 5978   6.302   1.787   3.401  0.9522  0.5166 -0.6056
 1498SOL    HW2 5979   6.238   1.920   3.434 -1.6414 -0.7668 -0.3418
 1499SOL     OW 5980   5.958   2.249   7.243 -0.4456 -0.4896 -0.3392
 1499SOL    HW1 5981   6.047   2.276   7.269 -0.3678 -2.5123  1.6403
 1499SOL    HW2 5982   5.902   2.280   7.314 -1.0982 -0.7405 -0.7452
 1500SOL     OW 5983   1.931   0.586   6.403 -0.0339 -0.1249  0.3652
 1500SOL    HW1 5984   2.020   0.551   6.399 -0.5696 -1.4746  0.0713
 1500SOL    HW2 5985   1.878   0.514   6.436 -1.1303  0.4854 -0.0386
 1501SOL     OW 5986   7.998   5.008   6.505  0.2110 -0.4297  0.3164
 1501SOL    HW1 5987   7.969   5.099   6.517  2.3614  0.4223 -0.6387
 1501SOL    HW2 5988   8.003   4.973   6.594  1.7270  1.1788  0.9042
 1502SOL     OW 5989   5.943   3.133   5.076 -0.7263  0.2162 -0.1637
 1502SOL    HW1 5990   5.884   3.190   5.125 -0.1138 -0.1818  1.0590
 1502SOL    HW2 5991   5.920   3.045   5.105 -0.5522 -0.0419 -0.8151
 1503SOL     OW 5992   1.270   4.869   3.938 -0.3639 -0.2555 -0.3870
 1503SOL    HW1 5993   1.317   4.877   4.021 -0.1961  0.0668 -0.5121
 1503SOL    HW2 5994   1.328   4.909   3.873 -0.8797  0.2938 -0.5144
 1504SOL     OW 5995   4.457   3.697   0.754  0.4193 -0.6411  0.5733
 1504SOL    HW1 5996   4.526   3.743   0.706 -1.8021  1.9163 -0.2398
 1504SOL    HW2 5997   4.469   3.725   0.845  0.0114  0.3673  0.3195
 1505SOL     OW 5998   2.631   0.770   2.029 -0.5077  0.1735  0.0925
 1505SOL    HW1 5999   2.558   0.713   2.006 -0.7508  0.4025  0.3011
 1505SOL    HW2 6000   2.599   0.824   2.101  0.3828 -0.8131  1.2634
 1506SOL     OW 6001   1.788   1.055   4.021  0.0156  0.1352  0.4277
 1506SOL    HW1 6002   1.805   1.091   4.108 -0.9493  1.4175  0.1006
 1506SOL    HW2 6003   1.799   1.130   3.961  0.0665 -0.5948 -0.4922
 1507SOL     OW 6004   6.416   7.681   6.239  0.4418 -0.1328 -0.1252
 1507SOL    HW1 6005   6.442   7.589   6.241  0.8504 -0.0067  0.2515
 1507SOL    HW2 6006   6.374   7.691   6.153 -0.2232 -0.8376  0.1110
 1508SOL     OW 6007   0.032   7.089   4.226  0.1794 -0.6722 -0.2614
 1508SOL    HW1 6008  -0.010   7.009   4.194 -0.8916 -0.9311  1.7297
 1508SOL    HW2 6009   0.108   7.057   4.276 -0.4879 -0.4698  0.8866
 1509SOL     OW 6010   2.319   6.154   7.614 -0.0501 -0.4518  0.1936
 1509SOL    HW1 6011   2.247   6.194   7.565 -0.0730 -1.2007 -0.3954
 1509SOL    HW2 6012   2.300   6.176   7.705 -1.3272 -1.1036  0.0968
 1510SOL     OW 6013   2.662   8.022   1.236 -0.3659 -0.1464 -0.2416
 1510SOL    HW1 6014   2.655   7.937   1.193  0.3714 -0.2481 -0.1672
 1510SOL    HW2 6015   2.617   8.082   1.178  0.1368 -0.3815 -0.8741
 1511SOL     OW 6016   6.297   7.273   6.877  0.0679 -0.0362  0.1484
 1511SOL    HW1 6017   6.334   7.349   6.920 -1.4235  0.3571  0.7468
 1511SOL    HW2 6018   6.263   7.306   6.794 -0.7286 -0.0126  0.4814
 1512SOL     OW 6019   0.595   4.820   6.725  0.1210 -0.3076 -0.3838
 1512SOL    HW1 6020   0.573   4.825   6.818  1.1418  3.3211 -0.2611
 1512SOL    HW2 6021   0.690   4.825   6.723  0.2767 -2.8764 -1.5631
 1513SOL     OW 6022   3.476   7.212   1.853  0.4236 -0.0335  0.3705
 1513SOL    HW1 6023   3.421   7.211   1.774  1.1603  0.0007 -0.1406
 1513SOL    HW2 6024   3.447   7.136   1.902 -0.5001  0.3136  0.3879
 1514SOL     OW 6025   4.932   6.317   7.612  0.3206 -0.4269 -0.0733
 1514SOL    HW1 6026   5.024   6.336   7.628  0.4525 -0.1949 -1.0697
 1514SOL    HW2 6027   4.886   6.361   7.684  1.1186 -2.4352  1.7063
 1515SOL     OW 6028   5.753   5.933   2.529 -0.6097 -0.3951  0.2739
 1515SOL    HW1 6029   5.702   6.005   2.494  0.4480 -0.0287 -0.5300
 1515SOL    HW2 6030   5.739   5.937   2.624 -0.6737  0.7779  0.2149
 1516SOL     OW 6031   2.438   3.635   5.567  0.7192  0.1662  0.3804
 1516SOL    HW1 6032   2.440   3.730   5.557  0.3156  0.0616 -0.7800
 1516SOL    HW2 6033   2.529   3.608   5.552  0.0790 -0.0277 -3.7904
 1517SOL     OW 6034   1.944   5.812   2.381 -0.0683 -0.4838  0.1079
 1517SOL    HW1 6035   2.024   5.822   2.330 -0.8066  0.6351 -0.8870
 1517SOL    HW2 6036   1.972   5.775   2.465  1.3101 -1.2945 -0.7047
 1518SOL     OW 6037   5.812   6.726   5.536  0.5453 -0.7704  0.7070
 1518SOL    HW1 6038   5.886   6.675   5.503  0.9236  0.1655  0.1147
 1518SOL    HW2 6039   5.757   6.661   5.580  1.6606 -1.4885  1.0661
 1519SOL     OW 6040   5.392   2.456   3.312 -0.1335 -0.0307  0.8462
 1519SOL    HW1 6041   5.325   2.393   3.336 -0.0880  0.1517  1.4433
 1519SOL    HW2 6042   5.389   2.523   3.380 -1.6253  1.7425 -0.8839
 1520SOL     OW 6043   0.741   1.385   6.497  0.4791 -0.1902  0.2355
 1520SOL    HW1 6044   0.746   1.317   6.564  0.8007  0.5482  0.9791
 1520SOL    HW2 6045   0.750   1.467   6.546 -0.2220  0.4007 -0.6128
 1521SOL     OW 6046   8.035   4.945   0.882  0.3038 -0.2709 -0.2582
 1521SOL    HW1 6047   8.054   4.865   0.931 -1.8371 -1.1215 -0.7709
 1521SOL    HW2 6048   8.116   4.961   0.832  1.7584 -0.5248  1.9365
 1522SOL     OW 6049   3.403   2.244   4.027  0.3818  0.1259  0.4045
 1522SOL    HW1 6050   3.355   2.166   3.999  1.2239  0.1892 -1.2868
 1522SOL    HW2 6051   3.492   2.212   4.044  0.1730  0.3111  1.9030
 1523SOL     OW 6052   7.108   7.668   4.721  0.1230 -0.6638  0.1098
 1523SOL    HW1 6053   7.114   7.715   4.638 -1.4889  1.6312  1.2474
 1523SOL    HW2 6054   7.089   7.578   4.696 -1.0883  0.1316 -1.9849
 1524SOL     OW 6055   4.209   2.053   1.365  0.0319  0.9858  0.1449
 1524SOL    HW1 6056   4.232   1.972   1.319 -0.1393 -0.1837  2.0646
 1524SOL    HW2 6057   4.118   2.069   1.339 -0.3654 -0.1702  0.7779
 1525SOL     OW 6058   6.869   6.402   2.359 -0.7765  0.6023  0.3474
 1525SOL    HW1 6059   6.889   6.348   2.282  1.3181  0.0378  1.2520
 1525SOL    HW2 6060   6.801   6.352   2.406  0.5015 -0.8360  0.7071
 1526SOL     OW 6061   1.293   4.775   3.661 -0.1680 -0.0571 -0.4955
 1526SOL    HW1 6062   1.251   4.700   3.702  0.8941 -0.4864 -0.2060
 1526SOL    HW2 6063   1.259   4.774   3.571 -2.5299  0.9226  0.3504
 1527SOL     OW 6064   4.573   3.470   3.177 -0.1115  0.0782 -0.0425
 1527SOL    HW1 6065   4.615   3.553   3.198 -1.3501  1.1935 -1.8130
 1527SOL    HW2 6066   4.522   3.448   3.255  0.3007  0.9274  0.4695
 1528SOL     OW 6067   2.004   0.814   5.218  0.1031 -0.4337 -0.2907
 1528SOL    HW1 6068   1.936   0.783   5.158  0.3945 -1.8142  0.0856
 1528SOL    HW2 6069   1.968   0.797   5.305 -0.0833  1.0668 -0.0507
 1529SOL     OW 6070   4.992   5.271   6.122 -0.1340 -0.3625 -0.1779
 1529SOL    HW1 6071   4.900   5.251   6.139 -0.5907  1.3437 -0.5161
 1529SOL    HW2 6072   5.022   5.201   6.064 -1.3195 -0.7476 -0.3314
 1530SOL     OW 6073   5.920   6.343   4.843  0.2259  0.0023  0.2457
 1530SOL    HW1 6074   5.916   6.262   4.893 -0.7389 -1.9262 -2.8267
 1530SOL    HW2 6075   5.831   6.378   4.846  0.6583  1.0338  1.6326
 1531SOL     OW 6076   0.212   3.634   1.188 -0.2251 -0.1704 -0.2595
 1531SOL    HW1 6077   0.209   3.728   1.168  0.1819 -0.4177 -1.4977
 1531SOL    HW2 6078   0.246   3.630   1.277 -0.3304  0.8610 -0.1629
 1532SOL     OW 6079   3.066   2.488   3.607 -0.2338 -0.0874 -0.6732
 1532SOL    HW1 6080   3.138   2.442   3.565  0.2686  0.3363 -0.2841
 1532SOL    HW2 6081   3.098   2.578   3.617 -0.4089 -0.1467  0.4659
 1533SOL     OW 6082   4.257   0.741   7.953 -0.1567  0.4667  0.0957
 1533SOL    HW1 6083   4.285   0.673   8.014 -0.3488  0.7495  0.4956
 1533SOL    HW2 6084   4.264   0.822   8.002 -1.2157  0.5985  0.0462
 1534SOL     OW 6085   6.385   0.337   8.187  0.3350  0.1056  0.2757
 1534SOL    HW1 6086   6.444   0.263   8.202  0.5329  0.2225  0.0788
 1534SOL    HW2 6087   6.417   0.378   8.106 -0.4988 -0.2950 -0.2647
 1535SOL     OW 6088   0.366   0.165   7.449 -0.3363 -0.2060  0.5837
 1535SOL    HW1 6089   0.294   0.133   7.394  0.7539 -0.3347 -0.8126
 1535SOL    HW2 6090   0.326   0.183   7.533 -1.6098 -2.2604  0.4592
 1536SOL     OW 6091   1.707   1.202   4.464  0.8960  0.0442 -0.2133
 1536SOL    HW1 6092   1.657   1.150   4.528  0.0226 -1.3025 -1.9474
 1536SOL    HW2 6093   1.783   1.233   4.513 -0.8238  0.8324  2.0769
 1537SOL     OW 6094   6.947   1.108   5.139 -0.0631  0.7546 -0.5015
 1537SOL    HW1 6095   7.027   1.159   5.121 -1.0963  2.3205 -0.7056
 1537SOL    HW2 6096   6.875   1.166   5.115 -1.3864  0.6803  2.9742
 1538SOL     OW 6097   0.314   4.557   3.933  0.9068  0.1617  0.3859
 1538SOL    HW1 6098   0.396   4.582   3.975 -1.0284  2.5823  2.9153
 1538SOL    HW2 6099   0.248   4.566   4.002 -1.7961  0.3258 -2.1286
 1539SOL     OW 6100   2.637   0.655   4.710 -0.4794 -0.6994  0.3476
 1539SOL    HW1 6101   2.658   0.574   4.664 -1.1774 -0.6460 -0.0757
 1539SOL    HW2 6102   2.573   0.629   4.776  0.2629 -0.7149  1.0765
 1540SOL     OW 6103   6.339   4.302   0.389  0.1785 -0.3863 -0.3317
 1540SOL    HW1 6104   6.356   4.283   0.296  0.8830  0.5277 -0.3917
 1540SOL    HW2 6105   6.329   4.397   0.392 -0.3489 -0.4651  0.4589
 1541SOL     OW 6106   5.331   4.548   3.547 -0.8422 -0.0501  0.1261
 1541SOL    HW1 6107   5.331   4.463   3.591  1.0206  0.4404  1.1204
 1541SOL    HW2 6108   5.270   4.537   3.474  0.4929 -2.7290 -0.6519
 1542SOL     OW 6109   2.839   8.195   4.035  0.5848  0.4486 -0.1712
 1542SOL    HW1 6110   2.792   8.165   4.114 -2.0270  0.7424 -1.5454
 1542SOL    HW2 6111   2.905   8.255   4.068 -1.5696  1.8760  1.7093
 1543SOL     OW 6112   2.205   2.682   1.119 -0.0529  0.1708  0.6512
 1543SOL    HW1 6113   2.253   2.673   1.037 -1.4881  0.6477 -0.2723
 1543SOL    HW2 6114   2.178   2.593   1.140  0.8628 -0.0378  0.9435
 1544SOL     OW 6115   1.376   6.582   3.519  0.5110 -0.3446  0.6400
 1544SOL    HW1 6116   1.359   6.547   3.607  1.4733 -3.7776 -0.4683
 1544SOL    HW2 6117   1.461   6.624   3.526  0.3828 -0.2195  1.4715
 1545SOL     OW 6118   7.293   1.130   7.165  0.4459  0.3300 -0.3329
 1545SOL    HW1 6119   7.208   1.169   7.185 -0.4621 -1.0288 -1.4814
 1545SOL    HW2 6120   7.318   1.170   7.081  0.9280  0.6822 -0.0259
 1546SOL     OW 6121   4.354   2.884   3.438 -0.1142 -0.2892 -0.0313
 1546SOL    HW1 6122   4.365   2.848   3.350 -0.9197  1.9633 -1.0929
 1546SOL    HW2 6123   4.412   2.960   3.441  0.2677 -0.6137  1.5681
 1547SOL     OW 6124   7.148   3.056   0.768  0.4403 -0.4069  0.4365
 1547SOL    HW1 6125   7.188   3.040   0.682  0.4726 -0.1188  0.3967
 1547SOL    HW2 6126   7.109   3.143   0.760  1.1659 -0.0262  0.9860
 1548SOL     OW 6127   5.936   2.513   7.665 -0.4533 -0.5127 -0.3955
 1548SOL    HW1 6128   5.905   2.566   7.739 -0.5826  1.1253 -1.5990
 1548SOL    HW2 6129   5.935   2.423   7.698  3.4018  0.5463  2.9781
 1549SOL     OW 6130   6.441   8.038   4.832  0.4444  0.4160 -0.1527
 1549SOL    HW1 6131   6.423   8.065   4.922  0.1423  0.5311 -0.2443
 1549SOL    HW2 6132   6.384   8.094   4.779  0.2283 -0.0112 -0.3786
 1550SOL     OW 6133   0.058   6.350   4.333  0.5544  0.3612 -0.2257
 1550SOL    HW1 6134   0.120   6.384   4.398 -0.2941  0.2975  0.6358
 1550SOL    HW2 6135   0.108   6.287   4.282  0.7522 -0.9641  1.5623
 1551SOL     OW 6136   7.748   6.336   4.474  0.2729 -0.2145 -0.5370
 1551SOL    HW1 6137   7.710   6.259   4.517 -0.0678 -0.4728 -1.2917
 1551SOL    HW2 6138   7.717   6.410   4.526 -0.0172 -0.5338 -0.2501
 1552SOL     OW 6139   1.982   2.990   3.402 -0.2959 -1.2274  0.0485
 1552SOL    HW1 6140   2.018   3.003   3.490  1.4392 -1.6050 -0.5723
 1552SOL    HW2 6141   1.895   3.028   3.406 -0.3826 -1.5569  2.0351
 1553SOL     OW 6142   4.821   1.843   2.058  0.2256 -1.2920 -0.0907
 1553SOL    HW1 6143   4.750   1.826   1.997 -0.0317  0.7257 -0.4022
 1553SOL    HW2 6144   4.779   1.849   2.143  0.1595 -1.0792 -0.1387
 1554SOL     OW 6145   5.082   5.215   1.683  0.5897  0.2973 -0.2397
 1554SOL    HW1 6146   5.089   5.149   1.752  0.2228  0.8084  0.2943
 1554SOL    HW2 6147   5.071   5.164   1.602  0.9020 -0.3015  0.0918
 1555SOL     OW 6148   3.455   1.175   1.456  0.0006 -0.4001  0.4426
 1555SOL    HW1 6149   3.537   1.211   1.422  0.7760  0.5618  3.2335
 1555SOL    HW2 6150   3.481   1.091   1.495 -0.9237 -1.5991 -1.4197
 1556SOL     OW 6151   0.783   0.465   7.471 -0.4461 -0.3115  0.6349
 1556SOL    HW1 6152   0.866   0.433   7.506 -0.3842 -0.3210  0.4772
 1556SOL    HW2 6153   0.729   0.387   7.463  0.1093 -0.5505 -0.8835
 1557SOL     OW 6154   5.196   5.553   7.683  0.5847  0.4907  0.0262
 1557SOL    HW1 6155   5.140   5.497   7.737 -0.2608  1.3395  0.0578
 1557SOL    HW2 6156   5.136   5.590   7.617  1.6209 -0.5846 -1.5382
 1558SOL     OW 6157   4.347   4.382   5.521 -0.1075  0.2142 -0.1278
 1558SOL    HW1 6158   4.375   4.291   5.518 -1.6896 -0.2372 -3.6642
 1558SOL    HW2 6159   4.424   4.432   5.495 -0.2309 -0.4321 -1.8202
 1559SOL     OW 6160   5.068   7.711   0.299  0.2928  0.2498 -0.2815
 1559SOL    HW1 6161   5.095   7.791   0.254 -2.7136  1.0514 -0.7926
 1559SOL    HW2 6162   5.048   7.649   0.228  0.0048 -0.0277  0.0343
 1560SOL     OW 6163   2.469   8.000   4.898 -0.4875 -0.2252  0.0720
 1560SOL    HW1 6164   2.415   7.933   4.855  0.0432  0.5410 -1.8528
 1560SOL    HW2 6165   2.559   7.966   4.890 -0.3996 -0.1537  0.7472
 1561SOL     OW 6166   2.261   3.138   2.287  0.1863 -0.0986  0.7088
 1561SOL    HW1 6167   2.272   3.170   2.198 -0.4791 -1.0619  0.2800
 1561SOL    HW2 6168   2.344   3.093   2.307  0.7993  1.1580  1.0169
 1562SOL     OW 6169   7.632   7.386   0.614 -0.3377  0.1206 -0.3806
 1562SOL    HW1 6170   7.604   7.379   0.523 -0.9154 -1.3795 -0.1136
 1562SOL    HW2 6171   7.563   7.435   0.657 -0.5573 -0.0262 -0.5605
 1563SOL     OW 6172   3.806   6.488   2.181  0.2150  0.1450  0.4297
 1563SOL    HW1 6173   3.811   6.523   2.093 -0.1320 -0.6213  0.1020
 1563SOL    HW2 6174   3.713   6.475   2.197  0.3322 -0.5684  0.5657
 1564SOL     OW 6175   7.545   6.805   6.084  0.0210 -0.2549  0.6452
 1564SOL    HW1 6176   7.628   6.822   6.130  0.8071 -1.0861 -0.4372
 1564SOL    HW2 6177   7.498   6.889   6.087  1.4507  0.5859  0.1747
 1565SOL     OW 6178   0.541   7.683   0.369  0.4733  0.0634 -0.6039
 1565SOL    HW1 6179   0.448   7.670   0.349  0.6516 -0.2189 -1.2575
 1565SOL    HW2 6180   0.543   7.760   0.426 -0.3527 -1.1098  1.0497
 1566SOL     OW 6181   6.875   3.777   1.629 -0.6650 -0.2566 -0.5599
 1566SOL    HW1 6182   6.857   3.717   1.701 -2.5849  0.0974 -0.7132
 1566SOL    HW2 6183   6.863   3.864   1.667  2.5947  0.1056 -0.2016
 1567SOL     OW 6184   3.070   3.515   6.905  0.7677  0.8057 -0.0229
 1567SOL    HW1 6185   3.039   3.605   6.914  0.7088  0.8169 -0.3590
 1567SOL    HW2 6186   3.165   3.521   6.915  0.7377  0.8665  0.2474
 1568SOL     OW 6187   3.256   5.856   7.556  0.3093  0.0645 -0.5094
 1568SOL    HW1 6188   3.258   5.847   7.460 -0.3200  1.9047 -0.7052
 1568SOL    HW2 6189   3.165   5.879   7.576  0.4861 -0.1264  0.5138
 1569SOL     OW 6190   6.802   7.606   1.170  0.5344  0.0871 -0.0175
 1569SOL    HW1 6191   6.772   7.614   1.260 -1.4212 -0.5314 -0.5892
 1569SOL    HW2 6192   6.738   7.656   1.119  0.0566 -1.8168 -1.3429
 1570SOL     OW 6193   2.139   5.126   1.718 -0.2721 -0.0570 -0.3449
 1570SOL    HW1 6194   2.060   5.143   1.770 -1.2216  1.7419 -2.2780
 1570SOL    HW2 6195   2.175   5.213   1.701  0.8952 -0.7216 -1.3654
 1571SOL     OW 6196   0.416   8.170   3.040 -0.0384  0.2974  0.0114
 1571SOL    HW1 6197   0.493   8.163   3.097 -0.4639 -0.4631  0.5070
 1571SOL    HW2 6198   0.408   8.264   3.023 -0.3844  0.6441  1.8945
 1572SOL     OW 6199   7.676   7.714   0.259 -0.0244  0.5574  0.1410
 1572SOL    HW1 6200   7.598   7.710   0.203  0.7936  0.7762 -1.0234
 1572SOL    HW2 6201   7.669   7.798   0.303 -1.2970 -0.1322  1.3128
 1573SOL     OW 6202   4.820   2.026   6.654  0.0573  0.7337  0.2405
 1573SOL    HW1 6203   4.900   1.978   6.677  0.8616  1.7093 -0.4488
 1573SOL    HW2 6204   4.749   1.966   6.675  1.0290 -0.7023 -0.4526
 1574SOL     OW 6205   6.630   6.433   0.524 -0.1780  0.1385 -0.3109
 1574SOL    HW1 6206   6.545   6.408   0.489  0.5605 -2.3853 -0.4111
 1574SOL    HW2 6207   6.626   6.528   0.532 -3.1856  0.0063  0.2010
 1575SOL     OW 6208   2.721   7.276   2.673  0.2502 -0.1622  0.4637
 1575SOL    HW1 6209   2.783   7.215   2.632 -1.9012 -1.7603 -0.5436
 1575SOL    HW2 6210   2.751   7.283   2.764  1.5027 -1.4165  0.1790
 1576SOL     OW 6211   5.239   3.403   0.413  0.4133 -0.6676  0.2030
 1576SOL    HW1 6212   5.286   3.434   0.335 -2.5001 -1.3257 -1.8814
 1576SOL    HW2 6213   5.295   3.333   0.449  1.7052 -0.4664 -1.3728
 1577SOL     OW 6214   3.064   5.189   2.968 -0.0551  0.1259 -0.4751
 1577SOL    HW1 6215   3.092   5.141   3.046 -0.9041  1.4663  0.6792
 1577SOL    HW2 6216   3.108   5.145   2.896  2.7346  0.3939  0.9946
 1578SOL     OW 6217   1.219   5.026   6.457  0.2745 -0.4728  0.7015
 1578SOL    HW1 6218   1.177   5.063   6.379  2.1230  0.3391  0.0626
 1578SOL    HW2 6219   1.161   4.955   6.484  0.3094 -1.6872 -2.2480
 1579SOL     OW 6220   2.412   0.037   6.717 -0.7608  0.1334  0.2939
 1579SOL    HW1 6221   2.498   0.070   6.743  0.0517 -0.4055 -1.6248
 1579SOL    HW2 6222   2.378   0.104   6.658 -1.0107 -0.3407 -0.1090
 1580SOL     OW 6223   7.232   0.716   6.543  0.1634  0.3029 -0.4541
 1580SOL    HW1 6224   7.270   0.665   6.614  0.2179 -1.2513 -1.5753
 1580SOL    HW2 6225   7.143   0.682   6.534  0.0104  0.8002 -0.8495
 1581SOL     OW 6226   5.866   7.120   7.848  0.3025 -0.6019 -0.6701
 1581SOL    HW1 6227   5.836   7.061   7.779 -0.0453 -1.8028  0.5076
 1581SOL    HW2 6228   5.849   7.074   7.930  0.6743  0.8290  0.2435
 1582SOL     OW 6229   1.213   6.293   7.753  0.3302 -0.0708  0.1219
 1582SOL    HW1 6230   1.277   6.237   7.709 -1.8113 -3.0827  0.6348
 1582SOL    HW2 6231   1.248   6.306   7.841  0.9170 -0.5330 -0.0416
 1583SOL     OW 6232   5.729   7.292   5.425  0.0781  0.1809  0.1917
 1583SOL    HW1 6233   5.734   7.377   5.468 -0.7750  0.5028 -0.3227
 1583SOL    HW2 6234   5.665   7.305   5.355  0.4252 -0.7108 -0.2959
 1584SOL     OW 6235   6.709   6.705   0.508  0.4248 -0.0788 -0.4065
 1584SOL    HW1 6236   6.737   6.793   0.482 -0.4014  0.7778  1.5350
 1584SOL    HW2 6237   6.621   6.718   0.545  0.1049 -1.7895 -0.5520
 1585SOL     OW 6238   7.385   5.998   0.785  0.3033 -0.1567 -0.3087
 1585SOL    HW1 6239   7.398   6.042   0.869  1.6073 -0.2363 -0.4544
 1585SOL    HW2 6240   7.402   6.066   0.720 -0.9382 -0.0353 -0.5050
 1586SOL     OW 6241   0.256   5.667   2.932  0.2038  0.4715 -0.6311
 1586SOL    HW1 6242   0.296   5.586   2.963 -0.1011  0.3456 -0.5640
 1586SOL    HW2 6243   0.167   5.642   2.906 -0.3563  1.0297  0.6613
 1587SOL     OW 6244   3.864   1.644   7.695  0.1254  0.7468  0.1277
 1587SOL    HW1 6245   3.892   1.553   7.684 -0.9862  0.3026  0.8566
 1587SOL    HW2 6246   3.859   1.679   7.607  0.4854  0.0791 -0.1631
 1588SOL     OW 6247   1.485   4.116   2.377 -0.2638 -0.3739 -0.6237
 1588SOL    HW1 6248   1.408   4.171   2.360  0.5135  0.7819 -0.4836
 1588SOL    HW2 6249   1.460   4.063   2.453  0.1325  2.1189  1.3144
 1589SOL     OW 6250   6.348   1.204   6.779 -0.0436 -0.3579 -0.1317
 1589SOL    HW1 6251   6.391   1.232   6.698  0.7848  0.2724  0.5142
 1589SOL    HW2 6252   6.344   1.283   6.832 -0.8267 -0.7124  0.3411
 1590SOL     OW 6253   7.335   7.003   1.023 -0.3968 -0.3640 -0.0260
 1590SOL    HW1 6254   7.397   6.931   1.033  0.0314 -0.3094 -2.0977
 1590SOL    HW2 6255   7.381   7.067   0.968 -1.0136  1.2168  1.2337
 1591SOL     OW 6256   5.248   8.096   5.987 -1.2097 -0.2285  0.0864
 1591SOL    HW1 6257   5.180   8.152   6.026 -0.6581  0.0644  0.6405
 1591SOL    HW2 6258   5.320   8.156   5.967 -0.5467 -0.7628  0.8416
 1592SOL     OW 6259   1.193   2.118   3.870  0.0211  0.0505  0.6348
 1592SOL    HW1 6260   1.110   2.158   3.845  0.5965  1.2637  0.6292
 1592SOL    HW2 6261   1.218   2.065   3.793  0.4120  1.5658 -0.3111
 1593SOL     OW 6262   0.781   0.806   6.491  0.0466 -0.4837  0.1628
 1593SOL    HW1 6263   0.862   0.839   6.451  0.4562  1.4507  2.5012
 1593SOL    HW2 6264   0.717   0.807   6.419  1.2966  0.8876 -0.9776
 1594SOL     OW 6265   7.980   5.113   0.573  0.3561  0.1233 -0.0582
 1594SOL    HW1 6266   7.980   5.151   0.661  0.5580 -1.5401  0.6592
 1594SOL    HW2 6267   8.024   5.179   0.519  1.8840  0.3404  1.4307
 1595SOL     OW 6268   2.579   5.221   7.911  0.1558  0.2996  0.4079
 1595SOL    HW1 6269   2.649   5.168   7.949  0.2642 -1.1360 -1.6847
 1595SOL    HW2 6270   2.614   5.248   7.826 -1.4616  0.3227 -0.2670
 1596SOL     OW 6271   7.040   8.146   5.959 -0.5069  0.1824 -0.6313
 1596SOL    HW1 6272   7.050   8.226   6.010 -0.6608 -0.6466  0.7625
 1596SOL    HW2 6273   6.954   8.112   5.986 -0.3692 -0.5277 -1.0819
 1597SOL     OW 6274   5.425   2.773   6.811  0.9236  0.1710 -0.0733
 1597SOL    HW1 6275   5.343   2.776   6.860 -0.4232 -1.4305 -2.1879
 1597SOL    HW2 6276   5.467   2.857   6.830 -0.1451  0.1231  2.7790
 1598SOL     OW 6277   5.340   0.350   4.537 -0.5558  0.5479 -0.3165
 1598SOL    HW1 6278   5.262   0.318   4.492  0.2203 -0.1545 -1.1542
 1598SOL    HW2 6279   5.359   0.283   4.602 -0.6334  0.7098 -0.1257
 1599SOL     OW 6280   3.929   2.857   6.777  0.1106  0.5084 -0.0390
 1599SOL    HW1 6281   3.882   2.779   6.748  0.0394  0.6793 -0.3841
 1599SOL    HW2 6282   3.914   2.921   6.709  0.1148  0.8486  0.2775
 1600SOL     OW 6283   6.678   2.985   3.269  0.5130 -0.5038  0.0408
 1600SOL    HW1 6284   6.613   3.053   3.254  0.0377 -0.5403  1.7681
 1600SOL    HW2 6285   6.748   3.029   3.317  0.6574 -1.0011  0.2883
 1601SOL     OW 6286   0.912   8.139   3.814 -0.6657 -0.3591 -0.1724
 1601SOL    HW1 6287   0.914   8.222   3.861 -0.3342 -0.9288  0.8488
 1601SOL    HW2 6288   0.835   8.094   3.849 -0.8572 -0.4755 -0.7382
 1602SOL     OW 6289   4.895   1.528   3.656  0.6880 -0.2561  0.1478
 1602SOL    HW1 6290   4.830   1.519   3.726  0.1349  0.1793 -0.2934
 1602SOL    HW2 6291   4.952   1.599   3.684 -1.7417  2.4519 -1.4741
 1603SOL     OW 6292   2.830   4.920   6.369 -0.6769  0.0083  0.2114
 1603SOL    HW1 6293   2.835   4.826   6.385 -0.0281  0.3035  1.7876
 1603SOL    HW2 6294   2.919   4.946   6.346 -0.9822  0.1382 -0.8583
 1604SOL     OW 6295   6.623   6.437   6.389 -0.1663  0.4421 -1.0151
 1604SOL    HW1 6296   6.643   6.508   6.450 -0.8822 -0.4892  0.3120
 1604SOL    HW2 6297   6.683   6.366   6.412 -2.0584 -0.8016  0.2223
 1605SOL     OW 6298   2.170   2.423   3.701 -0.3990  0.0826 -0.6927
 1605SOL    HW1 6299   2.261   2.435   3.675 -0.2908  0.0814 -0.3197
 1605SOL    HW2 6300   2.141   2.511   3.727  0.3154 -0.3740  1.7892
 1606SOL     OW 6301   6.304   0.851   5.288  0.0724 -0.3047 -0.2915
 1606SOL    HW1 6302   6.274   0.775   5.338 -0.5613  0.7255  0.9296
 1606SOL    HW2 6303   6.385   0.878   5.331 -1.4720  1.7485  1.4498
 1607SOL     OW 6304   7.947   6.619   4.522 -0.3145  0.0148 -0.2380
 1607SOL    HW1 6305   8.013   6.596   4.456  0.5966 -0.0118  0.6718
 1607SOL    HW2 6306   7.863   6.601   4.479  0.2529  0.3380 -1.5123
 1608SOL     OW 6307   6.870   2.838   1.784 -0.3648  0.3300  0.0982
 1608SOL    HW1 6308   6.896   2.930   1.779  0.2902  0.1348 -0.1046
 1608SOL    HW2 6309   6.783   2.840   1.823  0.1566  0.9664  1.2615
 1609SOL     OW 6310   3.640   6.984   5.087  0.6019  0.2418 -0.0756
 1609SOL    HW1 6311   3.595   7.065   5.112  1.9963  0.7427  0.8526
 1609SOL    HW2 6312   3.636   6.983   4.991 -2.5619 -0.4220 -0.0025
 1610SOL     OW 6313   3.166   6.629   4.261  0.2680  0.7249 -0.3062
 1610SOL    HW1 6314   3.187   6.607   4.351 -0.8969  1.0228  0.0489
 1610SOL    HW2 6315   3.183   6.723   4.255  1.1258  0.5582 -0.6334
 1611SOL     OW 6316   6.276   1.111   5.598 -0.8715 -0.1241 -0.5803
 1611SOL    HW1 6317   6.265   1.180   5.663  0.5977  0.9855 -1.4498
 1611SOL    HW2 6318   6.262   1.029   5.646 -2.6594  0.7747  0.4567
 1612SOL     OW 6319   4.513   1.462   4.067 -0.2082  0.4601  0.3870
 1612SOL    HW1 6320   4.602   1.493   4.082 -0.4779  1.0743  0.7353
 1612SOL    HW2 6321   4.481   1.515   3.994  0.8443 -2.0053 -1.9578
 1613SOL     OW 6322   0.200   1.419   4.005  0.5029 -0.3559  0.5006
 1613SOL    HW1 6323   0.164   1.462   4.082  2.8950  2.0919  0.3562
 1613SOL    HW2 6324   0.258   1.351   4.039  0.7983  0.0716  0.8497
 1614SOL     OW 6325   6.198   2.055   0.273  0.0879 -0.6727  0.0628
 1614SOL    HW1 6326   6.136   1.983   0.285  1.2418 -1.7842 -0.5237
 1614SOL    HW2 6327   6.201   2.067   0.178  0.0271  0.0515  0.1492
 1615SOL     OW 6328   0.397   4.654   1.957  0.0181 -0.0784  0.8400
 1615SOL    HW1 6329   0.355   4.577   1.919  0.5910 -0.8765  1.7822
 1615SOL    HW2 6330   0.470   4.674   1.899 -0.8797  0.5303 -0.0949
 1616SOL     OW 6331   6.824   0.955   7.752  0.4411 -0.0274 -0.9472
 1616SOL    HW1 6332   6.786   1.021   7.693  0.4660  0.2144 -0.6906
 1616SOL    HW2 6333   6.870   1.006   7.819 -4.5887 -0.0940  2.7958
 1617SOL     OW 6334   4.322   8.177   5.801  0.5277  0.2691  0.2786
 1617SOL    HW1 6335   4.260   8.237   5.759 -1.5504 -0.0067  2.9042
 1617SOL    HW2 6336   4.375   8.233   5.857 -0.1851 -0.0927  1.3138
 1618SOL     OW 6337   3.369   1.435   2.940 -0.2158 -0.1994 -0.0469
 1618SOL    HW1 6338   3.282   1.437   2.978  0.3460 -0.8297  1.2974
 1618SOL    HW2 6339   3.426   1.404   3.010  1.1423  0.4769 -0.8164
 1619SOL     OW 6340   8.266   4.711   0.394  0.1903 -0.1892 -0.1497
 1619SOL    HW1 6341   8.180   4.695   0.433 -0.2784 -0.6427 -1.3435
 1619SOL    HW2 6342   8.327   4.661   0.449 -0.4078 -0.5458  0.1978
 1620SOL     OW 6343   7.884   7.373   6.506 -0.0452  0.2567  0.1321
 1620SOL    HW1 6344   7.853   7.302   6.450 -0.9880  1.4821 -0.9472
 1620SOL    HW2 6345   7.946   7.332   6.565  0.5201 -1.2044 -1.4331
 1621SOL     OW 6346   0.844   8.009   6.289 -0.0798 -0.4423  0.4780
 1621SOL    HW1 6347   0.934   8.038   6.274  0.2896 -1.8113  0.0619
 1621SOL    HW2 6348   0.804   8.007   6.201 -0.5220  0.1537  0.6586
 1622SOL     OW 6349   1.215   8.027   4.597 -0.4929  0.1645 -0.5298
 1622SOL    HW1 6350   1.282   8.048   4.662 -0.8516  0.9462 -0.4113
 1622SOL    HW2 6351   1.265   8.004   4.518 -0.0392 -1.3831  0.1857
 1623SOL     OW 6352   6.613   4.437   5.671 -0.7350 -0.2199 -0.2953
 1623SOL    HW1 6353   6.540   4.490   5.703  0.2056  0.8886  0.0594
 1623SOL    HW2 6354   6.592   4.419   5.580 -1.0177  0.8753 -0.4494
 1624SOL     OW 6355   5.147   1.979   4.692 -0.1704  0.6203  0.0814
 1624SOL    HW1 6356   5.092   1.967   4.770  0.9779  0.3535  0.8654
 1624SOL    HW2 6357   5.235   1.954   4.721  0.3027  0.7136 -1.2535
 1625SOL     OW 6358   1.628   2.556   3.891  0.4569  0.0618  0.0956
 1625SOL    HW1 6359   1.609   2.630   3.949 -0.4331  0.1079 -0.2481
 1625SOL    HW2 6360   1.554   2.496   3.905  0.1054  0.1927 -1.1898
 1626SOL     OW 6361   4.793   3.036   4.780 -0.7984 -0.1767 -0.4182
 1626SOL    HW1 6362   4.840   3.108   4.737  1.4232 -0.3087  1.7109
 1626SOL    HW2 6363   4.862   2.975   4.807 -2.3972 -1.4569  0.8347
 1627SOL     OW 6364   3.984   3.298   5.489  0.5708  0.0930 -0.0732
 1627SOL    HW1 6365   3.961   3.391   5.488 -0.1411 -0.0670 -2.0189
 1627SOL    HW2 6366   4.069   3.294   5.534  1.1254  1.8245 -0.9225
 1628SOL     OW 6367   6.194   7.311   5.966 -0.2010  0.6325 -0.2364
 1628SOL    HW1 6368   6.104   7.310   5.933 -0.2642 -2.4570 -0.1013
 1628SOL    HW2 6369   6.248   7.307   5.887 -0.1174  3.2904 -0.3585
 1629SOL     OW 6370   4.525   6.937   7.406 -0.3082 -0.4035 -0.2807
 1629SOL    HW1 6371   4.444   6.946   7.357 -0.6871  1.7979  0.6866
 1629SOL    HW2 6372   4.550   7.027   7.427  0.2308 -1.2368  2.8750
 1630SOL     OW 6373   7.717   0.173   4.336  0.0863  0.6938  0.4684
 1630SOL    HW1 6374   7.707   0.198   4.428  1.5535  2.7763  0.0860
 1630SOL    HW2 6375   7.658   0.232   4.289  1.2858  1.3830 -0.1655
 1631SOL     OW 6376   4.731   0.982   2.784 -0.1512  0.0831 -0.3006
 1631SOL    HW1 6377   4.699   1.032   2.709  0.5165  2.0373  0.6890
 1631SOL    HW2 6378   4.825   0.995   2.784 -0.0507 -0.5900  0.3812
 1632SOL     OW 6379   6.831   7.536   3.327  0.0333 -0.3677  0.0782
 1632SOL    HW1 6380   6.858   7.479   3.255  1.8516 -0.5442  0.8753
 1632SOL    HW2 6381   6.870   7.621   3.307  0.5490 -0.4170  0.8505
 1633SOL     OW 6382   4.614   1.567   6.947  0.4440  0.1152 -0.2752
 1633SOL    HW1 6383   4.704   1.536   6.960  0.0119 -1.1427 -0.2224
 1633SOL    HW2 6384   4.579   1.576   7.036 -0.6606 -2.9770 -0.3381
 1634SOL     OW 6385   3.191   2.806   1.729  0.2523 -0.2639  0.1326
 1634SOL    HW1 6386   3.216   2.732   1.784  0.2861  0.0696  0.5746
 1634SOL    HW2 6387   3.252   2.803   1.655 -0.9753 -1.8011 -0.8396
 1635SOL     OW 6388   0.385   6.310   1.676  0.5930  0.4190 -0.0766
 1635SOL    HW1 6389   0.331   6.277   1.604 -1.0643  0.8591  0.9326
 1635SOL    HW2 6390   0.454   6.244   1.688  0.1129 -0.2861 -1.2064
 1636SOL     OW 6391   1.765   2.985   1.211  0.3427 -0.0483 -0.6467
 1636SOL    HW1 6392   1.769   3.055   1.146 -1.8171  0.5596 -0.1457
 1636SOL    HW2 6393   1.702   2.922   1.175 -1.2076  0.5045  1.0312
 1637SOL     OW 6394   5.494   8.024   1.996  0.2130  0.2505  0.3675
 1637SOL    HW1 6395   5.487   8.038   1.901  0.3220  0.9951  0.4692
 1637SOL    HW2 6396   5.560   8.087   2.025 -0.3115  0.4904  1.0483
 1638SOL     OW 6397   5.641   5.898   2.780 -0.3884 -0.1876  0.0663
 1638SOL    HW1 6398   5.579   5.825   2.772  1.0307 -1.5304  1.1998
 1638SOL    HW2 6399   5.687   5.881   2.862  0.9577  1.2166 -0.3970
 1639SOL     OW 6400   7.574   6.548   8.082 -0.2410  0.2676 -0.4145
 1639SOL    HW1 6401   7.570   6.604   8.159 -0.9422  0.2058 -0.4044
 1639SOL    HW2 6402   7.571   6.459   8.117  0.2943  0.2260 -0.4668
 1640SOL     OW 6403   2.975   4.370   7.432 -0.0859  0.4658 -0.1616
 1640SOL    HW1 6404   3.030   4.442   7.464 -0.5061  0.2057  1.1878
 1640SOL    HW2 6405   3.002   4.294   7.485  0.3672 -0.3891 -1.5814
 1641SOL     OW 6406   4.620   7.661   4.572 -0.1172 -0.3858  0.0272
 1641SOL    HW1 6407   4.610   7.634   4.481  0.0655 -0.6106  0.0740
 1641SOL    HW2 6408   4.554   7.729   4.584  2.2599  2.2485 -1.2914
 1642SOL     OW 6409   7.427   2.185   5.759  0.5396  0.0325  0.3628
 1642SOL    HW1 6410   7.456   2.143   5.840 -0.4682  0.6640  1.0593
 1642SOL    HW2 6411   7.501   2.174   5.699 -0.2519 -4.1428  0.0072
 1643SOL     OW 6412   5.294   2.742   5.765  0.3824  0.5711  0.4754
 1643SOL    HW1 6413   5.324   2.822   5.810 -0.9992 -0.1791  2.8284
 1643SOL    HW2 6414   5.329   2.671   5.818 -0.3591 -0.3612 -0.2767
 1644SOL     OW 6415   7.717   2.305   1.922 -0.3507 -0.3242 -0.0423
 1644SOL    HW1 6416   7.724   2.239   1.991 -1.4058 -1.9116 -1.4059
 1644SOL    HW2 6417   7.671   2.378   1.964 -1.5187 -1.5032  0.8064
 1645SOL     OW 6418   1.290   6.115   3.288 -0.0732 -0.4068 -0.2712
 1645SOL    HW1 6419   1.329   6.028   3.296 -0.3465 -0.6187 -1.1435
 1645SOL    HW2 6420   1.339   6.169   3.350  1.0211 -0.8675 -0.7189
 1646SOL     OW 6421   6.611   5.645   0.589 -0.5091  0.1219 -0.0915
 1646SOL    HW1 6422   6.655   5.729   0.590 -0.1737 -0.0499 -0.2263
 1646SOL    HW2 6423   6.579   5.636   0.499 -0.7858  0.2314 -0.0025
 1647SOL     OW 6424   4.921   3.126   1.713  0.0238 -0.5164  0.1434
 1647SOL    HW1 6425   4.875   3.210   1.711  1.5109  0.3067 -0.5186
 1647SOL    HW2 6426   4.897   3.088   1.798 -1.7410 -0.0497 -0.1211
 1648SOL     OW 6427   6.511   3.976   7.754 -0.3641 -0.0012  0.3132
 1648SOL    HW1 6428   6.503   4.023   7.837  1.0777  0.2266  0.3432
 1648SOL    HW2 6429   6.563   4.035   7.699 -1.6612  0.0331 -0.8919
 1649SOL     OW 6430   7.698   4.336   0.474 -0.3543  0.2569  0.2120
 1649SOL    HW1 6431   7.625   4.274   0.476 -1.8998  2.0168  0.1496
 1649SOL    HW2 6432   7.681   4.390   0.396  1.2742  0.4040 -0.0622
 1650SOL     OW 6433   0.175   3.254   1.900  0.0066  0.3232 -0.2675
 1650SOL    HW1 6434   0.137   3.330   1.946  0.5372  1.6201 -1.9237
 1650SOL    HW2 6435   0.269   3.267   1.907  0.2582 -2.5792  3.3254
 1651SOL     OW 6436   0.697   7.439   6.040  0.2310 -0.1794  0.6070
 1651SOL    HW1 6437   0.745   7.430   5.958 -0.5710 -0.0923  0.1187
 1651SOL    HW2 6438   0.739   7.378   6.099  0.0351 -1.1534 -0.2439
 1652SOL     OW 6439   5.028   0.634   4.605 -0.0295  0.1132 -0.5967
 1652SOL    HW1 6440   5.092   0.704   4.618 -0.1243  0.1879 -0.5362
 1652SOL    HW2 6441   5.060   0.587   4.529  0.0078  0.2521 -0.6671
 1653SOL     OW 6442   2.465   1.258   8.288  0.3950 -0.4429 -0.2348
 1653SOL    HW1 6443   2.485   1.338   8.337 -1.1384 -0.9296  1.2104
 1653SOL    HW2 6444   2.372   1.266   8.266  0.1144 -2.0436  0.3183
 1654SOL     OW 6445   0.834   0.539   5.537  0.1439  0.1905  0.3085
 1654SOL    HW1 6446   0.815   0.463   5.592  0.0053 -0.6820 -0.9126
 1654SOL    HW2 6447   0.852   0.610   5.599  0.1415 -0.8008  1.4656
 1655SOL     OW 6448   0.823   3.214   0.615  0.3473  0.1344  0.6205
 1655SOL    HW1 6449   0.736   3.175   0.602 -0.7986  2.7303  0.2014
 1655SOL    HW2 6450   0.883   3.154   0.572 -1.4578 -0.6850 -0.8414
 1656SOL     OW 6451   2.385   5.550   3.683 -0.4700  0.6005 -0.0711
 1656SOL    HW1 6452   2.421   5.513   3.764 -1.3445  1.5061  0.7351
 1656SOL    HW2 6453   2.428   5.636   3.675  2.1244 -0.8316 -2.3314
 1657SOL     OW 6454   8.031   5.866   2.616  0.0227  0.8594  0.2152
 1657SOL    HW1 6455   8.079   5.908   2.688  0.0967  1.1454  0.0006
 1657SOL    HW2 6456   7.956   5.825   2.658  1.0382 -0.5188  0.6956
 1658SOL     OW 6457   6.997   1.511   5.260 -0.0155 -0.7601  0.8940
 1658SOL    HW1 6458   6.904   1.493   5.244  0.3039 -0.2561 -1.8129
 1658SOL    HW2 6459   7.036   1.426   5.278 -0.6726 -1.2289  0.1317
 1659SOL     OW 6460   6.282   8.097   1.635 -0.1995  0.1536 -0.2912
 1659SOL    HW1 6461   6.188   8.115   1.636 -0.5875 -1.7728  1.0331
 1659SOL    HW2 6462   6.323   8.176   1.669 -1.6606 -0.4312  3.0045
 1660SOL     OW 6463   2.642   3.896   1.960 -0.2384  0.1699 -0.2342
 1660SOL    HW1 6464   2.638   3.867   2.051  0.9787  2.5648  0.6233
 1660SOL    HW2 6465   2.556   3.875   1.924 -2.0471  2.5228  2.5501
 1661SOL     OW 6466   4.319   3.186   4.589  0.3851  0.3149  0.0435
 1661SOL    HW1 6467   4.394   3.152   4.638 -0.6235 -0.9361  0.7597
 1661SOL    HW2 6468   4.306   3.274   4.624  2.7054  1.2961 -1.4572
 1662SOL     OW 6469   5.238   6.853   6.062 -0.2709 -0.0730 -0.2107
 1662SOL    HW1 6470   5.221   6.780   6.003 -1.1619 -0.7608  0.8891
 1662SOL    HW2 6471   5.320   6.891   6.030 -1.0341 -0.0623 -2.2373
 1663SOL     OW 6472   0.156   1.741   5.583 -0.3445 -0.1114 -0.5813
 1663SOL    HW1 6473   0.085   1.707   5.529 -0.8341 -0.9111  0.5399
 1663SOL    HW2 6474   0.127   1.829   5.608 -1.0545 -0.5233  0.0612
 1664SOL     OW 6475   7.898   0.978   3.717  0.5444 -0.1719  0.1438
 1664SOL    HW1 6476   7.991   0.960   3.705  0.1968 -1.4693 -0.6405
 1664SOL    HW2 6477   7.867   1.005   3.631  0.2437  0.5072  0.4581
 1665SOL     OW 6478   0.695   0.541   1.541  0.3141 -0.5802  0.0185
 1665SOL    HW1 6479   0.606   0.518   1.565  0.1233  0.4968  0.3444
 1665SOL    HW2 6480   0.744   0.459   1.552 -0.5461 -1.0806  0.2130
 1666SOL     OW 6481   2.600   3.871   7.094  0.1528  0.2281 -0.2287
 1666SOL    HW1 6482   2.637   3.795   7.049  0.1496 -0.3149  0.6795
 1666SOL    HW2 6483   2.517   3.888   7.049  0.2625 -0.1647 -0.5768
 1667SOL     OW 6484   6.507   0.961   0.619  0.1459  0.6516 -0.0907
 1667SOL    HW1 6485   6.414   0.968   0.599 -0.2762 -2.7307  0.4134
 1667SOL    HW2 6486   6.543   0.909   0.547  0.8194 -1.5214  1.7534
 1668SOL     OW 6487   0.413   4.995   2.843  0.2800  0.4150  0.1398
 1668SOL    HW1 6488   0.366   4.994   2.926 -0.3444 -1.6652 -0.2057
 1668SOL    HW2 6489   0.398   5.083   2.808 -1.0140  0.6990  1.3477
 1669SOL     OW 6490   6.410   1.358   2.296 -0.2649  0.0891  0.2384
 1669SOL    HW1 6491   6.339   1.341   2.234  0.0061  1.0968 -0.3601
 1669SOL    HW2 6492   6.417   1.277   2.347 -1.4750 -0.2154 -0.0589
 1670SOL     OW 6493   7.606   6.147   1.494  0.0770  0.3694 -0.3918
 1670SOL    HW1 6494   7.634   6.231   1.531 -2.0377  1.1465 -0.4695
 1670SOL    HW2 6495   7.683   6.114   1.448  1.8426  0.8365  2.1427
 1671SOL     OW 6496   5.102   5.023   6.654  0.1410  0.3786  0.8619
 1671SOL    HW1 6497   5.095   5.017   6.749 -0.3702 -0.3125  0.7851
 1671SOL    HW2 6498   5.016   5.054   6.625  0.2000  0.3045  0.6028
 1672SOL     OW 6499   5.914   4.279   4.721  0.3177  0.0930  0.0379
 1672SOL    HW1 6500   5.929   4.216   4.791 -2.9115 -1.2933 -0.4410
 1672SOL    HW2 6501   5.891   4.225   4.645 -1.5160  1.7821 -0.6437
 1673SOL     OW 6502   0.124   2.637   0.165 -0.2623  0.7355 -0.4527
 1673SOL    HW1 6503   0.153   2.601   0.249  1.4279  1.3166 -0.7677
 1673SOL    HW2 6504   0.058   2.701   0.189 -2.0472 -1.2873  0.2270
 1674SOL     OW 6505   1.219   3.619   6.409 -0.3672  0.5844  0.0199
 1674SOL    HW1 6506   1.155   3.682   6.442  0.9378  1.5055  0.8252
 1674SOL    HW2 6507   1.214   3.628   6.314  0.5786  2.7180  0.1372
 1675SOL     OW 6508   4.501   5.775   4.617  0.2363 -0.1071  0.4167
 1675SOL    HW1 6509   4.431   5.710   4.615  0.5610 -0.4334 -0.2914
 1675SOL    HW2 6510   4.490   5.819   4.702 -0.4952 -0.5143  0.5360
 1676SOL     OW 6511   4.458   5.039   4.660 -0.6556 -0.5826 -0.0493
 1676SOL    HW1 6512   4.466   5.071   4.749 -1.6046  0.2168 -0.2398
 1676SOL    HW2 6513   4.513   5.097   4.608  0.5048 -1.5158  0.1085
 1677SOL     OW 6514   0.238   3.175   3.915  0.6820 -0.5076  0.1343
 1677SOL    HW1 6515   0.213   3.223   3.995  0.5238  1.1254 -0.8753
 1677SOL    HW2 6516   0.156   3.165   3.867  0.9714 -0.5083 -0.3575
 1678SOL     OW 6517   3.731   7.298   1.965  0.4531 -0.1033  0.0577
 1678SOL    HW1 6518   3.658   7.251   1.925 -0.6764  1.0408  0.7219
 1678SOL    HW2 6519   3.741   7.259   2.052  0.0925  0.2770  0.2731
 1679SOL     OW 6520   2.457   6.540   4.437  0.0260  0.0977 -0.8570
 1679SOL    HW1 6521   2.513   6.500   4.370 -0.6317 -0.9534 -0.7848
 1679SOL    HW2 6522   2.502   6.524   4.520 -1.2672 -2.3716 -0.5966
 1680SOL     OW 6523   4.036   0.080   4.265  0.0270  0.0906  0.0591
 1680SOL    HW1 6524   3.956   0.129   4.249  0.5869  1.5498  1.5714
 1680SOL    HW2 6525   4.063   0.048   4.179 -2.1214 -0.3379 -0.4676
 1681SOL     OW 6526   6.521   0.217   3.194  0.6472 -0.4287 -0.3128
 1681SOL    HW1 6527   6.467   0.148   3.155 -0.5072 -0.3103  1.0391
 1681SOL    HW2 6528   6.568   0.255   3.119 -1.6954 -0.0471 -1.6648
 1682SOL     OW 6529   5.966   5.077   3.284  0.3049  0.5336  0.2202
 1682SOL    HW1 6530   5.921   5.123   3.214  0.3366  0.4345  0.1355
 1682SOL    HW2 6531   5.954   5.133   3.361  1.3677  1.2869 -0.1482
 1683SOL     OW 6532   3.793   4.597   3.106  0.0424  0.0087 -0.0671
 1683SOL    HW1 6533   3.705   4.632   3.103 -0.0235 -0.0206  1.2722
 1683SOL    HW2 6534   3.781   4.503   3.118  0.2494 -0.0355 -0.2090
 1684SOL     OW 6535   6.572   2.195   1.067 -0.0937  0.5031  0.3263
 1684SOL    HW1 6536   6.567   2.236   1.153  0.0418  2.7986 -0.7331
 1684SOL    HW2 6537   6.481   2.180   1.042 -0.1116 -1.0767  1.2621
 1685SOL     OW 6538   5.908   5.285   2.286  0.4424  0.0444  0.1753
 1685SOL    HW1 6539   5.965   5.362   2.288  0.4866 -0.0063  1.1685
 1685SOL    HW2 6540   5.886   5.269   2.378 -1.8516  0.5458 -0.2697
 1686SOL     OW 6541   1.632   2.885   1.922 -0.3813  0.1691 -0.5197
 1686SOL    HW1 6542   1.655   2.869   1.830  0.7098 -0.8238 -0.0920
 1686SOL    HW2 6543   1.674   2.813   1.969 -1.3153  0.4253  0.7073
 1687SOL     OW 6544   7.287   5.579   4.227  0.4129  0.1570 -0.3395
 1687SOL    HW1 6545   7.223   5.597   4.296 -0.4897 -0.4906 -0.9976
 1687SOL    HW2 6546   7.325   5.495   4.252  1.9564  1.1541  0.7461
 1688SOL     OW 6547   8.097   2.809   3.890 -0.4844  0.0045 -0.2180
 1688SOL    HW1 6548   8.053   2.848   3.965 -1.2372  0.9574 -1.1383
 1688SOL    HW2 6549   8.162   2.874   3.863 -1.0798  0.2261 -1.1619
 1689SOL     OW 6550   1.729   4.387   1.763  0.6853 -0.4777 -0.3774
 1689SOL    HW1 6551   1.798   4.446   1.732 -0.6733  0.9328 -0.8000
 1689SOL    HW2 6552   1.678   4.440   1.825 -0.8886 -0.9933 -1.1886
 1690SOL     OW 6553   6.396   2.485   1.940  0.3682  0.1532 -0.7223
 1690SOL    HW1 6554   6.384   2.405   1.991  0.3823  1.2766  1.0869
 1690SOL    HW2 6555   6.337   2.476   1.866 -0.2708 -1.1477 -0.0629
 1691SOL     OW 6556   6.524   1.304   0.990  0.3601 -0.5251  0.1983
 1691SOL    HW1 6557   6.619   1.299   0.979  0.3271 -1.0666  0.1808
 1691SOL    HW2 6558   6.510   1.387   1.037  1.0150 -1.4839  2.1529
 1692SOL     OW 6559   2.570   8.108   1.475  0.1214 -0.3044 -0.0606
 1692SOL    HW1 6560   2.613   8.080   1.394  0.4418  0.1246 -0.0400
 1692SOL    HW2 6561   2.622   8.067   1.545  1.8561  2.0119  0.0513
 1693SOL     OW 6562   7.654   6.009   5.598  0.1561  0.1346  0.0797
 1693SOL    HW1 6563   7.614   5.985   5.682  0.9942 -0.7946  0.2319
 1693SOL    HW2 6564   7.588   6.063   5.555 -0.9259 -0.6691  0.6801
 1694SOL     OW 6565   5.611   7.878   2.676 -0.4284  0.5218  0.0025
 1694SOL    HW1 6566   5.548   7.830   2.731  1.6172 -2.8384 -0.4547
 1694SOL    HW2 6567   5.612   7.830   2.593  1.3039  1.7003 -0.6739
 1695SOL     OW 6568   3.306   3.220   6.183  0.5610 -0.6824  0.3114
 1695SOL    HW1 6569   3.313   3.237   6.089 -1.3188  0.4930  0.3725
 1695SOL    HW2 6570   3.303   3.124   6.190  2.3185 -0.8316 -0.6803
 1696SOL     OW 6571   8.254   5.182   6.221  0.6160 -0.3953 -0.0339
 1696SOL    HW1 6572   8.217   5.116   6.279 -0.2276 -0.5523 -0.7379
 1696SOL    HW2 6573   8.288   5.133   6.146 -0.8184  0.0110 -0.9845
 1697SOL     OW 6574   3.831   0.933   2.132  0.1661  0.5682 -0.0032
 1697SOL    HW1 6575   3.792   1.017   2.156  1.3080  0.7548  1.2379
 1697SOL    HW2 6576   3.855   0.892   2.215 -0.4030 -1.0232 -0.5860
 1698SOL     OW 6577   6.747   3.306   5.817 -0.6445 -0.4114  0.1257
 1698SOL    HW1 6578   6.815   3.352   5.768  0.5277 -2.2105 -0.0065
 1698SOL    HW2 6579   6.667   3.319   5.766 -0.0356  0.2210 -0.6748
 1699SOL     OW 6580   1.476   4.300   6.223  0.5624  0.0674 -0.4675
 1699SOL    HW1 6581   1.542   4.369   6.217  0.3510  0.3547  0.5601
 1699SOL    HW2 6582   1.519   4.229   6.270 -0.3282  0.8321  1.5537
 1700SOL     OW 6583   0.788   1.738   3.040 -0.4151 -0.2016  0.2291
 1700SOL    HW1 6584   0.723   1.696   2.984  2.5126 -2.4404 -1.6479
 1700SOL    HW2 6585   0.824   1.809   2.986  0.2655 -0.3903  0.4353
 1701SOL     OW 6586   1.564   4.354   7.606 -0.0044 -0.3866  0.4943
 1701SOL    HW1 6587   1.476   4.341   7.572  0.6111  0.1877 -1.3860
 1701SOL    HW2 6588   1.571   4.294   7.680 -1.3943 -1.6359 -0.3736
 1702SOL     OW 6589   3.326   1.881   2.485 -0.0294 -0.1515  0.0217
 1702SOL    HW1 6590   3.325   1.811   2.420  1.7087 -1.5519  1.4508
 1702SOL    HW2 6591   3.378   1.950   2.446  3.4180 -2.0982  0.9531
 1703SOL     OW 6592   6.530   3.510   4.447  0.2898  0.0188 -0.0797
 1703SOL    HW1 6593   6.456   3.552   4.490  0.4478 -0.5097  0.7085
 1703SOL    HW2 6594   6.598   3.577   4.444  0.8245 -0.3943  1.9045
 1704SOL     OW 6595   7.319   4.218   4.694 -0.6467  0.2397 -0.3697
 1704SOL    HW1 6596   7.394   4.170   4.729 -1.9768 -0.0316  2.2089
 1704SOL    HW2 6597   7.311   4.187   4.604  1.0516 -1.2932 -0.0264
 1705SOL     OW 6598   7.643   5.513   5.557 -0.1424 -0.7319 -0.0589
 1705SOL    HW1 6599   7.715   5.561   5.597 -0.4874  0.9744 -1.4745
 1705SOL    HW2 6600   7.685   5.454   5.494  0.0318  0.0072 -0.6283
 1706SOL     OW 6601   3.199   7.260   3.598  0.4685 -0.1060  0.0090
 1706SOL    HW1 6602   3.265   7.228   3.536 -0.3890 -0.7686 -0.5960
 1706SOL    HW2 6603   3.178   7.348   3.568 -0.8848 -0.8976 -1.4668
 1707SOL     OW 6604   3.806   7.276   2.282  0.2525 -0.1102  0.1506
 1707SOL    HW1 6605   3.848   7.360   2.264  0.8386 -0.4806 -0.2341
 1707SOL    HW2 6606   3.722   7.299   2.320 -0.8594  0.6760 -2.6728
 1708SOL     OW 6607   1.382   2.831   4.229 -0.0267 -0.6805  0.0047
 1708SOL    HW1 6608   1.339   2.823   4.143 -0.3839 -0.1933  0.1347
 1708SOL    HW2 6609   1.313   2.865   4.286 -0.9628 -4.6093  1.3959
 1709SOL     OW 6610   5.128   7.758   3.876  0.0093  0.2345  0.4586
 1709SOL    HW1 6611   5.061   7.760   3.808 -0.1422  1.9202  0.6260
 1709SOL    HW2 6612   5.190   7.826   3.851  1.3460 -0.9021  0.6328
 1710SOL     OW 6613   1.063   1.554   0.691  0.0184 -0.1978  0.5386
 1710SOL    HW1 6614   1.096   1.643   0.679  0.6794 -0.7452 -1.8368
 1710SOL    HW2 6615   1.106   1.524   0.771  1.2644  0.9521  0.3174
 1711SOL     OW 6616   4.368   4.711   0.821  0.5420 -0.2774 -0.0493
 1711SOL    HW1 6617   4.398   4.743   0.907  0.1568  1.6870 -0.6256
 1711SOL    HW2 6618   4.314   4.782   0.787 -1.0586 -1.9321 -1.0125
 1712SOL     OW 6619   4.040   5.869   3.466 -0.2714  0.4829  0.3948
 1712SOL    HW1 6620   4.097   5.940   3.495  0.8497 -0.3379  0.2376
 1712SOL    HW2 6621   4.094   5.790   3.473 -1.3426 -0.2900  0.1047
 1713SOL     OW 6622   7.077   2.552   3.992  0.3323  0.1681  0.1577
 1713SOL    HW1 6623   6.992   2.509   4.002  1.0867 -0.8785  2.2636
 1713SOL    HW2 6624   7.097   2.544   3.899 -0.5827 -2.0691  0.1325
 1714SOL     OW 6625   1.118   8.043   2.233  0.5359  0.2889  0.1958
 1714SOL    HW1 6626   1.176   8.014   2.304 -0.9742  0.4091  1.5204
 1714SOL    HW2 6627   1.114   8.139   2.243  0.3877  0.3140 -0.0920
 1715SOL     OW 6628   2.643   4.651   5.311 -0.6600 -0.0925 -0.1193
 1715SOL    HW1 6629   2.715   4.699   5.269  0.3688 -0.4102  1.2437
 1715SOL    HW2 6630   2.598   4.717   5.364 -1.2511  0.0597 -0.8021
 1716SOL     OW 6631   1.035   7.804   6.353  0.8191  0.1210 -0.5020
 1716SOL    HW1 6632   0.953   7.832   6.312 -0.4030 -3.5875 -0.7558
 1716SOL    HW2 6633   1.081   7.757   6.284  1.5863 -0.7386  0.5786
 1717SOL     OW 6634   7.756   4.739   7.681  0.1210 -0.0492  0.2732
 1717SOL    HW1 6635   7.694   4.761   7.611  0.8883 -0.8610 -0.6737
 1717SOL    HW2 6636   7.777   4.824   7.721  1.6370  0.7876 -2.1485
 1718SOL     OW 6637   2.885   6.003   6.769  0.1659 -0.0791 -0.6100
 1718SOL    HW1 6638   2.913   6.065   6.702  0.5961 -0.5366 -0.8598
 1718SOL    HW2 6639   2.794   6.028   6.789  0.2028  0.3707 -1.0005
 1719SOL     OW 6640   3.030   0.831   5.994 -0.1911 -0.1888 -0.1608
 1719SOL    HW1 6641   3.002   0.890   6.064 -0.0608 -0.2339 -0.0698
 1719SOL    HW2 6642   3.066   0.755   6.040  0.6498  0.1354 -0.2649
 1720SOL     OW 6643   1.776   0.118   7.607  0.1493  0.1250 -0.1283
 1720SOL    HW1 6644   1.767   0.022   7.603  1.3617  0.0328 -0.8077
 1720SOL    HW2 6645   1.866   0.133   7.635 -0.2049  1.0726  0.5181
 1721SOL     OW 6646   2.293   7.246   7.664  0.6113 -0.4704 -0.0997
 1721SOL    HW1 6647   2.330   7.160   7.683  0.4679 -0.2718  1.1163
 1721SOL    HW2 6648   2.229   7.261   7.733  1.0482  0.8584  0.0396
 1722SOL     OW 6649   5.110   0.771   3.739 -0.1049  0.0791  0.2856
 1722SOL    HW1 6650   5.033   0.807   3.783 -0.5944 -2.4784  1.6667
 1722SOL    HW2 6651   5.184   0.815   3.780 -0.7312  0.5829  0.8925
 1723SOL     OW 6652   0.842   7.471   3.588  0.0488  0.4581 -0.0076
 1723SOL    HW1 6653   0.747   7.487   3.593  0.1936  2.1643 -1.9729
 1723SOL    HW2 6654   0.849   7.378   3.566 -1.2541  0.6541 -1.4207
 1724SOL     OW 6655   1.614   8.146   2.758  0.2646  0.0105 -0.2561
 1724SOL    HW1 6656   1.710   8.137   2.751  0.1988 -0.3536 -0.7448
 1724SOL    HW2 6657   1.597   8.147   2.852  0.6529 -0.9927 -0.1659
 1725SOL     OW 6658   0.999   4.731   5.507  0.0132  0.2207 -0.0906
 1725SOL    HW1 6659   1.019   4.822   5.483  0.9895 -0.2487 -1.0955
 1725SOL    HW2 6660   1.024   4.680   5.431  2.0270 -1.1656  1.4443
 1726SOL     OW 6661   4.648   2.096   3.322  0.1161  0.1630  0.5241
 1726SOL    HW1 6662   4.586   2.154   3.365 -0.3306  0.5599 -0.6307
 1726SOL    HW2 6663   4.734   2.135   3.341 -0.1252  0.7452  0.4311
 1727SOL     OW 6664   5.177   0.849   1.322  0.0020 -0.3054  0.1335
 1727SOL    HW1 6665   5.082   0.856   1.331  0.0904  1.4427 -0.0967
 1727SOL    HW2 6666   5.209   0.938   1.338  1.7023 -1.1359  1.4639
 1728SOL     OW 6667   6.038   3.434   2.924 -0.1117  0.2650 -0.4851
 1728SOL    HW1 6668   6.076   3.496   2.862 -1.8334  0.8610 -0.9639
 1728SOL    HW2 6669   6.092   3.355   2.916  0.5760  0.8496 -1.6548
 1729SOL     OW 6670   1.537   6.704   7.785 -0.5898 -0.6709  0.1563
 1729SOL    HW1 6671   1.445   6.687   7.808 -0.3103  0.5271  2.3824
 1729SOL    HW2 6672   1.532   6.772   7.718 -1.3470  0.2599  1.1144
 1730SOL     OW 6673   1.845   7.180   4.319 -0.4792  0.1027  0.0353
 1730SOL    HW1 6674   1.895   7.178   4.401 -1.3685 -1.5545  0.5603
 1730SOL    HW2 6675   1.895   7.123   4.260  0.9307  2.3925 -1.0801
 1731SOL     OW 6676   3.618   0.602   5.712  0.1845  0.3453  0.8734
 1731SOL    HW1 6677   3.693   0.544   5.700  1.1364  1.5604  0.7601
 1731SOL    HW2 6678   3.551   0.569   5.653  1.1446  0.0924 -0.0841
 1732SOL     OW 6679   8.116   7.894   5.763  0.3603  0.4912 -0.1803
 1732SOL    HW1 6680   8.146   7.893   5.854  1.8449 -0.5695 -0.6483
 1732SOL    HW2 6681   8.059   7.970   5.757  0.4070  0.6910  1.5890
 1733SOL     OW 6682   7.490   4.160   2.725  0.2606 -0.0094 -0.3456
 1733SOL    HW1 6683   7.489   4.190   2.634 -0.5388  0.0121 -0.3319
 1733SOL    HW2 6684   7.476   4.065   2.719 -2.4774  0.3463 -0.1161
 1734SOL     OW 6685   1.688   7.297   6.792 -0.5423 -0.0519 -0.5547
 1734SOL    HW1 6686   1.748   7.351   6.741 -0.8508  0.7496 -0.0918
 1734SOL    HW2 6687   1.740   7.221   6.817 -0.4768 -0.5856 -2.2782
 1735SOL     OW 6688   6.910   5.806   8.147  0.1328  0.0402 -0.0233
 1735SOL    HW1 6689   6.949   5.719   8.135  1.2510  0.2986  1.5665
 1735SOL    HW2 6690   6.915   5.846   8.060  0.9395 -0.9501 -0.4439
 1736SOL     OW 6691   1.169   4.366   7.666 -0.2640  0.3913  0.1318
 1736SOL    HW1 6692   1.191   4.314   7.744  1.2739  1.0610  0.1678
 1736SOL    HW2 6693   1.215   4.321   7.595  0.6137  1.3729  0.0727
 1737SOL     OW 6694   5.405   7.965   7.857 -0.1988 -0.3034  0.4232
 1737SOL    HW1 6695   5.405   8.003   7.945 -0.4654  1.0341 -0.1439
 1737SOL    HW2 6696   5.313   7.945   7.841 -0.1797 -0.3431  0.3634
 1738SOL     OW 6697   4.731   3.385   5.486  0.4804 -0.1951 -0.2833
 1738SOL    HW1 6698   4.814   3.431   5.500 -0.8206  2.0670  0.2612
 1738SOL    HW2 6699   4.714   3.341   5.569  2.3894 -2.8656 -1.2256
 1739SOL     OW 6700   5.534   7.929   0.258 -0.1615  0.6801 -0.6425
 1739SOL    HW1 6701   5.625   7.943   0.233  0.1328  0.1392  0.1048
 1739SOL    HW2 6702   5.490   8.010   0.233 -0.0999 -0.1826 -3.7757
 1740SOL     OW 6703   1.639   1.427   0.046  0.0303 -0.3442  0.1924
 1740SOL    HW1 6704   1.701   1.362   0.014 -0.0327  0.8351 -2.4133
 1740SOL    HW2 6705   1.579   1.378   0.103  0.9214 -2.2443 -0.4953
 1741SOL     OW 6706   6.556   6.073   3.657  0.7788 -0.2259 -0.7269
 1741SOL    HW1 6707   6.521   5.993   3.616  3.1632 -0.6568 -2.0488
 1741SOL    HW2 6708   6.610   6.041   3.729 -1.1674  0.4200  1.0925
 1742SOL     OW 6709   8.100   6.315   4.163  0.0778 -0.3258  0.4483
 1742SOL    HW1 6710   8.007   6.300   4.176  0.0983 -0.7106  0.1258
 1742SOL    HW2 6711   8.143   6.252   4.220  0.1512 -1.0510 -0.3918
 1743SOL     OW 6712   6.030   7.763   8.022 -0.1325  0.2306 -0.0572
 1743SOL    HW1 6713   5.973   7.798   7.954  2.7353 -0.1399 -2.7710
 1743SOL    HW2 6714   6.018   7.669   8.018  0.9135  0.1182 -0.9303
 1744SOL     OW 6715   5.123   8.287   5.219  0.3112  0.3943  0.0093
 1744SOL    HW1 6716   5.066   8.220   5.256  0.1350 -0.6751 -2.1542
 1744SOL    HW2 6717   5.212   8.259   5.244  0.0331  1.3081  2.1590
 1745SOL     OW 6718   3.064   7.530   1.445 -0.2690  0.0422  0.3588
 1745SOL    HW1 6719   3.038   7.577   1.366 -1.0459 -0.3999  0.3407
 1745SOL    HW2 6720   3.159   7.540   1.450 -0.1119 -0.6372 -1.0808
 1746SOL     OW 6721   2.674   4.042   0.509  0.0861  0.3059  0.0667
 1746SOL    HW1 6722   2.593   4.026   0.461  0.1606  0.1887 -0.0203
 1746SOL    HW2 6723   2.653   4.020   0.600  0.0046  0.3324  0.0544
 1747SOL     OW 6724   4.887   0.843   1.326  0.0334  0.1956 -0.3894
 1747SOL    HW1 6725   4.858   0.934   1.327 -0.1722  0.1241  1.1083
 1747SOL    HW2 6726   4.842   0.804   1.251 -0.5045  1.1225 -0.5537
 1748SOL     OW 6727   5.631   7.340   4.109  0.9044  0.3038 -0.4045
 1748SOL    HW1 6728   5.566   7.302   4.050  0.9256  0.2032 -0.3622
 1748SOL    HW2 6729   5.715   7.317   4.071  0.9070  1.2551 -0.9793
 1749SOL     OW 6730   1.831   6.682   6.682  0.2860  0.1037 -0.0738
 1749SOL    HW1 6731   1.848   6.726   6.766  1.9346 -1.3362  0.3713
 1749SOL    HW2 6732   1.737   6.694   6.668 -0.0676  0.1249  2.1275
 1750SOL     OW 6733   4.165   3.540   3.715  0.2606  0.3892 -0.7733
 1750SOL    HW1 6734   4.129   3.612   3.767 -0.0048  0.5658 -1.1919
 1750SOL    HW2 6735   4.190   3.473   3.779 -3.6674 -1.0427 -0.6228
 1751SOL     OW 6736   6.366   7.318   2.128  0.1284 -0.2854  0.1899
 1751SOL    HW1 6737   6.373   7.414   2.125  0.8280 -0.2338  2.2878
 1751SOL    HW2 6738   6.444   7.286   2.083  0.5748  0.1432  0.6549
 1752SOL     OW 6739   2.583   2.107   1.221 -0.2369  0.8153  0.3890
 1752SOL    HW1 6740   2.657   2.132   1.166 -0.2171  0.6599  0.3461
 1752SOL    HW2 6741   2.546   2.190   1.251  0.3833  0.8808  0.9855
 1753SOL     OW 6742   0.009   5.832   6.137  0.2857 -0.1180 -0.0118
 1753SOL    HW1 6743  -0.010   5.876   6.220  0.3064 -0.0518 -0.0417
 1753SOL    HW2 6744  -0.043   5.752   6.139  1.0232 -0.5908  0.4850
 1754SOL     OW 6745   3.878   4.003   0.186  0.5872  0.6290  0.1227
 1754SOL    HW1 6746   3.879   3.924   0.241  0.5818  0.0297 -0.7261
 1754SOL    HW2 6747   3.807   4.056   0.222 -0.9807 -0.8210 -0.7458
 1755SOL     OW 6748   7.413   5.753   6.921  0.2989 -0.2823 -0.0363
 1755SOL    HW1 6749   7.465   5.766   6.842  0.1449  0.5778  0.0018
 1755SOL    HW2 6750   7.343   5.818   6.914  0.2219 -0.2824  0.7537
 1756SOL     OW 6751   1.864   1.322   6.061 -0.6455 -0.1449  0.2621
 1756SOL    HW1 6752   1.792   1.302   6.121 -0.5150 -0.0758  0.4430
 1756SOL    HW2 6753   1.829   1.389   6.002 -1.2026 -1.1625 -0.5784
 1757SOL     OW 6754   4.990   2.663   0.350 -0.4707  0.6008  0.1664
 1757SOL    HW1 6755   5.084   2.644   0.350 -0.6506 -0.4193  2.4177
 1757SOL    HW2 6756   4.985   2.756   0.327  0.8465 -0.0930 -3.4028
 1758SOL     OW 6757   0.163   2.286   2.031  0.1567 -0.5109  0.9824
 1758SOL    HW1 6758   0.118   2.204   2.010 -1.7616  0.7488 -0.0248
 1758SOL    HW2 6759   0.194   2.275   2.121  0.6842 -2.6522  0.5483
 1759SOL     OW 6760   2.261   3.221   0.321  0.2323 -0.3963  0.2460
 1759SOL    HW1 6761   2.337   3.207   0.377  1.3225 -3.3053 -1.8324
 1759SOL    HW2 6762   2.298   3.249   0.237 -1.0585 -0.6602 -0.4256
 1760SOL     OW 6763   0.643   5.609   0.138  0.0668  0.8092 -0.2489
 1760SOL    HW1 6764   0.589   5.677   0.177 -1.4050 -0.3790 -0.1722
 1760SOL    HW2 6765   0.668   5.645   0.053 -0.2517  1.6658  0.0133
 1761SOL     OW 6766   0.691   3.143   1.438 -0.3454 -0.3372 -0.0105
 1761SOL    HW1 6767   0.719   3.106   1.521 -0.6563 -0.9856 -0.1862
 1761SOL    HW2 6768   0.599   3.166   1.452  0.2304  1.6671  0.5277
 1762SOL     OW 6769   2.224   7.208   1.993  0.1913 -0.6090  0.0495
 1762SOL    HW1 6770   2.268   7.123   1.986 -0.1847 -0.7308 -1.0434
 1762SOL    HW2 6771   2.226   7.243   1.903 -1.5725 -0.4333  0.0635
 1763SOL     OW 6772   4.942   4.958   5.700  0.7643  0.3404 -0.2916
 1763SOL    HW1 6773   4.948   5.053   5.686 -1.1824  0.3516 -1.1771
 1763SOL    HW2 6774   4.976   4.921   5.618  0.2132  0.2971 -0.5032
 1764SOL     OW 6775   4.462   2.184   1.960 -0.4248  0.4537 -0.3736
 1764SOL    HW1 6776   4.519   2.217   1.890  1.3659  0.6662  1.1386
 1764SOL    HW2 6777   4.454   2.258   2.021 -2.3028  0.4090 -0.5477
 1765SOL     OW 6778   5.880   6.937   1.143 -0.1198 -0.1150 -0.3061
 1765SOL    HW1 6779   5.866   6.884   1.221  1.3545 -0.5761 -0.3599
 1765SOL    HW2 6780   5.797   6.984   1.132 -0.0477  0.6303  2.0486
 1766SOL     OW 6781   6.158   4.390   1.652 -0.3073 -0.1658  0.7498
 1766SOL    HW1 6782   6.128   4.405   1.742 -0.8739 -2.5480  0.9761
 1766SOL    HW2 6783   6.236   4.335   1.662 -0.1743 -0.1518 -0.2054
 1767SOL     OW 6784   1.510   6.706   2.458  0.1544 -0.1661  0.1447
 1767SOL    HW1 6785   1.606   6.710   2.455  0.0961  1.2768 -0.0861
 1767SOL    HW2 6786   1.491   6.655   2.536  1.1246 -1.3645 -0.3834
 1768SOL     OW 6787   0.153   8.116   4.409  1.3131  0.8446 -1.1418
 1768SOL    HW1 6788   0.094   8.060   4.359 -0.7211 -0.0004  2.0256
 1768SOL    HW2 6789   0.107   8.199   4.417  0.8935  0.4805  0.5499
 1769SOL     OW 6790   2.378   4.832   0.356 -0.0302  0.3481 -0.7511
 1769SOL    HW1 6791   2.395   4.905   0.296 -0.3419  1.2164  0.2033
 1769SOL    HW2 6792   2.424   4.856   0.436 -0.1887 -0.4892 -0.4064
 1770SOL     OW 6793   2.411   3.606   2.300  0.1317  0.8218 -0.0432
 1770SOL    HW1 6794   2.469   3.672   2.338  1.0143  0.0288  0.0193
 1770SOL    HW2 6795   2.464   3.563   2.232 -0.2795 -0.1080  0.2109
 1771SOL     OW 6796   4.486   0.557   4.170  0.0240  0.2969  0.6409
 1771SOL    HW1 6797   4.530   0.635   4.205 -0.1298  0.5772  0.1996
 1771SOL    HW2 6798   4.409   0.546   4.226 -0.7221  1.2817 -0.1687
 1772SOL     OW 6799   3.399   0.775   2.165 -0.2417 -0.2349  0.1224
 1772SOL    HW1 6800   3.414   0.803   2.255 -1.3335  0.1717  0.1882
 1772SOL    HW2 6801   3.336   0.838   2.130 -0.9138 -1.2065 -0.4682
 1773SOL     OW 6802   0.491   3.468   1.589 -0.0058  0.2427 -0.1545
 1773SOL    HW1 6803   0.480   3.535   1.521 -0.1113  0.6916  0.2971
 1773SOL    HW2 6804   0.577   3.430   1.572 -0.0538  0.3189 -0.5719
 1774SOL     OW 6805   6.017   5.617   7.740  0.2473  0.0219 -0.0474
 1774SOL    HW1 6806   6.024   5.693   7.681 -1.7313  0.4342  0.2334
 1774SOL    HW2 6807   6.001   5.543   7.681  1.1073 -0.0159 -0.2393
 1775SOL     OW 6808   3.798   6.201   3.183  0.0065 -0.2611 -0.4052
 1775SOL    HW1 6809   3.768   6.120   3.142  1.9324 -0.8542 -0.7093
 1775SOL    HW2 6810   3.726   6.263   3.171 -1.3323 -1.8262 -0.4868
 1776SOL     OW 6811   7.534   0.366   5.557  0.1468 -0.0668 -0.2010
 1776SOL    HW1 6812   7.495   0.298   5.611  0.9933  0.1778  0.7434
 1776SOL    HW2 6813   7.624   0.337   5.542  0.2072  0.3393 -0.6457
 1777SOL     OW 6814   7.746   3.007   1.539  0.0867 -0.1751  0.4363
 1777SOL    HW1 6815   7.674   3.034   1.481  1.0038  1.1947 -0.0949
 1777SOL    HW2 6816   7.779   3.090   1.576  1.9746 -0.7111 -0.0230
 1778SOL     OW 6817   5.283   3.367   1.013 -0.5996  0.2234  0.1625
 1778SOL    HW1 6818   5.362   3.328   1.049 -0.3552 -0.0252 -0.6394
 1778SOL    HW2 6819   5.300   3.462   1.015  0.1140  0.1264 -0.9096
 1779SOL     OW 6820   2.042   8.253   1.034 -0.3444 -0.1989  0.4392
 1779SOL    HW1 6821   2.032   8.320   1.101  1.9817  1.4752 -0.8185
 1779SOL    HW2 6822   2.128   8.214   1.051 -0.8339 -1.5351 -0.0306
 1780SOL     OW 6823   4.177   6.572   1.965 -0.4658 -0.1269 -0.2168
 1780SOL    HW1 6824   4.086   6.543   1.974 -0.3106 -0.8792 -1.0208
 1780SOL    HW2 6825   4.177   6.663   1.995 -1.5463 -0.0249 -0.5294
 1781SOL     OW 6826   2.565   3.654   1.113 -0.2888  0.4128  0.1654
 1781SOL    HW1 6827   2.576   3.626   1.022  0.3992 -4.3464  1.5604
 1781SOL    HW2 6828   2.471   3.652   1.127 -0.3921  1.0683 -0.4301
 1782SOL     OW 6829   0.692   6.329   1.987 -0.0993 -1.1727 -0.0397
 1782SOL    HW1 6830   0.740   6.270   2.046 -1.2115 -0.8086  1.2375
 1782SOL    HW2 6831   0.600   6.304   1.997 -0.4771  0.0993 -0.2670
 1783SOL     OW 6832   3.325   5.464   4.758 -0.0125 -0.2851  0.1426
 1783SOL    HW1 6833   3.334   5.518   4.680 -0.0576  0.5633  0.7195
 1783SOL    HW2 6834   3.329   5.374   4.726  0.8124  0.0593 -0.7415
 1784SOL     OW 6835   1.808   6.342   7.983  0.3739 -0.2380  0.2837
 1784SOL    HW1 6836   1.777   6.430   8.003 -0.0943 -0.4399  0.4460
 1784SOL    HW2 6837   1.890   6.356   7.935  0.5961  0.2744  0.8070
 1785SOL     OW 6838   2.660   7.342   2.169  0.0544  1.0247  0.1461
 1785SOL    HW1 6839   2.622   7.311   2.252 -0.0707 -0.4386 -0.4368
 1785SOL    HW2 6840   2.598   7.408   2.138 -1.0436  0.0178  0.1564
 1786SOL     OW 6841   3.426   3.503   8.233 -0.3006  0.5930 -0.0259
 1786SOL    HW1 6842   3.452   3.521   8.142  2.2453 -0.6347  0.4445
 1786SOL    HW2 6843   3.369   3.427   8.227 -1.0370  1.1754 -0.6802
 1787SOL     OW 6844   1.135   3.127   4.779  0.2277 -0.2755 -0.5540
 1787SOL    HW1 6845   1.198   3.144   4.849  0.6120 -1.4355 -0.6065
 1787SOL    HW2 6846   1.168   3.179   4.705 -0.2119  0.9937  0.1178
 1788SOL     OW 6847   5.219   5.274   7.053  0.1551 -0.0744 -0.2888
 1788SOL    HW1 6848   5.275   5.350   7.040 -0.3148  0.4064  0.4463
 1788SOL    HW2 6849   5.254   5.231   7.131 -0.3922  0.1490  0.0899
 1789SOL     OW 6850   2.635   0.679   8.167 -0.1292  0.0482  0.1172
 1789SOL    HW1 6851   2.699   0.686   8.096 -0.3626  0.7406 -0.0221
 1789SOL    HW2 6852   2.642   0.588   8.196 -0.1780 -0.3020 -0.9323
 1790SOL     OW 6853   1.037   5.610   2.992 -0.0753  0.5455  0.7172
 1790SOL    HW1 6854   1.057   5.581   2.903 -0.9386 -0.8112  0.9499
 1790SOL    HW2 6855   0.961   5.667   2.982 -1.9358 -1.8509  0.8732
 1791SOL     OW 6856   5.921   4.809   3.312 -0.3717  0.5235 -1.0238
 1791SOL    HW1 6857   5.957   4.897   3.301 -0.5199  0.3854 -2.7871
 1791SOL    HW2 6858   5.872   4.793   3.231 -1.1052 -0.8219 -0.3259
 1792SOL     OW 6859   3.445   0.507   0.694  0.1120  0.7941 -0.0959
 1792SOL    HW1 6860   3.525   0.459   0.716 -0.7688 -0.3560  0.6473
 1792SOL    HW2 6861   3.448   0.585   0.750  0.3857  0.4256  0.4135
 1793SOL     OW 6862   1.077   4.037   2.148  0.4475 -0.0078  0.1514
 1793SOL    HW1 6863   1.156   4.008   2.193  0.7347 -0.3990 -0.5854
 1793SOL    HW2 6864   1.014   4.057   2.218  1.2677  0.5109  0.7434
 1794SOL     OW 6865   1.531   8.266   0.485  0.1968 -0.2454  0.2053
 1794SOL    HW1 6866   1.587   8.337   0.516 -0.0955 -0.5303  1.3883
 1794SOL    HW2 6867   1.590   8.207   0.438  0.6616  0.1026  0.3543
 1795SOL     OW 6868   2.558   1.204   7.674 -0.2875 -0.0785 -0.2809
 1795SOL    HW1 6869   2.531   1.118   7.708 -0.5252 -0.0050 -0.2791
 1795SOL    HW2 6870   2.503   1.266   7.722 -0.2381  0.0635 -0.4092
 1796SOL     OW 6871   8.009   1.144   4.467 -0.2234 -0.2521 -0.4332
 1796SOL    HW1 6872   8.027   1.092   4.389  0.0079  0.9676 -1.2062
 1796SOL    HW2 6873   8.095   1.160   4.506 -0.4627 -2.2041  0.9742
 1797SOL     OW 6874   5.590   0.083   6.222 -0.4678  0.2566 -0.2086
 1797SOL    HW1 6875   5.627   0.090   6.134  0.8261 -0.4034  0.2775
 1797SOL    HW2 6876   5.498   0.107   6.211  0.0691  1.8416 -1.4343
 1798SOL     OW 6877   0.842   2.741   5.999 -0.7916  0.0496 -0.4223
 1798SOL    HW1 6878   0.809   2.741   6.089 -3.4460 -1.1614 -1.3245
 1798SOL    HW2 6879   0.813   2.825   5.963 -1.8927 -0.4865 -0.8351
 1799SOL     OW 6880   7.264   0.457   6.237 -0.4794 -0.2577 -0.0725
 1799SOL    HW1 6881   7.291   0.387   6.178 -0.3285 -2.1040  2.0960
 1799SOL    HW2 6882   7.312   0.439   6.318 -1.2377  1.7720  0.8557
 1800SOL     OW 6883   0.135   5.287   4.167  0.2590  0.1086 -0.1924
 1800SOL    HW1 6884   0.163   5.376   4.151  0.8891  0.4317  2.5033
 1800SOL    HW2 6885   0.048   5.282   4.127  0.2167  1.9160 -0.3700
 1801SOL     OW 6886   0.884   3.977   3.152 -0.0797  0.3666 -0.1045
 1801SOL    HW1 6887   0.822   3.934   3.094  1.7870 -2.3192 -0.1952
 1801SOL    HW2 6888   0.909   3.911   3.216  1.8952  1.6778  0.5585
 1802SOL     OW 6889   7.968   0.374   7.174 -0.0346  0.3405  0.2564
 1802SOL    HW1 6890   7.936   0.329   7.096 -0.8787  0.3438  0.5883
 1802SOL    HW2 6891   8.018   0.308   7.222  1.7969  0.7503 -1.0313
 1803SOL     OW 6892   7.141   8.222   2.029 -0.9724 -0.1079 -0.2801
 1803SOL    HW1 6893   7.098   8.160   2.088 -2.4274  0.0955 -1.1059
 1803SOL    HW2 6894   7.169   8.169   1.955 -0.8737 -0.0263 -0.3018
 1804SOL     OW 6895   0.861   6.760   2.184  0.4582  0.3977 -0.6697
 1804SOL    HW1 6896   0.795   6.693   2.165  1.2115 -0.8047  0.8184
 1804SOL    HW2 6897   0.818   6.843   2.164 -1.2271 -0.4178 -0.5116
 1805SOL     OW 6898   1.208   3.943   5.794  0.5451 -0.4794  0.0028
 1805SOL    HW1 6899   1.231   3.915   5.706 -2.2895 -0.5975 -0.7316
 1805SOL    HW2 6900   1.160   3.870   5.831  0.7647  0.0006  1.2629
 1806SOL     OW 6901   1.808   5.650   6.855 -0.1237 -0.1220 -0.6261
 1806SOL    HW1 6902   1.848   5.735   6.838 -0.4157 -0.0321 -0.8740
 1806SOL    HW2 6903   1.879   5.596   6.891  0.3741 -0.1579 -1.6537
 1807SOL     OW 6904   0.920   7.607   4.670 -0.0936 -0.0872 -0.7065
 1807SOL    HW1 6905   0.995   7.654   4.634 -0.7545  0.3290 -1.5428
 1807SOL    HW2 6906   0.860   7.676   4.699 -0.4335 -0.4193 -0.6155
 1808SOL     OW 6907   6.506   0.696   1.466  0.3398  0.4857  0.4181
 1808SOL    HW1 6908   6.569   0.653   1.524  0.4136  0.3999  0.2765
 1808SOL    HW2 6909   6.462   0.761   1.521 -0.5460 -0.5189  0.8992
 1809SOL     OW 6910   6.356   5.108   2.738 -0.4690  0.3930  0.7236
 1809SOL    HW1 6911   6.409   5.115   2.659 -0.8568  0.5623  0.4782
 1809SOL    HW2 6912   6.388   5.180   2.794  0.3050 -0.1771  1.0265
 1810SOL     OW 6913   4.945   0.438   1.318  0.5040 -0.4008 -0.1927
 1810SOL    HW1 6914   4.914   0.382   1.247 -0.1894  0.0080 -0.2118
 1810SOL    HW2 6915   4.870   0.492   1.341  1.1705  0.5433 -0.1983
 1811SOL     OW 6916   2.566   6.218   1.267  0.1587  0.3281 -0.4539
 1811SOL    HW1 6917   2.486   6.243   1.313  0.7501 -1.1016  1.4281
 1811SOL    HW2 6918   2.597   6.299   1.226 -1.4632  1.2022  0.0090
 1812SOL     OW 6919   3.543   1.227   2.499 -0.1953 -0.3363 -0.0525
 1812SOL    HW1 6920   3.473   1.230   2.565  0.1000 -0.0063  0.2465
 1812SOL    HW2 6921   3.525   1.303   2.443 -1.2504 -1.3940 -1.1810
 1813SOL     OW 6922   2.894   8.040   6.092 -0.7780 -0.8080  0.4089
 1813SOL    HW1 6923   2.835   7.974   6.053 -1.4677 -0.2733  0.5315
 1813SOL    HW2 6924   2.872   8.121   6.045  0.6735 -0.8410 -0.3426
 1814SOL     OW 6925   5.261   7.699   4.828  0.4181  0.0923  0.0705
 1814SOL    HW1 6926   5.222   7.612   4.828  2.2522 -0.7575  0.0595
 1814SOL    HW2 6927   5.298   7.710   4.740  1.8896  0.0653  0.6592
 1815SOL     OW 6928   6.067   3.586   2.367  0.3827  0.3955  0.4259
 1815SOL    HW1 6929   6.054   3.636   2.286  0.6167 -0.3894 -0.1014
 1815SOL    HW2 6930   5.993   3.526   2.371  0.6494  0.0669  0.5167
 1816SOL     OW 6931   1.453   7.274   2.817 -0.0768 -0.5096 -0.1177
 1816SOL    HW1 6932   1.474   7.353   2.867 -0.3926 -0.0575 -0.6873
 1816SOL    HW2 6933   1.410   7.216   2.879 -0.1584 -0.0892  0.2209
 1817SOL     OW 6934   6.567   7.709   0.338 -0.3301  0.0767  0.0500
 1817SOL    HW1 6935   6.586   7.661   0.258 -0.4707 -0.0595  0.0984
 1817SOL    HW2 6936   6.616   7.791   0.330  0.3994 -0.3387  0.2352
 1818SOL     OW 6937   2.001   6.054   1.730  0.0331 -0.1734 -0.3425
 1818SOL    HW1 6938   2.060   6.087   1.798 -0.5173  0.0603  0.0321
 1818SOL    HW2 6939   2.057   6.002   1.672  0.5756 -0.0727  0.0843
 1819SOL     OW 6940   0.635   3.911   2.640  0.3642 -0.5985  0.5021
 1819SOL    HW1 6941   0.664   4.002   2.640 -1.1552 -0.0920 -0.0167
 1819SOL    HW2 6942   0.646   3.882   2.731  0.1615  0.3413  0.8350
 1820SOL     OW 6943   8.265   0.267   0.675 -0.0235 -0.6841  0.7433
 1820SOL    HW1 6944   8.195   0.290   0.614  1.8639  1.2551 -0.7684
 1820SOL    HW2 6945   8.271   0.342   0.734 -0.3949 -1.6079  1.9505
 1821SOL     OW 6946   5.645   0.080   0.412 -0.5552 -0.2934 -0.1553
 1821SOL    HW1 6947   5.680   0.008   0.464 -1.1437  0.1187  0.8314
 1821SOL    HW2 6948   5.608   0.038   0.334  0.2298 -0.9285 -0.1869
 1822SOL     OW 6949   7.079   0.056   4.183 -0.1887  0.1620  0.0281
 1822SOL    HW1 6950   7.156   0.081   4.132  0.5588  0.7560  1.4199
 1822SOL    HW2 6951   7.033  -0.007   4.127  1.2071 -0.0615 -0.9041
 1823SOL     OW 6952   0.698   5.165   2.535  0.2186  0.3155 -0.3267
 1823SOL    HW1 6953   0.625   5.224   2.516  0.3544  0.3989 -0.5941
 1823SOL    HW2 6954   0.663   5.078   2.519  0.4216  0.4013 -1.2816
 1824SOL     OW 6955   1.934   7.536   0.090 -0.1862 -0.7354 -0.5113
 1824SOL    HW1 6956   1.970   7.502   0.172 -3.6507  0.5211  1.6229
 1824SOL    HW2 6957   1.881   7.465   0.055  1.1003 -1.1864 -1.6013
 1825SOL     OW 6958   6.838   1.642   1.603  0.7066  0.2812 -0.1227
 1825SOL    HW1 6959   6.899   1.586   1.651  1.3741 -0.0346 -1.3266
 1825SOL    HW2 6960   6.813   1.591   1.527 -1.1258  0.3888  0.3962
 1826SOL     OW 6961   7.499   5.426   7.682 -0.2844  0.2562 -0.0815
 1826SOL    HW1 6962   7.404   5.428   7.679 -0.2577  0.3138 -0.9729
 1826SOL    HW2 6963   7.525   5.392   7.597  0.5732  3.0756 -1.0174
 1827SOL     OW 6964   1.502   0.031   3.882  0.1298  0.1106  0.0305
 1827SOL    HW1 6965   1.516  -0.027   3.807 -3.1077  0.6017 -1.0258
 1827SOL    HW2 6966   1.447  -0.020   3.942 -0.0924  0.9474  0.5449
 1828SOL     OW 6967   7.630   3.168   0.731 -0.1816 -0.0780  0.6629
 1828SOL    HW1 6968   7.622   3.225   0.808 -0.3346 -0.4440  0.9229
 1828SOL    HW2 6969   7.592   3.085   0.760 -0.9115  0.0043 -0.0439
 1829SOL     OW 6970   6.968   0.119   0.678  0.0417  0.5241 -0.1432
 1829SOL    HW1 6971   6.941   0.164   0.758  0.6558 -0.1808  0.4657
 1829SOL    HW2 6972   6.919   0.163   0.609 -2.1521 -0.2432  0.8567
 1830SOL     OW 6973   7.397   2.761   0.977 -0.0039  0.8375  0.0115
 1830SOL    HW1 6974   7.410   2.856   0.984  0.8868  0.7846 -0.7588
 1830SOL    HW2 6975   7.407   2.742   0.883  1.7123 -0.2623  0.3848
 1831SOL     OW 6976   7.515   0.261   0.800  0.3023 -0.3442  0.2463
 1831SOL    HW1 6977   7.529   0.350   0.769  0.6089 -0.3239  0.4418
 1831SOL    HW2 6978   7.590   0.211   0.768 -1.1209 -1.1134 -2.0525
 1832SOL     OW 6979   0.241   2.161   7.091  0.2999  0.0222 -0.2916
 1832SOL    HW1 6980   0.149   2.140   7.108  0.9500 -1.6708  1.2923
 1832SOL    HW2 6981   0.273   2.198   7.173  1.1928  0.0237 -0.6318
 1833SOL     OW 6982   1.845   3.137   3.881  0.1186  0.3281 -0.2398
 1833SOL    HW1 6983   1.822   3.216   3.831  1.7181  0.5106 -0.6989
 1833SOL    HW2 6984   1.771   3.125   3.941 -1.5289  0.4784 -2.1973
 1834SOL     OW 6985   2.395   6.867   7.299 -0.1979  0.0516 -0.1004
 1834SOL    HW1 6986   2.404   6.934   7.231 -0.1682  2.1690  1.9139
 1834SOL    HW2 6987   2.406   6.784   7.253 -0.7312  1.4082 -2.7584
 1835SOL     OW 6988   7.265   5.227   0.627  0.2949 -0.2525 -0.2060
 1835SOL    HW1 6989   7.316   5.198   0.703 -1.0641 -1.5396  0.2502
 1835SOL    HW2 6990   7.188   5.270   0.665 -0.6195 -1.3084 -0.8264
 1836SOL     OW 6991   6.132   0.853   3.657 -0.0091 -0.6306 -0.2320
 1836SOL    HW1 6992   6.180   0.815   3.584  1.3200  2.5230 -1.0771
 1836SOL    HW2 6993   6.187   0.925   3.687 -3.0328  1.4612  0.4532
 1837SOL     OW 6994   0.599   5.212   4.730  0.3513 -0.5094  0.0309
 1837SOL    HW1 6995   0.654   5.231   4.654  1.0603  0.2459  0.7165
 1837SOL    HW2 6996   0.661   5.204   4.803 -0.4982  1.2890  0.9846
 1838SOL     OW 6997   6.306   6.029   0.774  0.1910  0.0077  0.0564
 1838SOL    HW1 6998   6.255   5.949   0.761 -1.5814  1.0472  0.3162
 1838SOL    HW2 6999   6.272   6.066   0.856  2.6953 -0.2204  1.2268
 1839SOL     OW 7000   7.003   6.278   1.527  0.1719 -0.2279 -0.0718
 1839SOL    HW1 7001   6.988   6.368   1.497 -0.9044 -0.8123 -1.3625
 1839SOL    HW2 7002   7.072   6.286   1.593 -0.4039  1.6302  0.3503
 1840SOL     OW 7003   4.625   3.069   0.283 -0.2814  0.3734  0.1277
 1840SOL    HW1 7004   4.715   3.078   0.313 -0.8760  0.6100  1.9028
 1840SOL    HW2 7005   4.591   3.159   0.280 -0.7045  0.2186  0.2294
 1841SOL     OW 7006   6.700   4.974   0.374  0.3740  0.1909 -0.0636
 1841SOL    HW1 7007   6.624   4.923   0.401  0.9476 -0.9556 -0.6138
 1841SOL    HW2 7008   6.769   4.910   0.360  0.9294  1.0512 -1.3472
 1842SOL     OW 7009   5.719   6.383   5.363  0.6323  0.1304  0.1298
 1842SOL    HW1 7010   5.780   6.438   5.412  1.2007 -0.0507 -0.3679
 1842SOL    HW2 7011   5.720   6.419   5.274  2.5323 -1.8648 -0.7271
 1843SOL     OW 7012   3.610   6.988   3.575 -0.0210 -0.5050  0.0102
 1843SOL    HW1 7013   3.666   7.062   3.554 -0.1299 -0.3532  0.2561
 1843SOL    HW2 7014   3.646   6.915   3.524  0.4157 -0.4162  0.1880
 1844SOL     OW 7015   6.381   2.506   0.360  0.2198 -0.1626 -0.0232
 1844SOL    HW1 7016   6.463   2.463   0.383  0.4877  0.9025  1.0710
 1844SOL    HW2 7017   6.377   2.501   0.265  2.6149  1.6407 -0.2706
 1845SOL     OW 7018   7.211   6.510   1.485  0.0803 -0.4480 -0.1730
 1845SOL    HW1 7019   7.280   6.577   1.488  0.9595 -1.3129 -0.7948
 1845SOL    HW2 7020   7.199   6.494   1.391 -0.7787 -0.5022 -0.0528
 1846SOL     OW 7021   3.568   2.227   5.281 -0.0749  0.2359 -0.4008
 1846SOL    HW1 7022   3.660   2.201   5.274 -0.2426 -1.2523  2.1867
 1846SOL    HW2 7023   3.523   2.172   5.218  0.3918 -1.5256  0.7524
 1847SOL     OW 7024   5.709   1.436   2.115 -0.5695 -0.3581  0.0153
 1847SOL    HW1 7025   5.631   1.387   2.141 -0.4191 -0.5739  0.0551
 1847SOL    HW2 7026   5.675   1.506   2.059 -0.7917 -0.4524  0.0301
 1848SOL     OW 7027   7.222   5.168   3.421  0.3142  0.1834  0.2427
 1848SOL    HW1 7028   7.176   5.207   3.496  0.5584 -1.3116  1.2012
 1848SOL    HW2 7029   7.153   5.145   3.359  0.1528  1.9159 -0.2372
 1849SOL     OW 7030   1.536   7.248   6.042  0.1268 -0.3911  0.4332
 1849SOL    HW1 7031   1.485   7.169   6.059 -0.3025 -0.6844 -2.0916
 1849SOL    HW2 7032   1.625   7.216   6.027  0.1275 -0.3077  0.2646
 1850SOL     OW 7033   0.419   2.483   5.553  0.0975  0.3960  0.0635
 1850SOL    HW1 7034   0.393   2.558   5.500 -3.7450  0.0769  1.3877
 1850SOL    HW2 7035   0.439   2.520   5.639  0.6274  0.1866  0.0351
 1851SOL     OW 7036   0.346   5.060   7.583 -0.0166  0.0225  0.0611
 1851SOL    HW1 7037   0.309   5.036   7.498 -0.6027 -1.6061  0.7645
 1851SOL    HW2 7038   0.324   5.153   7.592 -2.4905 -0.4701 -0.3180
 1852SOL     OW 7039   0.334   8.026   2.527  0.1574 -0.3145  0.0636
 1852SOL    HW1 7040   0.426   8.039   2.552 -0.5353  0.8602  2.0690
 1852SOL    HW2 7041   0.296   7.975   2.599 -1.0783  0.2850 -0.1538
 1853SOL     OW 7042   7.354   7.699   5.584 -0.5261 -0.1112  0.4434
 1853SOL    HW1 7043   7.309   7.681   5.666  0.3280 -0.8483  0.7591
 1853SOL    HW2 7044   7.334   7.624   5.528 -2.0637  0.9362 -0.4498
 1854SOL     OW 7045   1.882   3.534   0.008  0.0117  0.5289 -0.4713
 1854SOL    HW1 7046   1.823   3.570   0.075 -0.3263  0.5202 -0.7613
 1854SOL    HW2 7047   1.846   3.567  -0.074 -0.3675 -0.5749 -0.7484
 1855SOL     OW 7048   5.666   7.666   6.494  0.2245 -0.0600 -0.3628
 1855SOL    HW1 7049   5.626   7.715   6.422 -1.2232  0.1280  0.5476
 1855SOL    HW2 7050   5.684   7.732   6.561 -1.6415 -0.7393  0.8321
 1856SOL     OW 7051   6.389   2.276   7.663  0.3403 -0.0427 -0.9048
 1856SOL    HW1 7052   6.420   2.354   7.710  0.9193 -1.1180  0.5342
 1856SOL    HW2 7053   6.306   2.303   7.625 -0.8210  0.4856  1.8731
 1857SOL     OW 7054   8.113   1.209   3.640 -0.3368  0.0676  0.3100
 1857SOL    HW1 7055   8.119   1.118   3.668 -0.8601  0.4037  1.5380
 1857SOL    HW2 7056   8.096   1.258   3.720  1.1663  1.3832 -0.1451
 1858SOL     OW 7057   0.819   5.433   6.825 -0.1091  0.6287  0.2663
 1858SOL    HW1 7058   0.910   5.424   6.799 -0.2201 -1.7678  0.6207
 1858SOL    HW2 7059   0.769   5.420   6.744 -0.1923  0.6101  0.3203
 1859SOL     OW 7060   0.263   6.646   4.207  0.8300  0.3250  0.1542
 1859SOL    HW1 7061   0.171   6.670   4.196  1.2914  1.1651 -2.3954
 1859SOL    HW2 7062   0.300   6.714   4.263  0.3183  1.0478 -0.3817
 1860SOL     OW 7063   1.827   0.215   6.921  0.3294  0.0662 -0.9284
 1860SOL    HW1 7064   1.839   0.129   6.881 -0.3100  0.4798 -2.0560
 1860SOL    HW2 7065   1.789   0.269   6.850  0.7986  1.2846 -0.2686
 1861SOL     OW 7066   8.092   3.690   6.898  0.1056  0.3175 -0.0635
 1861SOL    HW1 7067   8.078   3.782   6.873 -1.4013  0.4121  1.0598
 1861SOL    HW2 7068   8.064   3.685   6.989  2.2779 -0.7911  0.5653
 1862SOL     OW 7069   1.775   6.815   8.308 -0.7202  0.0899 -0.6144
 1862SOL    HW1 7070   1.812   6.754   8.371 -1.8041 -1.0980 -1.1060
 1862SOL    HW2 7071   1.848   6.837   8.250  0.2637  1.1568  1.0010
 1863SOL     OW 7072   7.215   4.014   5.270 -0.3515 -0.5274 -0.1296
 1863SOL    HW1 7073   7.197   4.099   5.230 -0.1324 -0.2622  0.3322
 1863SOL    HW2 7074   7.285   4.031   5.333 -0.1742 -1.0864 -0.1714
 1864SOL     OW 7075   1.276   5.042   5.980 -0.2061  0.0668  0.0514
 1864SOL    HW1 7076   1.333   5.116   5.959  1.4251 -0.4943  2.2671
 1864SOL    HW2 7077   1.218   5.034   5.904 -0.4314  3.5915 -0.2059
 1865SOL     OW 7078   2.455   7.336   2.688 -0.3386  0.2176  0.2589
 1865SOL    HW1 7079   2.548   7.313   2.693 -0.1121  1.1301  0.4181
 1865SOL    HW2 7080   2.424   7.331   2.779 -0.3081  0.4287  0.2829
 1866SOL     OW 7081   5.846   1.673   4.487 -0.1103 -0.6161 -1.1822
 1866SOL    HW1 7082   5.907   1.650   4.557  0.1496 -0.5070 -1.3737
 1866SOL    HW2 7083   5.900   1.677   4.408  0.2401  2.8131 -0.8204
 1867SOL     OW 7084   0.233   5.283   0.038 -0.3741  0.0704 -0.2954
 1867SOL    HW1 7085   0.306   5.337   0.068  0.2642  0.6744 -2.7906
 1867SOL    HW2 7086   0.273   5.218  -0.020 -1.6213 -0.6263 -0.4093
 1868SOL     OW 7087   3.333   1.631   2.338  0.0208 -0.1626  0.4966
 1868SOL    HW1 7088   3.247   1.589   2.331  0.6213 -1.2236 -0.5538
 1868SOL    HW2 7089   3.381   1.603   2.260  0.9658  1.2790  0.5277
 1869SOL     OW 7090   7.689   7.150   1.201  0.0922 -0.5507 -0.3818
 1869SOL    HW1 7091   7.607   7.172   1.157  0.0232 -1.7787 -0.8966
 1869SOL    HW2 7092   7.662   7.113   1.285  0.1895  0.7772  0.2467
 1870SOL     OW 7093   2.548   3.554   7.130  0.1258  0.2269 -0.4179
 1870SOL    HW1 7094   2.572   3.489   7.196  0.9912  0.3542 -0.6114
 1870SOL    HW2 7095   2.630   3.597   7.106 -0.2026  0.3097 -1.4490
 1871SOL     OW 7096   6.938   7.914   5.710  0.2523  0.6294 -0.0680
 1871SOL    HW1 7097   6.977   7.887   5.627  1.6013  2.9279 -0.2267
 1871SOL    HW2 7098   6.933   7.833   5.761  1.2477 -0.4743 -1.6590
 1872SOL     OW 7099   5.902   2.030   4.722 -0.4269  0.1607  0.0267
 1872SOL    HW1 7100   5.963   1.956   4.730 -0.2635  0.3116  0.2051
 1872SOL    HW2 7101   5.896   2.046   4.628 -0.0085  0.2950  0.0229
 1873SOL     OW 7102   6.431   0.112   2.596 -0.2698  0.2183 -0.0096
 1873SOL    HW1 7103   6.498   0.109   2.528 -0.4134  1.8195 -0.2550
 1873SOL    HW2 7104   6.348   0.113   2.549 -0.4220 -0.3022  0.2448
 1874SOL     OW 7105   6.238   1.116   4.133 -0.4109 -0.0031  0.5327
 1874SOL    HW1 7106   6.288   1.113   4.214 -0.1470  0.2816  0.3792
 1874SOL    HW2 7107   6.213   1.025   4.117 -0.6375 -0.0312  1.0417
 1875SOL     OW 7108   2.799   3.154   1.422  0.0654  0.0719  0.4666
 1875SOL    HW1 7109   2.752   3.229   1.458  2.7228  0.7480  2.7716
 1875SOL    HW2 7110   2.866   3.193   1.365 -1.3444 -0.8019 -1.8434
 1876SOL     OW 7111   0.010   7.278   7.289 -0.4086  0.9062  0.0337
 1876SOL    HW1 7112   0.060   7.196   7.285 -0.0137  1.0808  1.3172
 1876SOL    HW2 7113  -0.079   7.250   7.312 -0.2587  0.8457  0.5417
 1877SOL     OW 7114   2.339   2.322   5.483  0.3410  0.2266  0.2536
 1877SOL    HW1 7115   2.371   2.232   5.480  0.5483  0.0823  3.8138
 1877SOL    HW2 7116   2.244   2.315   5.470  0.5058 -0.3834 -0.5931
 1878SOL     OW 7117   6.847   6.999   7.468  0.9376 -0.1740  0.7214
 1878SOL    HW1 7118   6.767   7.052   7.471 -0.1497 -1.5547 -1.9116
 1878SOL    HW2 7119   6.885   7.018   7.382  3.1676  0.0428  1.7270
 1879SOL     OW 7120   7.131   4.976   0.642  0.1323  0.4802  0.2974
 1879SOL    HW1 7121   7.040   4.998   0.662 -1.0706 -2.3384 -1.6254
 1879SOL    HW2 7122   7.168   5.057   0.608 -1.5888  1.7365  1.3028
 1880SOL     OW 7123   2.110   3.768   6.854 -0.6945  0.1488  0.1656
 1880SOL    HW1 7124   2.077   3.760   6.943 -0.5537 -0.6830  0.1445
 1880SOL    HW2 7125   2.042   3.728   6.799 -0.9343  0.9520 -0.1341
 1881SOL     OW 7126   3.993   4.872   4.423  0.0667  0.0990  0.3273
 1881SOL    HW1 7127   4.088   4.861   4.422  0.0756  0.1877 -1.3045
 1881SOL    HW2 7128   3.972   4.904   4.335 -1.7423 -2.3346 -0.1667
 1882SOL     OW 7129   4.066   0.691   4.543  0.3308  0.0715  0.3383
 1882SOL    HW1 7130   4.003   0.763   4.538  1.1461  0.6624 -1.8835
 1882SOL    HW2 7131   4.012   0.612   4.549 -0.5787  0.7061  0.6367
 1883SOL     OW 7132   1.144   6.601   2.065 -0.7674  0.3778  0.1117
 1883SOL    HW1 7133   1.204   6.618   2.138 -0.0853  0.5154 -0.4739
 1883SOL    HW2 7134   1.098   6.684   2.051 -0.4323  0.5421 -0.0299
 1884SOL     OW 7135   2.522   6.218   2.897  0.4989 -0.1045 -0.0703
 1884SOL    HW1 7136   2.455   6.275   2.858  1.1607  0.5038 -0.3235
 1884SOL    HW2 7137   2.566   6.273   2.961  0.3323 -0.6986  0.5613
 1885SOL     OW 7138   6.351   4.872   2.286  0.5075  0.3801 -0.0461
 1885SOL    HW1 7139   6.301   4.797   2.257 -0.3065 -0.7777  4.0087
 1885SOL    HW2 7140   6.421   4.836   2.340  2.6537  2.3003 -1.4340
 1886SOL     OW 7141   2.712   5.926   5.420 -0.7522 -0.4714 -0.6105
 1886SOL    HW1 7142   2.748   6.014   5.411 -1.9462  0.1468  0.4761
 1886SOL    HW2 7143   2.676   5.906   5.334 -1.2325  0.4532 -0.6362
 1887SOL     OW 7144   1.647   7.633   6.705  0.6111  0.3826 -0.1546
 1887SOL    HW1 7145   1.680   7.699   6.643  0.7930 -0.6177 -1.1498
 1887SOL    HW2 7146   1.561   7.609   6.671  0.7195 -0.1861 -0.0318
 1888SOL     OW 7147   4.604   7.509   6.956 -0.2240 -0.1009 -0.0083
 1888SOL    HW1 7148   4.671   7.561   6.910 -1.0252  1.0699  0.1380
 1888SOL    HW2 7149   4.567   7.452   6.888  0.0075  0.1856 -0.3772
 1889SOL     OW 7150   3.072   6.866   6.692  0.6303  0.2883 -0.9963
 1889SOL    HW1 7151   3.012   6.795   6.713  2.8475 -1.8942 -1.7961
 1889SOL    HW2 7152   3.017   6.945   6.694 -1.9200 -1.4291 -0.2789
 1890SOL     OW 7153   5.441   6.489   6.426 -0.2999 -0.0427 -0.7127
 1890SOL    HW1 7154   5.347   6.493   6.409 -0.5526  3.5449  1.1510
 1890SOL    HW2 7155   5.481   6.541   6.356 -0.0147  1.3369  0.4592
 1891SOL     OW 7156   8.112   7.570   0.106 -0.3542  0.7515 -0.3352
 1891SOL    HW1 7157   8.039   7.574   0.167  0.1091 -1.0623  0.3613
 1891SOL    HW2 7158   8.156   7.654   0.116  0.1019  0.2272  2.3337
 1892SOL     OW 7159   7.555   3.434   3.878  0.0662 -0.3825  0.4111
 1892SOL    HW1 7160   7.552   3.520   3.837  0.9618  0.7443  2.6340
 1892SOL    HW2 7161   7.468   3.422   3.915  0.2931  0.0796  1.1007
 1893SOL     OW 7162   6.075   2.892   6.341  0.2477  0.7224  0.6478
 1893SOL    HW1 7163   6.003   2.883   6.405 -0.2176  1.6560  0.2651
 1893SOL    HW2 7164   6.090   2.986   6.336  1.1401  0.5620  0.3118
 1894SOL     OW 7165   6.859   0.126   6.149  0.3282  0.2456  0.5910
 1894SOL    HW1 7166   6.945   0.105   6.187  0.9209 -1.9037 -1.7612
 1894SOL    HW2 7167   6.873   0.117   6.054 -2.1868  1.0957  0.1295
 1895SOL     OW 7168   5.673   5.773   4.461  0.2545 -0.1808  0.2471
 1895SOL    HW1 7169   5.736   5.802   4.395  0.3543  0.3314  0.5624
 1895SOL    HW2 7170   5.700   5.818   4.541 -0.9465  0.6164  0.2204
 1896SOL     OW 7171   5.090   3.970   1.124  0.4301  0.0423 -0.1511
 1896SOL    HW1 7172   5.026   3.996   1.057  0.0409 -1.8300 -0.5359
 1896SOL    HW2 7173   5.066   3.880   1.146  1.4729  0.1352  1.4524
 1897SOL     OW 7174   3.659   5.198   5.088 -0.5440 -0.0082 -0.4392
 1897SOL    HW1 7175   3.626   5.120   5.043 -3.3299  0.7048  0.2717
 1897SOL    HW2 7176   3.619   5.271   5.040  1.1073  0.9631 -0.3706
 1898SOL     OW 7177   6.337   5.967   4.705  0.2276 -0.2347  0.6188
 1898SOL    HW1 7178   6.390   5.965   4.785  0.8553  0.0760  0.2051
 1898SOL    HW2 7179   6.380   5.907   4.646 -0.1336 -0.3182  0.4383
 1899SOL     OW 7180   4.505   0.624   6.047 -0.8781 -0.4225  0.1957
 1899SOL    HW1 7181   4.583   0.659   6.006 -0.5303 -0.7957  0.5392
 1899SOL    HW2 7182   4.537   0.568   6.117 -1.4302 -1.7955 -0.6466
 1900SOL     OW 7183   4.747   5.293   3.306  0.5378  0.0936 -0.8786
 1900SOL    HW1 7184   4.814   5.248   3.358 -0.5655 -0.2709  0.2482
 1900SOL    HW2 7185   4.761   5.386   3.324 -0.5899 -0.0786  1.0520
 1901SOL     OW 7186   0.208   4.833   4.981 -0.1054  0.1485 -0.5547
 1901SOL    HW1 7187   0.292   4.857   5.020  0.2689 -0.8112 -0.7546
 1901SOL    HW2 7188   0.146   4.897   5.016  1.1731  2.4814 -2.4435
 1902SOL     OW 7189   0.360   3.455   4.245  0.8319 -0.0487 -0.2218
 1902SOL    HW1 7190   0.332   3.501   4.324 -2.5931 -2.1560 -0.0996
 1902SOL    HW2 7191   0.455   3.451   4.253  0.5522 -1.0149  4.3248
 1903SOL     OW 7192   6.047   4.222   5.203  0.0936  0.2469 -0.0574
 1903SOL    HW1 7193   5.952   4.211   5.204  0.1865 -0.5028  2.0227
 1903SOL    HW2 7194   6.080   4.144   5.158 -0.2130 -0.0472  0.2280
 1904SOL     OW 7195   8.204   0.280   6.981  0.4615  0.1150  0.1752
 1904SOL    HW1 7196   8.111   0.272   6.958 -0.5894  1.7594  3.6417
 1904SOL    HW2 7197   8.223   0.199   7.028  0.3234  0.5250  0.9395
 1905SOL     OW 7198   7.824   1.734   3.086  0.3340 -0.4510 -0.0235
 1905SOL    HW1 7199   7.770   1.694   3.154  0.8940 -1.2256 -0.0367
 1905SOL    HW2 7200   7.818   1.673   3.012 -0.0213  0.2301 -0.5705
 1906SOL     OW 7201   5.792   3.319   6.181  0.5455 -0.4681 -0.5420
 1906SOL    HW1 7202   5.696   3.318   6.181  0.5422 -0.7227 -1.7671
 1906SOL    HW2 7203   5.816   3.321   6.274 -0.6152 -3.2039 -0.1371
 1907SOL     OW 7204   2.911   0.650   3.365  0.0572 -0.3308 -0.3973
 1907SOL    HW1 7205   2.930   0.601   3.445  2.8635  0.5749 -0.4545
 1907SOL    HW2 7206   2.878   0.584   3.303  1.5947 -1.7339  0.2516
 1908SOL     OW 7207   8.270   7.743   0.996  0.1145  0.1407 -0.2739
 1908SOL    HW1 7208   8.356   7.744   1.038  0.4556 -0.9075 -0.9338
 1908SOL    HW2 7209   8.277   7.675   0.929 -0.9385  0.6952 -0.9453
 1909SOL     OW 7210   5.089   2.583   6.566  0.5284 -0.0115  0.4943
 1909SOL    HW1 7211   5.097   2.489   6.552 -1.5241 -0.1521  0.0929
 1909SOL    HW2 7212   5.175   2.618   6.544  0.6019 -1.5253 -1.7792
 1910SOL     OW 7213   4.700   4.737   4.350 -0.0536 -0.3350 -0.4050
 1910SOL    HW1 7214   4.727   4.718   4.440 -0.3846 -1.0177 -0.4432
 1910SOL    HW2 7215   4.752   4.677   4.297  1.1282  0.9990 -0.7828
 1911SOL     OW 7216   0.890   3.446   7.930 -0.7280  0.1018  1.0193
 1911SOL    HW1 7217   0.806   3.457   7.884 -0.8250  0.2513  1.2314
 1911SOL    HW2 7218   0.869   3.392   8.006 -0.2627 -1.5501  0.0168
 1912SOL     OW 7219   7.216   6.200   5.436  0.3609  0.0308  0.8952
 1912SOL    HW1 7220   7.137   6.203   5.490 -1.6674  0.7244 -1.9863
 1912SOL    HW2 7221   7.202   6.268   5.370  2.1585 -1.6605 -1.3039
 1913SOL     OW 7222   3.935   7.276   5.450  0.1557  0.0168 -0.0576
 1913SOL    HW1 7223   3.870   7.318   5.394  0.0150  1.1498  0.9283
 1913SOL    HW2 7224   3.904   7.186   5.459 -0.6218  0.2244 -0.5757
 1914SOL     OW 7225   3.958   5.478   2.013  0.2406  0.2573  0.3870
 1914SOL    HW1 7226   4.006   5.561   2.011  3.2533 -1.3861  0.2913
 1914SOL    HW2 7227   3.932   5.464   1.922  0.5626  0.6551  0.2302
 1915SOL     OW 7228   1.531   1.125   4.139  0.0096 -0.4687  0.5333
 1915SOL    HW1 7229   1.577   1.204   4.110 -0.8973 -0.5453 -1.1886
 1915SOL    HW2 7230   1.452   1.158   4.183 -1.6176 -0.4049 -2.3283
 1916SOL     OW 7231   7.484   1.122   3.243  0.2703 -0.2387 -0.0514
 1916SOL    HW1 7232   7.412   1.059   3.242 -1.7647  1.9679  1.0830
 1916SOL    HW2 7233   7.515   1.122   3.334 -1.5137  2.2661  0.5979
 1917SOL     OW 7234   1.180   0.084   0.635 -0.0511 -0.1485 -0.4202
 1917SOL    HW1 7235   1.155   0.054   0.548  0.2072  1.0744 -0.9269
 1917SOL    HW2 7236   1.187   0.179   0.626  1.0205 -0.1211  0.6715
 1918SOL     OW 7237   0.472   4.422   5.036 -0.5344  0.7828 -0.0630
 1918SOL    HW1 7238   0.471   4.446   5.128 -0.2611 -2.4932  0.8644
 1918SOL    HW2 7239   0.564   4.407   5.016 -0.8943 -2.1706  0.2185
 1919SOL     OW 7240   6.661   2.648   1.587  0.2724  0.3061  0.3731
 1919SOL    HW1 7241   6.642   2.683   1.674  1.5341 -0.0952  0.8166
 1919SOL    HW2 7242   6.673   2.554   1.601 -0.6388  0.0586 -0.4216
 1920SOL     OW 7243   1.268   1.047   3.562 -0.4158  0.1210  0.0585
 1920SOL    HW1 7244   1.362   1.029   3.568 -0.3989  0.2913  0.2730
 1920SOL    HW2 7245   1.260   1.110   3.491 -0.2053  1.3960  1.1614
 1921SOL     OW 7246   2.488   2.068   7.615 -0.1819 -0.7185 -0.0165
 1921SOL    HW1 7247   2.454   2.087   7.702 -1.0634  1.3767 -0.7928
 1921SOL    HW2 7248   2.579   2.042   7.630  0.4199  2.0051  1.3154
 1922SOL     OW 7249   3.618   0.056   3.794 -0.1957 -0.2722 -0.6626
 1922SOL    HW1 7250   3.680   0.098   3.854  2.0108  2.0509 -4.3509
 1922SOL    HW2 7251   3.547   0.119   3.785 -0.3816 -0.4877 -0.7054
 1923SOL     OW 7252   5.090   5.999   1.941  0.0874 -0.0517 -0.8741
 1923SOL    HW1 7253   5.182   6.024   1.948  0.1594 -0.3422 -0.7774
 1923SOL    HW2 7254   5.054   6.017   2.028  0.8069 -2.9502  0.0988
 1924SOL     OW 7255   6.160   6.982   3.312  0.1799  0.4492 -0.0331
 1924SOL    HW1 7256   6.072   6.969   3.346  0.5804 -2.5301  0.0270
 1924SOL    HW2 7257   6.210   7.018   3.385 -0.3234 -0.5177  0.7938
 1925SOL     OW 7258   0.773   3.236   1.848 -0.1098  0.6874 -0.4267
 1925SOL    HW1 7259   0.688   3.275   1.825  0.2484  2.2574  0.8196
 1925SOL    HW2 7260   0.802   3.192   1.768 -2.7410 -1.0805 -0.4868
 1926SOL     OW 7261   6.119   8.311   0.862 -0.3567 -0.4046  0.3127
 1926SOL    HW1 7262   6.115   8.406   0.868 -0.0511 -0.0169 -3.6926
 1926SOL    HW2 7263   6.202   8.294   0.817 -1.2281 -2.4368 -0.6105
 1927SOL     OW 7264   7.031   6.575   0.439  0.7275  0.0358 -0.6354
 1927SOL    HW1 7265   7.031   6.600   0.347 -1.1730  0.0609 -0.6632
 1927SOL    HW2 7266   7.010   6.657   0.486  1.5370 -0.0058 -0.1883
 1928SOL     OW 7267   5.394   7.171   0.839  0.6871 -0.6103  0.3906
 1928SOL    HW1 7268   5.456   7.220   0.892  1.0715 -2.2681  1.5341
 1928SOL    HW2 7269   5.439   7.156   0.756  1.6920 -1.4889  1.0827
 1929SOL     OW 7270   8.013   6.962   6.066 -0.4989  0.1046  0.5542
 1929SOL    HW1 7271   8.104   6.992   6.069  0.1050 -1.4234 -1.5587
 1929SOL    HW2 7272   7.967   7.028   6.015 -0.1876 -0.0752  0.0440
 1930SOL     OW 7273   1.655   4.084   3.066  0.4244 -0.3785  0.2001
 1930SOL    HW1 7274   1.718   4.146   3.028  0.8358 -0.6701  0.4042
 1930SOL    HW2 7275   1.656   4.102   3.160  0.2286 -0.4080  0.2090
 1931SOL     OW 7276   8.203   5.691   7.900 -0.1675  0.1782 -0.0444
 1931SOL    HW1 7277   8.202   5.610   7.849 -0.9322 -0.3827  0.8425
 1931SOL    HW2 7278   8.250   5.667   7.980 -0.2451  0.6511  0.1406
 1932SOL     OW 7279   3.264   3.534   3.139  0.3184  0.2333  0.5426
 1932SOL    HW1 7280   3.307   3.598   3.195 -3.2624  2.0635  1.3412
 1932SOL    HW2 7281   3.195   3.497   3.194  0.6264 -2.4312 -0.7717
 1933SOL     OW 7282   1.441   2.200   1.426  0.3266  0.2045 -0.3069
 1933SOL    HW1 7283   1.400   2.148   1.495 -0.3190 -0.5098 -1.2155
 1933SOL    HW2 7284   1.533   2.206   1.452 -0.0878  0.7067  1.0644
 1934SOL     OW 7285   2.819   1.387   8.069  0.2223  0.5659  0.0184
 1934SOL    HW1 7286   2.779   1.468   8.101 -1.9580  0.3344 -1.9904
 1934SOL    HW2 7287   2.776   1.317   8.119 -0.2599  0.4709 -0.5141
 1935SOL     OW 7288   6.895   5.759   7.880 -0.2122  0.1858  0.1762
 1935SOL    HW1 7289   6.816   5.812   7.888 -0.6977 -0.6112  0.7944
 1935SOL    HW2 7290   6.866   5.670   7.900  0.4862 -0.3942 -1.2704
 1936SOL     OW 7291   3.314   3.115   1.653 -0.7246  0.1102  0.4505
 1936SOL    HW1 7292   3.379   3.153   1.594  0.3832 -2.2822  0.0271
 1936SOL    HW2 7293   3.365   3.085   1.728 -1.4834 -0.7459  0.6408
 1937SOL     OW 7294   5.808   2.620   0.711 -0.4274 -0.5120  0.1564
 1937SOL    HW1 7295   5.870   2.649   0.777 -0.7811  0.7962 -0.0815
 1937SOL    HW2 7296   5.722   2.630   0.752 -0.8105  2.4956 -1.2804
 1938SOL     OW 7297   7.372   5.404   7.995 -0.2945 -0.6397 -0.4263
 1938SOL    HW1 7298   7.409   5.316   8.002  0.8882 -0.0309  1.5029
 1938SOL    HW2 7299   7.294   5.402   8.051  0.2233 -0.2420  0.3267
 1939SOL     OW 7300   5.357   0.259   6.522 -0.2851 -0.1028 -0.0836
 1939SOL    HW1 7301   5.397   0.343   6.545 -0.6510  0.1731 -0.4282
 1939SOL    HW2 7302   5.280   0.253   6.579 -0.9344  0.3664 -0.8885
 1940SOL     OW 7303   7.877   4.758   8.018  0.6173 -0.1001  0.3920
 1940SOL    HW1 7304   7.821   4.712   8.080  0.5045 -1.2969 -0.5885
 1940SOL    HW2 7305   7.875   4.849   8.047 -0.5357 -0.4137  1.3224
 1941SOL     OW 7306   6.856   7.321   4.971 -0.0156  0.1660  0.0442
 1941SOL    HW1 7307   6.857   7.252   5.036 -0.5021 -0.7382 -0.8885
 1941SOL    HW2 7308   6.926   7.299   4.910 -0.6615  0.0561 -0.6787
 1942SOL     OW 7309   8.067   2.752   6.471  0.3042  0.0067 -0.4688
 1942SOL    HW1 7310   8.031   2.840   6.482  1.3142  0.3812 -0.1581
 1942SOL    HW2 7311   7.995   2.702   6.434  0.0432  1.2249 -1.6483
 1943SOL     OW 7312   6.594   3.807   2.017  0.0707 -0.0575  0.3258
 1943SOL    HW1 7313   6.653   3.872   2.054 -0.5648  0.8126 -0.1581
 1943SOL    HW2 7314   6.628   3.723   2.047  0.8275  0.5072  1.0608
 1944SOL     OW 7315   2.020   3.658   6.379  0.3594 -0.6250  0.3497
 1944SOL    HW1 7316   2.025   3.743   6.422 -0.9566 -0.1769 -0.3784
 1944SOL    HW2 7317   1.990   3.598   6.447  3.4321 -0.9848  1.4846
 1945SOL     OW 7318   7.517   5.369   4.041  0.9479 -0.7595  0.0931
 1945SOL    HW1 7319   7.610   5.351   4.024  1.8206  1.8627  1.7923
 1945SOL    HW2 7320   7.499   5.326   4.124  1.1968  0.4141  0.7615
 1946SOL     OW 7321   7.761   5.741   1.095  0.5238  0.1386  0.1340
 1946SOL    HW1 7322   7.683   5.686   1.097  0.5410  0.1121  0.0832
 1946SOL    HW2 7323   7.736   5.816   1.040  1.0104 -0.5836 -1.0704
 1947SOL     OW 7324   6.545   6.061   5.929 -0.7367 -0.1566 -0.3888
 1947SOL    HW1 7325   6.573   6.139   5.977 -0.9431  0.6819 -1.5891
 1947SOL    HW2 7326   6.450   6.073   5.920 -0.8249 -0.7449 -0.2468
 1948SOL     OW 7327   7.360   5.878   4.567  0.0024 -0.3971 -0.1039
 1948SOL    HW1 7328   7.421   5.905   4.498  0.0780  1.7003  0.7407
 1948SOL    HW2 7329   7.387   5.789   4.590  1.2447 -0.3648 -1.3954
 1949SOL     OW 7330   3.061   6.317   5.422  0.1305  0.2400  0.4872
 1949SOL    HW1 7331   3.017   6.392   5.382  2.0549  0.8525 -0.5420
 1949SOL    HW2 7332   3.143   6.353   5.455  1.1423 -1.4568 -0.1533
 1950SOL     OW 7333   5.725   6.163   6.853  0.0712  0.1895  0.0619
 1950SOL    HW1 7334   5.802   6.199   6.809  0.5629 -1.2734 -0.3166
 1950SOL    HW2 7335   5.760   6.127   6.935  0.0029 -1.5063 -0.6334
 1951SOL     OW 7336   2.973   2.906   3.386 -0.1950  0.2412 -0.0071
 1951SOL    HW1 7337   3.042   2.954   3.432 -0.5412  0.2765  0.4808
 1951SOL    HW2 7338   2.892   2.950   3.412 -0.2765  1.2363 -1.8629
 1952SOL     OW 7339   4.304   1.007   5.980  0.5920 -0.5688  0.2028
 1952SOL    HW1 7340   4.370   0.984   6.046  1.6268  0.1193 -0.5727
 1952SOL    HW2 7341   4.299   1.103   5.984  1.0042 -0.4875 -1.0395
 1953SOL     OW 7342   1.532   0.223   3.643  0.1649  0.2415 -0.3620
 1953SOL    HW1 7343   1.560   0.312   3.622  3.6834 -0.4835  0.8368
 1953SOL    HW2 7344   1.553   0.213   3.736 -2.5329 -1.0339  0.1504
 1954SOL     OW 7345   4.956   3.866   3.780  0.8834 -0.0984 -0.4277
 1954SOL    HW1 7346   4.981   3.791   3.834  1.1878 -0.4564 -1.0649
 1954SOL    HW2 7347   4.890   3.912   3.832 -0.0892 -1.3982 -0.4974
 1955SOL     OW 7348   3.202   8.015   5.855  0.1025  0.0825  0.6941
 1955SOL    HW1 7349   3.201   8.104   5.820 -1.5597 -0.3772 -0.5268
 1955SOL    HW2 7350   3.294   7.997   5.874  0.9497  0.7654 -2.4981
 1956SOL     OW 7351   2.605   2.178   5.552  0.1974  0.0764 -0.3029
 1956SOL    HW1 7352   2.641   2.254   5.506  0.0714 -0.7754 -1.8425
 1956SOL    HW2 7353   2.534   2.147   5.496  0.4194 -1.3309  0.1669
 1957SOL     OW 7354   3.022   1.213   3.187  0.1854 -0.2964  0.0020
 1957SOL    HW1 7355   3.024   1.250   3.099  0.2175 -0.6092 -0.1315
 1957SOL    HW2 7356   3.111   1.181   3.202  0.2292 -0.0658  0.2231
 1958SOL     OW 7357   6.609   6.341   4.871  0.5027 -0.0715  0.4294
 1958SOL    HW1 7358   6.606   6.353   4.776  0.3614 -0.0056  0.4411
 1958SOL    HW2 7359   6.532   6.389   4.903 -0.1865 -1.1872  0.4567
 1959SOL     OW 7360   3.590   4.164   3.493  0.2060  0.3611  0.6033
 1959SOL    HW1 7361   3.540   4.223   3.436  0.7290  1.3575  1.1596
 1959SOL    HW2 7362   3.675   4.156   3.451 -0.5048 -1.6403 -0.5466
 1960SOL     OW 7363   4.686   3.185   7.326 -0.3230  0.6613  0.1993
 1960SOL    HW1 7364   4.612   3.245   7.338 -0.6728  0.0982  0.9539
 1960SOL    HW2 7365   4.688   3.135   7.408 -2.2541 -2.8014 -1.7593
 1961SOL     OW 7366   0.030   0.344   2.269  0.4099  0.3450 -0.3529
 1961SOL    HW1 7367  -0.044   0.284   2.258 -1.1355  1.7263  2.0001
 1961SOL    HW2 7368   0.096   0.293   2.315 -0.1342 -0.0923 -0.0581
 1962SOL     OW 7369   0.321   7.683   1.738 -0.1508  0.1649 -0.0671
 1962SOL    HW1 7370   0.270   7.687   1.819 -0.2682 -0.1608 -0.1253
 1962SOL    HW2 7371   0.384   7.755   1.746 -0.8781  0.8301 -0.1688
 1963SOL     OW 7372   7.476   4.507   5.255 -0.0521  0.2452  0.2946
 1963SOL    HW1 7373   7.514   4.485   5.170 -0.8186 -0.2965  0.0890
 1963SOL    HW2 7374   7.473   4.603   5.256 -0.2045  0.2475 -0.3592
 1964SOL     OW 7375   7.456   1.104   2.317  0.0006 -0.6410 -0.1316
 1964SOL    HW1 7376   7.398   1.152   2.257  0.3191 -0.1779 -0.0717
 1964SOL    HW2 7377   7.498   1.038   2.261 -0.2187 -0.6577 -0.2782
 1965SOL     OW 7378   8.075   7.952   0.274  0.6321  0.3096 -0.4524
 1965SOL    HW1 7379   8.131   7.876   0.264  0.0508 -0.6114  2.5714
 1965SOL    HW2 7380   8.135   8.025   0.290  1.0650 -0.2664  0.5838
 1966SOL     OW 7381   0.489   5.266   3.180  0.3476  0.5570  0.0759
 1966SOL    HW1 7382   0.549   5.219   3.122  0.1098  0.2436  0.0782
 1966SOL    HW2 7383   0.493   5.216   3.262 -0.1580  0.3419 -0.0247
 1967SOL     OW 7384   0.777   1.582   1.554 -0.0104 -1.1954 -0.0555
 1967SOL    HW1 7385   0.754   1.532   1.633 -1.4486 -0.2221  0.1481
 1967SOL    HW2 7386   0.713   1.553   1.488 -1.3384  0.9181  0.2778
 1968SOL     OW 7387   3.867   5.974   5.111  0.1498  0.0639 -0.2083
 1968SOL    HW1 7388   3.890   6.063   5.084 -1.4893  0.5404 -0.0630
 1968SOL    HW2 7389   3.951   5.934   5.135  0.7529  2.0318  1.0702
 1969SOL     OW 7390   3.845   2.027   6.167 -0.2407 -0.7675 -0.0506
 1969SOL    HW1 7391   3.780   2.012   6.235 -1.0488  2.2814 -0.0810
 1969SOL    HW2 7392   3.913   2.080   6.209  0.7359 -1.3635 -0.8412
 1970SOL     OW 7393   4.029   2.345   7.095 -0.7677  0.1901  0.2856
 1970SOL    HW1 7394   4.101   2.398   7.130 -0.5322  2.3912 -3.2091
 1970SOL    HW2 7395   3.950   2.391   7.125 -0.6894 -0.7058  1.9037
 1971SOL     OW 7396   7.844   3.681   6.698  0.1198 -0.1859 -0.7886
 1971SOL    HW1 7397   7.752   3.654   6.694 -0.3892  1.4719 -0.7425
 1971SOL    HW2 7398   7.848   3.760   6.644  1.0474  1.0047  0.9669
 1972SOL     OW 7399   7.358   2.984   6.119 -1.1923 -0.0134  0.1096
 1972SOL    HW1 7400   7.418   3.031   6.177 -0.8622  0.5898 -0.7047
 1972SOL    HW2 7401   7.336   3.047   6.051 -1.9596 -0.5565 -0.1542
 1973SOL     OW 7402   1.019   5.241   0.046  0.3675 -0.5402  0.2982
 1973SOL    HW1 7403   1.035   5.333   0.066  0.2919 -0.4543 -0.0499
 1973SOL    HW2 7404   1.099   5.197   0.075 -0.0608 -0.5194  1.5620
 1974SOL     OW 7405   5.899   6.467   4.037  0.2172 -0.0475  0.4476
 1974SOL    HW1 7406   5.924   6.543   4.090  0.8165 -0.3069  0.5465
 1974SOL    HW2 7407   5.806   6.455   4.053 -0.2444  1.6707 -0.8240
 1975SOL     OW 7408   5.399   3.195   3.974  0.3090  0.0598 -0.6110
 1975SOL    HW1 7409   5.383   3.277   4.020 -1.3420  0.3329 -1.6358
 1975SOL    HW2 7410   5.363   3.209   3.886  2.2806 -0.8804 -1.6032
 1976SOL     OW 7411   3.466   3.222   0.722 -0.3492  0.0362  0.2853
 1976SOL    HW1 7412   3.517   3.234   0.642 -1.6020 -0.5011 -0.6166
 1976SOL    HW2 7413   3.518   3.162   0.775 -0.1218 -0.6364 -0.6897
 1977SOL     OW 7414   5.356   6.180   3.109 -0.1344  0.0126 -0.3067
 1977SOL    HW1 7415   5.414   6.130   3.166  2.7753  1.2443 -2.0451
 1977SOL    HW2 7416   5.304   6.233   3.168  1.8117  0.1941  1.3003
 1978SOL     OW 7417   5.303   6.188   1.807 -0.0817  0.1510 -0.0964
 1978SOL    HW1 7418   5.389   6.156   1.833  0.9658  2.5510 -0.4961
 1978SOL    HW2 7419   5.274   6.242   1.881 -1.3033 -0.6852  0.0640
 1979SOL     OW 7420   1.495   7.160   8.189 -0.2336 -0.0606 -0.7842
 1979SOL    HW1 7421   1.465   7.251   8.184 -2.4317 -0.7374 -0.6601
 1979SOL    HW2 7422   1.469   7.122   8.106 -0.0965 -0.7979 -0.4932
 1980SOL     OW 7423   7.579   8.065   1.442 -0.1251 -0.0725  0.5499
 1980SOL    HW1 7424   7.613   7.977   1.428 -1.7628 -0.3241 -2.2541
 1980SOL    HW2 7425   7.655   8.116   1.471  0.7476 -2.4488  2.5325
 1981SOL     OW 7426   4.932   4.362   4.949  0.0665 -0.0821 -0.4781
 1981SOL    HW1 7427   5.024   4.335   4.950  0.3622  0.8929 -0.9030
 1981SOL    HW2 7428   4.913   4.379   4.857  0.3954  2.7936 -0.0791
 1982SOL     OW 7429   2.130   4.466   6.900 -0.4760 -0.4499  0.1110
 1982SOL    HW1 7430   2.179   4.431   6.975  0.1853  0.1359 -0.0410
 1982SOL    HW2 7431   2.187   4.451   6.825 -0.8455 -0.4249 -0.1747
 1983SOL     OW 7432   2.767   2.030   2.031 -0.0109  0.9017  0.2113
 1983SOL    HW1 7433   2.837   1.966   2.039  0.2103  0.8340 -1.8831
 1983SOL    HW2 7434   2.699   1.999   2.090 -0.4094 -1.9638 -1.6558
 1984SOL     OW 7435   0.871   7.200   4.887 -0.4767  0.0629 -0.3618
 1984SOL    HW1 7436   0.942   7.252   4.924 -0.1980  0.3044 -1.2336
 1984SOL    HW2 7437   0.903   7.173   4.801 -1.3400 -0.0323 -0.6561
 1985SOL     OW 7438   4.178   3.807   1.623  0.4742 -0.0935  0.1323
 1985SOL    HW1 7439   4.138   3.720   1.619  0.6401 -0.1571 -0.1795
 1985SOL    HW2 7440   4.151   3.849   1.541 -1.3213  0.9055  1.1968
 1986SOL     OW 7441   1.158   8.028   3.882  0.6946 -0.2763 -0.2680
 1986SOL    HW1 7442   1.220   8.022   3.809  0.3263 -0.5076 -0.5589
 1986SOL    HW2 7443   1.086   8.081   3.848  1.2502  0.9601  0.4359
 1987SOL     OW 7444   1.103   4.017   0.871 -0.1910  0.6961 -0.5173
 1987SOL    HW1 7445   1.146   4.087   0.823  0.7110  1.3816  1.2260
 1987SOL    HW2 7446   1.017   4.053   0.893 -0.0961  0.8929 -0.4636
 1988SOL     OW 7447   0.673   1.620   1.006  0.2788  0.3809  0.0304
 1988SOL    HW1 7448   0.640   1.537   0.972  1.0002 -0.4552  1.3265
 1988SOL    HW2 7449   0.651   1.684   0.939  1.4158 -1.1575 -1.8609
 1989SOL     OW 7450   1.058   4.309   1.165 -0.2935 -0.3909 -0.1951
 1989SOL    HW1 7451   1.132   4.296   1.106 -0.9756 -0.1468 -1.1197
 1989SOL    HW2 7452   1.025   4.221   1.184 -0.4144 -0.4384 -0.6257
 1990SOL     OW 7453   7.657   7.221   0.020 -0.2261 -0.1740 -0.4548
 1990SOL    HW1 7454   7.739   7.250   0.060 -0.7825 -0.4749  0.9255
 1990SOL    HW2 7455   7.684   7.178  -0.062  1.1992 -2.4724  1.1677
 1991SOL     OW 7456   3.965   1.009   5.228  0.0067  0.3074  0.4453
 1991SOL    HW1 7457   3.884   1.055   5.249 -0.4609 -0.0620 -0.5206
 1991SOL    HW2 7458   3.978   1.023   5.134  1.2378  0.6375  0.6524
 1992SOL     OW 7459   3.871   1.631   0.830  0.1024  0.4666 -0.2920
 1992SOL    HW1 7460   3.808   1.617   0.758 -0.6722 -0.3513  0.5342
 1992SOL    HW2 7461   3.883   1.544   0.868 -0.2837  1.0642  1.2246
 1993SOL     OW 7462   5.334   2.072   0.795 -0.4401  0.5974 -0.3055
 1993SOL    HW1 7463   5.337   2.022   0.876 -0.5023  0.6316 -0.2819
 1993SOL    HW2 7464   5.250   2.049   0.756 -0.3918  0.5497 -0.3806
 1994SOL     OW 7465   5.081   3.340   5.633 -0.2837 -0.3060 -0.1248
 1994SOL    HW1 7466   5.072   3.299   5.719  0.4628 -0.9228 -0.3412
 1994SOL    HW2 7467   4.993   3.336   5.596  0.2234 -3.9019 -1.1168
 1995SOL     OW 7468   7.095   3.983   1.894  0.1191  0.2095 -0.1405
 1995SOL    HW1 7469   7.057   3.952   1.975  0.7645  0.0826  0.1183
 1995SOL    HW2 7470   7.149   3.910   1.863  0.7344  0.6443 -0.1186
 1996SOL     OW 7471   0.645   3.343   3.048  0.1162  0.3873 -0.5476
 1996SOL    HW1 7472   0.626   3.334   3.141  1.4644  2.5973 -0.0092
 1996SOL    HW2 7473   0.636   3.437   3.031  1.0110  0.1703 -2.3867
 1997SOL     OW 7474   4.623   4.144   1.552  0.1031  0.2403 -0.0154
 1997SOL    HW1 7475   4.541   4.098   1.536  0.2970 -0.4381  0.9110
 1997SOL    HW2 7476   4.628   4.210   1.483 -0.7100 -0.4069 -0.6915
 1998SOL     OW 7477   4.863   2.637   7.487 -0.5476  0.2685 -0.0328
 1998SOL    HW1 7478   4.814   2.653   7.406 -0.4901  1.5572  0.1679
 1998SOL    HW2 7479   4.821   2.560   7.526 -2.6575  1.5267  0.2794
 1999SOL     OW 7480   0.503   3.227   7.180 -0.7706 -0.7040 -0.5107
 1999SOL    HW1 7481   0.502   3.156   7.115 -3.1329 -0.2982 -0.9500
 1999SOL    HW2 7482   0.413   3.258   7.183 -0.1739  0.9368  1.1848
 2000SOL     OW 7483   7.650   5.349   6.917 -0.7987  0.5286  0.4148
 2000SOL    HW1 7484   7.703   5.270   6.917 -3.2628 -1.1767 -0.5000
 2000SOL    HW2 7485   7.668   5.389   7.002  2.0361  0.1100  0.0673
 2001SOL     OW 7486   5.983   5.386   3.892  0.4469 -0.0237  0.1509
 2001SOL    HW1 7487   5.989   5.292   3.872  2.9002 -0.0369  0.8516
 2001SOL    HW2 7488   6.031   5.428   3.821 -0.2193  0.6961  0.1183
 2002SOL     OW 7489   4.366   0.115   6.162 -0.0883 -0.4876 -0.5841
 2002SOL    HW1 7490   4.448   0.105   6.113  0.3554 -0.2698  0.1199
 2002SOL    HW2 7491   4.321   0.187   6.118  0.8442  0.4932  0.0687
 2003SOL     OW 7492   3.979   7.609   4.704 -0.0020  0.4162 -0.2817
 2003SOL    HW1 7493   4.052   7.553   4.731 -0.0728 -0.9928 -2.8539
 2003SOL    HW2 7494   3.903   7.551   4.708 -0.5105  1.0820 -0.4160
 2004SOL     OW 7495   4.841   2.686   3.639 -0.4474  0.1508 -0.2421
 2004SOL    HW1 7496   4.814   2.595   3.639 -1.6834  0.4985  1.3590
 2004SOL    HW2 7497   4.780   2.730   3.698  1.9154  1.4697  1.3198
 2005SOL     OW 7498   2.778   1.068   1.371 -0.2372  0.2051 -0.0035
 2005SOL    HW1 7499   2.684   1.085   1.371 -0.5013 -1.2004  0.4507
 2005SOL    HW2 7500   2.818   1.152   1.348 -1.5524  1.0645  0.8215
 2006SOL     OW 7501   7.004   4.220   3.719  0.0917 -0.7016  0.2252
 2006SOL    HW1 7502   6.994   4.260   3.633 -3.4871 -0.7164  0.5480
 2006SOL    HW2 7503   6.974   4.130   3.707  0.0928 -0.8564  1.3363
 2007SOL     OW 7504   3.544   4.585   6.149  0.6797  0.0658  0.4333
 2007SOL    HW1 7505   3.458   4.626   6.141  0.6995 -0.2442 -1.8634
 2007SOL    HW2 7506   3.556   4.572   6.243 -1.5096  0.6677  0.8294
 2008SOL     OW 7507   4.731   1.944   5.873 -0.3931 -0.5909  0.2944
 2008SOL    HW1 7508   4.737   2.020   5.815  0.3412  0.7064  2.0269
 2008SOL    HW2 7509   4.822   1.915   5.883 -0.2897  0.3957  2.3350
 2009SOL     OW 7510   6.771   6.919   1.433 -0.2184 -0.2943  0.0283
 2009SOL    HW1 7511   6.847   6.924   1.491  0.7449 -1.8529 -1.0631
 2009SOL    HW2 7512   6.718   6.849   1.470 -0.9723  0.5475  0.5758
 2010SOL     OW 7513   0.157   2.395   6.545 -0.5033 -0.1197 -0.2663
 2010SOL    HW1 7514   0.223   2.365   6.607 -1.0707 -1.3532 -0.2442
 2010SOL    HW2 7515   0.081   2.340   6.562 -1.0525  0.3069 -1.2676
 2011SOL     OW 7516   5.429   4.922   0.146 -0.0305  0.3787  0.2429
 2011SOL    HW1 7517   5.407   4.886   0.232  1.6068 -0.9748  0.1245
 2011SOL    HW2 7518   5.500   4.985   0.165 -0.1327  0.5766 -0.0368
 2012SOL     OW 7519   1.400   1.746   1.393  0.5708  0.3213 -0.6602
 2012SOL    HW1 7520   1.475   1.738   1.334  1.7111 -0.5864  0.8599
 2012SOL    HW2 7521   1.325   1.720   1.341  1.6314 -1.0678 -1.5415
 2013SOL     OW 7522   5.979   7.517   7.971 -0.6862 -0.3523 -0.1821
 2013SOL    HW1 7523   5.924   7.533   7.895  0.9945  0.4958 -1.2614
 2013SOL    HW2 7524   5.980   7.421   7.981 -0.6058 -0.4919 -1.4819
 2014SOL     OW 7525   7.818   6.440   7.937  0.2903 -0.3102 -0.5195
 2014SOL    HW1 7526   7.729   6.465   7.963  0.0711  0.2112 -1.7202
 2014SOL    HW2 7527   7.822   6.346   7.954  0.8091  0.2938  3.1611
 2015SOL     OW 7528   3.841   4.897   0.435  0.1835  0.3899 -0.2652
 2015SOL    HW1 7529   3.777   4.948   0.484 -0.2045 -0.0225 -0.3373
 2015SOL    HW2 7530   3.788   4.841   0.378  0.5936 -0.2515 -0.0263
 2016SOL     OW 7531   4.426   5.990   4.775 -0.3910  0.3801  0.2267
 2016SOL    HW1 7532   4.383   5.983   4.860  2.2365 -0.2066  1.5783
 2016SOL    HW2 7533   4.514   6.022   4.796  0.5093 -0.4135 -2.2050
 2017SOL     OW 7534   8.163   5.607   6.129  0.2017  0.6136 -0.3168
 2017SOL    HW1 7535   8.076   5.632   6.162 -0.8185 -2.3210 -0.6984
 2017SOL    HW2 7536   8.154   5.515   6.105  4.2924 -0.6667  2.6050
 2018SOL     OW 7537   0.287   5.143   1.323 -0.2417 -0.0382 -0.7343
 2018SOL    HW1 7538   0.216   5.083   1.302  1.7956 -2.4739 -0.8271
 2018SOL    HW2 7539   0.299   5.195   1.244 -2.0559  0.5542 -0.6362
 2019SOL     OW 7540   3.566   5.565   1.397  0.1707  0.2257  0.2666
 2019SOL    HW1 7541   3.616   5.493   1.359 -0.2409  0.8722 -1.5506
 2019SOL    HW2 7542   3.525   5.608   1.322 -1.2480  1.1009  1.5153
 2020SOL     OW 7543   6.532   5.372   4.475  0.6488  0.1344  0.3516
 2020SOL    HW1 7544   6.553   5.279   4.481 -1.6081 -0.3476  1.2382
 2020SOL    HW2 7545   6.504   5.384   4.384 -4.1354 -1.2423  1.5179
 2021SOL     OW 7546   5.393   0.904   1.847  0.0127  0.3792  0.0960
 2021SOL    HW1 7547   5.299   0.917   1.858 -0.2450  0.2788 -1.8459
 2021SOL    HW2 7548   5.432   0.990   1.864 -0.3348  0.2193  1.7666
 2022SOL     OW 7549   1.994   1.661   0.085  0.3021 -0.3101  0.0112
 2022SOL    HW1 7550   1.904   1.693   0.076  1.0572  1.2694 -2.4932
 2022SOL    HW2 7551   1.989   1.569   0.058 -0.5713 -0.2333 -0.1222
 2023SOL     OW 7552   6.846   0.065   5.031 -0.0386 -0.2014  0.4036
 2023SOL    HW1 7553   6.822   0.153   5.061  1.8742  0.3306  0.4286
 2023SOL    HW2 7554   6.941   0.068   5.021 -0.0819 -1.9305 -0.7160
 2024SOL     OW 7555   0.951   2.845   4.012 -0.1239 -0.6028  0.0178
 2024SOL    HW1 7556   0.935   2.791   4.089  0.5136 -0.0272  0.5693
 2024SOL    HW2 7557   0.922   2.933   4.038 -2.9272 -1.0346 -1.5273
 2025SOL     OW 7558   7.124   2.207   3.918 -0.6781 -0.4154 -0.1516
 2025SOL    HW1 7559   7.119   2.183   4.011  0.7110  1.1040  0.3320
 2025SOL    HW2 7560   7.035   2.235   3.896 -1.0286 -0.8420  0.7044
 2026SOL     OW 7561   7.976   5.093   3.851 -0.0696 -0.6912 -0.3532
 2026SOL    HW1 7562   7.929   5.071   3.771  1.6265  0.7738 -1.8041
 2026SOL    HW2 7563   7.961   5.019   3.909 -5.0900  0.1746 -0.3022
 2027SOL     OW 7564   7.534   0.763   8.246  0.4056  0.2205  0.0010
 2027SOL    HW1 7565   7.605   0.730   8.191  0.7590  1.7247 -0.4564
 2027SOL    HW2 7566   7.454   0.747   8.195  0.5286 -0.2925 -0.0351
 2028SOL     OW 7567   7.030   7.457   0.921 -0.0201  0.2032 -0.2057
 2028SOL    HW1 7568   7.006   7.507   0.843  0.9326  0.7236 -0.1795
 2028SOL    HW2 7569   6.948   7.417   0.951 -0.6244  1.0338 -0.7378
 2029SOL     OW 7570   0.746   6.586   7.333  0.6191  0.0963  0.6147
 2029SOL    HW1 7571   0.692   6.590   7.254  2.9362  1.8736 -0.9494
 2029SOL    HW2 7572   0.795   6.504   7.325  1.0466  0.3996  0.0250
 2030SOL     OW 7573   3.696   7.665   5.691 -0.3871 -0.2411  0.3265
 2030SOL    HW1 7574   3.680   7.693   5.781  0.0400  0.5506  0.1568
 2030SOL    HW2 7575   3.790   7.647   5.688 -0.2437  0.5837 -0.1983
 2031SOL     OW 7576   1.961   2.738   3.290  0.0189  0.6569  0.1072
 2031SOL    HW1 7577   2.042   2.702   3.326 -0.8350 -0.8476  0.5474
 2031SOL    HW2 7578   1.966   2.832   3.309  1.4191  0.4871  0.5952
 2032SOL     OW 7579   5.284   2.682   3.512 -0.1083 -0.0791  0.3093
 2032SOL    HW1 7580   5.269   2.756   3.571 -0.9804  1.2953 -1.5676
 2032SOL    HW2 7581   5.206   2.679   3.457  1.0008 -0.8397 -1.2678
 2033SOL     OW 7582   1.939   6.367   4.413  0.4838 -0.1571 -0.0306
 2033SOL    HW1 7583   1.911   6.315   4.488  0.0887  0.8474  0.5195
 2033SOL    HW2 7584   1.858   6.396   4.372  0.6965  1.7240  0.8515
 2034SOL     OW 7585   4.387   5.407   0.482  0.5870 -0.1028 -0.2236
 2034SOL    HW1 7586   4.475   5.445   0.473  0.2951  0.1500 -2.1515
 2034SOL    HW2 7587   4.365   5.377   0.394 -1.7931  0.9957 -0.0373
 2035SOL     OW 7588   7.123   7.485   6.182 -0.0761 -0.8795  0.0123
 2035SOL    HW1 7589   7.035   7.450   6.169 -0.6179  0.7272 -0.8318
 2035SOL    HW2 7590   7.147   7.458   6.271 -1.2305 -1.7184  0.0765
 2036SOL     OW 7591   4.507   4.566   2.286  0.6437 -0.8193 -0.5127
 2036SOL    HW1 7592   4.593   4.542   2.252  0.9976  0.5582 -0.6247
 2036SOL    HW2 7593   4.525   4.614   2.367  0.0682  0.8069 -1.3203
 2037SOL     OW 7594   7.809   8.015   0.677 -0.2345 -0.6246  0.6442
 2037SOL    HW1 7595   7.764   8.099   0.667  1.4155  0.3107  0.9513
 2037SOL    HW2 7596   7.771   7.978   0.757  0.6821  0.9023  1.8181
 2038SOL     OW 7597   0.560   1.648   5.665 -0.1900 -0.1265  0.7650
 2038SOL    HW1 7598   0.542   1.657   5.571 -0.3304 -0.4828  0.7558
 2038SOL    HW2 7599   0.648   1.683   5.676 -0.3480  0.3414  0.5758
 2039SOL     OW 7600   6.585   0.057   6.602 -0.4412 -0.0983  0.2285
 2039SOL    HW1 7601   6.492   0.041   6.583 -0.5028 -1.2533  1.4691
 2039SOL    HW2 7602   6.590   0.062   6.697  0.5954  1.1597  0.1280
 2040SOL     OW 7603   1.470   5.600   6.445  0.1055  0.2620  0.2897
 2040SOL    HW1 7604   1.516   5.627   6.525 -0.3102 -0.7246  0.8657
 2040SOL    HW2 7605   1.443   5.683   6.404  1.9659  0.8361  0.1874
 2041SOL     OW 7606   0.738   8.116   5.052 -0.6478 -0.0618 -0.1756
 2041SOL    HW1 7607   0.750   8.033   5.097 -1.8825  2.2097  4.6352
 2041SOL    HW2 7608   0.645   8.119   5.030 -0.6451  0.1274 -0.1627
 2042SOL     OW 7609   5.971   7.637   1.152 -0.3171 -0.3353  0.1777
 2042SOL    HW1 7610   5.946   7.599   1.237 -1.0831  0.1470  0.1801
 2042SOL    HW2 7611   5.938   7.727   1.156 -0.7153 -0.4359 -0.7947
 2043SOL     OW 7612   7.936   1.473   5.863 -0.0754 -0.1319  0.1757
 2043SOL    HW1 7613   7.905   1.515   5.783  1.3583  0.8392  0.1048
 2043SOL    HW2 7614   8.023   1.511   5.878 -0.4271 -0.0882  2.3330
 2044SOL     OW 7615   5.560   5.961   4.910 -0.3797  0.4542 -0.2733
 2044SOL    HW1 7616   5.466   5.967   4.930 -0.3066  1.1659 -0.1000
 2044SOL    HW2 7617   5.567   5.992   4.820  0.0754  3.6822  0.8125
 2045SOL     OW 7618   4.610   3.639   7.984  0.1346 -0.1837 -0.5605
 2045SOL    HW1 7619   4.587   3.657   8.075 -0.3562 -0.3724 -0.6439
 2045SOL    HW2 7620   4.531   3.599   7.947  0.0239  0.6825 -1.2931
 2046SOL     OW 7621   1.467   4.001   2.878 -0.0931 -0.3504  0.0451
 2046SOL    HW1 7622   1.379   4.032   2.899  0.5048  0.8488  0.7942
 2046SOL    HW2 7623   1.523   4.036   2.948  0.9607 -1.1987 -0.3576
 2047SOL     OW 7624   0.508   8.295   5.235 -0.1432  0.2797 -0.0137
 2047SOL    HW1 7625   0.541   8.242   5.307 -0.6114  0.9770  0.7207
 2047SOL    HW2 7626   0.498   8.233   5.162  1.8726 -0.1122  0.0211
 2048SOL     OW 7627   4.483   5.942   8.075  0.0695 -0.3130 -0.4502
 2048SOL    HW1 7628   4.557   5.944   8.135 -0.7763  1.2660  0.6024
 2048SOL    HW2 7629   4.406   5.936   8.132 -0.5800 -3.2351 -1.5619
 2049SOL     OW 7630   6.151   1.118   0.246 -0.6489 -0.1922  0.3861
 2049SOL    HW1 7631   6.225   1.157   0.292  0.2892 -0.8484 -0.5299
 2049SOL    HW2 7632   6.185   1.035   0.212 -1.7401 -0.3975 -0.2415
 2050SOL     OW 7633   8.087   7.849   3.831  0.2166 -0.0244  0.8501
 2050SOL    HW1 7634   8.144   7.777   3.804 -0.5809 -0.6647  0.8591
 2050SOL    HW2 7635   8.147   7.916   3.862  1.0010 -0.3885  0.1233
 2051SOL     OW 7636   1.711   4.130   5.508  0.1776 -0.1117  0.0108
 2051SOL    HW1 7637   1.754   4.052   5.543  0.4151  0.0534  0.0879
 2051SOL    HW2 7638   1.782   4.183   5.472  0.1859  0.6691  1.1280
 2052SOL     OW 7639   3.394   1.068   7.518  0.1242  0.3413  0.0101
 2052SOL    HW1 7640   3.485   1.076   7.548 -0.3098 -1.3222  1.9436
 2052SOL    HW2 7641   3.348   1.139   7.562  0.2764  0.4926 -0.0741
 2053SOL     OW 7642   0.056   7.844   6.204 -0.4661 -0.7654 -0.2803
 2053SOL    HW1 7643   0.139   7.833   6.159 -0.3791 -2.0914  0.2049
 2053SOL    HW2 7644   0.051   7.938   6.222  1.0244 -0.7110 -0.1089
 2054SOL     OW 7645   5.416   4.593   0.791  0.3483 -0.0237 -0.2666
 2054SOL    HW1 7646   5.376   4.671   0.753 -1.8567 -1.8492 -1.8621
 2054SOL    HW2 7647   5.509   4.600   0.768 -0.0561  1.4545 -1.5498
 2055SOL     OW 7648   2.621   6.190   4.900  0.2642  0.1185  0.1178
 2055SOL    HW1 7649   2.675   6.112   4.888 -0.0523 -0.0638 -0.1428
 2055SOL    HW2 7650   2.573   6.174   4.981 -1.1520 -0.7615 -0.8831
 2056SOL     OW 7651   1.358   2.498   4.794  0.1985  0.1347 -0.4823
 2056SOL    HW1 7652   1.437   2.550   4.781  0.0743  0.2745 -0.6931
 2056SOL    HW2 7653   1.389   2.407   4.800  0.5796  0.3698  1.5322
 2057SOL     OW 7654   0.166   1.295   0.806  0.0795  0.3762 -0.3864
 2057SOL    HW1 7655   0.197   1.223   0.861  0.8409  0.3978 -0.7849
 2057SOL    HW2 7656   0.120   1.251   0.733  1.7081  0.2347 -1.3479
 2058SOL     OW 7657   7.547   3.504   0.815  0.0963  0.1678  0.3167
 2058SOL    HW1 7658   7.587   3.580   0.857  1.7471 -1.5669  2.0236
 2058SOL    HW2 7659   7.545   3.437   0.884 -0.4234 -1.6305 -1.3941
 2059SOL     OW 7660   7.991   8.049   2.719 -0.4868 -0.0779  0.3233
 2059SOL    HW1 7661   8.045   8.046   2.798  0.8811 -0.3272 -0.5884
 2059SOL    HW2 7662   7.901   8.052   2.751  0.0866  1.0802  1.9084
 2060SOL     OW 7663   8.278   1.681   6.423  0.7749  0.2210 -0.0553
 2060SOL    HW1 7664   8.371   1.662   6.432  0.5345 -0.5209  0.9788
 2060SOL    HW2 7665   8.274   1.759   6.368  2.0637  1.0769  1.0503
 2061SOL     OW 7666   7.093   0.837   5.760 -0.0889 -0.2007  0.1280
 2061SOL    HW1 7667   7.111   0.882   5.843 -2.9028 -0.7957  1.1285
 2061SOL    HW2 7668   7.049   0.902   5.706  2.1302  0.3200 -1.1262
 2062SOL     OW 7669   1.565   3.403   5.953 -0.3325 -0.9005  0.4692
 2062SOL    HW1 7670   1.511   3.428   6.028  0.3649  0.5565  0.5047
 2062SOL    HW2 7671   1.529   3.454   5.880  0.4800 -0.5240  0.3246
 2063SOL     OW 7672   0.513   0.342   6.037 -0.2018 -0.4349 -0.0657
 2063SOL    HW1 7673   0.484   0.299   5.956  0.8669 -1.1979 -0.0570
 2063SOL    HW2 7674   0.544   0.270   6.092  1.9993  0.3757 -0.1994
 2064SOL     OW 7675   4.911   7.940   0.948 -0.3270  0.2303  0.1203
 2064SOL    HW1 7676   4.941   7.990   0.872  1.4927  0.2618  0.8377
 2064SOL    HW2 7677   4.838   7.991   0.983 -0.5288  0.7320 -1.0075
 2065SOL     OW 7678   1.111   6.998   1.408 -0.3149 -0.5982 -0.6091
 2065SOL    HW1 7679   1.153   6.997   1.321  2.0562 -1.2139  0.5048
 2065SOL    HW2 7680   1.116   7.089   1.435  0.0581 -0.6246 -0.5887
 2066SOL     OW 7681   6.043   3.310   2.606  0.0325 -0.2260  0.7018
 2066SOL    HW1 7682   6.063   3.402   2.618 -0.0647 -0.0214 -0.5874
 2066SOL    HW2 7683   5.962   3.296   2.654 -0.4471  0.5731  0.1224
 2067SOL     OW 7684   4.832   1.624   0.990 -0.2909 -0.3633 -0.0474
 2067SOL    HW1 7685   4.748   1.591   1.022 -0.9299  0.3001 -1.0141
 2067SOL    HW2 7686   4.811   1.707   0.947  0.8468 -0.2207 -0.3501
 2068SOL     OW 7687   3.957   4.200   0.534  0.0391 -0.0848 -0.5030
 2068SOL    HW1 7688   3.888   4.176   0.596  0.3960 -0.1252 -0.1194
 2068SOL    HW2 7689   4.037   4.168   0.574  0.1116 -1.4158 -1.6869
 2069SOL     OW 7690   2.035   5.395   0.744  0.2949  0.3478 -0.1315
 2069SOL    HW1 7691   2.092   5.318   0.747  0.7371  0.6591 -0.4528
 2069SOL    HW2 7692   1.968   5.372   0.680 -0.7862 -0.5884  1.3200
 2070SOL     OW 7693   8.177   6.865   6.333  0.2773 -0.1505  0.2650
 2070SOL    HW1 7694   8.162   6.878   6.240 -0.7071 -1.5249  0.2354
 2070SOL    HW2 7695   8.268   6.835   6.339 -0.2067 -1.7938 -0.4126
 2071SOL     OW 7696   3.336   3.921   5.143 -0.0910 -0.3454  0.2621
 2071SOL    HW1 7697   3.384   4.003   5.136  0.5338 -0.7934 -0.8426
 2071SOL    HW2 7698   3.245   3.947   5.157  0.3324  0.5126  1.4345
 2072SOL     OW 7699   6.268   7.701   6.010  0.7641 -0.6971  0.1256
 2072SOL    HW1 7700   6.217   7.782   6.001  0.1543 -1.1796 -0.9903
 2072SOL    HW2 7701   6.290   7.677   5.919 -0.2258 -2.4996  0.3382
 2073SOL     OW 7702   3.235   6.449   5.058 -0.0146 -0.2197 -0.3980
 2073SOL    HW1 7703   3.159   6.447   5.001 -0.4960  0.7027  0.2081
 2073SOL    HW2 7704   3.281   6.530   5.034  0.5885 -0.5859 -0.5069
 2074SOL     OW 7705   8.032   2.883   7.490  0.3890 -0.3123 -0.0541
 2074SOL    HW1 7706   7.996   2.795   7.483 -0.2637 -0.0589  0.0709
 2074SOL    HW2 7707   8.108   2.883   7.431 -2.3734  0.4602 -3.7645
 2075SOL     OW 7708   2.509   0.090   0.256  0.0549  0.1858  0.0870
 2075SOL    HW1 7709   2.546   0.060   0.339  0.9000 -0.0495 -0.3743
 2075SOL    HW2 7710   2.430   0.037   0.245 -0.8176  1.1701  1.4122
 2076SOL     OW 7711   4.989   5.475   5.643  0.1515  0.1950  0.0865
 2076SOL    HW1 7712   5.059   5.415   5.670 -1.0417 -1.8719 -1.2378
 2076SOL    HW2 7713   4.929   5.475   5.718  0.0117 -0.5366 -0.0137
 2077SOL     OW 7714   0.462   7.495   1.935  0.4437 -0.2075  0.2679
 2077SOL    HW1 7715   0.504   7.409   1.941  0.7823 -0.2847 -2.4306
 2077SOL    HW2 7716   0.375   7.476   1.899  0.2822  0.5339  0.2694
 2078SOL     OW 7717   7.031   5.194   6.198 -0.2607  0.8850 -0.1503
 2078SOL    HW1 7718   6.966   5.255   6.161  1.0522  0.6541 -2.9792
 2078SOL    HW2 7719   7.106   5.250   6.219 -0.4779  0.7919  0.9117
 2079SOL     OW 7720   5.618   4.405   0.986  0.0481  0.2437  0.6432
 2079SOL    HW1 7721   5.654   4.395   0.898 -0.9045  1.4411  0.0974
 2079SOL    HW2 7722   5.581   4.494   0.986  0.0261  0.2359  2.2438
 2080SOL     OW 7723   1.606   1.043   2.501 -0.0601  0.3997 -0.4300
 2080SOL    HW1 7724   1.677   1.105   2.485 -0.4158  0.1943 -2.8717
 2080SOL    HW2 7725   1.582   1.058   2.593  1.1338  2.5266 -0.4406
 2081SOL     OW 7726   6.825   1.041   6.170  0.0587 -0.3119 -0.4335
 2081SOL    HW1 7727   6.820   1.132   6.141 -0.2041 -0.1398  0.1522
 2081SOL    HW2 7728   6.881   1.044   6.248  0.3641 -0.7069 -0.6372
 2082SOL     OW 7729   8.082   3.344   5.230 -0.1863 -0.2258  0.5126
 2082SOL    HW1 7730   8.054   3.319   5.142  1.4672  1.4754 -0.5255
 2082SOL    HW2 7731   8.028   3.421   5.251  1.9418  1.6173 -0.5442
 2083SOL     OW 7732   2.320   5.165   7.817  0.2531  0.2154  0.1652
 2083SOL    HW1 7733   2.404   5.192   7.854  0.2813  1.2343 -0.6140
 2083SOL    HW2 7734   2.294   5.238   7.761 -1.9443  0.6254  1.6475
 2084SOL     OW 7735   7.058   6.870   3.367 -0.0355  0.2538 -0.0960
 2084SOL    HW1 7736   7.065   6.853   3.461  0.4417  0.0484 -0.1648
 2084SOL    HW2 7737   6.987   6.813   3.337 -0.6494  0.8235  0.2586
 2085SOL     OW 7738   6.121   0.964   7.906 -1.0617 -0.3411 -0.5908
 2085SOL    HW1 7739   6.095   1.046   7.948 -1.7030 -1.8424  2.0478
 2085SOL    HW2 7740   6.140   0.988   7.815 -2.3703  2.5044 -0.1533
 2086SOL     OW 7741   3.156   5.727   6.104 -0.1039 -0.3772  0.6397
 2086SOL    HW1 7742   3.136   5.687   6.189 -0.0453 -2.7362 -0.4089
 2086SOL    HW2 7743   3.071   5.757   6.072 -0.0892  0.7885  1.6200
 2087SOL     OW 7744   7.508   1.856   1.900  0.0291 -0.6224  0.4127
 2087SOL    HW1 7745   7.471   1.912   1.969  0.7062  1.5377 -0.9143
 2087SOL    HW2 7746   7.589   1.901   1.874  0.7616 -2.4186 -0.4731
 2088SOL     OW 7747   3.486   3.368   1.730 -0.5268  0.0948 -0.1362
 2088SOL    HW1 7748   3.460   3.460   1.732 -0.9310 -0.0327  2.5136
 2088SOL    HW2 7749   3.581   3.369   1.734 -0.5610  0.3913  0.6530
 2089SOL     OW 7750   2.982   0.438   4.279  0.6589  0.6317 -0.0030
 2089SOL    HW1 7751   2.918   0.376   4.314  0.7218 -0.5993 -1.9741
 2089SOL    HW2 7752   3.066   0.402   4.305  0.7294 -0.6025 -1.8627
 2090SOL     OW 7753   1.652   2.725   0.888  0.2856 -0.7279 -0.1639
 2090SOL    HW1 7754   1.742   2.700   0.868  0.4833 -0.8288  0.8118
 2090SOL    HW2 7755   1.598   2.669   0.832  0.7857 -1.8469  0.4609
 2091SOL     OW 7756   4.528   0.773   7.750  0.0590 -0.1338  0.4768
 2091SOL    HW1 7757   4.499   0.682   7.751 -1.5648  0.3018 -2.1109
 2091SOL    HW2 7758   4.618   0.768   7.717  0.0120 -0.8118  0.4365
 2092SOL     OW 7759   0.598   4.803   0.686  0.0590 -0.7098 -0.5131
 2092SOL    HW1 7760   0.564   4.752   0.760 -0.6811 -0.3311 -0.5856
 2092SOL    HW2 7761   0.520   4.825   0.634  0.6389 -1.4882 -1.7319
 2093SOL     OW 7762   8.275   1.822   0.939  0.2433  0.5328  0.1095
 2093SOL    HW1 7763   8.248   1.903   0.983  2.1976  1.1780  0.1535
 2093SOL    HW2 7764   8.356   1.797   0.983 -1.0387 -2.1999  1.0097
 2094SOL     OW 7765   5.457   1.792   6.246 -0.0872 -0.5025 -0.5159
 2094SOL    HW1 7766   5.415   1.798   6.160 -0.3424 -0.6370 -0.3991
 2094SOL    HW2 7767   5.432   1.706   6.279 -0.6351 -0.1303  0.0402
 2095SOL     OW 7768   5.400   7.162   3.391 -0.8976  0.1870 -0.0986
 2095SOL    HW1 7769   5.318   7.125   3.359  1.3158 -4.5436 -0.6960
 2095SOL    HW2 7770   5.451   7.179   3.311  0.0926 -0.3765  0.4036
 2096SOL     OW 7771   5.584   0.335   0.235 -0.1211  0.4258  0.3034
 2096SOL    HW1 7772   5.521   0.375   0.176 -1.0943  0.2175  1.1772
 2096SOL    HW2 7773   5.666   0.334   0.186 -1.0303 -0.2490 -1.2414
 2097SOL     OW 7774   1.819   1.058   7.075 -0.1741  0.3113 -0.2032
 2097SOL    HW1 7775   1.834   1.062   7.170 -0.8256  0.5677 -0.1104
 2097SOL    HW2 7776   1.814   0.964   7.056 -1.0718  0.2821  0.1769
 2098SOL     OW 7777   3.842   2.623   6.695 -0.4711 -0.0871  0.6691
 2098SOL    HW1 7778   3.860   2.536   6.731  0.1327 -0.3782 -0.3095
 2098SOL    HW2 7779   3.897   2.628   6.617 -1.4022  0.7101  0.0502
 2099SOL     OW 7780   6.713   6.320   3.637  0.1887  0.0976  0.0633
 2099SOL    HW1 7781   6.740   6.333   3.547  0.6018  1.1946  0.3422
 2099SOL    HW2 7782   6.660   6.239   3.635  0.7706 -0.2589 -1.0237
 2100SOL     OW 7783   5.081   7.795   0.550  0.1832  0.6160  0.0850
 2100SOL    HW1 7784   5.148   7.863   0.545  1.9073 -1.0081  0.7156
 2100SOL    HW2 7785   5.086   7.750   0.466  0.5584 -0.1331  0.5070
 2101SOL     OW 7786   3.393   2.755   3.332  0.0896 -0.2437 -0.8015
 2101SOL    HW1 7787   3.384   2.827   3.269 -0.7281  1.3675  1.1067
 2101SOL    HW2 7788   3.341   2.684   3.295 -2.0810  1.3874 -0.9374
 2102SOL     OW 7789   1.762   2.191   5.034 -0.5068 -0.1136 -0.2195
 2102SOL    HW1 7790   1.759   2.259   5.102  1.4563  0.2541 -0.4674
 2102SOL    HW2 7791   1.735   2.236   4.954 -0.0636  0.1562 -0.2180
 2103SOL     OW 7792   4.018   5.039   0.553  0.3720 -0.0978  0.3341
 2103SOL    HW1 7793   4.004   5.106   0.620 -0.4363  0.2662 -0.1853
 2103SOL    HW2 7794   3.929   5.009   0.530  0.5544  0.6636 -1.4427
 2104SOL     OW 7795   5.371   0.677   2.005 -0.2890 -0.1485  0.1874
 2104SOL    HW1 7796   5.389   0.736   1.932 -0.3080  0.7014  0.8604
 2104SOL    HW2 7797   5.363   0.734   2.081 -0.4629 -1.0062  0.8279
 2105SOL     OW 7798   0.719   1.867   4.021 -0.5495 -0.3246 -0.0495
 2105SOL    HW1 7799   0.795   1.896   3.971  0.2016 -1.1904  0.5722
 2105SOL    HW2 7800   0.654   1.845   3.954 -0.2225  0.3130 -0.5883
 2106SOL     OW 7801   8.019   3.250   4.976  0.1395  0.1092 -0.2720
 2106SOL    HW1 7802   8.073   3.198   4.916 -2.8529 -1.5186 -1.6741
 2106SOL    HW2 7803   7.949   3.190   5.004 -0.8079  2.0540  1.6765
 2107SOL     OW 7804   6.533   3.952   5.234  0.3874  0.1210  0.3040
 2107SOL    HW1 7805   6.500   3.867   5.264  0.5773 -0.1555 -0.2523
 2107SOL    HW2 7806   6.566   3.935   5.146  0.2483  0.8212  0.1127
 2108SOL     OW 7807   3.125   0.199   6.903  0.1521  0.3894 -0.3562
 2108SOL    HW1 7808   3.098   0.107   6.905 -2.9588  1.2476 -1.6168
 2108SOL    HW2 7809   3.196   0.202   6.839  1.4668 -1.3943  0.9501
 2109SOL     OW 7810   5.509   0.884   4.663 -0.0821 -0.4981 -0.2305
 2109SOL    HW1 7811   5.466   0.970   4.666 -2.6311 -1.7225 -0.5095
 2109SOL    HW2 7812   5.581   0.896   4.602  0.9638  2.0194  1.3850
 2110SOL     OW 7813   1.842   1.732   1.861 -0.3945  0.4099 -0.1136
 2110SOL    HW1 7814   1.906   1.683   1.912 -0.6702  0.5783  0.3994
 2110SOL    HW2 7815   1.843   1.691   1.774  0.9147  0.8581 -0.3215
 2111SOL     OW 7816   5.232   5.256   4.168 -0.7470 -0.1947 -0.2528
 2111SOL    HW1 7817   5.174   5.211   4.106  0.0600 -1.0719 -0.3759
 2111SOL    HW2 7818   5.267   5.185   4.223 -0.3010  0.4139  0.2464
 2112SOL     OW 7819   0.892   3.899   6.105 -0.4629  0.1751 -0.1964
 2112SOL    HW1 7820   0.833   3.824   6.116 -2.0969  1.3360 -0.8846
 2112SOL    HW2 7821   0.845   3.973   6.144  0.7963  1.0100 -0.2264
 2113SOL     OW 7822   4.672   5.816   6.245  0.1476  0.2420 -0.0146
 2113SOL    HW1 7823   4.693   5.861   6.163 -1.3873  0.3029 -0.3854
 2113SOL    HW2 7824   4.722   5.735   6.240  2.1048  1.4203  0.1805
 2114SOL     OW 7825   7.857   8.275   3.746  0.4382  0.1867 -0.5105
 2114SOL    HW1 7826   7.845   8.286   3.652  0.1753 -0.1523 -0.5212
 2114SOL    HW2 7827   7.947   8.245   3.756 -0.0428 -1.4068 -0.7991
 2115SOL     OW 7828   4.158   1.455   1.047 -0.2659 -0.2154 -0.3484
 2115SOL    HW1 7829   4.200   1.540   1.033  0.3418 -0.3379  0.7320
 2115SOL    HW2 7830   4.192   1.425   1.131 -1.2615 -1.0680 -0.2494
 2116SOL     OW 7831   7.230   6.243   7.751 -0.1256 -0.3472 -0.5299
 2116SOL    HW1 7832   7.221   6.306   7.822 -1.7819 -0.5912 -0.5109
 2116SOL    HW2 7833   7.244   6.159   7.796 -2.1843 -0.6626 -0.4616
 2117SOL     OW 7834   0.760   1.325   0.028  0.3710 -0.4667  0.5316
 2117SOL    HW1 7835   0.736   1.284   0.111  1.3619 -0.0082  1.0669
 2117SOL    HW2 7836   0.852   1.302   0.016  0.9987  1.6873  0.9329
 2118SOL     OW 7837   0.994   6.701   1.497 -0.7107  0.2336 -0.1655
 2118SOL    HW1 7838   1.002   6.757   1.420 -2.4643  1.0743  0.2231
 2118SOL    HW2 7839   0.994   6.612   1.461 -1.7365  0.6186 -1.1870
 2119SOL     OW 7840   5.848   0.646   1.937 -0.5984  0.3683  0.0011
 2119SOL    HW1 7841   5.780   0.695   1.983 -2.4975 -1.1122 -1.1771
 2119SOL    HW2 7842   5.801   0.596   1.871  1.8576  0.7709 -2.1213
 2120SOL     OW 7843   3.006   5.898   0.358 -0.3028 -0.5021 -0.3178
 2120SOL    HW1 7844   2.946   5.969   0.335 -1.9809 -2.1449 -1.1088
 2120SOL    HW2 7845   3.089   5.923   0.317 -0.4708  1.6780  0.5870
 2121SOL     OW 7846   7.106   0.701   0.028 -0.1017 -0.2492  0.2432
 2121SOL    HW1 7847   7.195   0.669   0.044 -0.5142 -2.5643 -1.7180
 2121SOL    HW2 7848   7.111   0.747  -0.056 -0.6389  0.0121  0.3513
 2122SOL     OW 7849   5.841   6.120   7.743 -0.0887  0.3077 -0.0999
 2122SOL    HW1 7850   5.837   6.049   7.807 -0.8035  0.5898  0.1747
 2122SOL    HW2 7851   5.826   6.077   7.659  0.4500 -0.0061 -0.0399
 2123SOL     OW 7852   7.825   6.044   7.487 -0.1158 -0.4470 -0.1747
 2123SOL    HW1 7853   7.850   5.968   7.435 -1.3711 -2.2117  1.7167
 2123SOL    HW2 7854   7.746   6.078   7.444  2.9619  2.6211 -3.6975
 2124SOL     OW 7855   0.992   1.567   3.093  0.2601 -0.1889 -0.4348
 2124SOL    HW1 7856   0.950   1.483   3.080 -0.2645  0.0178 -0.0924
 2124SOL    HW2 7857   0.924   1.632   3.076  0.6056  0.1620 -0.5091
 2125SOL     OW 7858   4.510   2.826   0.453 -0.1105 -0.4995  0.1449
 2125SOL    HW1 7859   4.556   2.898   0.497  2.6539 -0.2939 -2.8783
 2125SOL    HW2 7860   4.441   2.870   0.403  0.9659 -0.0309 -0.9456
 2126SOL     OW 7861   7.959   5.934   3.092  0.6141 -0.2208 -0.1219
 2126SOL    HW1 7862   8.004   6.012   3.060  0.1321  0.4181  0.7434
 2126SOL    HW2 7863   7.888   5.919   3.030 -0.4610  1.1468  0.7624
 2127SOL     OW 7864   3.607   6.470   3.450 -0.5458  0.3516  0.6738
 2127SOL    HW1 7865   3.547   6.428   3.511 -2.2857  3.9978  1.6194
 2127SOL    HW2 7866   3.673   6.512   3.505  0.2482  0.2220 -0.1564
 2128SOL     OW 7867   5.662   2.807   4.101  0.4751  0.1441 -0.0104
 2128SOL    HW1 7868   5.614   2.769   4.028  0.7288 -0.2750  0.0369
 2128SOL    HW2 7869   5.667   2.900   4.081 -1.0005  0.3096  0.3542
 2129SOL     OW 7870   0.949   8.080   3.552 -0.1080  0.0182  0.4033
 2129SOL    HW1 7871   0.918   8.168   3.527  0.5131  0.3186  0.6847
 2129SOL    HW2 7872   0.948   8.081   3.647  0.0493 -0.2330  0.4052
 2130SOL     OW 7873   1.397   3.483   6.161  0.0787 -0.3501  0.3290
 2130SOL    HW1 7874   1.302   3.478   6.147  0.3421 -0.9428 -1.3955
 2130SOL    HW2 7875   1.417   3.576   6.160 -0.5193 -0.2112  0.9463
 2131SOL     OW 7876   0.243   0.684   5.194 -0.2340  0.2050  0.1259
 2131SOL    HW1 7877   0.297   0.604   5.190 -0.8567 -0.1701 -0.8633
 2131SOL    HW2 7878   0.263   0.730   5.112 -1.4919  0.0189 -0.2840
 2132SOL     OW 7879   2.260   0.592   2.685  0.1058  0.1641  0.1208
 2132SOL    HW1 7880   2.351   0.611   2.662 -0.2549 -0.8823 -2.3440
 2132SOL    HW2 7881   2.213   0.672   2.664 -0.1696 -0.6767 -2.6816
 2133SOL     OW 7882   6.482   7.456   6.975  0.1982 -0.4627 -0.0142
 2133SOL    HW1 7883   6.466   7.516   6.902  2.5331  1.5718  1.0547
 2133SOL    HW2 7884   6.413   7.478   7.038  1.0407  1.1572  0.3733
 2134SOL     OW 7885   2.494   6.575   6.420 -0.5929 -0.2400 -0.0164
 2134SOL    HW1 7886   2.497   6.668   6.397 -1.4713 -0.7303 -2.3009
 2134SOL    HW2 7887   2.414   6.565   6.471 -0.2912  0.3216  0.5717
 2135SOL     OW 7888   2.944   5.900   2.474 -0.8518 -0.4006  0.2412
 2135SOL    HW1 7889   2.887   5.836   2.431 -0.9976 -0.2883  0.2670
 2135SOL    HW2 7890   2.886   5.974   2.494 -0.9830 -0.7952  1.4015
 2136SOL     OW 7891   8.064   7.757   5.143  0.1561  0.5581 -0.5036
 2136SOL    HW1 7892   8.060   7.799   5.057 -1.3393 -0.3582 -0.9074
 2136SOL    HW2 7893   7.988   7.698   5.145 -0.8002  1.7750  2.0746
 2137SOL     OW 7894   2.789   6.126   2.506 -0.3440  1.1762  0.8550
 2137SOL    HW1 7895   2.745   6.125   2.592 -2.1349  1.0511 -0.0305
 2137SOL    HW2 7896   2.721   6.158   2.446 -0.4475 -2.7129 -1.2223
 2138SOL     OW 7897   2.097   7.227   7.857 -0.3215  0.0186 -0.1444
 2138SOL    HW1 7898   2.081   7.166   7.929 -1.0369  1.4583  0.9501
 2138SOL    HW2 7899   2.015   7.228   7.808 -0.6583  0.8712  0.4339
 2139SOL     OW 7900   3.615   0.799   2.620 -0.6779 -0.4886 -0.3661
 2139SOL    HW1 7901   3.659   0.746   2.553 -0.4221 -0.4629 -0.2217
 2139SOL    HW2 7902   3.653   0.768   2.703  0.3142  0.6935 -0.3540
 2140SOL     OW 7903   0.334   3.127   5.536 -0.1891  0.3343  0.1825
 2140SOL    HW1 7904   0.405   3.093   5.482  0.4147  2.0550 -0.1214
 2140SOL    HW2 7905   0.254   3.106   5.486  0.1679 -0.5463 -0.0336
 2141SOL     OW 7906   8.014   1.717   0.858 -0.2858 -0.3591  0.1767
 2141SOL    HW1 7907   8.028   1.740   0.950 -1.7806  1.0608  0.0798
 2141SOL    HW2 7908   8.096   1.741   0.815 -0.2946  0.8718  0.8155
 2142SOL     OW 7909   2.167   1.708   2.372  0.2759 -0.4403 -0.4222
 2142SOL    HW1 7910   2.170   1.692   2.466 -0.2704 -1.0444 -0.5065
 2142SOL    HW2 7911   2.076   1.728   2.353  0.7153  1.5881 -0.5299
 2143SOL     OW 7912   7.079   6.059   4.981 -0.4477  0.3114  0.2521
 2143SOL    HW1 7913   7.041   5.972   4.987 -1.2672  0.6879  0.5570
 2143SOL    HW2 7914   7.034   6.100   4.907 -0.0490  0.4683  0.0955
 2144SOL     OW 7915   2.470   1.097   5.242  0.1090  0.3492 -0.1370
 2144SOL    HW1 7916   2.382   1.062   5.233  1.3370 -3.1818  0.7537
 2144SOL    HW2 7917   2.516   1.068   5.163  1.4112 -0.9536  1.0530
 2145SOL     OW 7918   8.047   4.402   7.726 -0.1736  0.2283 -0.6307
 2145SOL    HW1 7919   8.017   4.416   7.816 -0.7652 -0.9072 -0.6444
 2145SOL    HW2 7920   8.023   4.483   7.681 -0.2192  0.6561  0.1488
 2146SOL     OW 7921   5.601   2.307   1.437  0.2803 -0.1689  0.7577
 2146SOL    HW1 7922   5.603   2.400   1.415 -2.7734  0.1176  1.4871
 2146SOL    HW2 7923   5.685   2.291   1.480  1.0035  2.1488  0.2972
 2147SOL     OW 7924   5.583   1.233   5.808  0.8918 -0.0812 -0.2198
 2147SOL    HW1 7925   5.513   1.252   5.871  1.6157 -0.7479  0.7868
 2147SOL    HW2 7926   5.661   1.218   5.862  1.5743 -0.3980 -1.2880
 2148SOL     OW 7927   5.876   7.852   5.807  0.1379 -0.0780  0.2683
 2148SOL    HW1 7928   5.869   7.946   5.821 -0.4658 -0.0434 -0.2295
 2148SOL    HW2 7929   5.789   7.826   5.774  0.3281 -0.7867  0.3136
 2149SOL     OW 7930   7.201   3.503   2.633  0.7690  0.9112 -0.4721
 2149SOL    HW1 7931   7.209   3.511   2.538  2.9045  0.7455 -0.3325
 2149SOL    HW2 7932   7.129   3.442   2.646  0.0656  1.4002 -1.9742
 2150SOL     OW 7933   4.902   2.550   4.565 -0.3744  0.5217 -0.0006
 2150SOL    HW1 7934   4.887   2.524   4.656 -1.5345  1.5259  0.0947
 2150SOL    HW2 7935   4.847   2.491   4.514  1.4091 -1.0438 -0.1714
 2151SOL     OW 7936   2.213   6.605   4.624 -0.1491  0.2962 -0.0289
 2151SOL    HW1 7937   2.133   6.651   4.599 -0.4510 -1.1148 -1.6994
 2151SOL    HW2 7938   2.217   6.529   4.567  2.6460  0.6018 -0.3385
 2152SOL     OW 7939   3.366   3.177   1.034  0.1950  0.4321  0.4742
 2152SOL    HW1 7940   3.353   3.174   1.128  1.7387 -0.2473  0.6742
 2152SOL    HW2 7941   3.292   3.127   0.998 -0.5363  0.9065  1.2930
 2153SOL     OW 7942   5.035   3.635   6.011  0.0169  0.0615 -0.4373
 2153SOL    HW1 7943   5.005   3.724   6.030  1.0030  0.6879 -1.6723
 2153SOL    HW2 7944   5.085   3.644   5.930  3.1664 -0.9778  1.2844
 2154SOL     OW 7945   1.991   7.307   6.736  0.8498  0.3100 -0.4630
 2154SOL    HW1 7946   2.049   7.232   6.749  0.2077 -0.0988  0.0586
 2154SOL    HW2 7947   2.013   7.339   6.648 -0.0895 -1.5580 -1.4147
 2155SOL     OW 7948   7.618   2.782   7.035  0.2804 -0.5030  0.2634
 2155SOL    HW1 7949   7.560   2.737   7.096 -0.8512 -0.2328 -0.6010
 2155SOL    HW2 7950   7.687   2.719   7.015  0.8892 -0.4597  2.1217
 2156SOL     OW 7951   3.467   7.161   3.776  0.0194  0.1356  0.1136
 2156SOL    HW1 7952   3.526   7.091   3.747  0.2732  0.0787  0.7637
 2156SOL    HW2 7953   3.499   7.239   3.731 -0.2889 -0.1646 -0.6465
 2157SOL     OW 7954   4.247   0.342   0.967 -0.7797  0.0701  0.0772
 2157SOL    HW1 7955   4.181   0.398   0.927 -1.1672  0.3416  1.0855
 2157SOL    HW2 7956   4.205   0.307   1.046  0.4538  0.6758  1.0293
 2158SOL     OW 7957   6.985   1.835   5.899  0.0346  0.1455 -0.6613
 2158SOL    HW1 7958   6.979   1.775   5.824  1.3184 -1.9586  0.8433
 2158SOL    HW2 7959   6.904   1.820   5.949  0.2646 -0.2215 -0.3910
 2159SOL     OW 7960   0.940   5.515   1.128 -0.0056  1.2265 -0.2900
 2159SOL    HW1 7961   0.996   5.558   1.064  2.9930  0.2822  1.5813
 2159SOL    HW2 7962   0.947   5.571   1.206  0.8756 -0.5547  0.9396
 2160SOL     OW 7963   5.268   4.479   1.784 -0.0296 -0.1677  0.1554
 2160SOL    HW1 7964   5.294   4.414   1.850  4.7725 -0.2010 -1.5523
 2160SOL    HW2 7965   5.249   4.428   1.706  0.1469  0.2439 -0.1554
 2161SOL     OW 7966   8.220   7.163   1.780  0.0082  0.1251 -1.0365
 2161SOL    HW1 7967   8.236   7.257   1.788  1.4731 -0.1758 -0.1953
 2161SOL    HW2 7968   8.271   7.137   1.703  0.5226 -0.1597 -0.6077
 2162SOL     OW 7969   5.763   2.649   6.238 -0.2613 -0.0513 -0.2623
 2162SOL    HW1 7970   5.707   2.707   6.186 -1.0206  0.1633  0.7859
 2162SOL    HW2 7971   5.848   2.652   6.194 -0.3109  1.7891 -0.2712
 2163SOL     OW 7972   3.427   6.679   1.579  0.1469  0.1447  0.2459
 2163SOL    HW1 7973   3.341   6.691   1.540 -0.1514  0.1081  0.8729
 2163SOL    HW2 7974   3.489   6.693   1.508 -0.4297 -1.3523 -0.5548
 2164SOL     OW 7975   7.225   4.582   0.914  0.1485 -0.4832 -0.3227
 2164SOL    HW1 7976   7.261   4.545   0.834 -2.4918 -1.6352 -1.0336
 2164SOL    HW2 7977   7.130   4.587   0.898 -0.0296  2.5866  1.3922
 2165SOL     OW 7978   0.077   4.852   7.818  0.1529 -0.7673 -0.1421
 2165SOL    HW1 7979   0.061   4.921   7.754  0.6921  0.6395  1.2035
 2165SOL    HW2 7980   0.141   4.794   7.777  0.7269  0.2896 -0.7482
 2166SOL     OW 7981   1.171   2.331   0.225  0.6065 -0.0171  0.4365
 2166SOL    HW1 7982   1.120   2.289   0.156 -0.8786 -0.3773  1.7316
 2166SOL    HW2 7983   1.107   2.381   0.275  1.7853  0.8335  1.1161
 2167SOL     OW 7984   3.138   8.296   2.326 -0.0938  0.4373  0.2844
 2167SOL    HW1 7985   3.170   8.367   2.269  1.4188 -0.3588  0.1258
 2167SOL    HW2 7986   3.209   8.233   2.328 -1.5376 -1.2290  0.2122
 2168SOL     OW 7987   1.399   5.878   7.923 -0.2272  0.4800  0.1930
 2168SOL    HW1 7988   1.390   5.949   7.987 -0.0971  0.9163 -0.2692
 2168SOL    HW2 7989   1.408   5.923   7.839 -1.8846 -0.1296 -0.3209
 2169SOL     OW 7990   8.135   4.010   2.306  0.1468  0.2481 -0.0938
 2169SOL    HW1 7991   8.163   3.966   2.227 -0.0361  1.2339 -0.7196
 2169SOL    HW2 7992   8.191   4.088   2.312  0.9691 -0.4401  1.3872
 2170SOL     OW 7993   2.022   4.562   3.172  0.2702 -0.7675 -0.3493
 2170SOL    HW1 7994   2.058   4.474   3.163 -0.2646 -0.8945 -1.2505
 2170SOL    HW2 7995   1.981   4.562   3.258  0.5134 -1.3081 -0.2317
 2171SOL     OW 7996   5.385   5.626   2.465 -0.0193  0.1521 -0.1215
 2171SOL    HW1 7997   5.418   5.614   2.554 -0.7457 -0.2581  0.0972
 2171SOL    HW2 7998   5.414   5.714   2.440 -0.4750  0.5709  0.8014
 2172SOL     OW 7999   3.435   1.277   5.129 -0.1393 -0.0489  0.4355
 2172SOL    HW1 8000   3.384   1.238   5.058 -0.2770  0.6151  0.1629
 2172SOL    HW2 8001   3.452   1.204   5.190  0.0826 -0.6415 -0.3322
 2173SOL     OW 8002   7.341   0.743   7.064 -0.6891 -0.2184 -0.3266
 2173SOL    HW1 8003   7.377   0.686   6.996 -1.6626  1.0755 -1.9989
 2173SOL    HW2 8004   7.356   0.832   7.031  0.9187  0.5189  2.2804
 2174SOL     OW 8005   0.523   5.662   0.566  0.4527 -0.1972  0.0934
 2174SOL    HW1 8006   0.565   5.665   0.652 -1.2279  1.0887  0.9056
 2174SOL    HW2 8007   0.548   5.744   0.524  2.3558 -1.4026 -1.2121
 2175SOL     OW 8008   2.162   3.912   6.226  0.1414 -0.1291 -0.0566
 2175SOL    HW1 8009   2.170   3.818   6.208 -1.3251 -0.2494 -0.1352
 2175SOL    HW2 8010   2.229   3.929   6.292  0.1723 -1.3079  0.2330
 2176SOL     OW 8011   2.302   0.812   5.446 -0.7015 -0.0879  0.4211
 2176SOL    HW1 8012   2.257   0.881   5.398  1.1323  0.1728 -0.9780
 2176SOL    HW2 8013   2.265   0.730   5.412 -0.3695  0.1344 -0.4891
 2177SOL     OW 8014   2.841   0.671   2.868  0.7384  0.2810 -0.5679
 2177SOL    HW1 8015   2.926   0.651   2.828  1.0458 -0.6518  0.5080
 2177SOL    HW2 8016   2.861   0.731   2.939  0.5751 -0.3963  0.0567
 2178SOL     OW 8017   0.130   3.908   5.705  0.0795 -0.1652  0.2421
 2178SOL    HW1 8018   0.139   3.997   5.670 -0.3147  0.6147  2.0811
 2178SOL    HW2 8019   0.066   3.866   5.647 -0.2307  0.9545 -0.2389
 2179SOL     OW 8020   5.644   2.001   7.374 -0.2540 -0.0422  0.4930
 2179SOL    HW1 8021   5.649   2.056   7.452 -1.4220  0.3523  0.3069
 2179SOL    HW2 8022   5.719   1.943   7.380  1.6718  2.3410  0.1037
 2180SOL     OW 8023   2.484   4.162   4.418  0.8771  0.6902 -0.0484
 2180SOL    HW1 8024   2.492   4.256   4.433  0.3293  0.6948  0.2113
 2180SOL    HW2 8025   2.575   4.131   4.408  1.0497  1.2629 -0.2701
 2181SOL     OW 8026   6.211   5.440   2.534  0.1684  0.2702  0.1383
 2181SOL    HW1 8027   6.200   5.364   2.477 -2.0828  0.3761  0.3730
 2181SOL    HW2 8028   6.174   5.513   2.483  3.1274  1.4082 -0.4612
 2182SOL     OW 8029   3.998   2.478   3.235 -0.3532 -0.6009  0.2794
 2182SOL    HW1 8030   4.045   2.436   3.307  1.8856 -0.1752 -0.9016
 2182SOL    HW2 8031   3.955   2.405   3.190 -1.3611 -0.9242  1.7111
 2183SOL     OW 8032   3.639   1.886   4.875 -0.1455 -0.3733 -0.1248
 2183SOL    HW1 8033   3.693   1.962   4.852 -0.9027  0.4360  0.7007
 2183SOL    HW2 8034   3.700   1.813   4.877  0.5791  0.1949 -1.0419
 2184SOL     OW 8035   1.207   6.783   7.810  0.3500  0.0713 -0.4490
 2184SOL    HW1 8036   1.132   6.725   7.797  0.4483 -0.3827  0.9719
 2184SOL    HW2 8037   1.215   6.830   7.727 -2.3320  1.0960 -0.1813
 2185SOL     OW 8038   5.243   5.014   3.556 -0.3647 -0.3403  0.2657
 2185SOL    HW1 8039   5.286   4.966   3.627  0.2426 -2.0829 -1.2150
 2185SOL    HW2 8040   5.180   5.071   3.599  1.0303 -0.2791  2.2760
 2186SOL     OW 8041   8.228   3.638   4.388  0.6615  0.0242  0.8506
 2186SOL    HW1 8042   8.226   3.621   4.482  0.1267 -0.8081  0.6990
 2186SOL    HW2 8043   8.238   3.551   4.348 -0.5038  0.2181  0.1019
 2187SOL     OW 8044   6.870   1.380   8.309  0.6553  0.1066  0.2520
 2187SOL    HW1 8045   6.864   1.422   8.224 -0.8530 -1.5687 -0.5012
 2187SOL    HW2 8046   6.890   1.288   8.289 -4.2325 -1.3444  1.4082
 2188SOL     OW 8047   5.255   0.796   0.590  0.4977  0.4670  0.0542
 2188SOL    HW1 8048   5.338   0.800   0.541  1.0194  2.2799  1.0150
 2188SOL    HW2 8049   5.188   0.808   0.523  0.9526 -1.6351 -0.8238
 2189SOL     OW 8050   2.424   3.276   4.107 -0.3352 -0.0520  0.3260
 2189SOL    HW1 8051   2.480   3.199   4.096 -1.5311 -1.3031  2.6266
 2189SOL    HW2 8052   2.395   3.298   4.019  1.9273 -0.7721 -0.6373
 2190SOL     OW 8053   2.050   3.603   8.023 -0.0983  0.1519  0.2248
 2190SOL    HW1 8054   2.137   3.599   8.063  0.2973 -0.1091 -0.6633
 2190SOL    HW2 8055   2.050   3.684   7.974  1.0182 -1.6586 -2.8970
 2191SOL     OW 8056   5.908   2.885   7.867  0.0570 -0.1183 -0.1121
 2191SOL    HW1 8057   5.949   2.971   7.876 -3.2788  1.8121 -2.2838
 2191SOL    HW2 8058   5.976   2.829   7.828  0.7529  2.9001 -3.4686
 2192SOL     OW 8059   5.694   1.250   5.561 -0.5607 -0.2035  0.6261
 2192SOL    HW1 8060   5.714   1.157   5.570 -1.5144 -0.2936  2.1045
 2192SOL    HW2 8061   5.639   1.270   5.638  0.7888  1.8866  1.0919
 2193SOL     OW 8062   0.732   1.278   4.405  0.1841  0.1066  0.0258
 2193SOL    HW1 8063   0.660   1.313   4.458  1.1159  2.0958  0.0227
 2193SOL    HW2 8064   0.747   1.190   4.440 -1.9526 -0.1688  0.3080
 2194SOL     OW 8065   6.855   4.030   6.886  0.2210 -0.0486 -0.3135
 2194SOL    HW1 8066   6.873   4.079   6.966 -0.4758 -0.0254 -0.1697
 2194SOL    HW2 8067   6.851   4.097   6.818 -0.0053  0.0198 -0.2337
 2195SOL     OW 8068   4.336   6.822   4.478  0.5429  0.0637 -0.1456
 2195SOL    HW1 8069   4.336   6.760   4.551 -0.5963  0.4488  0.1924
 2195SOL    HW2 8070   4.361   6.906   4.518  1.9772 -0.1476 -0.5822
 2196SOL     OW 8071   4.231   5.948   3.159 -0.2293  0.2392 -0.0137
 2196SOL    HW1 8072   4.178   5.891   3.103 -0.7695  1.5628 -0.9033
 2196SOL    HW2 8073   4.169   6.014   3.190  0.3108  0.1595  1.2590
 2197SOL     OW 8074   0.783   5.832   6.225 -0.4055 -0.1359  0.5018
 2197SOL    HW1 8075   0.834   5.866   6.151 -0.5697  0.8120  0.8198
 2197SOL    HW2 8076   0.707   5.790   6.184  0.4120 -1.2168  0.0455
 2198SOL     OW 8077   0.905   6.333   5.765  0.4071  0.3447  0.2232
 2198SOL    HW1 8078   0.859   6.251   5.745 -0.1806  1.3671 -2.9853
 2198SOL    HW2 8079   0.984   6.330   5.712  1.0465  1.2602  1.1148
 2199SOL     OW 8080   0.433   1.917   2.423 -0.1668 -0.1112  0.0911
 2199SOL    HW1 8081   0.407   1.882   2.338 -0.0027  0.4310 -0.1852
 2199SOL    HW2 8082   0.485   1.847   2.463 -1.1015 -0.7671  0.1823
 2200SOL     OW 8083   2.272   1.901   2.181 -0.3786  0.3452 -0.3915
 2200SOL    HW1 8084   2.226   1.903   2.265 -0.6785  0.2090 -0.5515
 2200SOL    HW2 8085   2.239   1.977   2.134 -0.8742 -0.0795 -0.7347
 2201SOL     OW 8086   0.528   3.596   3.008  0.2248 -0.0474 -0.0145
 2201SOL    HW1 8087   0.439   3.570   3.032  0.1320 -0.8499 -1.2096
 2201SOL    HW2 8088   0.572   3.609   3.092 -0.6977 -0.7470  0.5894
 2202SOL     OW 8089   8.038   0.213   2.708  0.2337 -0.9164  0.2821
 2202SOL    HW1 8090   8.104   0.278   2.731  0.5555 -0.7682 -1.0152
 2202SOL    HW2 8091   8.079   0.159   2.640 -1.5335  0.2167 -1.7429
 2203SOL     OW 8092   5.691   4.149   1.824 -0.3636  0.2990  0.9297
 2203SOL    HW1 8093   5.783   4.162   1.801 -0.7312  3.1308  0.9273
 2203SOL    HW2 8094   5.644   4.215   1.772 -2.4037 -1.1358  0.9071
 2204SOL     OW 8095   7.722   5.875   4.770 -0.2616 -0.4253 -0.3352
 2204SOL    HW1 8096   7.681   5.942   4.825  0.5706  0.3967 -0.6972
 2204SOL    HW2 8097   7.782   5.829   4.828  0.1027 -0.0182 -0.3919
 2205SOL     OW 8098   6.479   1.152   5.387 -0.1466 -0.1884 -0.5788
 2205SOL    HW1 8099   6.405   1.157   5.448 -0.6649 -0.9975 -1.1325
 2205SOL    HW2 8100   6.442   1.175   5.302  0.4730  0.4471 -0.6860
 2206SOL     OW 8101   5.838   1.454   0.479  0.5555  0.9911  0.4778
 2206SOL    HW1 8102   5.798   1.540   0.473 -1.6665 -0.0593 -0.4642
 2206SOL    HW2 8103   5.886   1.444   0.397 -1.0967  0.4590 -0.4638
 2207SOL     OW 8104   3.020   0.154   5.098 -0.2343 -0.0133 -0.0722
 2207SOL    HW1 8105   2.993   0.222   5.036 -0.1356  2.3356  2.3587
 2207SOL    HW2 8106   3.115   0.150   5.088 -0.4555 -1.3382 -1.7366
 2208SOL     OW 8107   0.659   5.429   5.101 -0.4124  0.2142 -0.3231
 2208SOL    HW1 8108   0.743   5.465   5.073 -0.2890  0.4967  0.3954
 2208SOL    HW2 8109   0.594   5.490   5.068 -0.2796  0.4580 -0.1362
 2209SOL     OW 8110   1.650   0.099   5.084 -0.3378  0.3438 -0.1441
 2209SOL    HW1 8111   1.590   0.154   5.034  0.2875  1.5179  0.3611
 2209SOL    HW2 8112   1.716   0.160   5.118  0.2301 -0.6819  0.6459
 2210SOL     OW 8113   2.733   4.610   3.345  0.0261 -0.6331  0.2856
 2210SOL    HW1 8114   2.818   4.582   3.381 -0.0838 -2.0235 -0.4898
 2210SOL    HW2 8115   2.673   4.540   3.371 -0.7891  0.1158  0.4098
 2211SOL     OW 8116   5.230   0.204   1.848  0.3555  0.3844 -0.7871
 2211SOL    HW1 8117   5.156   0.171   1.798  0.2724  1.2631 -1.2426
 2211SOL    HW2 8118   5.191   0.243   1.926  0.2999  1.3947 -1.3244
 2212SOL     OW 8119   0.920   4.653   3.740  0.1317  0.0411 -0.1377
 2212SOL    HW1 8120   0.902   4.620   3.652 -0.1433 -1.9613  0.6380
 2212SOL    HW2 8121   1.007   4.619   3.761  0.9273  1.9512 -0.2861
 2213SOL     OW 8122   1.857   1.493   5.204  0.0890  0.5844  0.2724
 2213SOL    HW1 8123   1.883   1.558   5.139 -0.1887  0.3956 -0.0264
 2213SOL    HW2 8124   1.911   1.417   5.186 -0.7968  0.1165 -0.4823
 2214SOL     OW 8125   1.775   1.585   0.330 -0.0557 -0.0952 -0.1540
 2214SOL    HW1 8126   1.808   1.511   0.278  2.7209  0.8628  0.2018
 2214SOL    HW2 8127   1.785   1.661   0.273 -1.2620  0.2868  0.1311
 2215SOL     OW 8128   7.929   1.729   1.863  0.5657  0.3272 -0.0740
 2215SOL    HW1 8129   7.886   1.676   1.930  1.2590  0.1936  0.2732
 2215SOL    HW2 8130   7.899   1.818   1.880  2.4095  0.6355  1.7836
 2216SOL     OW 8131   3.784   8.020   5.300  0.0358 -0.4856  0.3961
 2216SOL    HW1 8132   3.875   8.041   5.322  0.2070 -2.1132  1.3283
 2216SOL    HW2 8133   3.744   8.105   5.280  1.0130  0.5994  2.8392
 2217SOL     OW 8134   6.934   4.307   7.553  0.3191 -0.4360  0.1619
 2217SOL    HW1 8135   6.975   4.363   7.619 -1.6174  0.0931  0.9436
 2217SOL    HW2 8136   6.898   4.367   7.488  0.8115 -0.8937 -0.5400
 2218SOL     OW 8137   5.481   0.786   1.064  0.2387 -0.2338  0.2568
 2218SOL    HW1 8138   5.496   0.850   1.133  1.2507 -1.3219  1.0684
 2218SOL    HW2 8139   5.569   0.755   1.041  0.1180  1.6961 -3.0606
 2219SOL     OW 8140   4.646   3.899   1.736 -0.6436  0.2637  0.7148
 2219SOL    HW1 8141   4.558   3.879   1.704  0.0655 -0.0433 -1.0625
 2219SOL    HW2 8142   4.647   3.995   1.745 -0.7259  0.3817 -0.5398
 2220SOL     OW 8143   5.001   3.272   5.897 -0.4338  0.3530  0.0443
 2220SOL    HW1 8144   4.940   3.279   5.971  0.9420  0.1518  1.2248
 2220SOL    HW2 8145   5.031   3.181   5.899 -0.6493  0.2462 -0.9984
 2221SOL     OW 8146   1.690   4.799   3.370 -0.2465 -0.5340  0.0884
 2221SOL    HW1 8147   1.651   4.784   3.456  0.1989  0.4708  0.4744
 2221SOL    HW2 8148   1.661   4.725   3.317  1.4668 -2.4802  1.7759
 2222SOL     OW 8149   4.503   4.595   0.606 -0.6379  0.3935  0.4262
 2222SOL    HW1 8150   4.468   4.664   0.662 -0.5514  0.8157 -0.0379
 2222SOL    HW2 8151   4.426   4.554   0.567 -0.7813 -0.8153  1.9058
 2223SOL     OW 8152   0.197   7.166   2.208 -0.6060 -0.3771 -0.6358
 2223SOL    HW1 8153   0.118   7.166   2.261  0.4525 -2.5846  1.0128
 2223SOL    HW2 8154   0.177   7.109   2.134 -0.6488 -0.7007 -0.3734
 2224SOL     OW 8155   8.252   5.073   4.935  0.5529  0.1316 -0.1986
 2224SOL    HW1 8156   8.266   5.048   5.026  1.4870  1.6909  0.1069
 2224SOL    HW2 8157   8.179   5.136   4.939  0.3980 -0.0278 -0.5577
 2225SOL     OW 8158   2.481   0.416   7.591 -0.4507  0.0596 -0.3379
 2225SOL    HW1 8159   2.533   0.400   7.670  1.9677  2.5310 -1.3632
 2225SOL    HW2 8160   2.392   0.430   7.624 -0.0572 -1.9884  1.6547
 2226SOL     OW 8161   8.305   1.841   2.944 -0.1913 -0.4312  0.1191
 2226SOL    HW1 8162   8.216   1.844   2.980 -0.4788 -0.1421 -0.6158
 2226SOL    HW2 8163   8.345   1.924   2.971 -0.2015 -0.4844  0.2981
 2227SOL     OW 8164   2.106   4.195   1.411  0.3784 -0.0736 -0.2017
 2227SOL    HW1 8165   2.166   4.217   1.340  0.2992  2.6996  0.5370
 2227SOL    HW2 8166   2.018   4.203   1.373  0.3983 -1.3922 -0.5388
 2228SOL     OW 8167   2.083   3.522   3.183 -0.1216  0.1542  0.1178
 2228SOL    HW1 8168   2.045   3.435   3.171 -1.3528  0.9651 -2.3387
 2228SOL    HW2 8169   2.007   3.578   3.200  0.4252  1.0900 -0.5186
 2229SOL     OW 8170   0.245   6.404   6.540  0.0523 -0.6668  0.0567
 2229SOL    HW1 8171   0.252   6.373   6.449  1.8567 -0.0006 -0.0475
 2229SOL    HW2 8172   0.237   6.499   6.531 -1.9108 -0.7685  0.5255
 2230SOL     OW 8173   4.575   2.367   4.590 -0.3056  0.5203  0.0169
 2230SOL    HW1 8174   4.657   2.357   4.541  0.7076  1.5478  1.4513
 2230SOL    HW2 8175   4.511   2.315   4.541  1.7036 -2.1667  0.1428
 2231SOL     OW 8176   7.591   1.992   0.326 -0.0147 -0.4218 -0.2180
 2231SOL    HW1 8177   7.614   2.023   0.414  1.5276 -1.7377 -0.1336
 2231SOL    HW2 8178   7.582   2.072   0.274  3.2000  0.2839  0.1597
 2232SOL     OW 8179   5.699   0.288   2.317 -0.6313  0.1673  0.2375
 2232SOL    HW1 8180   5.689   0.292   2.222 -0.7578 -0.3388  0.2283
 2232SOL    HW2 8181   5.790   0.315   2.332 -1.6902  3.9723  0.2724
 2233SOL     OW 8182   7.679   1.771   0.521 -0.2038  0.5568  0.2317
 2233SOL    HW1 8183   7.755   1.770   0.463  0.1542  1.1413  0.6878
 2233SOL    HW2 8184   7.665   1.863   0.541 -0.4430  0.3766  0.9150
 2234SOL     OW 8185   2.465   6.960   1.381  1.2267 -0.4267 -0.5067
 2234SOL    HW1 8186   2.479   6.982   1.289 -4.4417  0.7184 -1.3079
 2234SOL    HW2 8187   2.519   7.023   1.429  2.2186  0.7064 -3.0076
 2235SOL     OW 8188   7.158   6.238   8.194  0.1641 -0.1008 -0.3169
 2235SOL    HW1 8189   7.130   6.147   8.205 -0.3092  0.1135  0.3055
 2235SOL    HW2 8190   7.252   6.237   8.214  0.2034 -0.4843 -0.5078
 2236SOL     OW 8191   7.456   2.756   3.171 -0.1579 -0.0636 -0.6814
 2236SOL    HW1 8192   7.531   2.776   3.116  1.0363 -1.7703  0.2474
 2236SOL    HW2 8193   7.473   2.667   3.202 -1.9975 -0.0387  0.4758
 2237SOL     OW 8194   0.785   3.385   1.590 -0.1937 -0.0611 -0.5164
 2237SOL    HW1 8195   0.856   3.441   1.621 -0.3108  0.0348 -0.4210
 2237SOL    HW2 8196   0.823   3.336   1.518  0.8425 -2.1630  1.4015
 2238SOL     OW 8197   1.221   2.985   4.419 -0.3208  0.6006 -0.2889
 2238SOL    HW1 8198   1.197   3.066   4.373  0.7750  0.2570 -1.5172
 2238SOL    HW2 8199   1.139   2.955   4.459 -1.7434  0.0042 -3.4853
 2239SOL     OW 8200   5.883   1.307   3.464 -0.1070  0.0046  0.1386
 2239SOL    HW1 8201   5.973   1.339   3.472 -0.3459  0.7814 -0.1890
 2239SOL    HW2 8202   5.877   1.235   3.527  0.8095 -0.1976 -0.0029
 2240SOL     OW 8203   1.697   6.388   5.219  0.4710  0.7746  0.0073
 2240SOL    HW1 8204   1.615   6.381   5.268  0.2755  2.3896 -0.0383
 2240SOL    HW2 8205   1.766   6.382   5.285  0.2911 -0.0170  0.1178
 2241SOL     OW 8206   0.426   0.489   2.164  0.0104  0.6167 -0.2656
 2241SOL    HW1 8207   0.476   0.544   2.103  0.4514  0.7819  0.2430
 2241SOL    HW2 8208   0.342   0.475   2.120  0.2152  0.9801 -0.7810
 2242SOL     OW 8209   2.835   4.681   5.046 -0.1412 -0.1458  0.0245
 2242SOL    HW1 8210   2.876   4.594   5.041 -0.9314 -0.4425 -1.5686
 2242SOL    HW2 8211   2.893   4.738   4.996 -1.1317 -0.3604 -1.3855
 2243SOL     OW 8212   5.505   5.089   5.263  0.1137 -0.2800  0.1314
 2243SOL    HW1 8213   5.488   5.062   5.172  2.2592 -1.2079 -0.0282
 2243SOL    HW2 8214   5.517   5.183   5.257 -3.1479  0.1812  0.0123
 2244SOL     OW 8215   7.984   5.685   0.886 -0.3871  0.1619 -0.2123
 2244SOL    HW1 8216   7.928   5.749   0.929  1.0108 -0.0573  2.0587
 2244SOL    HW2 8217   8.011   5.626   0.957  0.0390 -1.6905 -1.8657
 2245SOL     OW 8218   7.028   7.539   6.571  0.0968 -0.2225  0.4770
 2245SOL    HW1 8219   7.056   7.624   6.605 -1.6832 -0.8927  3.8774
 2245SOL    HW2 8220   7.109   7.492   6.553  1.1121  1.1827  1.2785
 2246SOL     OW 8221   4.781   3.407   0.263  0.8298 -0.4264 -0.3774
 2246SOL    HW1 8222   4.828   3.335   0.221 -1.6363 -1.7269 -0.9475
 2246SOL    HW2 8223   4.831   3.485   0.239  2.2363 -1.6751 -1.6277
 2247SOL     OW 8224   5.056   3.227   1.104 -0.3811  0.0660 -0.1563
 2247SOL    HW1 8225   5.126   3.262   1.048 -1.0083  0.2717 -0.8255
 2247SOL    HW2 8226   4.975   3.260   1.064 -0.8454  0.1250  0.8144
 2248SOL     OW 8227   4.214   1.873   2.559 -0.7303 -0.1355  0.0041
 2248SOL    HW1 8228   4.265   1.792   2.552 -0.2728 -0.0257  1.9245
 2248SOL    HW2 8229   4.263   1.927   2.621 -0.9090  1.7187 -1.4239
 2249SOL     OW 8230   1.976   0.507   5.422  0.9236  0.1166 -0.3230
 2249SOL    HW1 8231   2.050   0.532   5.367 -0.0756 -0.1605 -1.8257
 2249SOL    HW2 8232   1.907   0.485   5.360  0.4496 -2.2948  1.0154
 2250SOL     OW 8233   3.195   4.182   6.573 -0.3147  0.2118  0.1145
 2250SOL    HW1 8234   3.184   4.097   6.531 -2.5514 -0.0808  1.1752
 2250SOL    HW2 8235   3.285   4.207   6.555  0.3779 -2.3915 -0.2132
 2251SOL     OW 8236   5.552   0.216   4.411  0.3071  0.5990 -0.2035
 2251SOL    HW1 8237   5.486   0.284   4.395  0.1997  1.1302  2.2143
 2251SOL    HW2 8238   5.505   0.134   4.398 -0.3328  0.9891 -0.4054
 2252SOL     OW 8239   5.898   5.669   2.472 -0.3075 -0.6547  0.3332
 2252SOL    HW1 8240   5.852   5.752   2.458 -0.6484 -0.6895  1.2196
 2252SOL    HW2 8241   5.989   5.694   2.484 -0.2631 -0.4889 -0.3143
 2253SOL     OW 8242   8.203   1.216   8.048  0.1009  0.2260 -0.2367
 2253SOL    HW1 8243   8.206   1.141   7.988  1.5099  0.3404 -0.3430
 2253SOL    HW2 8244   8.292   1.220   8.084 -0.5062  0.6501  1.2568
 2254SOL     OW 8245   3.035   4.031   2.532 -0.4348 -0.9503 -0.3547
 2254SOL    HW1 8246   3.050   4.068   2.445 -1.0600 -1.3353 -0.6337
 2254SOL    HW2 8247   3.079   3.946   2.530 -1.3568 -1.4310 -0.6687
 2255SOL     OW 8248   1.769   1.920   1.583 -0.4327 -0.1021 -0.0843
 2255SOL    HW1 8249   1.796   1.997   1.632 -1.1512  0.2509 -0.2235
 2255SOL    HW2 8250   1.780   1.846   1.643 -0.3555  0.1985  0.2672
 2256SOL     OW 8251   4.994   8.182   6.724 -0.4127  0.6628  0.0387
 2256SOL    HW1 8252   4.922   8.127   6.756 -0.3946 -0.2247 -1.3782
 2256SOL    HW2 8253   5.073   8.131   6.743 -0.4092  0.0756 -1.4587
 2257SOL     OW 8254   4.409   2.741   4.022 -0.0171  0.2785  0.1811
 2257SOL    HW1 8255   4.318   2.737   3.992 -0.1350 -1.7246  0.7319
 2257SOL    HW2 8256   4.429   2.835   4.026 -1.9735  0.7354 -0.1691
 2258SOL     OW 8257   7.981   2.574   7.765 -0.0573  0.1219  0.7598
 2258SOL    HW1 8258   8.037   2.617   7.830 -0.7132  0.6150  1.0060
 2258SOL    HW2 8259   7.908   2.540   7.817  0.0729 -0.6274  0.4593
 2259SOL     OW 8260   6.693   0.959   0.056 -0.0908 -0.3110 -0.0270
 2259SOL    HW1 8261   6.723   0.869   0.072 -0.1708 -0.2852  0.2533
 2259SOL    HW2 8262   6.766   1.014   0.083  0.1846 -0.3130 -0.7418
 2260SOL     OW 8263   2.566   4.697   5.829  0.5215 -0.1019 -0.2537
 2260SOL    HW1 8264   2.491   4.752   5.849  0.9750  0.0352  1.1262
 2260SOL    HW2 8265   2.640   4.757   5.824  0.7011 -0.3523 -0.6455
 2261SOL     OW 8266   1.087   2.098   3.432  0.4451  0.0392 -0.3105
 2261SOL    HW1 8267   1.178   2.092   3.462  0.7573 -0.5232 -1.3398
 2261SOL    HW2 8268   1.093   2.140   3.347 -0.0882 -1.5197 -1.1380
 2262SOL     OW 8269   7.469   0.229   3.248  0.0182 -0.7777 -0.0278
 2262SOL    HW1 8270   7.499   0.150   3.203  0.3493 -0.1753 -0.8684
 2262SOL    HW2 8271   7.451   0.200   3.337  2.1523 -1.3720  0.2419
 2263SOL     OW 8272   1.753   1.614   4.439 -0.1262  0.0352 -0.4040
 2263SOL    HW1 8273   1.698   1.685   4.405 -1.5628 -0.5162  0.6875
 2263SOL    HW2 8274   1.831   1.614   4.384 -0.0255  2.5814 -0.2998
 2264SOL     OW 8275   1.598   4.205   6.601 -0.6015  0.3197 -0.3426
 2264SOL    HW1 8276   1.635   4.140   6.660 -1.4598 -0.9963 -1.2205
 2264SOL    HW2 8277   1.562   4.272   6.659  2.4832  1.2779  0.5201
 2265SOL     OW 8278   4.507   7.806   2.030 -0.3186  0.1860  0.1883
 2265SOL    HW1 8279   4.536   7.772   2.115  0.5171  1.7247  0.5346
 2265SOL    HW2 8280   4.558   7.886   2.018 -0.2543 -0.1552 -1.8871
 2266SOL     OW 8281   0.069   3.782   6.739 -0.0695  0.8513  0.7934
 2266SOL    HW1 8282   0.160   3.804   6.718  1.1344 -1.1193  3.5258
 2266SOL    HW2 8283   0.044   3.847   6.805 -0.6234  1.3745  0.0636
 2267SOL     OW 8284   1.254   1.266   7.186 -0.0130 -0.8792 -0.0254
 2267SOL    HW1 8285   1.209   1.346   7.212 -1.6184 -1.7079 -0.1984
 2267SOL    HW2 8286   1.191   1.219   7.133  1.0328 -2.1145 -0.1968
 2268SOL     OW 8287   3.554   2.809   6.640  0.5429  0.1235  0.0040
 2268SOL    HW1 8288   3.589   2.732   6.685  0.2883  1.0904  1.8986
 2268SOL    HW2 8289   3.628   2.843   6.591  1.3153  0.0935  1.1331
 2269SOL     OW 8290   3.687   4.242   0.303  0.0712 -0.0190  0.1161
 2269SOL    HW1 8291   3.706   4.288   0.385 -1.9454 -0.9184  1.1217
 2269SOL    HW2 8292   3.635   4.304   0.253  1.2282  0.4965 -0.4721
 2270SOL     OW 8293   0.035   8.133   6.311 -0.2663  0.0964  0.0867
 2270SOL    HW1 8294  -0.040   8.122   6.370 -1.7636 -1.5275 -2.0566
 2270SOL    HW2 8295   0.011   8.205   6.253 -0.4616 -0.8473 -1.0211
 2271SOL     OW 8296   3.974   3.887   4.042 -0.0462  0.5340  0.0193
 2271SOL    HW1 8297   3.974   3.893   4.137 -0.3211  0.2546  0.0400
 2271SOL    HW2 8298   3.885   3.858   4.020 -0.0745  0.8984 -0.3402
 2272SOL     OW 8299   2.051   0.656   4.842  0.2781  0.3185  0.3892
 2272SOL    HW1 8300   2.096   0.658   4.757  1.7524  2.8494  1.1643
 2272SOL    HW2 8301   2.103   0.597   4.895  0.7892  0.6594  0.2714
 2273SOL     OW 8302   4.301   1.545   1.734  0.0170 -0.2167 -0.0724
 2273SOL    HW1 8303   4.349   1.606   1.790  0.3332 -0.5812  0.0549
 2273SOL    HW2 8304   4.260   1.601   1.668 -0.6814  0.2563  0.7504
 2274SOL     OW 8305   4.167   6.621   4.938  0.1480 -0.0602 -0.0810
 2274SOL    HW1 8306   4.123   6.669   5.008 -0.4825  0.0290 -0.5286
 2274SOL    HW2 8307   4.097   6.600   4.876  0.0684 -3.2513  1.0213
 2275SOL     OW 8308   1.927   0.848   4.437  0.0991 -0.3172 -0.6089
 2275SOL    HW1 8309   2.003   0.862   4.380 -0.7657 -0.9457 -1.9602
 2275SOL    HW2 8310   1.862   0.808   4.379 -1.5837  1.0501  0.2917
 2276SOL     OW 8311   6.717   6.586   2.484  0.1193 -0.8368 -0.1366
 2276SOL    HW1 8312   6.792   6.565   2.428  0.2235 -0.3046 -0.1979
 2276SOL    HW2 8313   6.653   6.518   2.464 -0.4350  0.2091 -2.0515
 2277SOL     OW 8314   3.010   2.548   1.934 -0.1282  0.4701 -0.0395
 2277SOL    HW1 8315   2.987   2.466   1.889 -1.5398  1.5552 -1.3218
 2277SOL    HW2 8316   2.936   2.564   1.993 -0.8134  1.8849 -1.2726
 2278SOL     OW 8317   7.128   4.895   5.718  0.2987  0.3165 -0.3450
 2278SOL    HW1 8318   7.157   4.831   5.652  0.1131 -1.2097  1.0202
 2278SOL    HW2 8319   7.106   4.842   5.794  0.1086  2.0374  0.8175
 2279SOL     OW 8320   7.813   6.905   3.965  0.2440 -0.2439 -0.2666
 2279SOL    HW1 8321   7.837   6.836   4.027  0.4077 -1.3222 -1.4945
 2279SOL    HW2 8322   7.732   6.942   4.001 -0.3636 -1.7161 -0.0607
 2280SOL     OW 8323   3.050   5.332   5.300 -0.6075  0.1122  0.1511
 2280SOL    HW1 8324   3.045   5.237   5.291 -2.6485  0.1834  0.4016
 2280SOL    HW2 8325   3.014   5.351   5.386 -0.6713  1.1658 -0.0928
 2281SOL     OW 8326   4.128   6.903   0.112 -0.5761 -0.1817 -0.4202
 2281SOL    HW1 8327   4.083   6.891   0.028 -1.0748  2.4649 -0.5999
 2281SOL    HW2 8328   4.187   6.977   0.096  2.1233 -2.0726  0.5078
 2282SOL     OW 8329   4.267   2.910   5.295  0.0992 -0.1048 -0.5799
 2282SOL    HW1 8330   4.310   2.982   5.340  1.5160 -0.2127 -1.7372
 2282SOL    HW2 8331   4.192   2.888   5.351  2.7855 -1.4184  2.6389
 2283SOL     OW 8332   1.038   4.305   0.812 -0.5757 -0.1199  0.1916
 2283SOL    HW1 8333   1.092   4.363   0.757  0.7303 -1.0708  0.4433
 2283SOL    HW2 8334   0.951   4.309   0.772 -0.2741  1.2591 -0.3679
 2284SOL     OW 8335   2.479   5.761   6.068  0.3428  0.4876 -0.0435
 2284SOL    HW1 8336   2.437   5.838   6.106  2.1023  1.2358  0.4373
 2284SOL    HW2 8337   2.515   5.714   6.143  0.4862 -0.0624 -0.4558
 2285SOL     OW 8338   5.182   7.528   3.179 -0.3230 -0.1341  0.1951
 2285SOL    HW1 8339   5.220   7.484   3.255  0.5525  1.3830  0.6544
 2285SOL    HW2 8340   5.181   7.621   3.203  0.0200  0.3745 -1.6708
 2286SOL     OW 8341   1.489   5.605   6.757  0.6675  0.3836 -0.4226
 2286SOL    HW1 8342   1.548   5.669   6.796  0.1733  0.7435 -0.2795
 2286SOL    HW2 8343   1.404   5.621   6.797 -0.1534  1.6043 -2.5742
 2287SOL     OW 8344   6.331   4.439   5.017 -0.2660 -0.1841  0.2588
 2287SOL    HW1 8345   6.239   4.458   4.998 -0.2424 -0.7049 -0.3744
 2287SOL    HW2 8346   6.348   4.355   4.975  0.5049 -0.0809  0.3544
 2288SOL     OW 8347   4.764   1.596   6.234 -0.1558  0.5972  0.2984
 2288SOL    HW1 8348   4.691   1.657   6.248 -0.2012  0.3820  1.0433
 2288SOL    HW2 8349   4.796   1.617   6.147 -2.2117 -0.4670 -0.7428
 2289SOL     OW 8350   0.886   1.905   1.532 -0.3251 -0.1102 -0.7915
 2289SOL    HW1 8351   0.823   1.833   1.533 -0.2566 -0.2445 -2.9163
 2289SOL    HW2 8352   0.971   1.861   1.524 -0.2703  0.1749 -1.8793
 2290SOL     OW 8353   1.635   4.613   4.937  0.8573 -0.1051  0.1748
 2290SOL    HW1 8354   1.558   4.556   4.939  0.8289 -0.0629  0.2689
 2290SOL    HW2 8355   1.600   4.701   4.926  0.8999 -0.1007  0.0647
 2291SOL     OW 8356   4.399   3.378   1.059 -0.4436  0.4940 -0.7521
 2291SOL    HW1 8357   4.432   3.289   1.073 -0.3844  0.0251 -3.5779
 2291SOL    HW2 8358   4.474   3.434   1.074 -0.0775 -0.0636 -0.4910
 2292SOL     OW 8359   3.113   2.498   7.401  0.2415  1.1244  0.4905
 2292SOL    HW1 8360   3.195   2.540   7.378  0.1069  0.6292 -0.9514
 2292SOL    HW2 8361   3.077   2.468   7.317  0.1950 -1.5951  1.4423
 2293SOL     OW 8362   2.204   0.432   7.620 -0.1168 -0.4329  0.4738
 2293SOL    HW1 8363   2.173   0.377   7.548 -2.2919  1.4256 -0.0794
 2293SOL    HW2 8364   2.169   0.390   7.699 -3.0324  0.9109 -0.0490
 2294SOL     OW 8365   1.367   0.994   4.631 -1.0420 -0.1993 -0.4280
 2294SOL    HW1 8366   1.274   0.974   4.642 -1.2937  0.6798 -0.9042
 2294SOL    HW2 8367   1.388   0.961   4.543 -0.1298 -3.1778  0.8249
 2295SOL     OW 8368   1.309   8.179   2.938 -1.0462  0.2048 -0.2486
 2295SOL    HW1 8369   1.263   8.109   2.892  0.4545 -0.4530 -0.8068
 2295SOL    HW2 8370   1.252   8.203   3.011 -2.9549  0.4998 -1.8094
 2296SOL     OW 8371   6.557   6.338   3.930  0.0858 -0.4951  0.5706
 2296SOL    HW1 8372   6.507   6.275   3.879  0.4043  1.1000 -1.8393
 2296SOL    HW2 8373   6.626   6.367   3.870  0.4517  1.4822  1.9061
 2297SOL     OW 8374   2.396   4.299   3.319  0.0491  0.3030  0.5291
 2297SOL    HW1 8375   2.491   4.285   3.321  0.1321  0.4859 -1.2615
 2297SOL    HW2 8376   2.384   4.384   3.361  0.5861 -0.1016  1.5313
 2298SOL     OW 8377   6.985   3.784   8.266  0.7067 -0.6633  0.2315
 2298SOL    HW1 8378   7.062   3.832   8.236 -0.8068  1.4429 -0.4112
 2298SOL    HW2 8379   6.980   3.803   8.360  0.4461 -0.0380  0.0923
 2299SOL     OW 8380   2.091   0.993   5.932  0.7588  0.0006  0.0549
 2299SOL    HW1 8381   2.085   1.047   6.011  0.3895 -0.6386  0.4650
 2299SOL    HW2 8382   2.128   0.910   5.963  0.8446 -0.1645 -0.4895
 2300SOL     OW 8383   7.819   3.574   4.001 -0.4443 -0.0883  0.2733
 2300SOL    HW1 8384   7.839   3.636   3.931  0.6360 -2.2810 -1.4080
 2300SOL    HW2 8385   7.753   3.516   3.964  0.0146 -1.1674  1.1203
 2301SOL     OW 8386   7.412   6.688   1.433 -0.1301  0.8064 -0.0260
 2301SOL    HW1 8387   7.496   6.642   1.430 -0.1639  0.8079 -1.3638
 2301SOL    HW2 8388   7.421   6.750   1.505  1.6532  1.9860 -1.2225
 2302SOL     OW 8389   1.010   1.088   3.012  0.3895 -0.0398 -0.2600
 2302SOL    HW1 8390   1.089   1.034   3.015 -0.3852 -1.1626  3.0626
 2302SOL    HW2 8391   0.995   1.113   3.104 -1.3766  2.7427 -1.2314
 2303SOL     OW 8392   6.307   4.071   2.625  0.6074  0.2867  0.5755
 2303SOL    HW1 8393   6.319   4.135   2.554  1.6693  0.4166  0.8715
 2303SOL    HW2 8394   6.391   4.069   2.671  0.6317 -1.4280  0.4958
 2304SOL     OW 8395   6.105   6.910   0.089 -0.2142 -0.4290 -0.1419
 2304SOL    HW1 8396   6.152   6.928   0.008 -0.1567 -1.1957 -0.2847
 2304SOL    HW2 8397   6.171   6.916   0.158 -0.4920  1.3759 -0.0127
 2305SOL     OW 8398   6.443   0.605   0.736  0.1466  0.3084 -0.1232
 2305SOL    HW1 8399   6.507   0.608   0.665 -0.9135  0.1895 -1.1189
 2305SOL    HW2 8400   6.478   0.662   0.804  3.1904 -2.7159  0.9729
 2306SOL     OW 8401   1.099   0.376   6.822  0.4100  0.6744  0.4910
 2306SOL    HW1 8402   1.135   0.375   6.910  0.0866 -1.3106  0.6226
 2306SOL    HW2 8403   1.168   0.340   6.766  0.4288  1.4429  0.0070
 2307SOL     OW 8404   1.395   2.053   5.490  0.7708  0.0145  0.0375
 2307SOL    HW1 8405   1.450   2.046   5.412 -0.0132  0.5234 -0.5755
 2307SOL    HW2 8406   1.454   2.036   5.563  1.5686 -0.2274 -0.6549
 2308SOL     OW 8407   0.181   3.862   1.887  0.0209 -0.1326  0.1141
 2308SOL    HW1 8408   0.181   3.932   1.821  1.8794 -0.3309 -0.1259
 2308SOL    HW2 8409   0.247   3.888   1.950 -1.2977 -0.2743  1.5872
 2309SOL     OW 8410   3.525   0.252   2.753  0.5616 -0.1203 -0.1118
 2309SOL    HW1 8411   3.619   0.265   2.768  0.0948  4.0829 -0.3566
 2309SOL    HW2 8412   3.483   0.278   2.835 -0.5054 -0.0912 -0.6558
 2310SOL     OW 8413   1.218   3.512   5.884  0.3955  0.8316  0.1619
 2310SOL    HW1 8414   1.189   3.475   5.967  2.4738  3.1999  2.0399
 2310SOL    HW2 8415   1.173   3.596   5.879  1.6196  1.4796 -0.2178
 2311SOL     OW 8416   0.859   2.740   7.873  0.3401  0.1780  0.0004
 2311SOL    HW1 8417   0.945   2.777   7.855  0.3563 -0.1388 -0.5888
 2311SOL    HW2 8418   0.869   2.646   7.857 -0.9066  0.5357 -3.1249
 2312SOL     OW 8419   6.928   5.058   3.118 -0.2600 -0.1831 -0.2441
 2312SOL    HW1 8420   6.872   4.987   3.087 -0.0037  0.1252 -1.4606
 2312SOL    HW2 8421   7.008   5.051   3.065 -0.0273  0.6931 -0.0309
 2313SOL     OW 8422   6.349   0.598   2.960 -0.2059  0.1602  0.3670
 2313SOL    HW1 8423   6.326   0.686   2.988 -3.4220 -0.8742  1.2577
 2313SOL    HW2 8424   6.312   0.541   3.029  2.7478 -1.8261  0.3764
 2314SOL     OW 8425   2.625   5.804   5.836 -0.0688  0.1629 -0.2337
 2314SOL    HW1 8426   2.623   5.899   5.821 -0.0882  0.0726 -0.8416
 2314SOL    HW2 8427   2.573   5.790   5.914  0.0483  0.6723 -0.0655
 2315SOL     OW 8428   2.330   3.935   5.708  0.0156  0.0321  0.4788
 2315SOL    HW1 8429   2.419   3.900   5.703  0.2368  0.9154 -2.9206
 2315SOL    HW2 8430   2.338   4.015   5.761  1.4344  0.5819 -0.5424
 2316SOL     OW 8431   4.193   7.885   4.263  0.8392 -0.0071 -0.0541
 2316SOL    HW1 8432   4.255   7.825   4.221  1.6677  0.0088  1.1172
 2316SOL    HW2 8433   4.202   7.866   4.357 -0.0864  0.8145  0.2046
 2317SOL     OW 8434   3.095   0.503   1.852 -0.3848  0.0079  0.2799
 2317SOL    HW1 8435   3.000   0.503   1.864 -0.3877 -0.6919  0.2695
 2317SOL    HW2 8436   3.129   0.539   1.934 -0.7397  2.1866 -0.4875
 2318SOL     OW 8437   2.471   6.036   1.103  0.0486  0.4238 -0.1479
 2318SOL    HW1 8438   2.511   6.029   1.017 -0.3747  0.8981 -0.3841
 2318SOL    HW2 8439   2.514   6.111   1.144  0.4982 -0.0123  0.1915
 2319SOL     OW 8440   1.250   2.225   8.035  0.2489 -0.2920 -0.4105
 2319SOL    HW1 8441   1.208   2.290   8.092  1.7555 -0.1154  0.5088
 2319SOL    HW2 8442   1.203   2.233   7.952 -0.9259  0.5539  0.3153
 2320SOL     OW 8443   4.657   6.651   4.626  0.4214 -0.3163  0.0324
 2320SOL    HW1 8444   4.581   6.671   4.680  0.4507  0.1028 -0.0744
 2320SOL    HW2 8445   4.731   6.655   4.687  0.4278 -0.0906  0.0100
 2321SOL     OW 8446   1.706   3.337   3.761 -0.3022  0.2913 -0.0755
 2321SOL    HW1 8447   1.694   3.432   3.770  1.6559  0.5230  0.5405
 2321SOL    HW2 8448   1.769   3.328   3.690  0.0640 -0.5046  0.3476
 2322SOL     OW 8449   3.747   3.332   1.779 -0.0093 -0.2964  0.0513
 2322SOL    HW1 8450   3.744   3.236   1.787 -0.3950 -0.1438  2.2531
 2322SOL    HW2 8451   3.803   3.360   1.851 -1.5627  1.2493  0.6992
 2323SOL     OW 8452   1.772   8.306   5.380 -0.3004 -0.5280 -0.4416
 2323SOL    HW1 8453   1.695   8.282   5.329 -0.6655  2.6724 -1.5263
 2323SOL    HW2 8454   1.736   8.337   5.464 -0.3928  2.3897 -1.4953
 2324SOL     OW 8455   5.790   0.147   4.257  0.5512  0.4176 -0.1469
 2324SOL    HW1 8456   5.711   0.158   4.310 -0.1483 -1.2927 -0.8062
 2324SOL    HW2 8457   5.855   0.112   4.319  1.0105  2.4403  0.5455
 2325SOL     OW 8458   7.944   7.038   3.678 -0.3499  0.0481  0.2173
 2325SOL    HW1 8459   7.957   6.943   3.680  0.4842  0.1399 -0.8150
 2325SOL    HW2 8460   7.894   7.056   3.758 -1.3282 -1.3713 -0.0480
 2326SOL     OW 8461   3.186   4.563   5.779 -0.0075 -0.2538  0.2001
 2326SOL    HW1 8462   3.137   4.506   5.837 -0.8824 -0.0671 -0.3360
 2326SOL    HW2 8463   3.126   4.580   5.706  0.2013  1.4025  0.3942
 2327SOL     OW 8464   6.859   2.196   5.251  0.0533  0.1444 -0.1634
 2327SOL    HW1 8465   6.852   2.290   5.270 -0.6292 -0.1107  0.9577
 2327SOL    HW2 8466   6.941   2.186   5.203  1.1148  1.0587  1.4352
 2328SOL     OW 8467   5.141   5.052   3.991  0.0352  0.6539  0.0310
 2328SOL    HW1 8468   5.118   5.047   3.898 -0.1346 -0.1441  0.1126
 2328SOL    HW2 8469   5.071   5.004   4.036  0.9049 -0.2540  0.4365
 2329SOL     OW 8470   1.199   0.507   4.240 -0.3808 -0.0903  0.8639
 2329SOL    HW1 8471   1.144   0.512   4.318  0.1254  0.5822  1.1791
 2329SOL    HW2 8472   1.144   0.542   4.170 -1.3987 -2.1333  0.5965
 2330SOL     OW 8473   6.592   7.965   2.939  0.0746 -0.4814  0.2892
 2330SOL    HW1 8474   6.619   8.018   2.864 -0.4984 -0.2576  0.2429
 2330SOL    HW2 8475   6.629   7.878   2.922  1.0205 -0.1045  0.3615
 2331SOL     OW 8476   7.790   3.768   6.948 -0.3647 -0.1784 -0.4674
 2331SOL    HW1 8477   7.797   3.731   6.860  0.8967  1.1588 -0.9692
 2331SOL    HW2 8478   7.806   3.862   6.935 -2.8474  0.4488  0.8393
 2332SOL     OW 8479   7.491   0.365   7.691  0.1939 -0.1985  0.2036
 2332SOL    HW1 8480   7.481   0.387   7.598 -0.7208 -1.2463  0.0336
 2332SOL    HW2 8481   7.473   0.270   7.695 -0.7180  0.0115  1.5699
 2333SOL     OW 8482   3.769   1.171   1.839 -0.2498 -0.0443  0.4123
 2333SOL    HW1 8483   3.708   1.099   1.820 -0.1655  0.6643 -2.7994
 2333SOL    HW2 8484   3.855   1.132   1.825 -0.1365  0.2134  0.4058
 2334SOL     OW 8485   1.823   2.339   4.444  0.4847  0.2694  0.2076
 2334SOL    HW1 8486   1.886   2.410   4.439  0.8172 -0.0079  0.4402
 2334SOL    HW2 8487   1.876   2.261   4.458  0.0675  0.0801  0.7494
 2335SOL     OW 8488   7.775   1.536   5.617 -0.0967  0.2170  0.1377
 2335SOL    HW1 8489   7.745   1.621   5.650 -0.8417  0.1624 -0.3764
 2335SOL    HW2 8490   7.855   1.556   5.569 -1.0930  0.8864 -1.3180
 2336SOL     OW 8491   0.802   0.185   2.702 -0.1042 -0.4154 -0.5411
 2336SOL    HW1 8492   0.884   0.151   2.738 -0.1592  0.3093  0.2590
 2336SOL    HW2 8493   0.775   0.119   2.637  0.0651 -1.6511  0.6322
 2337SOL     OW 8494   5.937   4.421   4.184 -0.0849 -0.1755  0.2532
 2337SOL    HW1 8495   6.016   4.378   4.219  0.1062 -0.5113 -0.5760
 2337SOL    HW2 8496   5.971   4.492   4.129 -0.3702 -0.1221  0.1467
 2338SOL     OW 8497   6.721   3.069   6.106  0.2401 -0.1217  0.4791
 2338SOL    HW1 8498   6.683   3.155   6.091  0.7940  0.3459  1.7305
 2338SOL    HW2 8499   6.656   3.023   6.160  0.1665 -0.3307  0.2174
 2339SOL     OW 8500   6.787   2.425   4.043  0.0040  0.6367  0.4957
 2339SOL    HW1 8501   6.711   2.431   3.985 -0.6972 -0.3331  1.2960
 2339SOL    HW2 8502   6.754   2.457   4.127  0.5969  0.5902  0.7437
 2340SOL     OW 8503   4.803   2.339   4.433  0.2305  0.0063 -0.5576
 2340SOL    HW1 8504   4.849   2.334   4.350  0.5998 -1.0126 -0.2912
 2340SOL    HW2 8505   4.858   2.291   4.495 -0.6869 -0.3723 -0.0197
 2341SOL     OW 8506   0.976   6.102   0.917  0.4331  0.2824 -0.5693
 2341SOL    HW1 8507   1.061   6.146   0.918  1.2596 -1.2689 -0.1102
 2341SOL    HW2 8508   0.966   6.074   0.826  0.4750  0.3570 -0.5974
 2342SOL     OW 8509   0.485   7.990   4.614  0.0506  0.0257 -0.5604
 2342SOL    HW1 8510   0.445   7.983   4.527  0.6465 -1.5762 -0.7202
 2342SOL    HW2 8511   0.468   8.080   4.641 -1.4353  0.0944 -1.6994
 2343SOL     OW 8512   5.802   5.186   3.092 -0.3128  0.0551  0.3656
 2343SOL    HW1 8513   5.823   5.179   2.999 -0.1306 -0.3802  0.4394
 2343SOL    HW2 8514   5.720   5.235   3.094  0.1490  0.8675  0.0210
 2344SOL     OW 8515   1.843   5.137   2.550  0.1142  0.5435  0.2290
 2344SOL    HW1 8516   1.906   5.090   2.605  0.7422  2.3359  1.0868
 2344SOL    HW2 8517   1.847   5.092   2.466  0.8321 -0.8057  0.9653
 2345SOL     OW 8518   2.251   7.640   5.284 -0.3116  0.5558 -0.4441
 2345SOL    HW1 8519   2.316   7.584   5.327 -0.9779  0.4239  0.3899
 2345SOL    HW2 8520   2.169   7.593   5.294 -0.3171 -0.0550 -2.8783
 2346SOL     OW 8521   5.614   2.874   1.800  0.3161  0.2094  0.1841
 2346SOL    HW1 8522   5.557   2.888   1.724 -1.4298 -0.6283  1.3080
 2346SOL    HW2 8523   5.693   2.924   1.780 -0.9010  1.5988 -1.3037
 2347SOL     OW 8524   4.109   6.698   1.609 -0.8340  0.5518  0.1138
 2347SOL    HW1 8525   4.088   6.786   1.639 -2.5299  0.1268  0.2290
 2347SOL    HW2 8526   4.063   6.690   1.525  0.5206  0.2876 -0.6196
 2348SOL     OW 8527   4.865   3.798   4.155 -0.0898 -0.1582  0.0466
 2348SOL    HW1 8528   4.947   3.747   4.149  0.2355  0.4925 -1.2512
 2348SOL    HW2 8529   4.876   3.852   4.233  0.0701 -1.1811  0.7520
 2349SOL     OW 8530   5.497   3.985   4.329 -0.8505  0.1770  0.3717
 2349SOL    HW1 8531   5.592   3.995   4.340 -1.0362  0.7656  1.4760
 2349SOL    HW2 8532   5.487   3.898   4.290  0.0506 -0.5347  1.6926
 2350SOL     OW 8533   5.794   1.363   6.804 -0.0794 -0.5494 -0.0543
 2350SOL    HW1 8534   5.838   1.337   6.724  1.9156 -1.6304  1.3600
 2350SOL    HW2 8535   5.783   1.282   6.853 -1.0497  0.1298  0.8757
 2351SOL     OW 8536   4.677   0.526   1.359 -0.0812  0.6859  0.6669
 2351SOL    HW1 8537   4.617   0.583   1.311 -0.1891  0.8961  1.0485
 2351SOL    HW2 8538   4.622   0.455   1.391  0.4027 -0.7371 -1.5263
 2352SOL     OW 8539   5.439   3.124   6.534 -0.1497  0.3018  0.1079
 2352SOL    HW1 8540   5.504   3.186   6.500  0.1115  0.0944  0.2297
 2352SOL    HW2 8541   5.450   3.046   6.480 -1.6531  0.9716 -1.1741
 2353SOL     OW 8542   8.038   4.869   7.202 -0.2894  0.3382  0.5497
 2353SOL    HW1 8543   8.007   4.926   7.131 -0.7906 -0.5383  0.0635
 2353SOL    HW2 8544   7.983   4.792   7.197  0.7182 -0.4164  0.9018
 2354SOL     OW 8545   5.075   2.605   2.512  0.9633 -0.2289  0.2360
 2354SOL    HW1 8546   5.022   2.667   2.563 -1.9611 -1.6865 -0.9162
 2354SOL    HW2 8547   5.114   2.547   2.578 -0.5707 -0.4092  1.0201
 2355SOL     OW 8548   4.082   2.127   6.598  0.4705  0.2947 -0.1762
 2355SOL    HW1 8549   3.987   2.118   6.602  0.3630  0.3325 -2.0565
 2355SOL    HW2 8550   4.108   2.155   6.686 -1.1533 -0.5850  0.5844
 2356SOL     OW 8551   7.595   7.127   2.709 -0.4053 -0.2788  0.4172
 2356SOL    HW1 8552   7.621   7.121   2.617 -0.4584  1.4616  0.2699
 2356SOL    HW2 8553   7.519   7.186   2.709 -0.7056 -0.6561  1.5124
 2357SOL     OW 8554   3.923   3.178   5.032 -0.3525 -0.0690 -0.0087
 2357SOL    HW1 8555   3.904   3.102   5.088 -0.4286 -0.8811 -1.1216
 2357SOL    HW2 8556   3.838   3.201   4.995 -0.4103  0.8583  0.6820
 2358SOL     OW 8557   2.766   3.210   7.616  0.3006 -0.3573  0.3870
 2358SOL    HW1 8558   2.704   3.280   7.593 -1.1377 -1.2639  1.3746
 2358SOL    HW2 8559   2.823   3.249   7.682  1.1112  0.6459 -0.9014
 2359SOL     OW 8560   3.553   8.085   1.219 -0.0201 -0.4506 -0.3647
 2359SOL    HW1 8561   3.518   7.996   1.208  0.0530 -0.5702  0.3394
 2359SOL    HW2 8562   3.578   8.112   1.131 -1.3049 -0.6060 -0.7828
 2360SOL     OW 8563   0.279   4.018   4.942 -0.7247  0.2412  0.0379
 2360SOL    HW1 8564   0.242   4.105   4.954 -0.3883  0.4358 -0.2832
 2360SOL    HW2 8565   0.249   3.967   5.017 -0.1601  0.8992  0.7077
 2361SOL     OW 8566   4.479   6.893   3.892 -0.0093 -0.4187 -0.2245
 2361SOL    HW1 8567   4.496   6.985   3.872 -0.4844 -0.4639 -0.8582
 2361SOL    HW2 8568   4.561   6.848   3.867  0.3205 -0.1337  0.3456
 2362SOL     OW 8569   6.424   3.741   7.119 -0.7968  0.0623 -0.4622
 2362SOL    HW1 8570   6.416   3.646   7.116 -1.6779  0.0569  1.4109
 2362SOL    HW2 8571   6.423   3.763   7.212  0.8845  1.7976 -0.8254
 2363SOL     OW 8572   1.508   8.034   7.993  1.1095  0.1588  0.0560
 2363SOL    HW1 8573   1.539   7.944   8.007 -1.6922 -0.9201 -0.4125
 2363SOL    HW2 8574   1.539   8.055   7.905 -0.1662 -1.2296 -0.7574
 2364SOL     OW 8575   3.340   5.991   1.882 -0.2587  0.0631  0.1149
 2364SOL    HW1 8576   3.406   6.049   1.842  2.6783 -1.6099  2.3364
 2364SOL    HW2 8577   3.358   5.905   1.843 -2.4679 -0.0262 -0.7394
 2365SOL     OW 8578   6.985   4.341   2.116 -0.0512  0.6502 -0.1389
 2365SOL    HW1 8579   7.025   4.417   2.158 -0.2581  0.9993 -0.5708
 2365SOL    HW2 8580   6.985   4.363   2.022  0.6088 -0.2035 -0.3540
 2366SOL     OW 8581   0.492   5.765   7.866  0.0155  0.3305  0.2821
 2366SOL    HW1 8582   0.488   5.680   7.910  1.4990  0.0924 -0.0146
 2366SOL    HW2 8583   0.532   5.824   7.930  2.5325 -0.1042 -0.8207
 2367SOL     OW 8584   0.026   4.702   1.877  0.0574  0.3063 -0.4949
 2367SOL    HW1 8585   0.048   4.645   1.951 -1.4525 -0.8111 -0.8881
 2367SOL    HW2 8586  -0.038   4.764   1.913  0.6751  0.9021 -0.4150
 2368SOL     OW 8587   1.593   7.050   6.252 -0.3389 -0.1688 -0.2398
 2368SOL    HW1 8588   1.609   7.078   6.342  1.6361  0.6766 -0.8429
 2368SOL    HW2 8589   1.676   7.010   6.223 -1.1469 -1.0161 -1.4733
 2369SOL     OW 8590   1.712   3.966   0.913  0.1095 -0.7888 -0.0654
 2369SOL    HW1 8591   1.778   3.896   0.908 -1.7023 -2.6596  1.6540
 2369SOL    HW2 8592   1.663   3.959   0.831  0.9748 -0.4387 -0.6256
 2370SOL     OW 8593   1.900   2.959   1.761 -0.9423  0.2833  0.0931
 2370SOL    HW1 8594   1.821   2.926   1.718 -0.7931 -0.3606  0.3083
 2370SOL    HW2 8595   1.962   2.972   1.689 -0.7293 -0.6890  0.0883
 2371SOL     OW 8596   5.280   4.060   7.623  0.5065 -0.5279 -0.4681
 2371SOL    HW1 8597   5.296   4.023   7.535  0.9737 -1.7081  0.1001
 2371SOL    HW2 8598   5.331   4.004   7.681 -0.5798 -0.3344  0.6742
 2372SOL     OW 8599   0.271   2.259   2.302  0.1121  0.1257  0.0537
 2372SOL    HW1 8600   0.258   2.210   2.383  0.1625  0.7338  0.4349
 2372SOL    HW2 8601   0.361   2.242   2.277  0.4646  0.8991  0.7778
 2373SOL     OW 8602   4.532   2.397   3.120  0.2736  0.2905 -0.4129
 2373SOL    HW1 8603   4.456   2.449   3.091  0.9950  1.0038 -1.0557
 2373SOL    HW2 8604   4.499   2.344   3.193 -1.5039 -1.2465 -2.2546
 2374SOL     OW 8605   0.857   7.380   4.106  0.0129 -0.3743 -0.2205
 2374SOL    HW1 8606   0.817   7.426   4.181 -0.0953  0.5778 -0.8478
 2374SOL    HW2 8607   0.804   7.302   4.094 -0.9490  0.2867 -0.3024
 2375SOL     OW 8608   3.390   8.187   2.601 -0.3289  0.8444 -0.2757
 2375SOL    HW1 8609   3.453   8.141   2.656  1.5425  1.4292 -1.8776
 2375SOL    HW2 8610   3.351   8.253   2.660  0.7471  0.6628  0.6647
 2376SOL     OW 8611   1.353   1.844   4.988 -0.0045 -0.5508 -0.2867
 2376SOL    HW1 8612   1.342   1.777   5.056 -0.0919 -1.3387 -1.0678
 2376SOL    HW2 8613   1.337   1.927   5.033  0.0171 -1.0639  0.6722
 2377SOL     OW 8614   2.010   4.157   6.235  0.1543 -0.1728  0.3245
 2377SOL    HW1 8615   2.062   4.078   6.247  0.6776  0.4575  2.3876
 2377SOL    HW2 8616   2.034   4.189   6.148 -0.1600 -2.3168 -0.6040
 2378SOL     OW 8617   5.115   7.951   0.205  0.1368 -0.3108 -0.3009
 2378SOL    HW1 8618   5.103   8.017   0.274 -1.8999 -0.1158 -0.8186
 2378SOL    HW2 8619   5.168   7.995   0.139 -0.2862  0.4433 -0.1417
 2379SOL     OW 8620   5.641   3.681   2.386 -0.5498 -0.2356  0.0189
 2379SOL    HW1 8621   5.642   3.772   2.415 -0.1809  0.6215 -2.5520
 2379SOL    HW2 8622   5.549   3.661   2.372 -0.7018 -0.5487  1.4221
 2380SOL     OW 8623   2.051   7.767   1.227  0.1018 -0.1925 -0.0189
 2380SOL    HW1 8624   1.977   7.768   1.288  1.9003 -2.6426  2.3113
 2380SOL    HW2 8625   2.021   7.715   1.153 -1.1133  0.3714  0.0593
 2381SOL     OW 8626   5.636   5.720   5.809 -0.3270 -0.1089  0.0280
 2381SOL    HW1 8627   5.545   5.707   5.783 -0.2999 -0.9494  0.3048
 2381SOL    HW2 8628   5.657   5.810   5.784 -1.0781 -0.0788 -0.4905
 2382SOL     OW 8629   5.519   6.522   1.283  0.9742  0.1683  0.2832
 2382SOL    HW1 8630   5.448   6.584   1.301  0.8398  0.8361 -2.3410
 2382SOL    HW2 8631   5.474   6.439   1.267  0.8204  0.4597 -0.8122
 2383SOL     OW 8632   5.075   7.947   2.765 -0.2509 -0.0597  0.4774
 2383SOL    HW1 8633   5.071   8.041   2.786  1.3403  0.0901  0.1579
 2383SOL    HW2 8634   5.111   7.943   2.677 -0.0944 -0.9772  0.5750
 2384SOL     OW 8635   4.582   7.129   6.525  0.0171  0.2324  0.3751
 2384SOL    HW1 8636   4.603   7.049   6.476  0.0911  1.9429 -2.4839
 2384SOL    HW2 8637   4.665   7.174   6.534 -0.0490  0.0667  1.8684
 2385SOL     OW 8638   5.395   4.053   0.116  0.4934  0.2940 -0.3397
 2385SOL    HW1 8639   5.341   4.096   0.182 -0.1402 -1.5746  0.3916
 2385SOL    HW2 8640   5.474   4.027   0.163  0.8851  0.6731 -0.7835
 2386SOL     OW 8641   1.641   4.682   1.385  0.8394  0.9051 -0.1758
 2386SOL    HW1 8642   1.611   4.651   1.299  1.3442  0.1144 -0.0705
 2386SOL    HW2 8643   1.582   4.639   1.447  1.7291 -0.0933 -0.0104
 2387SOL     OW 8644   5.500   0.805   4.042  0.4833  0.1701 -0.4154
 2387SOL    HW1 8645   5.567   0.873   4.036 -0.9432  1.5361 -1.3895
 2387SOL    HW2 8646   5.505   0.758   3.960  0.4671  0.0710 -0.3594
 2388SOL     OW 8647   7.494   3.263   4.635  0.2041  0.1506  0.0893
 2388SOL    HW1 8648   7.476   3.349   4.672  0.3269  0.0338  0.4188
 2388SOL    HW2 8649   7.583   3.243   4.663 -0.1672 -0.5006  0.8107
 2389SOL     OW 8650   5.525   6.230   1.245 -0.3437 -0.0455 -0.6711
 2389SOL    HW1 8651   5.615   6.235   1.279 -1.0011  1.3500  0.9165
 2389SOL    HW2 8652   5.481   6.166   1.301 -1.7285  3.0543  1.8845
 2390SOL     OW 8653   5.594   8.180   4.047  0.6001  0.0218  0.0162
 2390SOL    HW1 8654   5.682   8.147   4.033  0.1983 -0.9462 -0.2340
 2390SOL    HW2 8655   5.562   8.200   3.959  0.3666 -0.1531  0.0622
 2391SOL     OW 8656   6.935   3.313   1.495  0.5382  0.0786 -0.2146
 2391SOL    HW1 8657   6.878   3.236   1.503  1.7053 -0.7697  0.1139
 2391SOL    HW2 8658   6.875   3.386   1.480 -0.6558 -0.7472  0.4537
 2392SOL     OW 8659   5.793   7.098   0.331  0.1472 -0.1781  0.3091
 2392SOL    HW1 8660   5.846   7.022   0.355  1.9074  0.9094 -0.0621
 2392SOL    HW2 8661   5.829   7.169   0.383 -0.4860  0.7346 -0.4918
 2393SOL     OW 8662   7.371   6.449   2.210 -0.3966  0.3713 -0.0330
 2393SOL    HW1 8663   7.446   6.416   2.259  0.0191  0.7503 -0.4202
 2393SOL    HW2 8664   7.338   6.522   2.263  0.1576  0.8909 -0.3998
 2394SOL     OW 8665   1.536   1.491   1.559  0.1574 -0.0760  1.0898
 2394SOL    HW1 8666   1.483   1.495   1.639  0.9195  0.4304  1.5755
 2394SOL    HW2 8667   1.527   1.578   1.520 -2.3803 -1.1283 -0.8114
 2395SOL     OW 8668   2.941   3.196   2.226 -0.3754 -0.4326  0.1059
 2395SOL    HW1 8669   2.942   3.220   2.133  0.8696 -0.1174  0.1959
 2395SOL    HW2 8670   3.033   3.187   2.250 -0.4328  3.9638  2.4354
 2396SOL     OW 8671   1.093   0.269   3.734  0.2389  0.4100 -0.8691
 2396SOL    HW1 8672   1.019   0.231   3.780  0.5014 -0.1890 -0.9315
 2396SOL    HW2 8673   1.165   0.265   3.797 -0.3001  2.9761 -0.0463
 2397SOL     OW 8674   0.189   3.540   6.806 -0.0307 -0.3572 -0.1603
 2397SOL    HW1 8675   0.140   3.499   6.877 -0.5236  0.3886 -0.0680
 2397SOL    HW2 8676   0.149   3.626   6.796  0.9310  0.0657 -0.4220
 2398SOL     OW 8677   3.389   1.493   5.441 -0.3764  0.0904  0.1336
 2398SOL    HW1 8678   3.299   1.504   5.409 -0.7485  0.6773  1.3508
 2398SOL    HW2 8679   3.380   1.476   5.534  0.7324 -0.9794  0.0577
 2399SOL     OW 8680   0.997   3.056   1.383  0.3364  0.7221 -0.3204
 2399SOL    HW1 8681   0.946   3.136   1.382  0.4807  0.8062 -1.4149
 2399SOL    HW2 8682   0.982   3.019   1.470  0.9166  2.3508  0.5004
 2400SOL     OW 8683   6.952   2.954   4.419 -0.6459  0.3749  0.3158
 2400SOL    HW1 8684   6.975   2.903   4.497 -0.0814 -0.0057 -0.0867
 2400SOL    HW2 8685   7.010   3.030   4.422  1.3760 -1.0454 -1.1788
 2401SOL     OW 8686   4.611   0.047   1.514  0.2981  0.4142 -0.2856
 2401SOL    HW1 8687   4.525   0.024   1.550  0.9626  0.3235  1.2729
 2401SOL    HW2 8688   4.657   0.088   1.587  1.4253  0.8842 -1.2470
 2402SOL     OW 8689   7.925   1.597   2.589  0.4004 -0.1198 -0.5913
 2402SOL    HW1 8690   7.978   1.518   2.576  0.2286 -0.0087 -1.9570
 2402SOL    HW2 8691   7.989   1.668   2.594  0.4582 -0.1510 -0.8991
 2403SOL     OW 8692   4.334   6.320   4.056  0.3302  0.1685  0.3436
 2403SOL    HW1 8693   4.257   6.378   4.058  0.9004  0.9393 -0.0776
 2403SOL    HW2 8694   4.297   6.232   4.066 -0.7451  0.4074 -1.3030
 2404SOL     OW 8695   1.464   1.701   0.682  0.2350  0.6739 -0.9306
 2404SOL    HW1 8696   1.488   1.618   0.641  0.8459  1.2498 -1.7458
 2404SOL    HW2 8697   1.432   1.755   0.610 -1.6140  0.6260 -0.1697
 2405SOL     OW 8698   3.684   1.331   4.429 -0.0438 -0.4856 -0.3322
 2405SOL    HW1 8699   3.743   1.273   4.477 -1.0057 -1.9416 -0.8516
 2405SOL    HW2 8700   3.615   1.353   4.492  0.5746  0.4740  0.0045
 2406SOL     OW 8701   1.608   7.112   3.369  0.1736 -0.5373  0.5374
 2406SOL    HW1 8702   1.601   7.197   3.413 -0.5978 -1.3149  1.9535
 2406SOL    HW2 8703   1.690   7.075   3.402  0.6510 -0.2536 -0.2902
 2407SOL     OW 8704   3.894   6.424   5.144  0.1103  0.3070  0.3461
 2407SOL    HW1 8705   3.982   6.454   5.165 -0.5709  1.1468  2.0050
 2407SOL    HW2 8706   3.837   6.498   5.163 -0.8035  0.3348 -2.2751
 2408SOL     OW 8707   4.490   5.866   3.090 -0.0076 -0.2979 -0.1236
 2408SOL    HW1 8708   4.411   5.916   3.114  0.4470  0.6935 -0.6568
 2408SOL    HW2 8709   4.458   5.797   3.032 -0.6433 -0.6178  0.5980
 2409SOL     OW 8710   6.495   5.045   5.228  0.0022 -0.3114 -0.1630
 2409SOL    HW1 8711   6.555   5.109   5.190 -1.4350  1.5334  0.5925
 2409SOL    HW2 8712   6.408   5.076   5.205 -0.7382 -2.1056  0.0842
 2410SOL     OW 8713   0.941   2.353   1.008  0.4525 -0.2633 -0.2209
 2410SOL    HW1 8714   1.019   2.408   1.017  1.0392 -1.1604  0.3030
 2410SOL    HW2 8715   0.957   2.279   1.066 -1.0443 -0.1876  0.3059
 2411SOL     OW 8716   7.813   4.155   5.888  0.1583 -0.6529 -0.3455
 2411SOL    HW1 8717   7.801   4.071   5.844  1.6976 -0.2383 -1.6144
 2411SOL    HW2 8718   7.831   4.132   5.979  0.0892 -1.6785 -0.5840
 2412SOL     OW 8719   2.438   4.355   3.743  0.1359  0.0445  0.7611
 2412SOL    HW1 8720   2.453   4.450   3.741  0.9902 -0.0821  1.0222
 2412SOL    HW2 8721   2.435   4.330   3.650 -0.5984  0.4010  0.6843
 2413SOL     OW 8722   7.583   2.784   3.803 -0.0285 -0.2859  0.4828
 2413SOL    HW1 8723   7.676   2.784   3.778 -0.1153  0.8614  0.1392
 2413SOL    HW2 8724   7.551   2.699   3.773  0.0333  0.7792 -2.8083
 2414SOL     OW 8725   1.355   5.634   5.272 -0.1814  0.1140 -0.2277
 2414SOL    HW1 8726   1.306   5.656   5.193  0.0722  0.4248 -0.2937
 2414SOL    HW2 8727   1.431   5.692   5.272  1.7575 -2.3515 -1.6306
 2415SOL     OW 8728   4.768   7.617   7.754  0.4452  0.0896 -0.4576
 2415SOL    HW1 8729   4.790   7.671   7.678  1.7067  0.0895 -0.1125
 2415SOL    HW2 8730   4.760   7.680   7.826 -2.2915  0.2583 -0.8836
 2416SOL     OW 8731   8.258   3.245   3.138 -0.8474  0.1492  0.2484
 2416SOL    HW1 8732   8.324   3.296   3.185 -0.6524 -1.6156  1.9504
 2416SOL    HW2 8733   8.291   3.240   3.048  1.2740 -0.5690  1.0460
 2417SOL     OW 8734   6.914   6.802   2.328 -0.1856 -0.2965 -0.3810
 2417SOL    HW1 8735   6.911   6.898   2.324  1.1269 -0.2702 -1.2993
 2417SOL    HW2 8736   6.846   6.773   2.268 -2.5739  0.0247  2.0727
 2418SOL     OW 8737   6.582   6.610   7.547  0.1861  0.2415  0.6586
 2418SOL    HW1 8738   6.671   6.620   7.511 -0.3278  2.2385 -0.1622
 2418SOL    HW2 8739   6.594   6.561   7.628  2.0939  0.7767  0.7265
 2419SOL     OW 8740   6.056   5.513   2.307  0.2617  0.0391 -0.5171
 2419SOL    HW1 8741   5.981   5.570   2.322 -0.0697  0.0430 -2.1010
 2419SOL    HW2 8742   6.124   5.572   2.274  0.5030 -0.1970 -0.4460
 2420SOL     OW 8743   5.103   0.034   7.326  0.0333  0.0429  0.0778
 2420SOL    HW1 8744   5.065   0.018   7.412 -1.3352  1.5952 -0.2133
 2420SOL    HW2 8745   5.067  -0.035   7.271  0.8787 -0.9286  0.7294
 2421SOL     OW 8746   3.550   5.723   7.133 -0.4898  0.4062 -0.6057
 2421SOL    HW1 8747   3.600   5.641   7.130 -1.6314 -0.2711 -1.5501
 2421SOL    HW2 8748   3.607   5.787   7.090  0.2565  0.0302 -0.1918
 2422SOL     OW 8749   0.182   2.031   2.465  0.3230  0.0708  0.0970
 2422SOL    HW1 8750   0.269   1.996   2.445 -0.5943 -1.3870 -1.5679
 2422SOL    HW2 8751   0.150   1.977   2.537  0.8879  0.7741  0.8806
 2423SOL     OW 8752   3.370   4.339   5.664 -0.0613 -0.2803  0.4777
 2423SOL    HW1 8753   3.320   4.419   5.678  1.2105  0.3508  1.5588
 2423SOL    HW2 8754   3.462   4.367   5.668  0.4081 -1.9606  1.9237
 2424SOL     OW 8755   1.886   4.027   1.568  0.3361 -0.0593  0.1754
 2424SOL    HW1 8756   1.810   4.031   1.627 -1.0812 -1.3588 -1.4938
 2424SOL    HW2 8757   1.865   4.089   1.498 -0.4859 -2.3878 -1.7142
 2425SOL     OW 8758   2.304   6.342   2.815 -0.0977  0.2201 -0.0938
 2425SOL    HW1 8759   2.305   6.430   2.854 -0.4838  1.2272 -2.2769
 2425SOL    HW2 8760   2.243   6.349   2.742 -2.0047 -2.5485  1.1526
 2426SOL     OW 8761   4.637   1.482   0.730  0.1422 -0.1515 -0.0138
 2426SOL    HW1 8762   4.655   1.541   0.657 -1.8909  0.4786 -0.0506
 2426SOL    HW2 8763   4.720   1.439   0.747  1.2458  1.4630 -1.1211
 2427SOL     OW 8764   5.119   4.069   0.271 -0.3725  0.1161  0.3431
 2427SOL    HW1 8765   5.120   4.163   0.253  0.3646 -0.1215 -0.9455
 2427SOL    HW2 8766   5.123   4.028   0.184  1.9112 -1.0837  0.9553
 2428SOL     OW 8767   5.778   4.395   4.915 -0.1123 -0.1213  0.1716
 2428SOL    HW1 8768   5.741   4.313   4.947 -1.0009 -0.1781 -0.9577
 2428SOL    HW2 8769   5.841   4.368   4.848 -2.2011  0.1740 -1.9857
 2429SOL     OW 8770   5.046   7.554   1.064 -0.1425  0.2093 -0.2922
 2429SOL    HW1 8771   4.960   7.584   1.034  0.7596  1.2572 -1.9546
 2429SOL    HW2 8772   5.099   7.552   0.984  1.3038 -0.6594  0.6802
 2430SOL     OW 8773   3.260   4.808   3.879 -0.0222  0.2280 -0.1878
 2430SOL    HW1 8774   3.283   4.894   3.911  0.6382 -0.7937  2.1600
 2430SOL    HW2 8775   3.301   4.747   3.940 -0.7729 -1.7473 -1.5825
 2431SOL     OW 8776   2.972   2.732   0.334  0.2591 -0.3912 -0.1548
 2431SOL    HW1 8777   2.916   2.661   0.301 -1.4261  0.7560  0.1781
 2431SOL    HW2 8778   3.020   2.691   0.407 -1.7760 -0.8405  0.9882
 2432SOL     OW 8779   6.240   0.781   3.419 -0.5430 -0.4663 -0.0500
 2432SOL    HW1 8780   6.263   0.860   3.370  0.9129 -1.1094 -0.4383
 2432SOL    HW2 8781   6.165   0.745   3.372 -1.6865  1.0743  0.5656
 2433SOL     OW 8782   5.567   3.636   8.193 -0.2970  0.3734 -0.3057
 2433SOL    HW1 8783   5.639   3.575   8.210 -0.5855  0.2466  0.4949
 2433SOL    HW2 8784   5.488   3.584   8.208 -0.5680  0.1847 -2.3339
 2434SOL     OW 8785   3.331   2.271   0.984 -0.1206  0.2443  0.9534
 2434SOL    HW1 8786   3.320   2.263   1.079  0.2631 -1.9158  0.8389
 2434SOL    HW2 8787   3.408   2.216   0.965 -0.9314 -0.3082 -0.7636
 2435SOL     OW 8788   4.971   4.442   2.441  0.8913  0.1760 -0.2064
 2435SOL    HW1 8789   4.956   4.348   2.453  1.6805 -0.0877 -1.2291
 2435SOL    HW2 8790   4.919   4.483   2.510  0.3139 -0.9970  0.0781
 2436SOL     OW 8791   0.037   4.196   2.274  0.0121  0.2224  0.5675
 2436SOL    HW1 8792   0.126   4.182   2.307  0.7885 -0.2657 -1.6355
 2436SOL    HW2 8793   0.014   4.284   2.304  1.3008  0.4132  1.0286
 2437SOL     OW 8794   1.181   2.746   5.329 -0.0830  0.3313 -0.0356
 2437SOL    HW1 8795   1.131   2.744   5.247 -1.3409  2.7261  0.6276
 2437SOL    HW2 8796   1.118   2.718   5.396 -0.4741  2.9180  0.7414
 2438SOL     OW 8797   5.436   1.459   1.411  0.4185 -0.2121 -0.3496
 2438SOL    HW1 8798   5.445   1.550   1.386  1.1080  0.1270  1.0893
 2438SOL    HW2 8799   5.414   1.461   1.504 -1.4750 -1.4525 -0.7275
 2439SOL     OW 8800   6.445   4.702   8.123 -0.0063 -0.0369 -0.0357
 2439SOL    HW1 8801   6.452   4.756   8.045 -0.2147  0.8969  0.5781
 2439SOL    HW2 8802   6.398   4.624   8.095 -1.0382  0.7793 -0.5928
 2440SOL     OW 8803   7.494   1.479   6.065 -0.5062 -0.5352 -0.6934
 2440SOL    HW1 8804   7.410   1.434   6.060 -0.1874 -1.4501  1.3209
 2440SOL    HW2 8805   7.557   1.414   6.034 -0.1689 -1.1401  1.1812
 2441SOL     OW 8806   5.125   5.536   2.410  0.4192 -0.2749  0.2502
 2441SOL    HW1 8807   5.067   5.529   2.486  1.6735  0.4585  1.3134
 2441SOL    HW2 8808   5.212   5.550   2.449  0.9542  0.8949 -1.3433
 2442SOL     OW 8809   0.896   1.604   3.964 -0.3826 -0.2212  0.1209
 2442SOL    HW1 8810   0.874   1.517   3.931 -0.5747 -0.2115  0.2209
 2442SOL    HW2 8811   0.863   1.664   3.898 -1.2316 -0.1794  0.5714
 2443SOL     OW 8812   1.535   7.228   0.450 -0.5468 -0.1067  0.4423
 2443SOL    HW1 8813   1.480   7.210   0.374  0.0570  0.1076 -0.0603
 2443SOL    HW2 8814   1.481   7.283   0.507 -0.6371  0.6350 -0.3348
 2444SOL     OW 8815   0.405   1.005   7.667  0.3188  0.2436 -0.4015
 2444SOL    HW1 8816   0.323   0.986   7.621  0.5322 -1.6914 -0.0069
 2444SOL    HW2 8817   0.409   0.939   7.736  1.8044  0.8700  0.1180
 2445SOL     OW 8818   8.291   7.491   7.080  0.1588 -0.1769  0.1199
 2445SOL    HW1 8819   8.307   7.443   7.161 -1.6519  0.0823  0.6514
 2445SOL    HW2 8820   8.251   7.426   7.021  0.3618 -0.0501 -0.1620
 2446SOL     OW 8821   4.365   7.857   1.341 -0.0571  0.4344 -0.6741
 2446SOL    HW1 8822   4.283   7.897   1.370 -0.5633 -1.4784  0.6230
 2446SOL    HW2 8823   4.372   7.881   1.248 -2.2787  0.3250 -0.8992
 2447SOL     OW 8824   1.993   1.709   6.529 -0.1629  0.9055 -1.2478
 2447SOL    HW1 8825   1.990   1.618   6.557  0.0286  1.3702  0.3434
 2447SOL    HW2 8826   1.910   1.724   6.485 -1.2283  0.6229  0.6350
 2448SOL     OW 8827   3.082   7.588   3.921  0.0679  0.0997  0.6475
 2448SOL    HW1 8828   3.119   7.593   4.009 -1.9247  1.8883  1.4103
 2448SOL    HW2 8829   3.148   7.540   3.871  0.5092 -2.4526  3.4666
 2449SOL     OW 8830   1.767   7.934   2.499  0.2807  0.4560  0.3180
 2449SOL    HW1 8831   1.836   7.921   2.565 -0.5814 -1.3088  0.8958
 2449SOL    HW2 8832   1.808   7.906   2.417 -0.1989 -2.1443  0.9016
 2450SOL     OW 8833   3.832   1.012   1.198  0.0670 -0.3814 -0.0257
 2450SOL    HW1 8834   3.769   0.941   1.200 -1.8048  1.2496  1.0678
 2450SOL    HW2 8835   3.904   0.980   1.143 -2.7545 -1.4023 -3.2825
 2451SOL     OW 8836   5.634   4.681   7.623 -0.2144 -0.4809 -0.5461
 2451SOL    HW1 8837   5.576   4.604   7.628 -1.5672  0.4970 -0.8094
 2451SOL    HW2 8838   5.694   4.661   7.551 -1.0779 -0.9526 -1.1473
 2452SOL     OW 8839   1.920   0.984   0.440  0.0018 -0.4532  0.1414
 2452SOL    HW1 8840   1.852   0.977   0.373  0.9229  0.3982 -0.9058
 2452SOL    HW2 8841   1.927   1.078   0.457  0.7828 -0.5522  0.3844
 2453SOL     OW 8842   4.983   2.307   3.947  0.2696 -0.1571  0.2601
 2453SOL    HW1 8843   5.049   2.367   3.982  1.1461 -0.6633 -0.5027
 2453SOL    HW2 8844   5.030   2.225   3.933 -0.4157 -0.3980 -0.6882
 2454SOL     OW 8845   6.771   7.031   0.559 -0.3527  0.2793  0.8033
 2454SOL    HW1 8846   6.677   7.048   0.548 -1.0331 -2.8236  1.2822
 2454SOL    HW2 8847   6.784   7.034   0.654  0.3938  2.3340  0.6531
 2455SOL     OW 8848   4.259   4.748   7.047  0.1846 -0.1387 -0.3542
 2455SOL    HW1 8849   4.337   4.698   7.022  0.9474  1.3257 -0.9439
 2455SOL    HW2 8850   4.280   4.839   7.025  0.2028  0.9990  3.9153
 2456SOL     OW 8851   2.283   5.057   4.045 -0.0403 -0.5138 -0.0303
 2456SOL    HW1 8852   2.189   5.040   4.037 -0.3888  0.5597  1.5652
 2456SOL    HW2 8853   2.306   5.103   3.964 -0.8296 -1.0216 -0.5524
 2457SOL     OW 8854   7.479   1.395   7.410  0.6170 -0.2497  0.2708
 2457SOL    HW1 8855   7.472   1.488   7.388 -0.5408 -0.4999 -0.4187
 2457SOL    HW2 8856   7.490   1.394   7.505  1.1687  0.6121  0.2281
 2458SOL     OW 8857   1.887   3.348   5.040  0.1093  0.0480 -0.1936
 2458SOL    HW1 8858   1.860   3.293   4.967  0.5163 -0.1115 -0.2229
 2458SOL    HW2 8859   1.815   3.410   5.051 -0.0332 -0.0429 -0.6120
 2459SOL     OW 8860   3.013   6.566   6.030 -0.3782  0.2730  0.3487
 2459SOL    HW1 8861   3.043   6.496   5.973 -0.5716 -0.5324  1.2191
 2459SOL    HW2 8862   3.079   6.571   6.100 -0.8445  0.3270  0.7952
 2460SOL     OW 8863   2.315   2.780   2.640  0.1549 -0.0303  0.3716
 2460SOL    HW1 8864   2.256   2.712   2.609 -1.5109  0.7895  1.6142
 2460SOL    HW2 8865   2.269   2.862   2.621  0.9381  0.6282  1.2641
 2461SOL     OW 8866   6.222   0.191   6.661 -0.2568  0.1434 -0.6943
 2461SOL    HW1 8867   6.148   0.207   6.601 -0.0055 -1.3481 -1.4251
 2461SOL    HW2 8868   6.249   0.102   6.641  0.1318 -0.2058  1.3466
 2462SOL     OW 8869   7.202   1.112   1.600  0.2116  0.0747  0.5124
 2462SOL    HW1 8870   7.137   1.145   1.537  1.8749  0.8736 -0.8090
 2462SOL    HW2 8871   7.241   1.036   1.557  0.7357  0.1004  0.9395
 2463SOL     OW 8872   2.445   4.510   1.214  0.0027 -0.7181  0.5049
 2463SOL    HW1 8873   2.528   4.487   1.174 -0.9675  0.5648 -2.3799
 2463SOL    HW2 8874   2.468   4.555   1.295  2.0897 -0.3103 -0.3107
 2464SOL     OW 8875   7.746   5.399   5.335  0.0551  0.4777  0.7408
 2464SOL    HW1 8876   7.839   5.381   5.342 -0.1511 -0.1427  2.1180
 2464SOL    HW2 8877   7.740   5.473   5.275  1.4051  0.3106  0.3835
 2465SOL     OW 8878   3.329   7.221   3.029 -0.0657  0.1828 -0.2613
 2465SOL    HW1 8879   3.279   7.277   2.969 -0.2432  0.4059  0.0894
 2465SOL    HW2 8880   3.384   7.168   2.973 -2.0604 -1.4035 -0.7996
 2466SOL     OW 8881   0.048   3.794   5.068 -0.0374 -0.2689 -0.0492
 2466SOL    HW1 8882  -0.027   3.735   5.063 -0.7655  0.6158  0.1655
 2466SOL    HW2 8883   0.032   3.847   5.147  0.2469  0.6657 -0.6038
 2467SOL     OW 8884   3.111   4.530   3.829 -0.2543  0.1863  0.6583
 2467SOL    HW1 8885   3.160   4.586   3.768 -1.5449 -0.0617 -0.6220
 2467SOL    HW2 8886   3.126   4.441   3.797 -1.8478  0.1404  0.0198
 2468SOL     OW 8887   5.004   5.621   0.906  0.4360  0.3254  0.4216
 2468SOL    HW1 8888   4.940   5.572   0.958 -0.2181 -0.4925 -1.1139
 2468SOL    HW2 8889   4.959   5.639   0.823  2.2093 -0.3720 -0.7238
 2469SOL     OW 8890   0.941   2.810   7.362  0.1488  0.3622 -0.1240
 2469SOL    HW1 8891   0.956   2.726   7.405  0.9689  1.6826  2.2658
 2469SOL    HW2 8892   0.999   2.809   7.286 -0.5163 -1.5812 -0.6237
 2470SOL     OW 8893   7.188   0.811   0.770 -0.5050  0.0408 -0.5009
 2470SOL    HW1 8894   7.265   0.772   0.812 -1.8089 -1.9480  0.0918
 2470SOL    HW2 8895   7.204   0.800   0.676 -0.6340 -1.5089 -0.3496
 2471SOL     OW 8896   7.970   4.474   7.993 -0.0299  0.1175  0.1723
 2471SOL    HW1 8897   8.035   4.447   8.058  0.9351  0.7986 -0.4850
 2471SOL    HW2 8898   7.955   4.567   8.011 -0.2665  0.1403 -0.1438
 2472SOL     OW 8899   2.809   6.181   3.601  0.0150  0.4310 -0.4197
 2472SOL    HW1 8900   2.779   6.152   3.516  1.3077 -0.5067 -0.5635
 2472SOL    HW2 8901   2.901   6.156   3.605  0.1028  0.8878  1.0564
 2473SOL     OW 8902   0.415   1.538   6.098  0.2536  0.1747  0.2041
 2473SOL    HW1 8903   0.399   1.454   6.054  0.1872  0.4641 -0.3227
 2473SOL    HW2 8904   0.422   1.602   6.027  0.4907  0.5876  0.5962
 2474SOL     OW 8905   2.741   4.917   2.996 -0.4209  0.3420  0.0439
 2474SOL    HW1 8906   2.653   4.926   3.033 -1.9652 -2.7915 -2.6493
 2474SOL    HW2 8907   2.776   4.838   3.038  1.2912  1.7270  1.3082
 2475SOL     OW 8908   3.580   8.188   0.981  0.3829  0.4848 -0.2773
 2475SOL    HW1 8909   3.493   8.149   0.967  0.2319  1.0424 -0.9607
 2475SOL    HW2 8910   3.622   8.183   0.895  1.4405 -0.7677  0.3064
 2476SOL     OW 8911   0.853   7.198   3.019  0.0555 -0.6385 -0.3599
 2476SOL    HW1 8912   0.902   7.260   3.072  0.4190  0.1913 -1.6494
 2476SOL    HW2 8913   0.921   7.147   2.973 -0.2633 -0.9010 -0.5427
 2477SOL     OW 8914   7.411   2.366   0.630  0.5382 -0.1210 -0.0876
 2477SOL    HW1 8915   7.390   2.280   0.666  0.1919  0.4625  1.1519
 2477SOL    HW2 8916   7.505   2.376   0.643  0.2078  0.6353  1.9400
 2478SOL     OW 8917   6.277   7.364   4.512 -0.4413  0.4769 -0.5389
 2478SOL    HW1 8918   6.254   7.276   4.485 -0.9621  0.7578 -1.0298
 2478SOL    HW2 8919   6.209   7.388   4.575 -0.3637  0.5673 -0.4903
 2479SOL     OW 8920   0.992   2.384   6.266 -0.9676 -0.1667 -0.5286
 2479SOL    HW1 8921   0.971   2.334   6.188 -0.8606 -0.9412 -0.0620
 2479SOL    HW2 8922   1.087   2.376   6.275 -0.9838 -0.0998 -0.2978
 2480SOL     OW 8923   1.395   6.155   1.283  0.0272 -0.3869 -0.3185
 2480SOL    HW1 8924   1.467   6.193   1.334 -0.6121  0.8598 -0.3260
 2480SOL    HW2 8925   1.343   6.106   1.347  0.2334 -0.3296 -0.1062
 2481SOL     OW 8926   3.265   1.004   6.172  0.2146  0.6171  0.2825
 2481SOL    HW1 8927   3.185   0.980   6.218  1.7275  1.7714  3.7276
 2481SOL    HW2 8928   3.277   0.936   6.107 -2.4344 -0.7166  1.1181
 2482SOL     OW 8929   8.235   3.730   7.676  0.4138  0.3294 -0.4985
 2482SOL    HW1 8930   8.260   3.822   7.663  0.7613  0.2662 -0.2849
 2482SOL    HW2 8931   8.290   3.681   7.614  0.8313  0.1883 -0.0164
 2483SOL     OW 8932   3.022   4.913   7.501 -0.7677  0.8674 -0.6997
 2483SOL    HW1 8933   3.090   4.881   7.442 -1.2233  0.4345 -0.9899
 2483SOL    HW2 8934   3.032   4.861   7.581 -0.9688  0.5758 -0.8639
 2484SOL     OW 8935   4.674   1.955   7.034  0.2009 -0.4469 -0.1889
 2484SOL    HW1 8936   4.619   1.974   6.958  1.3961  0.4636 -0.8368
 2484SOL    HW2 8937   4.750   1.908   6.998  0.0575 -1.3462  0.6476
 2485SOL     OW 8938   4.355   5.303   0.211 -0.3316  0.3587 -0.0521
 2485SOL    HW1 8939   4.306   5.221   0.199 -1.0350  0.8481 -0.6123
 2485SOL    HW2 8940   4.407   5.311   0.131 -0.2226  0.4348  0.0263
 2486SOL     OW 8941   5.289   2.029   0.061 -0.3283 -0.2663 -0.1449
 2486SOL    HW1 8942   5.316   1.957   0.003 -1.4935 -0.1689 -0.8289
 2486SOL    HW2 8943   5.274   1.986   0.145 -0.3533 -0.7099 -0.3693
 2487SOL     OW 8944   5.093   2.758   1.524  0.6924 -0.3092 -0.0372
 2487SOL    HW1 8945   4.998   2.745   1.530  0.4036  0.6935 -1.9787
 2487SOL    HW2 8946   5.106   2.850   1.549  1.2481 -0.6549  0.9618
 2488SOL     OW 8947   5.966   1.750   3.709  0.4027 -0.0791 -0.2351
 2488SOL    HW1 8948   5.874   1.767   3.686  0.4125  0.7201  0.3077
 2488SOL    HW2 8949   5.970   1.655   3.722 -0.0236 -0.3000 -1.6568
 2489SOL     OW 8950   6.250   4.169   7.830 -0.0438 -0.7800 -0.3349
 2489SOL    HW1 8951   6.227   4.109   7.758  3.7427 -0.3801 -1.9657
 2489SOL    HW2 8952   6.304   4.117   7.888  0.0457 -0.0270  0.2610
 2490SOL     OW 8953   0.789   0.661   2.374  0.3924 -0.4833  0.2768
 2490SOL    HW1 8954   0.823   0.618   2.296 -0.3269 -0.5674  0.0116
 2490SOL    HW2 8955   0.717   0.716   2.343  0.2006 -0.4015  0.8518
 2491SOL     OW 8956   2.694   6.512   3.291 -0.0577  0.1165 -0.1482
 2491SOL    HW1 8957   2.750   6.476   3.221 -0.3822 -0.2563 -0.2200
 2491SOL    HW2 8958   2.636   6.573   3.246 -0.5652 -0.4551 -0.2806
 2492SOL     OW 8959   1.063   0.470   3.562  0.0329 -0.2995  0.2104
 2492SOL    HW1 8960   1.138   0.522   3.590  0.7969 -1.9402  1.2750
 2492SOL    HW2 8961   1.078   0.383   3.600 -1.7290 -1.0201 -0.6753
 2493SOL     OW 8962   5.966   0.965   4.582  0.1144 -0.5116 -0.1167
 2493SOL    HW1 8963   6.021   0.993   4.655  2.0222 -2.5722 -0.7023
 2493SOL    HW2 8964   6.007   1.004   4.505  1.2961 -2.7618 -0.6516
 2494SOL     OW 8965   7.403   4.343   3.181  0.0068  0.4945  0.1164
 2494SOL    HW1 8966   7.466   4.341   3.109  0.9939 -0.3761  1.0042
 2494SOL    HW2 8967   7.431   4.274   3.240 -2.1966 -0.3954  0.1821
 2495SOL     OW 8968   4.992   3.123   7.413 -0.4002  0.1024  0.1483
 2495SOL    HW1 8969   4.973   3.211   7.381 -1.6498 -0.0755  0.3650
 2495SOL    HW2 8970   5.082   3.127   7.445 -0.6237  1.4290  0.6122
 2496SOL     OW 8971   5.696   4.807   3.789 -0.4246  0.0399 -0.7200
 2496SOL    HW1 8972   5.689   4.712   3.803 -2.5836 -0.0857 -2.3691
 2496SOL    HW2 8973   5.716   4.817   3.697  0.0269  1.1932 -0.5038
 2497SOL     OW 8974   0.227   6.713   6.561 -0.6438 -0.2134 -0.3882
 2497SOL    HW1 8975   0.206   6.744   6.473 -0.1375  0.0935 -0.4034
 2497SOL    HW2 8976   0.311   6.754   6.581 -0.0348 -1.4416 -0.3450
 2498SOL     OW 8977   5.358   2.969   4.598  0.6385 -0.0888  0.4163
 2498SOL    HW1 8978   5.322   2.902   4.539  2.2606 -0.7825  0.1968
 2498SOL    HW2 8979   5.370   2.922   4.681  0.8841  0.1904  0.5359
 2499SOL     OW 8980   7.778   2.756   0.328  0.4232 -0.7392  0.3385
 2499SOL    HW1 8981   7.834   2.684   0.357 -1.4887 -2.4816 -0.1770
 2499SOL    HW2 8982   7.825   2.794   0.253  1.2331 -1.7324  0.3280
 2500SOL     OW 8983   5.800   3.460   7.151 -0.4772 -0.0658  0.2620
 2500SOL    HW1 8984   5.765   3.489   7.235 -1.0138 -0.0599  0.0334
 2500SOL    HW2 8985   5.778   3.367   7.147 -0.6241 -0.0193  0.0342
 2501SOL     OW 8986   0.199   0.532   6.409 -0.6363 -0.0339  0.5651
 2501SOL    HW1 8987   0.262   0.572   6.470 -1.3468 -0.8857  1.8791
 2501SOL    HW2 8988   0.251   0.467   6.362 -0.3750 -0.2992  1.2049
 2502SOL     OW 8989   8.039   7.599   1.424 -0.1196 -0.3278 -0.4822
 2502SOL    HW1 8990   8.039   7.656   1.348 -1.8930  0.5125  0.1102
 2502SOL    HW2 8991   8.132   7.585   1.444  0.3423  1.0228 -1.6162
 2503SOL     OW 8992   5.283   4.497   4.029 -0.0392 -0.6260  0.1748
 2503SOL    HW1 8993   5.325   4.554   3.965 -2.2956  1.1722  0.2379
 2503SOL    HW2 8994   5.353   4.475   4.091  1.0499  1.5130 -0.2502
 2504SOL     OW 8995   1.300   8.093   5.873  0.1439  0.3594  0.2406
 2504SOL    HW1 8996   1.233   8.088   5.805  0.5234  0.2806 -0.1301
 2504SOL    HW2 8997   1.336   8.181   5.865  2.6551 -0.8082 -2.0281
 2505SOL     OW 8998   2.647   6.631   0.869 -0.6963  0.3347  0.4880
 2505SOL    HW1 8999   2.682   6.621   0.958 -0.4866  0.6472  0.4410
 2505SOL    HW2 9000   2.658   6.724   0.849  1.1678 -0.0954 -0.6530
 2506SOL     OW 9001   3.036   1.664   0.146 -0.6447  0.0103 -0.1732
 2506SOL    HW1 9002   3.072   1.642   0.061 -0.9170  0.3880 -0.3859
 2506SOL    HW2 9003   2.952   1.705   0.127 -0.6981  0.1127  0.2729
 2507SOL     OW 9004   5.190   2.641   2.819 -0.0516  0.2036  0.0221
 2507SOL    HW1 9005   5.258   2.601   2.872 -0.1485  0.5408  0.4037
 2507SOL    HW2 9006   5.237   2.685   2.748  0.1492  0.6413  0.4200
 2508SOL     OW 9007   5.127   6.833   5.215  0.0375 -0.6800  0.3116
 2508SOL    HW1 9008   5.181   6.907   5.244 -0.3839 -0.6545  1.0239
 2508SOL    HW2 9009   5.164   6.757   5.260 -0.4419 -0.6825  0.6976
 2509SOL     OW 9010   7.550   8.222   3.211 -0.1860 -0.1387  0.1581
 2509SOL    HW1 9011   7.585   8.182   3.291  1.8138  1.6845  0.2100
 2509SOL    HW2 9012   7.528   8.147   3.155 -1.9198 -1.4545  2.4934
 2510SOL     OW 9013   3.248   1.649   2.643  1.0346  0.0212  0.2350
 2510SOL    HW1 9014   3.264   1.614   2.555  2.5402 -0.3917  0.6577
 2510SOL    HW2 9015   3.285   1.737   2.641 -0.9761  0.8875 -0.2192
 2511SOL     OW 9016   1.554   4.339   5.244 -0.1469 -0.0725  0.2355
 2511SOL    HW1 9017   1.530   4.261   5.293 -0.2253  0.3879  0.9393
 2511SOL    HW2 9018   1.631   4.374   5.289  0.2022 -0.0345 -0.3856
 2512SOL     OW 9019   6.491   3.992   0.531  0.4524  0.2361  0.2492
 2512SOL    HW1 9020   6.541   3.913   0.551 -0.7073 -0.7525 -0.7008
 2512SOL    HW2 9021   6.421   3.994   0.596  0.8764  0.8506  0.6920
 2513SOL     OW 9022   8.134   2.444   5.294  0.7065  0.3356 -0.1807
 2513SOL    HW1 9023   8.230   2.440   5.286  0.8538  1.3763  0.9881
 2513SOL    HW2 9024   8.117   2.425   5.386 -0.2028  0.5089 -0.3152
 2514SOL     OW 9025   6.317   3.200   4.374  0.1332 -0.5087  0.3934
 2514SOL    HW1 9026   6.405   3.215   4.341  0.4581  1.4364  2.0592
 2514SOL    HW2 9027   6.260   3.247   4.313  0.5060  0.7014  0.9551
 2515SOL     OW 9028   2.471   8.233   3.921 -0.3532  0.4740  0.7791
 2515SOL    HW1 9029   2.519   8.156   3.951 -0.2225  0.2101 -0.0849
 2515SOL    HW2 9030   2.440   8.209   3.833  1.5994  2.1806 -0.4405
 2516SOL     OW 9031   5.302   6.405   7.309 -0.3073  0.2551  0.3238
 2516SOL    HW1 9032   5.287   6.495   7.339  0.8412  1.8634 -3.5743
 2516SOL    HW2 9033   5.216   6.375   7.279 -0.6083  0.2287  1.2197
 2517SOL     OW 9034   3.220   1.958   0.197  0.1209 -0.3176  0.6874
 2517SOL    HW1 9035   3.151   1.935   0.135 -0.0298 -0.2058  0.8112
 2517SOL    HW2 9036   3.176   1.957   0.282  0.3107 -0.4048  0.7836
 2518SOL     OW 9037   0.117   8.030   3.357  0.3638  0.7149  0.2338
 2518SOL    HW1 9038   0.054   8.000   3.422  0.3084  1.0628  0.3404
 2518SOL    HW2 9039   0.199   7.988   3.382  0.1624  0.2108  0.0584
 2519SOL     OW 9040   5.836   3.905   1.410  0.5047  0.1186 -0.2017
 2519SOL    HW1 9041   5.742   3.916   1.402  0.4271  0.0273  0.5245
 2519SOL    HW2 9042   5.847   3.814   1.439  0.8344  0.0008 -0.6974
 2520SOL     OW 9043   7.272   1.748   2.700 -0.0054 -0.2702 -0.0393
 2520SOL    HW1 9044   7.338   1.799   2.749 -0.7565  0.8127 -0.1475
 2520SOL    HW2 9045   7.263   1.667   2.750 -0.9696  0.9353  1.8147
 2521SOL     OW 9046   6.595   3.933   2.348  0.0445 -0.3056 -0.1878
 2521SOL    HW1 9047   6.529   3.882   2.394  1.8237 -1.3771  1.2166
 2521SOL    HW2 9048   6.588   4.021   2.386 -0.2807 -0.5174  0.2464
 2522SOL     OW 9049   5.687   1.821   4.771 -0.4453 -0.9394  0.1161
 2522SOL    HW1 9050   5.778   1.841   4.747 -0.4501 -1.4535 -0.3428
 2522SOL    HW2 9051   5.686   1.823   4.867 -0.2886  0.5362  0.0981
 2523SOL     OW 9052   7.011   1.488   2.293 -0.1703  0.7856 -0.1827
 2523SOL    HW1 9053   7.043   1.551   2.357 -0.3029  0.7266 -0.0586
 2523SOL    HW2 9054   6.916   1.503   2.289 -0.2597  0.3266  0.1418
 2524SOL     OW 9055   8.008   1.981   2.798  0.4189  0.5398  0.1463
 2524SOL    HW1 9056   7.969   1.968   2.885 -3.0265 -0.8007 -1.5042
 2524SOL    HW2 9057   7.947   2.040   2.753  1.1882 -0.2309 -1.9793
 2525SOL     OW 9058   4.364   1.714   7.108 -0.2456  0.0691 -0.5841
 2525SOL    HW1 9059   4.316   1.747   7.184 -0.8157 -1.3966 -0.3066
 2525SOL    HW2 9060   4.300   1.716   7.037  0.0569  0.6522 -0.8506
 2526SOL     OW 9061   2.257   1.748   2.876  0.8771  0.2110 -0.5528
 2526SOL    HW1 9062   2.253   1.745   2.971 -1.2393  2.2232 -0.5485
 2526SOL    HW2 9063   2.310   1.825   2.856 -0.8169  1.2890 -0.9870
 2527SOL     OW 9064   6.115   3.987   6.272  0.2858  0.4351 -0.4356
 2527SOL    HW1 9065   6.125   4.039   6.192 -0.3305  1.5672  0.2041
 2527SOL    HW2 9066   6.070   3.908   6.244 -0.6684  1.1940 -1.0806
 2528SOL     OW 9067   4.034   3.310   5.845  0.1961  0.0211 -0.0549
 2528SOL    HW1 9068   4.079   3.379   5.894 -1.6528  2.6443 -1.9342
 2528SOL    HW2 9069   4.084   3.301   5.764  0.3937 -0.8292  0.1539
 2529SOL     OW 9070   5.939   2.146   5.651  0.0165 -0.4946 -0.5298
 2529SOL    HW1 9071   5.892   2.111   5.575  3.1532  0.0749 -2.8408
 2529SOL    HW2 9072   6.002   2.078   5.674 -0.4505 -0.3775  1.2022
 2530SOL     OW 9073   5.449   5.261   6.823 -0.1371  0.7957  0.3250
 2530SOL    HW1 9074   5.413   5.233   6.739  1.0160  0.7683 -0.1790
 2530SOL    HW2 9075   5.466   5.179   6.870  0.6750  0.7468 -0.0470
 2531SOL     OW 9076   0.409   4.384   7.134 -0.1929 -0.2641  0.7072
 2531SOL    HW1 9077   0.486   4.393   7.077 -0.4225 -0.7930  0.3079
 2531SOL    HW2 9078   0.358   4.463   7.118 -0.3197 -0.4722  0.0806
 2532SOL     OW 9079   4.429   1.080   6.338 -0.7185 -0.0063 -0.1030
 2532SOL    HW1 9080   4.470   1.155   6.382  0.9516 -1.4511  0.8361
 2532SOL    HW2 9081   4.336   1.088   6.358 -0.3025  0.7701  1.5516
 2533SOL     OW 9082   5.021   5.259   5.249 -0.1667 -0.3381  0.1568
 2533SOL    HW1 9083   5.004   5.189   5.186  0.8768 -2.2325  1.9178
 2533SOL    HW2 9084   4.942   5.313   5.246 -1.3188 -2.0153 -0.7188
 2534SOL     OW 9085   3.318   6.494   0.946 -0.6458  0.4301 -0.5597
 2534SOL    HW1 9086   3.265   6.491   0.866 -0.4861 -0.7959 -0.6302
 2534SOL    HW2 9087   3.346   6.403   0.960  2.6560  1.2689 -1.3149
 2535SOL     OW 9088   5.656   3.139   4.355  0.0248 -0.6003  0.2994
 2535SOL    HW1 9089   5.726   3.204   4.359  0.7875 -1.4748  1.5901
 2535SOL    HW2 9090   5.647   3.118   4.262  1.5597 -0.5467  0.1278
 2536SOL     OW 9091   6.181   2.348   6.620  0.4870  0.4883  0.3447
 2536SOL    HW1 9092   6.136   2.418   6.667  1.0825  1.8831 -1.0857
 2536SOL    HW2 9093   6.117   2.320   6.553  1.0337  1.1743 -0.4751
 2537SOL     OW 9094   2.830   4.031   3.518  0.2878 -0.6115 -0.0626
 2537SOL    HW1 9095   2.915   4.021   3.475  1.4942  0.5816  1.9805
 2537SOL    HW2 9096   2.767   4.003   3.452  2.2632 -1.6638 -1.5678
 2538SOL     OW 9097   1.955   1.457   6.623  0.3071  0.0157 -0.0192
 2538SOL    HW1 9098   2.023   1.409   6.670  0.6140 -0.4070 -0.8874
 2538SOL    HW2 9099   1.873   1.420   6.655  0.4421  1.1087  1.6662
 2539SOL     OW 9100   0.517   4.542   6.774 -0.1097  0.3240 -0.2825
 2539SOL    HW1 9101   0.542   4.632   6.754  0.2860  0.3189  0.2038
 2539SOL    HW2 9102   0.571   4.517   6.848 -1.6495  0.3635  0.8825
 2540SOL     OW 9103   7.397   3.723   5.136 -0.0907  0.3803 -0.2616
 2540SOL    HW1 9104   7.313   3.681   5.118  0.8128 -1.1362 -1.0263
 2540SOL    HW2 9105   7.431   3.676   5.212 -0.5243  1.8644  0.8583
 2541SOL     OW 9106   6.907   7.561   8.166  0.5859  0.3616 -0.3247
 2541SOL    HW1 9107   6.857   7.509   8.229 -1.3231  0.2059 -1.9101
 2541SOL    HW2 9108   6.974   7.502   8.133  2.0444  0.6471  2.0176
 2542SOL     OW 9109   7.740   4.979   4.040 -0.3705  0.9263 -0.0190
 2542SOL    HW1 9110   7.704   4.986   4.128 -1.9077 -0.1401 -0.5642
 2542SOL    HW2 9111   7.730   5.067   4.003 -0.1659  1.2469  0.6802
 2543SOL     OW 9112   0.876   1.293   2.862  0.5999  0.2149 -0.2099
 2543SOL    HW1 9113   0.917   1.244   2.933 -1.0894 -0.7084  0.1763
 2543SOL    HW2 9114   0.871   1.383   2.894  1.0579  0.0553  0.3047
 2544SOL     OW 9115   7.912   0.057   7.933 -0.1414  0.3936 -0.5449
 2544SOL    HW1 9116   7.846  -0.013   7.938 -0.0937  0.3283 -0.8210
 2544SOL    HW2 9117   7.892   0.102   7.851 -0.7074  1.2371  0.0479
 2545SOL     OW 9118   3.329   6.492   8.179  0.1810 -0.1741  0.3880
 2545SOL    HW1 9119   3.415   6.525   8.153  0.4632 -0.3844  1.0502
 2545SOL    HW2 9120   3.328   6.502   8.274 -1.1517  1.3391  0.2346
 2546SOL     OW 9121   3.166   3.011   3.516 -0.6313  0.4924  0.4216
 2546SOL    HW1 9122   3.169   3.043   3.606 -2.1708 -0.2284  0.7541
 2546SOL    HW2 9123   3.192   3.085   3.462  0.5099  0.8630  1.4787
 2547SOL     OW 9124   5.552   3.032   2.545 -0.7417 -0.1342 -0.4015
 2547SOL    HW1 9125   5.505   2.997   2.470 -1.0457 -0.0752 -0.2419
 2547SOL    HW2 9126   5.484   3.075   2.598 -0.8657 -1.8433  0.8715
 2548SOL     OW 9127   6.894   5.691   1.370  0.2562 -0.1580  0.3031
 2548SOL    HW1 9128   6.980   5.730   1.351 -0.0377  1.2820  1.7706
 2548SOL    HW2 9129   6.839   5.718   1.296  0.1061  2.1872  1.2008
 2549SOL     OW 9130   8.036   7.443   3.172 -1.0597  0.1948  0.1808
 2549SOL    HW1 9131   8.001   7.405   3.252  2.5655  1.9283  2.7144
 2549SOL    HW2 9132   8.030   7.537   3.185 -0.7447  0.4986 -1.7226
 2550SOL     OW 9133   3.145   3.948   2.059  0.0631 -0.1313  0.2664
 2550SOL    HW1 9134   3.079   3.884   2.083 -0.6255  0.0676 -1.0542
 2550SOL    HW2 9135   3.216   3.934   2.122 -0.3186 -1.7976  0.3532
 2551SOL     OW 9136   1.732   0.970   2.234  0.1016 -0.1228 -0.0784
 2551SOL    HW1 9137   1.677   1.012   2.300 -0.9693 -1.6152 -0.0047
 2551SOL    HW2 9138   1.710   1.014   2.152  2.2257  2.4899  0.6933
 2552SOL     OW 9139   3.964   4.862   6.696 -0.1289 -0.4721  0.0162
 2552SOL    HW1 9140   3.955   4.855   6.601 -0.0227  1.7515 -0.1865
 2552SOL    HW2 9141   3.924   4.946   6.718  0.4696 -0.6395  1.8577
 2553SOL     OW 9142   1.514   4.421   0.017 -0.3660 -0.3345  0.0899
 2553SOL    HW1 9143   1.476   4.335   0.000 -2.8607  0.5873  0.7779
 2553SOL    HW2 9144   1.453   4.464   0.077  1.9545  1.1097  1.5472
 2554SOL     OW 9145   7.423   0.005   4.916 -0.2283 -0.1706  0.2312
 2554SOL    HW1 9146   7.430   0.091   4.957 -1.4156  0.0151  0.0707
 2554SOL    HW2 9147   7.461  -0.056   4.979  1.2266  0.5519  0.0552
 2555SOL     OW 9148   7.538   0.616   1.103 -0.8046  0.1188 -1.1251
 2555SOL    HW1 9149   7.563   0.532   1.141 -0.7945  0.0480 -1.2858
 2555SOL    HW2 9150   7.595   0.680   1.145 -0.4927 -0.0140 -1.3389
 2556SOL     OW 9151   3.224   7.178   5.236 -0.1361  0.2220 -0.3366
 2556SOL    HW1 9152   3.182   7.263   5.223 -0.5231 -0.2314 -2.2120
 2556SOL    HW2 9153   3.200   7.153   5.325  0.0644  2.1181  0.2744
 2557SOL     OW 9154   4.772   6.145   6.196 -0.2062 -0.3000  0.0150
 2557SOL    HW1 9155   4.778   6.070   6.137  0.9287  0.9843 -1.5450
 2557SOL    HW2 9156   4.730   6.213   6.144  0.6720  0.8106  0.7516
 2558SOL     OW 9157   4.386   0.384   4.993 -0.3669  0.2600 -0.5724
 2558SOL    HW1 9158   4.392   0.296   5.032 -0.7950 -0.0352 -1.1687
 2558SOL    HW2 9159   4.353   0.439   5.064 -3.3860 -0.7177 -1.1536
 2559SOL     OW 9160   2.828   3.941   0.219  0.4839  0.3821  0.0472
 2559SOL    HW1 9161   2.916   3.904   0.214  1.9112  3.2697  2.1916
 2559SOL    HW2 9162   2.796   3.919   0.306  0.2234  1.7361  0.3062
 2560SOL     OW 9163   7.212   0.151   0.461  0.0463 -0.6687  0.2212
 2560SOL    HW1 9164   7.205   0.113   0.373 -0.3744 -1.1887  0.4781
 2560SOL    HW2 9165   7.223   0.075   0.519  0.4888 -0.3198  0.6002
 2561SOL     OW 9166   5.419   3.899   2.854 -0.9065 -0.1291 -0.0902
 2561SOL    HW1 9167   5.412   3.969   2.789 -1.6974 -0.1005  0.0222
 2561SOL    HW2 9168   5.513   3.880   2.859 -0.9749 -1.2147 -2.3710
 2562SOL     OW 9169   0.748   5.968   1.362 -0.3355  0.4731  0.1288
 2562SOL    HW1 9170   0.785   5.964   1.450 -1.1992  0.5011  0.4879
 2562SOL    HW2 9171   0.773   5.883   1.323  1.3694  1.0699 -0.1438
 2563SOL     OW 9172   2.155   7.789   7.268 -0.8095  0.5322 -0.1645
 2563SOL    HW1 9173   2.125   7.845   7.196 -1.6607  0.8537  0.4245
 2563SOL    HW2 9174   2.219   7.730   7.228  1.3699  3.0120 -0.4598
 2564SOL     OW 9175   7.148   0.939   3.470 -0.4461 -0.1799 -0.1147
 2564SOL    HW1 9176   7.175   0.850   3.488 -0.7365 -0.4172 -0.8332
 2564SOL    HW2 9177   7.207   0.969   3.401  0.7599  0.7736  1.3075
 2565SOL     OW 9178   4.210   1.644   4.484 -0.0753  0.6300 -0.0701
 2565SOL    HW1 9179   4.304   1.658   4.487  0.0422  0.2010 -1.5276
 2565SOL    HW2 9180   4.173   1.713   4.539  1.0022  1.5829 -0.5453
 2566SOL     OW 9181   2.718   1.971   2.391 -0.3527 -0.3967 -0.6260
 2566SOL    HW1 9182   2.714   1.941   2.482  0.5625 -1.0885 -0.8073
 2566SOL    HW2 9183   2.639   1.935   2.351 -0.0231 -1.2900 -0.4684
 2567SOL     OW 9184   0.701   1.026   5.774 -0.0035 -0.5915  0.1122
 2567SOL    HW1 9185   0.763   1.022   5.848 -0.1250 -0.1915  0.2379
 2567SOL    HW2 9186   0.641   1.097   5.797  1.3583  1.1175 -1.4485
 2568SOL     OW 9187   3.302   0.700   2.627 -0.0298 -0.5665 -0.0727
 2568SOL    HW1 9188   3.323   0.623   2.574  0.5345  0.1404 -0.9030
 2568SOL    HW2 9189   3.373   0.762   2.607 -0.2781  0.0224  0.8693
 2569SOL     OW 9190   2.275   6.351   4.535 -0.2333  0.3369 -0.3349
 2569SOL    HW1 9191   2.313   6.397   4.461  0.4993  0.0681 -0.1328
 2569SOL    HW2 9192   2.272   6.259   4.508 -0.9160  0.3853 -0.4229
 2570SOL     OW 9193   1.650   3.171   4.047 -0.6353  0.5883 -0.5629
 2570SOL    HW1 9194   1.555   3.184   4.052 -0.5129  1.1858  0.4535
 2570SOL    HW2 9195   1.685   3.229   4.115  0.2742 -1.5591  0.8447
 2571SOL     OW 9196   1.574   7.889   0.119 -0.1746  0.4890  0.1570
 2571SOL    HW1 9197   1.669   7.902   0.114 -0.0658  0.1935  1.2380
 2571SOL    HW2 9198   1.556   7.819   0.057  0.3376  0.4301  0.0728
 2572SOL     OW 9199   1.321   4.338   2.307  0.0979 -0.5615 -0.0332
 2572SOL    HW1 9200   1.243   4.288   2.329  0.3905 -0.1870  1.9530
 2572SOL    HW2 9201   1.313   4.419   2.357  1.9709 -0.7339  0.6275
 2573SOL     OW 9202   2.138   7.128   6.385  0.8188 -0.4816 -0.1564
 2573SOL    HW1 9203   2.107   7.100   6.471  0.5357  0.1161 -0.0621
 2573SOL    HW2 9204   2.233   7.120   6.390  0.8668  0.3570  0.5033
 2574SOL     OW 9205   7.777   6.106   6.520 -0.0412  0.3162  1.0686
 2574SOL    HW1 9206   7.826   6.062   6.589  1.8539 -1.0948 -1.0990
 2574SOL    HW2 9207   7.836   6.175   6.490  0.7930 -1.5643 -1.7564
 2575SOL     OW 9208   1.649   7.179   6.486 -0.3004 -0.5146 -0.5142
 2575SOL    HW1 9209   1.690   7.105   6.532  1.6413 -0.2496 -1.7757
 2575SOL    HW2 9210   1.610   7.231   6.556  1.4808 -0.8216  0.7511
 2576SOL     OW 9211   3.334   7.210   7.270  0.0244 -0.0601  0.1881
 2576SOL    HW1 9212   3.352   7.140   7.333 -0.4365  1.1907  1.7373
 2576SOL    HW2 9213   3.250   7.187   7.231  0.7762 -1.3491 -0.6938
 2577SOL     OW 9214   3.777   1.638   7.004  0.3496 -0.0104  0.9923
 2577SOL    HW1 9215   3.822   1.666   6.924  0.8526 -1.1884  0.8512
 2577SOL    HW2 9216   3.833   1.669   7.075  0.5802 -0.0999  0.8506
 2578SOL     OW 9217   3.288   1.417   0.098 -0.8368 -0.8953 -0.1421
 2578SOL    HW1 9218   3.205   1.459   0.078 -0.6842 -0.5446 -0.0384
 2578SOL    HW2 9219   3.327   1.472   0.165  0.5237  0.2108 -1.8125
 2579SOL     OW 9220   2.457   4.126   5.238 -0.1068 -0.1795 -0.5515
 2579SOL    HW1 9221   2.467   4.032   5.221  1.3483 -0.3007  0.8552
 2579SOL    HW2 9222   2.443   4.132   5.332 -3.2028  0.8195 -1.0358
 2580SOL     OW 9223   7.215   0.389   8.045 -0.5853 -0.4929 -0.6592
 2580SOL    HW1 9224   7.142   0.431   8.090  1.5349  2.6876 -0.0209
 2580SOL    HW2 9225   7.221   0.435   7.961 -2.4031 -4.1333 -2.9168
 2581SOL     OW 9226   0.545   3.255   0.797  0.5320  0.2176 -0.7676
 2581SOL    HW1 9227   0.513   3.239   0.709  0.1232  0.2643 -0.6304
 2581SOL    HW2 9228   0.632   3.216   0.799  0.9382  1.0669 -1.4813
 2582SOL     OW 9229   3.559   6.213   6.827 -0.1220 -0.4013  0.0872
 2582SOL    HW1 9230   3.637   6.190   6.777 -0.2697 -0.4267 -0.1333
 2582SOL    HW2 9231   3.591   6.234   6.914  0.1957  0.1360 -0.1605
 2583SOL     OW 9232   4.879   1.615   2.510 -0.4723 -0.0437  0.0197
 2583SOL    HW1 9233   4.915   1.627   2.599  1.4270 -2.7391 -0.3234
 2583SOL    HW2 9234   4.948   1.648   2.452 -1.4626  1.1402 -0.5179
 2584SOL     OW 9235   5.318   7.478   4.506  0.0972  0.3143  0.5261
 2584SOL    HW1 9236   5.274   7.394   4.508 -1.1505  0.9662  1.8932
 2584SOL    HW2 9237   5.405   7.460   4.470 -0.6864 -1.2743 -0.5890
 2585SOL     OW 9238   1.178   3.415   2.386  0.3822  0.0618  0.2863
 2585SOL    HW1 9239   1.120   3.406   2.311  1.6259  1.5449 -0.8729
 2585SOL    HW2 9240   1.211   3.326   2.401 -1.6257 -0.6536  0.5173
 2586SOL     OW 9241   7.750   6.110   3.571 -0.2799  0.2816  0.1050
 2586SOL    HW1 9242   7.834   6.070   3.592 -0.5973 -1.0982 -1.1230
 2586SOL    HW2 9243   7.709   6.048   3.510 -2.6313  0.4185  1.4988
 2587SOL     OW 9244   5.165   1.457   0.076  0.2681 -0.4000  0.2394
 2587SOL    HW1 9245   5.223   1.389   0.041  1.0155 -0.4354  1.5046
 2587SOL    HW2 9246   5.104   1.410   0.132 -0.3661 -0.2394 -0.3159
 2588SOL     OW 9247   0.933   6.850   4.143  0.2788 -0.2417  0.1737
 2588SOL    HW1 9248   0.904   6.803   4.221 -1.3398 -0.7534 -0.7106
 2588SOL    HW2 9249   0.852   6.871   4.096  1.0929  1.8919 -0.3369
 2589SOL     OW 9250   8.191   4.374   6.296  0.3576  0.2479 -0.8142
 2589SOL    HW1 9251   8.231   4.354   6.381 -0.6417  1.3323 -0.0837
 2589SOL    HW2 9252   8.152   4.291   6.268 -1.0749  0.3670  0.7462
 2590SOL     OW 9253   2.159   3.068   6.148  0.0667  0.3624 -0.6752
 2590SOL    HW1 9254   2.233   3.029   6.100 -1.2145 -0.7603 -1.7836
 2590SOL    HW2 9255   2.126   3.136   6.091 -0.0652  0.5346 -0.3945
 2591SOL     OW 9256   7.648   6.572   1.480  0.5416 -0.3630 -0.7065
 2591SOL    HW1 9257   7.728   6.576   1.428  0.5824 -0.4815 -0.6528
 2591SOL    HW2 9258   7.665   6.506   1.547  1.7982  2.2747  1.6955
 2592SOL     OW 9259   4.981   0.843   1.597 -0.6386  0.5567  0.6243
 2592SOL    HW1 9260   5.005   0.848   1.505  0.8043  0.7370  1.0008
 2592SOL    HW2 9261   4.899   0.793   1.598 -0.7597  0.7144 -0.7598
 2593SOL     OW 9262   5.993   0.414   0.268 -0.0613  0.2015 -0.4912
 2593SOL    HW1 9263   5.983   0.493   0.214  1.2210  1.0508  0.4781
 2593SOL    HW2 9264   6.082   0.383   0.249 -0.5787 -1.0589 -0.9151
 2594SOL     OW 9265   0.646   3.968   3.818  0.2385 -0.0948  1.0447
 2594SOL    HW1 9266   0.709   4.039   3.830 -0.5760  0.7041  0.6530
 2594SOL    HW2 9267   0.700   3.891   3.800  1.0877  0.6718  0.2278
 2595SOL     OW 9268   4.210   3.651   7.133 -0.0618 -0.2830  0.3052
 2595SOL    HW1 9269   4.132   3.690   7.094 -0.8471  0.3053  2.3741
 2595SOL    HW2 9270   4.263   3.623   7.058 -1.8936 -0.0029 -1.1418
 2596SOL     OW 9271   8.115   4.371   7.337 -0.4886 -0.1705  0.2672
 2596SOL    HW1 9272   8.084   4.416   7.258 -0.6720  0.8474  0.9093
 2596SOL    HW2 9273   8.035   4.338   7.378 -0.5090  0.2990  0.6173
 2597SOL     OW 9274   3.523   6.512   3.826 -0.7219 -0.5265  0.1136
 2597SOL    HW1 9275   3.484   6.561   3.753  0.6301 -1.0003 -0.9373
 2597SOL    HW2 9276   3.549   6.579   3.888 -3.1998 -0.1955  0.8462
 2598SOL     OW 9277   2.856   4.323   4.045  0.0231  0.7680 -0.9352
 2598SOL    HW1 9278   2.945   4.326   4.082 -0.6837 -1.0385  1.0851
 2598SOL    HW2 9279   2.862   4.258   3.975  0.2165  0.2897 -0.4863
 2599SOL     OW 9280   5.684   7.446   6.905  0.1959 -0.3031  0.1416
 2599SOL    HW1 9281   5.738   7.391   6.849  0.4188 -1.0674  1.1114
 2599SOL    HW2 9282   5.699   7.535   6.872  1.6112 -0.5699  0.0527
 2600SOL     OW 9283   4.158   5.776   7.576  0.0895 -0.4076 -0.8039
 2600SOL    HW1 9284   4.075   5.817   7.551 -0.9954 -2.1774 -0.2055
 2600SOL    HW2 9285   4.171   5.803   7.667 -0.2300 -0.7670 -0.6521
 2601SOL     OW 9286   1.873   7.885   6.835  0.2191 -0.0617 -0.6449
 2601SOL    HW1 9287   1.829   7.873   6.919 -2.1645 -0.1019 -1.8444
 2601SOL    HW2 9288   1.956   7.838   6.844  0.1234  0.1569  1.7526
 2602SOL     OW 9289   0.474   2.219   1.789 -0.3569 -0.6148 -0.3534
 2602SOL    HW1 9290   0.557   2.170   1.783  0.9793  1.6523 -0.8087
 2602SOL    HW2 9291   0.455   2.246   1.700 -0.8028  0.1528 -0.0292
 2603SOL     OW 9292   5.956   6.008   6.543  0.1037 -0.9679 -0.0134
 2603SOL    HW1 9293   5.917   5.920   6.548 -2.2412 -0.0933 -1.7185
 2603SOL    HW2 9294   6.040   6.000   6.587 -0.9478 -3.5853  1.6507
 2604SOL     OW 9295   0.390   2.488   1.217 -0.7388 -0.6383 -0.2664
 2604SOL    HW1 9296   0.461   2.492   1.281 -0.1267  1.2219 -1.0413
 2604SOL    HW2 9297   0.367   2.395   1.214 -0.0608 -0.9189  1.8577
 2605SOL     OW 9298   6.625   5.169   0.135  0.5566  0.5977 -0.2843
 2605SOL    HW1 9299   6.666   5.119   0.064 -0.7719 -1.7393  0.5095
 2605SOL    HW2 9300   6.659   5.129   0.215 -0.5367  0.9559  0.3698
 2606SOL     OW 9301   1.575   5.237   7.317 -0.4971  0.2954  0.0665
 2606SOL    HW1 9302   1.597   5.168   7.254 -1.4152 -0.4590  0.5523
 2606SOL    HW2 9303   1.590   5.319   7.270  3.4480 -0.1424  0.3977
 2607SOL     OW 9304   8.176   4.490   4.123 -0.1792 -0.5187  0.1333
 2607SOL    HW1 9305   8.173   4.474   4.218  0.6522 -2.3686 -0.1285
 2607SOL    HW2 9306   8.157   4.404   4.084  0.5515 -0.0107 -1.3761
 2608SOL     OW 9307   5.582   1.805   3.051 -0.0413  0.4319  0.2311
 2608SOL    HW1 9308   5.565   1.730   3.108 -0.7802  0.5472  0.1671
 2608SOL    HW2 9309   5.546   1.779   2.966 -1.6074  1.4356  0.5831
 2609SOL     OW 9310   4.126   5.149   2.107 -0.5931 -0.0666  0.1896
 2609SOL    HW1 9311   4.208   5.105   2.083 -1.5192 -0.4825 -2.2831
 2609SOL    HW2 9312   4.151   5.241   2.117 -0.0813  0.0612 -2.0304
 2610SOL     OW 9313   6.418   0.001   4.522  0.1444  0.2240 -0.1749
 2610SOL    HW1 9314   6.359   0.067   4.487 -1.5127 -0.4452  1.2718
 2610SOL    HW2 9315   6.441  -0.053   4.446 -0.8278  0.7083 -0.8280
 2611SOL     OW 9316   2.618   3.999   0.886  0.3183  0.0260  0.1424
 2611SOL    HW1 9317   2.526   4.002   0.860  0.6755 -1.1442 -1.3809
 2611SOL    HW2 9318   2.617   3.962   0.975 -0.7425  1.0796  0.5725
 2612SOL     OW 9319   3.218   7.208   2.674  0.2365  0.4290 -0.2204
 2612SOL    HW1 9320   3.307   7.232   2.700  0.1788  1.4074 -0.9130
 2612SOL    HW2 9321   3.170   7.201   2.757  0.4656  1.8979  0.0592
 2613SOL     OW 9322   0.620   7.033   0.165 -0.2342  0.0474  0.2000
 2613SOL    HW1 9323   0.529   7.006   0.150 -0.8655  1.2362  1.7725
 2613SOL    HW2 9324   0.631   7.109   0.107  0.4267 -1.3639 -1.5542
 2614SOL     OW 9325   5.629   8.206   8.254  0.3428 -0.0201 -0.2008
 2614SOL    HW1 9326   5.593   8.156   8.328 -0.0957 -0.9627 -1.0471
 2614SOL    HW2 9327   5.670   8.282   8.295  0.3658 -0.6891  1.0497
 2615SOL     OW 9328   6.206   7.387   2.715  0.6547  0.2713  0.0563
 2615SOL    HW1 9329   6.179   7.454   2.777 -0.1515 -0.5029  0.5649
 2615SOL    HW2 9330   6.230   7.435   2.635  1.4649  1.2478  0.8786
 2616SOL     OW 9331   1.854   8.312   8.129 -0.3509  0.2573  0.2979
 2616SOL    HW1 9332   1.831   8.288   8.039  0.6927 -0.5612  0.2426
 2616SOL    HW2 9333   1.940   8.273   8.143 -1.6692 -1.9318  2.5850
 2617SOL     OW 9334   2.145   3.700   5.974 -0.2146 -0.1057  0.3656
 2617SOL    HW1 9335   2.067   3.662   5.935 -0.3030  0.0810  0.3626
 2617SOL    HW2 9336   2.202   3.625   5.991 -0.2204 -0.1996 -0.0220
 2618SOL     OW 9337   4.644   4.167   5.519 -0.5546  0.3130  0.1975
 2618SOL    HW1 9338   4.710   4.225   5.481 -0.0411 -0.0681  0.4964
 2618SOL    HW2 9339   4.674   4.153   5.609  1.3546 -3.3769 -0.9096
 2619SOL     OW 9340   2.217   7.523   0.150 -0.4947  0.0867  0.6313
 2619SOL    HW1 9341   2.222   7.619   0.150 -3.3711  0.2802  0.2883
 2619SOL    HW2 9342   2.126   7.504   0.125  0.4421 -2.7686 -0.7490
 2620SOL     OW 9343   7.526   7.394   0.340  0.0339 -0.3218  0.3618
 2620SOL    HW1 9344   7.523   7.488   0.323 -0.1319 -0.2089  0.9984
 2620SOL    HW2 9345   7.438   7.363   0.316  0.2145 -0.3834 -0.2259
 2621SOL     OW 9346   7.006   6.882   7.877 -0.0102 -0.3493  0.5138
 2621SOL    HW1 9347   6.912   6.870   7.868  0.0162  0.6755 -1.3657
 2621SOL    HW2 9348   7.032   6.928   7.797  1.7461  1.3204  1.9941
 2622SOL     OW 9349   6.288   3.330   4.765 -0.3516 -0.4035 -0.6303
 2622SOL    HW1 9350   6.265   3.267   4.696  0.2377 -0.8936 -0.3825
 2622SOL    HW2 9351   6.243   3.298   4.843  0.2986 -0.7710 -0.3992
 2623SOL     OW 9352   1.135   5.684   3.457 -0.2072 -0.0815  0.4986
 2623SOL    HW1 9353   1.059   5.731   3.421  0.1774 -0.8566 -1.3647
 2623SOL    HW2 9354   1.100   5.600   3.486 -0.2504 -0.0434  0.5544
 2624SOL     OW 9355   3.339   2.613   3.832  0.7185  0.3051 -0.2863
 2624SOL    HW1 9356   3.281   2.673   3.785  2.8078  1.5350 -1.3803
 2624SOL    HW2 9357   3.280   2.558   3.883 -1.6217 -0.6594 -3.8063
 2625SOL     OW 9358   3.873   7.782   2.699 -0.5282  0.5028 -0.2963
 2625SOL    HW1 9359   3.949   7.725   2.688 -0.7454  0.0095  0.7473
 2625SOL    HW2 9360   3.910   7.870   2.704  0.0040  0.2362  0.5257
 2626SOL     OW 9361   5.180   6.126   6.382 -0.2287 -0.6540 -0.6207
 2626SOL    HW1 9362   5.254   6.143   6.324 -0.4890 -0.3253 -0.8561
 2626SOL    HW2 9363   5.124   6.202   6.372  0.3035 -0.0249  0.9662
 2627SOL     OW 9364   5.666   4.982   6.571 -0.2168  0.4487  0.1709
 2627SOL    HW1 9365   5.719   5.014   6.643  1.4118 -0.8937 -0.3694
 2627SOL    HW2 9366   5.599   4.927   6.612 -0.4211  1.1533  0.7775
 2628SOL     OW 9367   1.181   4.323   2.020 -0.8282 -0.2376 -0.0699
 2628SOL    HW1 9368   1.161   4.258   2.087 -2.0558  0.2534  0.0595
 2628SOL    HW2 9369   1.269   4.354   2.041 -0.5033 -1.3747  0.2545
 2629SOL     OW 9370   7.338   4.849   3.810 -0.0093  0.0918  0.1729
 2629SOL    HW1 9371   7.391   4.822   3.735 -0.8578 -0.3337 -0.2775
 2629SOL    HW2 9372   7.249   4.824   3.787 -0.2592 -0.1777  1.3857
 2630SOL     OW 9373   2.120   7.788   6.883  0.3743 -0.2017 -0.6910
 2630SOL    HW1 9374   2.100   7.697   6.902  0.9562 -0.0784  0.5492
 2630SOL    HW2 9375   2.203   7.785   6.835  1.0808 -0.2403  0.5255
 2631SOL     OW 9376   5.629   3.588   2.777 -0.7512  0.0428 -0.1853
 2631SOL    HW1 9377   5.683   3.662   2.805  0.8065 -0.7720 -1.0247
 2631SOL    HW2 9378   5.562   3.627   2.721  1.3457  0.5876 -2.4012
 2632SOL     OW 9379   6.354   8.301   8.183  0.4898 -1.1150  0.4524
 2632SOL    HW1 9380   6.297   8.356   8.236  0.8163  0.0989 -0.4331
 2632SOL    HW2 9381   6.408   8.254   8.246 -1.2530 -2.0252  1.2891
 2633SOL     OW 9382   5.127   2.039   6.105  0.4191  0.2488 -0.4143
 2633SOL    HW1 9383   5.102   2.095   6.179  2.4091  0.7129 -0.0851
 2633SOL    HW2 9384   5.220   2.020   6.119  0.0118 -2.4068 -1.0114
 2634SOL     OW 9385   6.671   4.280   6.071  0.0053 -0.0930  0.2595
 2634SOL    HW1 9386   6.675   4.319   6.159 -0.8001  0.8938 -0.1286
 2634SOL    HW2 9387   6.620   4.200   6.082 -1.2307  0.7051  0.4691
 2635SOL     OW 9388   7.845   0.368   2.157  0.1152  0.1316  0.5534
 2635SOL    HW1 9389   7.773   0.410   2.110  1.9235  1.9729 -0.7026
 2635SOL    HW2 9390   7.814   0.279   2.174 -2.0991  0.6062 -0.7351
 2636SOL     OW 9391   5.462   3.234   5.256 -0.1027 -0.1587  0.4779
 2636SOL    HW1 9392   5.413   3.256   5.335 -0.4034 -0.0731  0.2692
 2636SOL    HW2 9393   5.395   3.215   5.190  0.1411  0.6028  0.0092
 2637SOL     OW 9394   8.193   7.322   4.862 -0.2206 -0.3558  0.0423
 2637SOL    HW1 9395   8.250   7.299   4.789  1.2573 -2.0247  1.6472
 2637SOL    HW2 9396   8.250   7.365   4.925 -1.3025  0.3537  0.5641
 2638SOL     OW 9397   5.900   2.581   7.947  0.4109 -0.6418 -0.5258
 2638SOL    HW1 9398   5.905   2.525   8.024  0.9926  0.8452  0.5492
 2638SOL    HW2 9399   5.987   2.622   7.942 -0.3211  0.9173 -0.6797
 2639SOL     OW 9400   5.384   5.261   3.763  0.4071  0.3691 -0.2446
 2639SOL    HW1 9401   5.319   5.236   3.697  0.8924  1.4267 -1.1233
 2639SOL    HW2 9402   5.463   5.279   3.714  1.6701 -1.8178  0.8969
 2640SOL     OW 9403   7.702   0.690   4.430  0.3368 -0.4190  0.3705
 2640SOL    HW1 9404   7.741   0.641   4.357 -0.7087 -1.8884  0.7811
 2640SOL    HW2 9405   7.641   0.628   4.471 -1.0130  1.2235  0.9063
 2641SOL     OW 9406   2.333   2.262   3.940  0.3543 -0.6289  0.2367
 2641SOL    HW1 9407   2.266   2.208   3.898 -0.7401  1.0078 -0.1773
 2641SOL    HW2 9408   2.285   2.315   4.004  1.2192  0.5812 -0.0812
 2642SOL     OW 9409   0.217   6.459   0.355  0.1116 -0.1808 -0.3233
 2642SOL    HW1 9410   0.229   6.450   0.449 -0.6351  1.9492  0.0225
 2642SOL    HW2 9411   0.124   6.480   0.344 -0.0857 -1.6585 -1.6485
 2643SOL     OW 9412   1.579   4.685   2.499  0.7251 -0.2126 -0.1413
 2643SOL    HW1 9413   1.557   4.596   2.473 -0.9862  0.5762 -1.4942
 2643SOL    HW2 9414   1.675   4.686   2.502  0.7279 -2.8098  2.5906
 2644SOL     OW 9415   6.378   0.603   7.836  0.8054 -0.5028  0.0634
 2644SOL    HW1 9416   6.362   0.669   7.903 -1.3857 -2.1225  1.1945
 2644SOL    HW2 9417   6.452   0.637   7.786  2.0927  1.0379  2.8978
 2645SOL     OW 9418   7.754   3.609   8.003 -0.4439  0.2240 -0.6171
 2645SOL    HW1 9419   7.843   3.644   8.013 -1.5623  2.9091  0.6718
 2645SOL    HW2 9420   7.741   3.602   7.909  0.8812  0.5465 -0.8344
 2646SOL     OW 9421   6.487   0.504   6.627 -0.0695 -0.2302  0.0443
 2646SOL    HW1 9422   6.568   0.532   6.670 -0.2716  0.1694  0.1605
 2646SOL    HW2 9423   6.459   0.427   6.676 -1.4062  1.4050  1.9276
 2647SOL     OW 9424   1.616   5.376   1.466  0.1695  0.0946 -0.1318
 2647SOL    HW1 9425   1.684   5.379   1.398  1.4919  0.0851  1.1780
 2647SOL    HW2 9426   1.585   5.286   1.465  3.0292 -0.9666  2.0127
 2648SOL     OW 9427   4.738   5.942   3.013  0.2865  0.3520 -0.5796
 2648SOL    HW1 9428   4.650   5.921   3.044  0.4437  0.1696 -0.2517
 2648SOL    HW2 9429   4.753   5.883   2.939  0.0313  0.5679 -0.8035
 2649SOL     OW 9430   6.679   1.585   0.248 -1.1378 -0.7018 -1.0158
 2649SOL    HW1 9431   6.750   1.647   0.263 -0.6824 -0.3826 -4.0935
 2649SOL    HW2 9432   6.719   1.499   0.258 -0.7651 -0.5159 -0.8988
 2650SOL     OW 9433   4.685   6.252   3.942 -0.5784 -0.2657 -0.5177
 2650SOL    HW1 9434   4.632   6.331   3.945  1.2971  1.0108 -0.0162
 2650SOL    HW2 9435   4.765   6.278   3.898 -1.2565 -2.7349 -3.3655
 2651SOL     OW 9436   1.071   8.104   5.689  0.3965 -0.2519 -0.1977
 2651SOL    HW1 9437   0.982   8.073   5.704 -0.0421  1.9174  1.9809
 2651SOL    HW2 9438   1.068   8.148   5.605 -0.8506  0.7493  0.3637
 2652SOL     OW 9439   1.769   7.062   1.478 -0.5484  0.0606 -0.1065
 2652SOL    HW1 9440   1.835   7.095   1.417 -0.6976 -0.9666 -0.8335
 2652SOL    HW2 9441   1.818   7.037   1.556  0.0430 -1.4689 -0.9532
 2653SOL     OW 9442   7.234   2.136   1.177 -0.0983  0.1217 -0.5287
 2653SOL    HW1 9443   7.216   2.043   1.167 -1.3087  0.3306 -0.3648
 2653SOL    HW2 9444   7.322   2.148   1.141  2.2890 -1.9990  4.2409
 2654SOL     OW 9445   2.986   4.578   6.100 -0.5126 -0.5688 -0.6897
 2654SOL    HW1 9446   3.018   4.660   6.064 -0.4001  0.3138  1.3639
 2654SOL    HW2 9447   2.891   4.590   6.106 -0.4810 -0.5354 -0.2553
 2655SOL     OW 9448   5.861   6.635   2.791  0.0605  0.1623 -0.1047
 2655SOL    HW1 9449   5.942   6.670   2.752  0.3050 -0.2651  0.0127
 2655SOL    HW2 9450   5.890   6.557   2.839  0.1492  2.0133  2.9709
 2656SOL     OW 9451   6.808   2.595   7.709 -0.1127  0.0531 -0.1234
 2656SOL    HW1 9452   6.834   2.684   7.732 -2.6598  1.4686 -2.4284
 2656SOL    HW2 9453   6.873   2.567   7.645 -0.6566  1.2082 -1.2067
 2657SOL     OW 9454   0.866   5.448   3.347 -0.4827 -0.4023 -0.1819
 2657SOL    HW1 9455   0.846   5.370   3.399  0.8150 -0.1071  0.7792
 2657SOL    HW2 9456   0.844   5.522   3.404 -0.9134 -0.0565 -0.7808
 2658SOL     OW 9457   5.749   0.667   6.229  1.3990 -0.4325 -0.0894
 2658SOL    HW1 9458   5.763   0.749   6.183  0.0380 -0.6312 -0.8613
 2658SOL    HW2 9459   5.777   0.685   6.319 -2.0839  1.8943  0.6060
 2659SOL     OW 9460   3.764   4.373   6.217  0.8207  0.2729 -0.1423
 2659SOL    HW1 9461   3.712   4.449   6.241  0.6862  1.0080 -2.6342
 2659SOL    HW2 9462   3.700   4.307   6.191  1.0400  0.7468 -1.9786
 2660SOL     OW 9463   2.011   3.980   0.334 -0.4311 -0.1517  0.6942
 2660SOL    HW1 9464   1.972   4.025   0.259 -1.4863  1.5762  2.2275
 2660SOL    HW2 9465   1.960   3.899   0.343 -1.3789  0.4100  0.5122
 2661SOL     OW 9466   2.387   2.881   7.277 -0.3220  0.0576 -0.0642
 2661SOL    HW1 9467   2.367   2.971   7.249  0.9390  0.3754  0.0329
 2661SOL    HW2 9468   2.342   2.871   7.361 -1.5774  0.1389 -0.7108
 2662SOL     OW 9469   1.768   0.335   4.538  0.0455 -0.1507  0.0434
 2662SOL    HW1 9470   1.801   0.289   4.615 -1.0950  0.1209  0.7035
 2662SOL    HW2 9471   1.808   0.421   4.543  0.8101 -0.4901 -0.2436
 2663SOL     OW 9472   5.387   6.729   4.197  0.2604  0.1752 -0.1614
 2663SOL    HW1 9473   5.427   6.682   4.124 -0.6806  0.2536 -0.7422
 2663SOL    HW2 9474   5.367   6.661   4.261 -1.4955 -0.3299 -1.1809
 2664SOL     OW 9475   6.227   2.032   1.446  0.2349  0.4319  0.8700
 2664SOL    HW1 9476   6.313   2.006   1.479 -0.2788 -0.9912  1.1309
 2664SOL    HW2 9477   6.172   1.954   1.459 -1.0819  1.3155  0.6866
 2665SOL     OW 9478   0.222   3.585   5.640  0.2086  0.2644 -0.3420
 2665SOL    HW1 9479   0.228   3.490   5.652 -1.2216  0.0578 -1.1035
 2665SOL    HW2 9480   0.137   3.609   5.677  0.0470  1.0614 -1.1987
 2666SOL     OW 9481   1.748   7.103   7.188 -0.0459  0.4129  0.3772
 2666SOL    HW1 9482   1.813   7.163   7.152 -0.5118 -0.3064 -1.7490
 2666SOL    HW2 9483   1.762   7.021   7.140 -0.1075 -0.8816  2.4908
 2667SOL     OW 9484   5.447   7.663   5.508  0.1862  0.2864  0.0605
 2667SOL    HW1 9485   5.471   7.717   5.433  0.4973 -1.5735 -1.2143
 2667SOL    HW2 9486   5.352   7.658   5.505  0.2807 -1.1157 -1.1953
 2668SOL     OW 9487   5.014   2.758   5.704 -0.1654  0.0834 -0.0806
 2668SOL    HW1 9488   5.003   2.811   5.626  0.3605  0.8406  0.3475
 2668SOL    HW2 9489   5.108   2.740   5.707 -0.3730 -1.0720 -0.3483
 2669SOL     OW 9490   3.474   0.469   8.303  0.8543  0.1382 -0.4105
 2669SOL    HW1 9491   3.556   0.515   8.322 -0.6998  2.0659  1.8669
 2669SOL    HW2 9492   3.451   0.427   8.386 -1.3553  1.0838 -0.5222
 2670SOL     OW 9493   3.654   8.121   6.817 -0.0002  1.0114 -0.0530
 2670SOL    HW1 9494   3.738   8.129   6.861  0.8060 -0.1246 -1.3508
 2670SOL    HW2 9495   3.590   8.150   6.882  1.5547  4.1229  0.1685
 2671SOL     OW 9496   6.222   7.768   1.149  0.4946 -0.3169 -0.1603
 2671SOL    HW1 9497   6.153   7.702   1.152  0.0262  0.1852  0.1973
 2671SOL    HW2 9498   6.275   7.745   1.073  0.0791 -0.8493 -0.2855
 2672SOL     OW 9499   4.232   5.513   7.617  0.3484  0.2824  1.0975
 2672SOL    HW1 9500   4.234   5.607   7.596 -0.1623 -0.3017 -1.8005
 2672SOL    HW2 9501   4.320   5.482   7.597 -0.1994 -0.3188 -0.5308
 2673SOL     OW 9502   8.259   3.895   3.671 -0.4482  0.2724 -0.0712
 2673SOL    HW1 9503   8.221   3.981   3.690  0.7644  1.5266 -3.0120
 2673SOL    HW2 9504   8.348   3.900   3.704 -0.6907 -0.2591  0.6919
 2674SOL     OW 9505   4.769   3.988   5.012 -0.6298 -0.0466  0.1407
 2674SOL    HW1 9506   4.759   4.043   4.934  1.0406 -0.7001 -0.5609
 2674SOL    HW2 9507   4.690   4.005   5.063 -1.2451  1.2176 -1.1756
 2675SOL     OW 9508   0.338   3.073   6.698  0.2419  0.5969  0.4177
 2675SOL    HW1 9509   0.289   3.002   6.658 -0.6863  1.8122 -0.6144
 2675SOL    HW2 9510   0.371   3.125   6.625  0.7262  1.3591  1.1579
 2676SOL     OW 9511   6.764   4.566   4.733  0.1271  0.5873 -0.0068
 2676SOL    HW1 9512   6.693   4.568   4.798  0.3937  1.2491  0.2649
 2676SOL    HW2 9513   6.808   4.483   4.748 -0.6924  0.0929 -0.2864
 2677SOL     OW 9514   2.777   5.313   1.752 -0.0593  0.0844 -0.4466
 2677SOL    HW1 9515   2.703   5.254   1.737 -1.5471  1.7251  0.2155
 2677SOL    HW2 9516   2.824   5.314   1.669 -0.3266 -1.6089 -0.6232
 2678SOL     OW 9517   7.124   7.642   7.626  0.3007  0.7192 -0.3777
 2678SOL    HW1 9518   7.049   7.611   7.676 -0.5768 -0.0160 -2.0791
 2678SOL    HW2 9519   7.201   7.621   7.680 -0.5823 -0.4550  0.4289
 2679SOL     OW 9520   6.656   3.050   7.758 -0.1157  0.0599  0.0620
 2679SOL    HW1 9521   6.605   3.088   7.686  1.7062  1.9456 -0.2804
 2679SOL    HW2 9522   6.636   3.106   7.833 -0.9492 -1.0825  0.7077
 2680SOL     OW 9523   4.506   2.413   2.123  0.0278 -0.2017 -0.1504
 2680SOL    HW1 9524   4.460   2.497   2.117  1.2004  0.4060 -0.9325
 2680SOL    HW2 9525   4.569   2.425   2.194 -0.8255 -0.9451  0.7510
 2681SOL     OW 9526   6.813   4.229   6.690  0.5204  0.4401 -0.0231
 2681SOL    HW1 9527   6.781   4.183   6.612  1.4744  1.4554 -1.0464
 2681SOL    HW2 9528   6.902   4.254   6.667  0.7321  0.9422  1.3302
 2682SOL     OW 9529   6.866   3.777   7.640  0.3725  0.4543  0.3520
 2682SOL    HW1 9530   6.817   3.790   7.721 -1.4754 -0.7668 -0.5269
 2682SOL    HW2 9531   6.818   3.708   7.594  2.5477 -0.2923 -0.8676
 2683SOL     OW 9532   2.677   6.863   0.069  0.0276 -0.1042 -0.3195
 2683SOL    HW1 9533   2.734   6.930   0.107  1.3265 -1.7545  0.6912
 2683SOL    HW2 9534   2.736   6.808   0.018 -0.3747 -2.6384  1.8387
 2684SOL     OW 9535   5.849   3.166   3.855  0.6073  0.0265 -0.4159
 2684SOL    HW1 9536   5.921   3.112   3.820  0.1096 -2.3198  1.9987
 2684SOL    HW2 9537   5.786   3.171   3.783  1.4249 -1.2552 -1.2412
 2685SOL     OW 9538   7.059   7.023   0.953  0.0634 -0.5116 -0.4735
 2685SOL    HW1 9539   7.073   7.019   0.858  0.8599 -1.1356 -0.3306
 2685SOL    HW2 9540   7.146   7.034   0.990 -0.3955  1.3560  0.1056
 2686SOL     OW 9541   0.402   2.043   1.516 -0.3587  0.1169  0.2682
 2686SOL    HW1 9542   0.439   2.132   1.509  1.0346 -0.5969 -1.8925
 2686SOL    HW2 9543   0.310   2.057   1.535 -0.3489  2.0751 -0.9604
 2687SOL     OW 9544   5.068   4.257   3.346 -0.0141  0.2795  0.5608
 2687SOL    HW1 9545   4.991   4.207   3.318  1.3572 -1.4022 -0.3330
 2687SOL    HW2 9546   5.068   4.250   3.441 -0.9918  0.3338  0.5695
 2688SOL     OW 9547   5.823   7.779   7.014 -0.0139 -0.4444  0.3512
 2688SOL    HW1 9548   5.807   7.785   7.108  1.7563  0.5090  0.6175
 2688SOL    HW2 9549   5.762   7.841   6.975  1.3009  1.4223  1.1514
 2689SOL     OW 9550   1.952   4.338   7.904  0.4617 -0.3794  0.2910
 2689SOL    HW1 9551   1.958   4.355   7.810 -1.1529 -0.5945  0.1307
 2689SOL    HW2 9552   1.968   4.422   7.945 -0.6195  0.0972 -0.2483
 2690SOL     OW 9553   6.531   5.132   2.488 -0.2885  1.0377 -0.2693
 2690SOL    HW1 9554   6.607   5.106   2.435 -0.3482 -0.5094  0.3703
 2690SOL    HW2 9555   6.460   5.141   2.424 -0.1002  0.2607 -0.5935
 2691SOL     OW 9556   4.640   0.985   1.584 -0.1239 -0.3811  0.0037
 2691SOL    HW1 9557   4.706   1.021   1.525 -0.4230  1.1963  0.6126
 2691SOL    HW2 9558   4.565   1.043   1.574 -0.1602 -0.0499  1.9738
 2692SOL     OW 9559   6.085   7.887   7.013 -0.3264 -0.3131 -0.7627
 2692SOL    HW1 9560   6.113   7.946   6.942  2.3515 -1.9501 -1.1517
 2692SOL    HW2 9561   5.992   7.875   6.998  0.0302 -0.0549 -3.6295
 2693SOL     OW 9562   5.875   5.328   7.906  0.2126  0.6322 -0.2913
 2693SOL    HW1 9563   5.788   5.329   7.947 -0.0232  0.7982 -0.7924
 2693SOL    HW2 9564   5.890   5.419   7.881 -0.3873  0.2405 -2.1297
 2694SOL     OW 9565   0.954   2.139   4.602 -0.4487  0.3844  0.0812
 2694SOL    HW1 9566   1.008   2.139   4.680  1.8395 -0.0523 -1.4549
 2694SOL    HW2 9567   0.969   2.226   4.563 -0.6183  0.1536 -0.5000
 2695SOL     OW 9568   6.105   7.800   7.283  0.1952 -0.0400  0.0583
 2695SOL    HW1 9569   6.110   7.785   7.188  1.0828 -0.6040  0.1845
 2695SOL    HW2 9570   6.170   7.868   7.300  1.1007 -0.9947  0.4634
 2696SOL     OW 9571   0.101   6.275   7.717  0.4267  0.0845  0.0275
 2696SOL    HW1 9572   0.150   6.327   7.780  1.4350 -1.2954  0.4232
 2696SOL    HW2 9573   0.144   6.292   7.633  0.7606 -0.1202  0.1572
 2697SOL     OW 9574   7.243   6.298   2.045 -0.6738  0.2668  0.4111
 2697SOL    HW1 9575   7.254   6.328   1.955 -2.6947  1.1060  0.4117
 2697SOL    HW2 9576   7.302   6.352   2.096  1.7836 -1.3934 -0.5964
 2698SOL     OW 9577   2.874   8.215   5.865 -0.5486  0.4706 -0.1680
 2698SOL    HW1 9578   2.909   8.302   5.846  0.5232  0.3673  1.2808
 2698SOL    HW2 9579   2.870   8.172   5.780  1.8428  0.8614 -0.5127
 2699SOL     OW 9580   0.162   2.330   1.667  0.2459 -0.0604 -0.0117
 2699SOL    HW1 9581   0.153   2.319   1.761 -0.4551  0.6889  0.0164
 2699SOL    HW2 9582   0.200   2.417   1.655 -0.7275  0.3128 -0.4500
 2700SOL     OW 9583   5.160   1.661   3.099 -0.1428  0.4325  0.3233
 2700SOL    HW1 9584   5.166   1.581   3.151 -3.1559 -0.3574 -0.4795
 2700SOL    HW2 9585   5.186   1.731   3.160  0.7081 -0.9271  1.5598
 2701SOL     OW 9586   4.657   8.064   6.633  0.7279 -0.3360 -0.0754
 2701SOL    HW1 9587   4.699   8.105   6.557 -2.3795  2.6455 -0.2892
 2701SOL    HW2 9588   4.655   8.133   6.699  0.0686 -1.7914  1.4316
 2702SOL     OW 9589   0.814   7.712   7.954  0.0990  0.2096 -0.1362
 2702SOL    HW1 9590   0.875   7.640   7.936  0.4021  0.4027  0.1015
 2702SOL    HW2 9591   0.865   7.772   8.009 -0.5378  0.0308  0.6570
 2703SOL     OW 9592   4.148   7.396   5.491 -0.0088 -0.4034 -0.2686
 2703SOL    HW1 9593   4.169   7.371   5.581 -1.0984 -0.5632 -0.0545
 2703SOL    HW2 9594   4.070   7.345   5.470  0.5313 -0.7549 -1.4861
 2704SOL     OW 9595   5.124   0.773   7.653 -0.0573 -0.3322 -0.3667
 2704SOL    HW1 9596   5.137   0.681   7.633 -0.7943 -0.4974 -0.0639
 2704SOL    HW2 9597   5.154   0.783   7.743 -1.1422 -0.5304  0.0238
 2705SOL     OW 9598   0.159   2.740   0.602  0.1925  0.3644 -0.6425
 2705SOL    HW1 9599   0.177   2.678   0.673  1.7723  1.6284  0.0995
 2705SOL    HW2 9600   0.172   2.827   0.642  0.1544  1.1146 -2.2173
 2706SOL     OW 9601   2.399   2.725   4.007 -0.6299  0.2191  0.0910
 2706SOL    HW1 9602   2.468   2.783   4.041  0.4590 -1.5662  1.0255
 2706SOL    HW2 9603   2.424   2.711   3.915 -1.0722  1.4543 -0.2296
 2707SOL     OW 9604   6.237   2.372   4.949 -0.2446  0.1521  0.1439
 2707SOL    HW1 9605   6.278   2.335   5.026 -0.9956  0.3297  0.6417
 2707SOL    HW2 9606   6.305   2.424   4.907  0.0157  0.5121  1.0017
 2708SOL     OW 9607   2.750   7.303   6.653 -0.4396  0.1041 -0.5271
 2708SOL    HW1 9608   2.840   7.291   6.681 -1.5531 -1.4778  2.6808
 2708SOL    HW2 9609   2.720   7.216   6.629 -1.3863  0.4654 -0.6853
 2709SOL     OW 9610   1.421   1.834   3.204 -0.2210  0.6282 -0.1559
 2709SOL    HW1 9611   1.445   1.905   3.145 -0.9114 -0.3668 -1.6517
 2709SOL    HW2 9612   1.333   1.857   3.234  0.0980  1.0926  0.4346
 2710SOL     OW 9613   3.580   2.876   1.344 -0.4758 -0.2366 -0.6328
 2710SOL    HW1 9614   3.646   2.946   1.338  1.4843 -1.8467  1.1269
 2710SOL    HW2 9615   3.579   2.836   1.258  1.9843 -1.1454 -0.2725
 2711SOL     OW 9616   5.559   1.550   7.057  0.3337 -0.0038 -0.1335
 2711SOL    HW1 9617   5.653   1.555   7.078  0.3005 -0.5434  0.1684
 2711SOL    HW2 9618   5.516   1.575   7.139  0.2120  1.7166 -0.6997
 2712SOL     OW 9619   5.421   0.200   5.424 -0.6433  0.5574 -0.2957
 2712SOL    HW1 9620   5.399   0.228   5.336 -1.3200 -0.8691 -0.5905
 2712SOL    HW2 9621   5.502   0.150   5.415 -1.4101 -0.7250 -0.3312
 2713SOL     OW 9622   6.049   7.879   1.477 -0.7142 -0.3874  0.4865
 2713SOL    HW1 9623   6.006   7.809   1.526 -2.0125 -0.5792 -0.9124
 2713SOL    HW2 9624   5.981   7.944   1.462  0.1304  0.5169  0.5214
 2714SOL     OW 9625   1.661   6.757   5.681 -0.1565  0.8804 -0.0316
 2714SOL    HW1 9626   1.678   6.714   5.765  1.1450  1.0716 -0.1860
 2714SOL    HW2 9627   1.734   6.819   5.671 -0.6457  1.3053 -0.9998
 2715SOL     OW 9628   5.866   8.254   7.031  0.6785  0.4923  0.0758
 2715SOL    HW1 9629   5.835   8.334   7.072  2.7758  1.5187 -0.2644
 2715SOL    HW2 9630   5.930   8.283   6.966 -1.9641 -1.1706 -3.4003
 2716SOL     OW 9631   0.210   5.716   1.646  0.1764 -0.5526 -0.3588
 2716SOL    HW1 9632   0.178   5.806   1.650 -1.2560 -1.0732 -0.0606
 2716SOL    HW2 9633   0.211   5.686   1.736  1.6890 -0.4977 -0.3374
 2717SOL     OW 9634   5.897   2.512   1.750  0.0738 -0.1964  0.4528
 2717SOL    HW1 9635   5.992   2.516   1.756  0.0632 -0.3019  0.6776
 2717SOL    HW2 9636   5.872   2.600   1.721  0.1813  0.0872  1.2035
 2718SOL     OW 9637   5.447   8.258   7.850 -0.0314 -0.3908 -0.5859
 2718SOL    HW1 9638   5.475   8.232   7.762 -1.2029  0.4729 -1.2058
 2718SOL    HW2 9639   5.516   8.317   7.880  0.5218 -0.9168 -0.7898
 2719SOL     OW 9640   7.625   1.835   6.314  0.3519  0.0665  0.5464
 2719SOL    HW1 9641   7.629   1.923   6.352 -1.1588  0.8897 -1.1416
 2719SOL    HW2 9642   7.703   1.791   6.348  1.2852  2.1368  1.1900
 2720SOL     OW 9643   8.264   5.763   4.133  0.4049  0.2233  0.3471
 2720SOL    HW1 9644   8.173   5.736   4.120  0.5308 -0.3324  0.5945
 2720SOL    HW2 9645   8.262   5.816   4.213  0.2618  0.3725  0.2431
 2721SOL     OW 9646   1.861   7.749   0.748 -0.0703  0.3004  0.1876
 2721SOL    HW1 9647   1.914   7.812   0.797 -1.3231  3.3883 -2.2465
 2721SOL    HW2 9648   1.799   7.715   0.812  1.5417  0.4285  1.8744
 2722SOL     OW 9649   4.915   6.649   6.432  0.0036  0.7628  0.0576
 2722SOL    HW1 9650   4.884   6.617   6.347  2.4961 -0.9979 -0.2570
 2722SOL    HW2 9651   4.905   6.744   6.427  0.9726  0.7742 -2.5911
 2723SOL     OW 9652   1.912   5.887   1.479 -0.0822  0.3100 -0.5660
 2723SOL    HW1 9653   1.858   5.811   1.457  0.0993 -0.1543  0.5558
 2723SOL    HW2 9654   1.969   5.899   1.402 -0.5019 -0.3293 -0.9843
 2724SOL     OW 9655   0.650   7.097   6.469 -0.5475  0.6072  0.1560
 2724SOL    HW1 9656   0.566   7.063   6.439  0.3748 -0.9312 -0.7534
 2724SOL    HW2 9657   0.713   7.030   6.443  1.2833  2.8304 -1.2869
 2725SOL     OW 9658   3.571   6.618   4.088 -0.9915  1.1012 -0.0610
 2725SOL    HW1 9659   3.574   6.637   4.181 -0.6863  0.3938  0.0762
 2725SOL    HW2 9660   3.630   6.543   4.076 -3.1131 -0.5930 -0.3568
 2726SOL     OW 9661   1.793   3.628   5.078  0.0510  0.1993  0.5322
 2726SOL    HW1 9662   1.735   3.681   5.023 -1.9865 -1.8399  0.6368
 2726SOL    HW2 9663   1.755   3.635   5.165  1.2528  0.6098  1.0246
 2727SOL     OW 9664   1.221   7.512   0.131  0.3865  0.6952 -0.1523
 2727SOL    HW1 9665   1.177   7.427   0.130  1.1824  0.2875 -0.2229
 2727SOL    HW2 9666   1.263   7.519   0.046  0.2038  1.2245 -0.2025
 2728SOL     OW 9667   1.182   6.136   6.435  0.2937  0.4477  0.2896
 2728SOL    HW1 9668   1.205   6.047   6.462 -0.5639 -0.3529 -1.5144
 2728SOL    HW2 9669   1.104   6.125   6.381  1.2088  2.0953 -1.4136
 2729SOL     OW 9670   7.042   2.098   3.046  0.2254 -0.4276 -0.0058
 2729SOL    HW1 9671   7.053   2.190   3.023  0.5951 -0.0889  1.4741
 2729SOL    HW2 9672   7.100   2.051   2.986  0.9026  0.3878  0.0066
 2730SOL     OW 9673   2.647   0.497   5.657  0.4502 -0.1767  0.1626
 2730SOL    HW1 9674   2.697   0.527   5.581 -0.3767 -1.0655 -0.7389
 2730SOL    HW2 9675   2.576   0.444   5.620  0.6429 -1.4700  1.6015
 2731SOL     OW 9676   4.079   1.353   6.743 -0.1958  0.4067 -0.4371
 2731SOL    HW1 9677   4.120   1.333   6.828 -0.1115  3.1723  0.2319
 2731SOL    HW2 9678   3.991   1.316   6.749  0.0241  0.0416  0.6212
 2732SOL     OW 9679   0.785   7.504   2.487 -0.4480  0.1522 -0.1662
 2732SOL    HW1 9680   0.749   7.458   2.410 -1.4126 -0.4440  0.6231
 2732SOL    HW2 9681   0.871   7.535   2.458 -1.2274  0.8537 -1.8325
 2733SOL     OW 9682   1.218   5.802   1.735  0.3742  0.5520 -0.3239
 2733SOL    HW1 9683   1.279   5.738   1.699 -0.6934  0.0462 -1.2534
 2733SOL    HW2 9684   1.231   5.797   1.830  0.8190 -0.5147 -0.4362
 2734SOL     OW 9685   4.840   7.828   7.594  0.2412  0.0705  0.2933
 2734SOL    HW1 9686   4.922   7.841   7.547  1.7979  0.4874  3.0545
 2734SOL    HW2 9687   4.801   7.915   7.600  0.1581  0.0545 -0.0077
 2735SOL     OW 9688   6.680   4.111   7.303 -0.4703 -0.4016 -0.1858
 2735SOL    HW1 9689   6.667   4.017   7.291 -1.4029 -0.4019  0.8346
 2735SOL    HW2 9690   6.766   4.118   7.344 -0.0527 -0.7559 -0.9817
 2736SOL     OW 9691   3.940   2.934   7.421 -0.2377 -1.0859  0.3059
 2736SOL    HW1 9692   3.911   3.016   7.461 -0.6654 -0.7350 -0.7038
 2736SOL    HW2 9693   4.029   2.951   7.391 -0.0577 -1.2286  0.7499
 2737SOL     OW 9694   0.430   0.498   1.608 -0.4659  0.7389 -0.4902
 2737SOL    HW1 9695   0.372   0.574   1.599  0.8640  1.5667 -2.3295
 2737SOL    HW2 9696   0.395   0.434   1.546 -1.5413 -0.1462  1.0060
 2738SOL     OW 9697   3.147   4.940   0.130 -0.4053  0.7372 -0.1075
 2738SOL    HW1 9698   3.094   4.871   0.090 -0.8740  0.1873  1.4397
 2738SOL    HW2 9699   3.215   4.893   0.179 -0.7574  1.3667  1.0003
 2739SOL     OW 9700   4.303   4.524   2.736 -0.0386 -0.1860 -0.3979
 2739SOL    HW1 9701   4.386   4.482   2.759 -0.8379 -2.0010 -0.7463
 2739SOL    HW2 9702   4.244   4.451   2.718 -1.3532  1.1174 -1.4109
 2740SOL     OW 9703   6.087   7.501   0.635  0.0865  0.1288 -0.4517
 2740SOL    HW1 9704   6.109   7.577   0.689 -1.1703  0.1712  0.0288
 2740SOL    HW2 9705   6.051   7.438   0.697  1.8218 -1.1724 -0.7308
 2741SOL     OW 9706   0.978   4.570   4.410  0.1870 -0.2107 -0.5403
 2741SOL    HW1 9707   1.028   4.492   4.436 -0.5236 -0.9047 -1.2149
 2741SOL    HW2 9708   1.039   4.642   4.420  0.7793 -0.8234  0.3594
 2742SOL     OW 9709   0.219   1.703   0.292  0.0348 -0.2039 -0.0755
 2742SOL    HW1 9710   0.305   1.737   0.315  0.6055 -1.9911  0.5182
 2742SOL    HW2 9711   0.167   1.716   0.372 -0.6104  1.9910 -0.8332
 2743SOL     OW 9712   1.090   7.251   1.526 -0.4497 -0.1891  0.3450
 2743SOL    HW1 9713   1.010   7.303   1.539  0.0405  0.6560  0.0230
 2743SOL    HW2 9714   1.151   7.283   1.593  0.4249  0.8324 -0.9018
 2744SOL     OW 9715   6.303   5.512   0.614  0.4404  0.0361  0.9324
 2744SOL    HW1 9716   6.321   5.487   0.705 -1.1011  1.1472  1.5787
 2744SOL    HW2 9717   6.208   5.506   0.607  0.4623  1.0374 -0.2807
 2745SOL     OW 9718   3.375   4.459   2.571  0.5469 -0.4423 -0.1074
 2745SOL    HW1 9719   3.318   4.535   2.576  1.9581  0.6348 -0.2166
 2745SOL    HW2 9720   3.336   4.396   2.632 -0.5754  0.4020  0.0552
 2746SOL     OW 9721   7.715   2.794   8.168 -0.3531  0.1340 -0.0175
 2746SOL    HW1 9722   7.783   2.859   8.153  0.2672 -0.3087  0.7823
 2746SOL    HW2 9723   7.755   2.731   8.228 -2.4339  1.4050  2.7976
 2747SOL     OW 9724   6.146   7.028   5.913  0.2221  0.4614 -0.0131
 2747SOL    HW1 9725   6.182   7.080   5.984  1.6992 -0.1124 -0.3210
 2747SOL    HW2 9726   6.210   6.958   5.899 -1.2962 -0.9314 -0.1987
 2748SOL     OW 9727   7.663   6.136   0.433 -0.1055  0.2189 -0.1715
 2748SOL    HW1 9728   7.658   6.108   0.342  0.4778  3.2382 -1.1963
 2748SOL    HW2 9729   7.739   6.195   0.436 -1.5963  2.1242  1.6933
 2749SOL     OW 9730   6.867   6.740   4.473  0.3033 -0.0383 -0.3897
 2749SOL    HW1 9731   6.924   6.815   4.487 -1.6573  1.0953  2.1245
 2749SOL    HW2 9732   6.839   6.714   4.561  0.6454 -3.5236 -1.2133
 2750SOL     OW 9733   0.034   0.438   5.674 -0.3773 -0.1598  0.2008
 2750SOL    HW1 9734   0.111   0.413   5.725  0.3258  0.1087 -0.7046
 2750SOL    HW2 9735  -0.040   0.400   5.721  0.0996  1.4844  2.3087
 2751SOL     OW 9736   8.132   6.765   7.071  0.0030  0.5194  0.5669
 2751SOL    HW1 9737   8.190   6.691   7.048 -1.8434 -0.6023 -0.6351
 2751SOL    HW2 9738   8.143   6.826   6.998  0.0009  0.4979  0.5474
 2752SOL     OW 9739   1.029   6.020   3.265 -0.0575 -0.4998  0.2568
 2752SOL    HW1 9740   0.984   6.071   3.332 -2.4617  0.0028 -1.6938
 2752SOL    HW2 9741   1.120   6.050   3.271 -0.5573  0.8020  2.0873
 2753SOL     OW 9742   1.395   3.765   1.777 -0.4987  0.4607 -0.3885
 2753SOL    HW1 9743   1.454   3.811   1.717  0.3803 -1.4971 -1.0657
 2753SOL    HW2 9744   1.310   3.767   1.732 -0.2242  0.4823 -0.9114
 2754SOL     OW 9745   1.173   4.674   0.979 -0.1348  0.1454 -0.4690
 2754SOL    HW1 9746   1.210   4.597   0.937 -2.4518 -2.4383  2.0050
 2754SOL    HW2 9747   1.106   4.706   0.919 -0.2137 -0.7071 -0.8333
 2755SOL     OW 9748   6.281   1.735   4.304  0.2129 -0.3129 -0.5926
 2755SOL    HW1 9749   6.189   1.712   4.291  0.2892 -0.2932 -1.1536
 2755SOL    HW2 9750   6.280   1.829   4.322 -0.0292 -0.6075  1.0090
 2756SOL     OW 9751   5.327   7.229   6.514 -0.5272  0.1608 -0.2603
 2756SOL    HW1 9752   5.277   7.303   6.549 -0.2042  0.3503 -0.1947
 2756SOL    HW2 9753   5.417   7.247   6.540 -0.2972  0.2560 -1.0947
 2757SOL     OW 9754   2.629   1.902   6.052  0.4475 -0.4309 -0.4240
 2757SOL    HW1 9755   2.626   1.957   6.131  1.3592 -0.5164 -0.3167
 2757SOL    HW2 9756   2.723   1.894   6.033  0.2578 -0.9396 -1.1500
 2758SOL     OW 9757   2.880   1.353   0.522 -0.3678 -0.0588  0.0635
 2758SOL    HW1 9758   2.826   1.294   0.468  0.9321 -0.4007 -0.8790
 2758SOL    HW2 9759   2.920   1.413   0.459 -0.9685  1.2712  0.9361
 2759SOL     OW 9760   0.158   2.452   4.725 -0.4295 -0.3117 -0.6704
 2759SOL    HW1 9761   0.231   2.392   4.710  0.0542  0.0391  0.2716
 2759SOL    HW2 9762   0.081   2.403   4.694  0.0594 -1.1217 -0.6294
 2760SOL     OW 9763   3.654   5.266   1.035  0.1245 -0.1168  0.0074
 2760SOL    HW1 9764   3.575   5.281   1.087 -0.2707 -1.7148 -0.1252
 2760SOL    HW2 9765   3.639   5.315   0.954 -1.2361 -1.3335 -0.4964
 2761SOL     OW 9766   3.300   3.097   7.990 -0.4735  0.4282 -0.2294
 2761SOL    HW1 9767   3.238   3.120   7.920 -0.3209  0.8767 -0.2205
 2761SOL    HW2 9768   3.325   3.007   7.971 -1.3128  0.1597 -0.1019
 2762SOL     OW 9769   1.695   5.229   3.958  0.2761  0.3407  0.4946
 2762SOL    HW1 9770   1.738   5.187   4.033 -1.1137 -3.0583 -0.5005
 2762SOL    HW2 9771   1.630   5.287   3.996  0.4802 -0.3544  1.9191
 2763SOL     OW 9772   2.003   5.711   4.277 -0.1736 -0.0825 -0.3875
 2763SOL    HW1 9773   2.006   5.635   4.219 -0.1273 -1.6218  1.5773
 2763SOL    HW2 9774   2.014   5.674   4.365 -1.2717  2.0881  0.6920
 2764SOL     OW 9775   1.843   4.271   3.002  0.1571 -0.5636  0.1589
 2764SOL    HW1 9776   1.826   4.265   2.908  0.8229 -2.9550  0.1507
 2764SOL    HW2 9777   1.929   4.312   3.009 -0.1246  0.1075 -0.2392
 2765SOL     OW 9778   5.352   2.118   2.225 -0.0364  0.2786  0.3825
 2765SOL    HW1 9779   5.434   2.091   2.182 -0.1946 -0.6664  0.6580
 2765SOL    HW2 9780   5.299   2.153   2.153 -0.2185 -1.1060 -0.1829
 2766SOL     OW 9781   8.287   7.683   3.759  0.3009  0.3256  0.0459
 2766SOL    HW1 9782   8.294   7.610   3.698  2.0322  0.8656 -0.4446
 2766SOL    HW2 9783   8.354   7.665   3.825 -1.6501 -0.3339  1.9048
 2767SOL     OW 9784   7.488   5.036   7.023 -0.0294  1.1182 -0.0702
 2767SOL    HW1 9785   7.483   5.074   6.935  2.1977 -1.3969 -1.3581
 2767SOL    HW2 9786   7.568   4.983   7.022 -2.5406 -3.0178  1.7837
 2768SOL     OW 9787   4.287   5.062   7.084 -0.0290 -0.1599 -0.2334
 2768SOL    HW1 9788   4.342   5.137   7.061  2.4656 -1.8178  0.1626
 2768SOL    HW2 9789   4.257   5.028   6.999 -1.3766  1.3599 -0.4116
 2769SOL     OW 9790   1.882   0.460   1.087  0.7570 -0.2919 -0.1001
 2769SOL    HW1 9791   1.841   0.545   1.105  1.1012  0.1709 -1.4572
 2769SOL    HW2 9792   1.816   0.395   1.111 -0.1825  0.4141 -0.7848
 2770SOL     OW 9793   0.891   3.045   7.561 -0.0794  0.5634  0.4159
 2770SOL    HW1 9794   0.825   3.112   7.541  0.0095  0.6950  0.5539
 2770SOL    HW2 9795   0.917   3.011   7.476  0.4119  1.2281  0.2986
 2771SOL     OW 9796   2.077   4.762   0.438  0.4734 -0.6141  0.5487
 2771SOL    HW1 9797   2.165   4.801   0.437  0.1683  0.0642  0.3719
 2771SOL    HW2 9798   2.038   4.790   0.356  0.5251 -1.9204  0.0590
 2772SOL     OW 9799   2.488   4.853   6.681 -0.4136  1.0384  0.6929
 2772SOL    HW1 9800   2.453   4.843   6.770 -1.4160  0.2697  0.2157
 2772SOL    HW2 9801   2.474   4.767   6.640  1.3165  0.9486  0.2420
 2773SOL     OW 9802   7.315   3.036   2.215 -0.3732  0.3063  0.1967
 2773SOL    HW1 9803   7.241   3.058   2.272  0.0155  2.2263  0.0029
 2773SOL    HW2 9804   7.325   2.942   2.225 -2.9076 -0.0183  0.1422
 2774SOL     OW 9805   6.704   0.682   7.247 -0.2821  0.7383 -0.1420
 2774SOL    HW1 9806   6.632   0.740   7.272  0.4421  1.5317  0.1698
 2774SOL    HW2 9807   6.753   0.732   7.181  0.3745  0.4990  0.1550
 2775SOL     OW 9808   2.683   5.793   7.028 -0.4010 -0.4607  0.1305
 2775SOL    HW1 9809   2.756   5.756   6.980  0.0315  3.0185 -2.1261
 2775SOL    HW2 9810   2.663   5.729   7.097  2.8580 -2.7818 -0.9896
 2776SOL     OW 9811   3.146   0.388   5.994  0.7665  0.1148 -0.0785
 2776SOL    HW1 9812   3.091   0.361   5.921  2.0770 -1.0582 -0.6609
 2776SOL    HW2 9813   3.233   0.399   5.955  1.0845  1.3199  0.9482
 2777SOL     OW 9814   3.214   6.113   2.898 -0.4317  0.3073  0.1617
 2777SOL    HW1 9815   3.284   6.134   2.960  0.2317  0.2447 -0.5683
 2777SOL    HW2 9816   3.259   6.088   2.818 -1.2922  0.2311 -0.3040
 2778SOL     OW 9817   7.176   7.975   0.512 -0.6621  0.1125  0.0969
 2778SOL    HW1 9818   7.108   7.926   0.467 -1.2120 -0.6998  1.7790
 2778SOL    HW2 9819   7.136   8.060   0.531 -0.5149  0.3646 -0.6867
 2779SOL     OW 9820   4.031   6.100   0.073 -0.4113  0.1767 -0.4217
 2779SOL    HW1 9821   3.950   6.056   0.096 -0.8730  1.1687 -0.1265
 2779SOL    HW2 9822   4.068   6.129   0.156  0.6117 -0.8883 -0.4936
 2780SOL     OW 9823   5.337   0.584   8.144 -0.0306 -0.7217 -0.0485
 2780SOL    HW1 9824   5.249   0.593   8.108 -0.0114  0.8983  0.2646
 2780SOL    HW2 9825   5.395   0.586   8.067 -0.2039 -0.6596 -0.1787
 2781SOL     OW 9826   7.288   7.893   7.633 -0.1767  0.1026  0.9370
 2781SOL    HW1 9827   7.298   7.817   7.691 -2.1327 -1.0283 -0.1191
 2781SOL    HW2 9828   7.307   7.969   7.688  1.7757 -1.1454  2.0281
 2782SOL     OW 9829   2.885   4.605   8.064 -0.3167  0.2950  0.1185
 2782SOL    HW1 9830   2.820   4.604   7.994 -0.0249 -0.9352 -0.1583
 2782SOL    HW2 9831   2.962   4.562   8.026 -1.2438 -3.4336  2.1537
 2783SOL     OW 9832   2.006   5.089   2.788 -0.3350  0.7265 -0.4295
 2783SOL    HW1 9833   2.038   5.156   2.848 -3.1592  1.8090 -0.0699
 2783SOL    HW2 9834   1.988   5.013   2.843  2.2527 -0.1918 -0.7497
 2784SOL     OW 9835   1.289   4.749   2.665  0.0658  0.4909  0.0670
 2784SOL    HW1 9836   1.342   4.725   2.589  0.3565  1.4169 -0.0176
 2784SOL    HW2 9837   1.261   4.664   2.702  0.4254  0.0315 -0.7070
 2785SOL     OW 9838   4.316   2.281   5.543 -0.1834 -0.5895  0.2633
 2785SOL    HW1 9839   4.291   2.212   5.604 -2.2881 -0.0773  0.0164
 2785SOL    HW2 9840   4.264   2.357   5.570  0.6435  0.3339 -0.6861
 2786SOL     OW 9841   7.584   0.506   6.061 -0.1981  0.2597 -0.3380
 2786SOL    HW1 9842   7.653   0.470   6.005 -1.5226  0.3008 -2.0508
 2786SOL    HW2 9843   7.631   0.561   6.124  1.4637 -0.9735 -0.4505
 2787SOL     OW 9844   3.773   6.654   4.940  0.0166 -0.6997 -0.4647
 2787SOL    HW1 9845   3.742   6.568   4.912 -1.4070  0.3533 -2.1975
 2787SOL    HW2 9846   3.733   6.668   5.026 -0.1268 -1.5512 -0.3955
 2788SOL     OW 9847   0.087   7.945   5.010 -0.0375  0.3732  0.0842
 2788SOL    HW1 9848   0.031   8.022   4.995  0.9356  1.2372  0.8459
 2788SOL    HW2 9849   0.147   7.944   4.935 -1.5625 -1.0347 -1.1748
 2789SOL     OW 9850   1.324   4.548   5.347 -0.1775 -0.7787 -0.0488
 2789SOL    HW1 9851   1.334   4.546   5.443 -2.0208  0.1365  0.2006
 2789SOL    HW2 9852   1.375   4.473   5.316  1.3836 -0.4184  1.5500
 2790SOL     OW 9853   2.872   3.834   3.995 -0.3036 -0.4441 -0.0997
 2790SOL    HW1 9854   2.949   3.890   4.002 -0.6229  0.0175 -0.2303
 2790SOL    HW2 9855   2.890   3.761   4.054 -0.1350  0.0967  0.5277
 2791SOL     OW 9856   5.348   6.803   3.380  0.5142  0.4438 -0.1630
 2791SOL    HW1 9857   5.305   6.875   3.427  0.2513 -1.1063  2.0529
 2791SOL    HW2 9858   5.432   6.839   3.352  0.3784  1.6259  0.9068
 2792SOL     OW 9859   4.308   6.770   4.165 -0.0266 -0.3266  0.2748
 2792SOL    HW1 9860   4.394   6.786   4.126 -0.4064 -1.2833 -0.9822
 2792SOL    HW2 9861   4.327   6.740   4.254  0.9734 -1.8126 -0.4320
 2793SOL     OW 9862   7.209   6.341   2.475 -0.6787  0.5887 -0.4997
 2793SOL    HW1 9863   7.250   6.274   2.530 -1.5977  0.7814  0.4530
 2793SOL    HW2 9864   7.279   6.372   2.419 -0.0087 -0.5019 -0.2956
 2794SOL     OW 9865   0.340   0.520   6.964 -0.1034 -0.3518  0.4461
 2794SOL    HW1 9866   0.340   0.462   6.888 -2.7051 -0.9962  0.9062
 2794SOL    HW2 9867   0.340   0.461   7.040  1.2893  0.2862  0.9600
 2795SOL     OW 9868   1.656   2.621   2.012  0.5809 -0.3992 -0.0890
 2795SOL    HW1 9869   1.611   2.570   1.944 -1.4716  0.6534  0.4438
 2795SOL    HW2 9870   1.715   2.558   2.054 -0.1297 -1.7338 -1.0566
 2796SOL     OW 9871   1.749   3.254   3.391  0.8908  0.3432  0.6047
 2796SOL    HW1 9872   1.657   3.261   3.364  0.9667  2.7644  0.9226
 2796SOL    HW2 9873   1.747   3.195   3.466 -0.1447 -1.0825 -0.4878
 2797SOL     OW 9874   7.489   5.098   3.067 -0.0202  0.8768 -0.4408
 2797SOL    HW1 9875   7.563   5.125   3.120 -0.7019 -0.5989  1.3392
 2797SOL    HW2 9876   7.526   5.040   3.001  0.4130 -0.0012  0.5557
 2798SOL     OW 9877   7.491   3.329   2.706  0.1771  0.4755  0.3906
 2798SOL    HW1 9878   7.487   3.282   2.789 -0.3216  1.0837  0.7119
 2798SOL    HW2 9879   7.571   3.296   2.664 -1.0007 -1.8448 -0.1147
 2799SOL     OW 9880   6.301   0.794   1.926  0.4178  0.0972  0.3032
 2799SOL    HW1 9881   6.214   0.765   1.952  0.2006 -0.1133 -0.6484
 2799SOL    HW2 9882   6.356   0.716   1.935  0.3322  0.0101  0.0600
 2800SOL     OW 9883   6.372   2.812   5.440 -0.5970 -0.7415  0.6467
 2800SOL    HW1 9884   6.443   2.747   5.432  0.7937  0.9449 -1.1137
 2800SOL    HW2 9885   6.407   2.878   5.499  0.1524  1.1475 -1.8375
 2801SOL     OW 9886   2.763   0.297   0.613 -0.6578 -0.6439 -0.1385
 2801SOL    HW1 9887   2.810   0.372   0.577 -0.0810  0.4550  2.8442
 2801SOL    HW2 9888   2.831   0.233   0.632 -0.4959  0.3167  2.6555
 2802SOL     OW 9889   8.214   5.916   3.513  0.4049  0.2334 -0.0702
 2802SOL    HW1 9890   8.176   5.952   3.594 -0.1947  2.0737 -1.1441
 2802SOL    HW2 9891   8.208   5.988   3.450  0.0938 -1.4609 -2.0058
 2803SOL     OW 9892   0.285   3.514   7.221 -0.3229 -0.4266  0.1225
 2803SOL    HW1 9893   0.340   3.518   7.143 -0.5879 -0.6159 -0.0768
 2803SOL    HW2 9894   0.244   3.600   7.226 -0.5557 -0.5192 -0.1351
 2804SOL     OW 9895   6.458   2.903   0.256 -0.2596 -0.6970  0.4308
 2804SOL    HW1 9896   6.439   2.849   0.179  0.1074  0.4784 -0.5091
 2804SOL    HW2 9897   6.521   2.851   0.306 -1.8595 -2.2754  0.8858
 2805SOL     OW 9898   7.359   7.725   6.540  0.0778 -0.3916 -0.4514
 2805SOL    HW1 9899   7.432   7.751   6.484 -1.2300 -2.2168 -3.0758
 2805SOL    HW2 9900   7.371   7.631   6.554 -0.7342 -0.3410  0.6926
 2806SOL     OW 9901   7.849   7.018   6.894 -0.1950 -0.2709  0.0382
 2806SOL    HW1 9902   7.899   6.966   6.830 -1.8941  0.3651 -1.8759
 2806SOL    HW2 9903   7.805   7.084   6.841  1.0283  2.4469  2.2886
 2807SOL     OW 9904   2.006   4.953   6.364  0.9738 -0.0439  0.5973
 2807SOL    HW1 9905   1.940   4.898   6.406 -0.3236  3.2278  3.0933
 2807SOL    HW2 9906   2.071   4.968   6.433  0.9171  2.1431  0.1956
 2808SOL     OW 9907   1.013   4.546   1.300 -0.3370  0.2423 -0.7374
 2808SOL    HW1 9908   1.079   4.612   1.277  0.0691 -0.4180 -1.5020
 2808SOL    HW2 9909   1.048   4.464   1.263 -0.1160 -0.6795  1.4182
 2809SOL     OW 9910   7.938   6.406   7.513 -0.2047 -0.0484 -0.1847
 2809SOL    HW1 9911   7.996   6.334   7.488 -1.6477 -1.1729 -0.3659
 2809SOL    HW2 9912   7.868   6.365   7.562 -1.6192  1.0785 -1.2020
 2810SOL     OW 9913   0.337   5.603   0.806  0.3888  0.5196 -0.3397
 2810SOL    HW1 9914   0.424   5.640   0.795  0.3316  0.3588 -1.4074
 2810SOL    HW2 9915   0.332   5.533   0.741 -0.3458  0.1744  0.0755
 2811SOL     OW 9916   3.306   4.194   5.333  0.4340 -0.7021  0.1185
 2811SOL    HW1 9917   3.375   4.171   5.270 -1.2248 -1.4509 -1.4574
 2811SOL    HW2 9918   3.269   4.276   5.300  0.9514  0.0248  1.3007
 2812SOL     OW 9919   1.481   3.876   2.001 -0.1178  0.6852 -0.3676
 2812SOL    HW1 9920   1.574   3.880   1.977  0.3955 -0.1742  1.4664
 2812SOL    HW2 9921   1.441   3.820   1.934  1.2775 -1.5617  0.6360
 2813SOL     OW 9922   4.010   7.082   2.289  0.1927  0.4047  0.1674
 2813SOL    HW1 9923   3.930   7.134   2.294 -1.7638 -2.5330 -0.0540
 2813SOL    HW2 9924   3.987   6.997   2.325  2.8261 -0.9711 -1.2382
 2814SOL     OW 9925   5.372   6.962   6.578  0.3032 -0.0596  0.1973
 2814SOL    HW1 9926   5.380   6.916   6.495 -0.8885 -1.1178  0.6471
 2814SOL    HW2 9927   5.352   7.052   6.553 -0.8049 -0.5313 -0.6590
 2815SOL     OW 9928   4.693   8.250   1.290  1.0848 -0.2668  0.3954
 2815SOL    HW1 9929   4.694   8.285   1.379  1.6051 -0.1108  0.3315
 2815SOL    HW2 9930   4.603   8.222   1.276  0.8454  0.3368  0.7286
 2816SOL     OW 9931   6.132   3.588   6.754 -0.5106 -0.3384 -0.0927
 2816SOL    HW1 9932   6.042   3.602   6.726 -1.2515 -2.6148  1.0310
 2816SOL    HW2 9933   6.151   3.660   6.814 -1.6479 -0.0006 -0.1390
 2817SOL     OW 9934   2.321   1.452   6.366  0.0950 -0.1557  0.5482
 2817SOL    HW1 9935   2.287   1.417   6.284  0.2929 -0.8032  0.7343
 2817SOL    HW2 9936   2.294   1.544   6.366  1.6795  0.3427 -1.0978
 2818SOL     OW 9937   6.286   6.179   5.851  0.3552  0.5511 -0.7080
 2818SOL    HW1 9938   6.246   6.159   5.936 -2.7919  0.2679 -2.2159
 2818SOL    HW2 9939   6.323   6.267   5.863  0.3794  0.3285  1.0823
 2819SOL     OW 9940   5.798   7.621   2.115  0.1164 -0.3036 -0.3482
 2819SOL    HW1 9941   5.709   7.656   2.123  0.1799 -0.4527  1.1029
 2819SOL    HW2 9942   5.851   7.696   2.086 -0.2610  0.0812 -0.0480
 2820SOL     OW 9943   5.594   3.967   3.721  0.1817  0.1067  0.3505
 2820SOL    HW1 9944   5.603   3.994   3.812 -1.2859 -1.0783  0.8553
 2820SOL    HW2 9945   5.643   3.885   3.715  2.4451  1.4483 -0.5735
 2821SOL     OW 9946   2.247   1.990   8.238 -0.1056  0.5192  0.3054
 2821SOL    HW1 9947   2.220   2.028   8.321 -2.1445 -0.8194  0.2761
 2821SOL    HW2 9948   2.191   2.032   8.173 -1.1634 -1.2379  0.0644
 2822SOL     OW 9949   2.337   4.793   1.149  0.0861  0.6720 -0.3716
 2822SOL    HW1 9950   2.383   4.709   1.147  0.1495  0.7253 -1.4238
 2822SOL    HW2 9951   2.267   4.784   1.085  0.3264  1.5587 -0.7608
 2823SOL     OW 9952   3.289   8.135   5.531  0.0111  0.3565 -0.1527
 2823SOL    HW1 9953   3.312   8.184   5.610  1.2971 -1.4585  0.6209
 2823SOL    HW2 9954   3.370   8.092   5.504 -0.3123  1.2423 -2.7075
 2824SOL     OW 9955   3.411   0.580   1.231 -0.2686 -0.0540 -0.3653
 2824SOL    HW1 9956   3.325   0.539   1.237 -0.0103 -0.4135  0.9941
 2824SOL    HW2 9957   3.392   0.671   1.210 -1.0344  0.1176  1.0157
 2825SOL     OW 9958   0.943   7.071   3.850 -0.0683 -0.0168  0.1045
 2825SOL    HW1 9959   0.862   7.073   3.900  0.0343 -0.8759  0.3237
 2825SOL    HW2 9960   1.007   7.116   3.905  0.1476 -1.3246  0.9648
 2826SOL     OW 9961   1.180   6.358   0.752  0.1153  0.4671 -0.6835
 2826SOL    HW1 9962   1.241   6.393   0.818  0.0699 -0.0745 -0.3505
 2826SOL    HW2 9963   1.236   6.308   0.693 -0.0367 -0.2412 -0.2328
 2827SOL     OW 9964   8.259   7.580   3.432 -0.1287 -0.3400  0.1885
 2827SOL    HW1 9965   8.177   7.537   3.458 -0.9139  0.2056 -1.3026
 2827SOL    HW2 9966   8.239   7.620   3.347  0.9003  2.0780  1.0311
 2828SOL     OW 9967   8.261   6.591   1.338 -0.2694 -0.1511 -0.4038
 2828SOL    HW1 9968   8.249   6.649   1.263 -1.3159 -0.5413 -0.5386
 2828SOL    HW2 9969   8.350   6.557   1.327  0.4425  1.6137 -0.1778
 2829SOL     OW 9970   6.326   5.643   2.219 -0.3218 -0.5592  0.1258
 2829SOL    HW1 9971   6.369   5.616   2.300 -1.7994 -1.0884  0.7543
 2829SOL    HW2 9972   6.397   5.674   2.163  0.6187  0.6790  1.9617
 2830SOL     OW 9973   4.299   3.661   7.659  0.1182  0.1533  0.3742
 2830SOL    HW1 9974   4.363   3.600   7.696 -0.1980 -0.0313  0.6229
 2830SOL    HW2 9975   4.315   3.660   7.565 -1.1758 -1.7898  0.1565
 2831SOL     OW 9976   8.092   4.736   1.085  0.5053 -0.2748 -0.5188
 2831SOL    HW1 9977   8.178   4.741   1.043  1.2073  1.4319  1.0266
 2831SOL    HW2 9978   8.108   4.769   1.174 -1.8331  0.4272 -0.3385
 2832SOL     OW 9979   6.062   1.832   1.542 -0.7066  0.0051  0.0105
 2832SOL    HW1 9980   6.033   1.899   1.604  2.0435  1.6228 -0.3992
 2832SOL    HW2 9981   6.063   1.751   1.593 -0.1044  1.0178  1.6222
 2833SOL     OW 9982   5.091   0.341   4.871 -0.1345  0.2296 -0.0906
 2833SOL    HW1 9983   5.122   0.250   4.874 -2.5687 -0.6454 -0.2426
 2833SOL    HW2 9984   5.150   0.388   4.928  1.1610 -1.4684  0.0147
 2834SOL     OW 9985   2.411   7.724   1.801 -0.1523  0.1751  0.3323
 2834SOL    HW1 9986   2.403   7.629   1.809  1.8380  0.1369  2.3982
 2834SOL    HW2 9987   2.504   7.742   1.818 -0.0133  2.2946 -2.2626
 2835SOL     OW 9988   0.767   1.563   6.728 -0.0276  0.6477 -0.0895
 2835SOL    HW1 9989   0.700   1.617   6.684  1.5313  0.7119 -2.4391
 2835SOL    HW2 9990   0.716   1.507   6.787 -2.1614  0.8538 -1.6455
 2836SOL     OW 9991   5.244   1.550   3.842 -0.0662 -0.1148  0.8017
 2836SOL    HW1 9992   5.160   1.596   3.850  0.2059  0.1849  2.0561
 2836SOL    HW2 9993   5.244   1.516   3.753 -0.9172  1.0736  0.3268
 2837SOL     OW 9994   3.473   5.890   4.801 -0.5224 -0.6596 -0.1981
 2837SOL    HW1 9995   3.387   5.849   4.811  0.1138 -2.6238 -2.2631
 2837SOL    HW2 9996   3.526   5.853   4.872 -1.2699  0.3243  0.8921
 2838SOL     OW 9997   6.269   3.831   3.342 -0.2256 -0.7688  0.2490
 2838SOL    HW1 9998   6.223   3.785   3.271 -0.3737 -0.0705 -0.1156
 2838SOL    HW2 9999   6.357   3.794   3.341 -0.4481 -1.3085  0.2021
 2839SOL     OW10000   5.427   6.668   1.655  0.2055  0.1541 -0.3751
 2839SOL    HW110001   5.345   6.628   1.683  0.7202  0.7306  2.0677
 2839SOL    HW210002   5.494   6.623   1.707  1.1690  1.4068 -0.5165
 2840SOL     OW10003   1.921   1.298   7.004  0.2293 -0.2854 -0.2974
 2840SOL    HW110004   1.989   1.290   6.938  1.1884  1.4199  0.4699
 2840SOL    HW210005   1.882   1.210   7.008  2.4442 -1.3209 -0.6436
 2841SOL     OW10006   1.769   7.041   4.890 -0.8687 -0.3347  0.3920
 2841SOL    HW110007   1.715   6.990   4.829 -0.0723  0.1368 -0.7420
 2841SOL    HW210008   1.858   7.035   4.853 -0.3243 -0.2886  1.6841
 2842SOL     OW10009   5.178   5.671   1.658  0.0066 -0.0575 -0.6964
 2842SOL    HW110010   5.098   5.679   1.710  0.1938 -1.3998 -0.1978
 2842SOL    HW210011   5.249   5.676   1.722  0.2399 -1.6336 -0.8223
 2843SOL     OW10012   5.704   3.999   7.799 -0.3683  0.3093 -0.5207
 2843SOL    HW110013   5.678   4.021   7.889 -2.9217 -0.9862 -0.9004
 2843SOL    HW210014   5.788   3.953   7.809 -1.7624 -1.9083  1.4416
 2844SOL     OW10015   5.858   0.403   6.897  0.4142  0.2886 -0.3921
 2844SOL    HW110016   5.949   0.434   6.898 -0.1237  2.0008  1.7017
 2844SOL    HW210017   5.816   0.456   6.830  0.9605 -0.5228 -1.3852
 2845SOL     OW10018   5.381   6.436   3.625 -0.4821 -1.0960 -0.0813
 2845SOL    HW110019   5.304   6.396   3.666  0.3058 -0.8088  1.7241
 2845SOL    HW210020   5.454   6.410   3.681  0.5003  0.0435 -0.8158
 2846SOL     OW10021   5.701   0.677   2.838 -0.5567  0.1453  0.2397
 2846SOL    HW110022   5.647   0.721   2.773 -2.4876 -3.2011 -0.5121
 2846SOL    HW210023   5.790   0.684   2.804 -1.3098  0.1659 -1.7828
 2847SOL     OW10024   4.486   1.319   3.185  0.3762  0.5059 -0.2378
 2847SOL    HW110025   4.530   1.382   3.128  1.3317 -0.7631 -0.9285
 2847SOL    HW210026   4.415   1.283   3.132  0.1269  0.6612 -0.0083
 2848SOL     OW10027   2.151   4.528   3.784 -0.6212  0.1756  0.0045
 2848SOL    HW110028   2.167   4.589   3.712 -1.7140  0.8920  0.3654
 2848SOL    HW210029   2.112   4.451   3.742 -4.0358  1.7331  0.1391
 2849SOL     OW10030   0.239   0.429   3.346  0.1622 -0.3902 -0.0318
 2849SOL    HW110031   0.175   0.472   3.289 -1.0681 -1.4700  0.5167
 2849SOL    HW210032   0.264   0.350   3.298  0.5448 -0.3318  0.0720
 2850SOL     OW10033   4.533   4.464   1.098  0.4407  0.1356 -0.0029
 2850SOL    HW110034   4.439   4.445   1.097  0.6127 -0.7198  0.3387
 2850SOL    HW210035   4.539   4.553   1.134 -0.3126  0.6355 -1.0677
 2851SOL     OW10036   7.412   2.259   3.873 -0.1256 -0.9625  1.0302
 2851SOL    HW110037   7.323   2.226   3.879  0.6623 -2.9641  2.0146
 2851SOL    HW210038   7.467   2.181   3.869  1.6207  0.2344  0.9440
 2852SOL     OW10039   7.198   3.066   7.070  0.7823 -0.5143  0.4070
 2852SOL    HW110040   7.231   3.044   7.158 -1.5682 -2.0189  0.9635
 2852SOL    HW210041   7.195   2.983   7.024  1.7329  0.2339 -1.0195
 2853SOL     OW10042   0.650   4.166   4.818 -0.5653  0.0833 -0.0130
 2853SOL    HW110043   0.556   4.169   4.797 -0.8917  2.0776  1.6589
 2853SOL    HW210044   0.654   4.181   4.912  1.5537  1.5692 -0.3265
 2854SOL     OW10045   0.366   3.853   5.849 -0.2475  0.1907 -0.8801
 2854SOL    HW110046   0.314   3.880   5.773  1.4187  2.3814 -1.2871
 2854SOL    HW210047   0.408   3.771   5.822 -2.3530 -0.8734 -1.0354
 2855SOL     OW10048   6.655   2.147   4.955 -0.2173 -0.1942 -0.4896
 2855SOL    HW110049   6.570   2.113   4.981  0.9945 -2.3195  0.9229
 2855SOL    HW210050   6.692   2.079   4.898  2.6179 -1.8373  3.0646
 2856SOL     OW10051   2.233   0.816   1.757 -0.0505  0.4276  0.2459
 2856SOL    HW110052   2.236   0.909   1.779 -1.4511  0.5742 -0.1517
 2856SOL    HW210053   2.177   0.777   1.825 -0.6921  0.1334 -0.4411
 2857SOL     OW10054   6.204   6.440   2.585  0.0489  0.0213  0.7642
 2857SOL    HW110055   6.241   6.439   2.497 -0.4326 -1.4330  0.5605
 2857SOL    HW210056   6.157   6.523   2.590  0.2198  0.1911 -0.3075
 2858SOL     OW10057   7.192   6.631   6.250 -0.4176 -0.0693 -0.0058
 2858SOL    HW110058   7.228   6.623   6.339  0.3810  0.2774 -0.2978
 2858SOL    HW210059   7.181   6.725   6.237 -0.3239 -0.1097 -0.3658
 2859SOL     OW10060   2.705   4.912   7.987 -0.3444 -0.0824 -0.0549
 2859SOL    HW110061   2.696   4.922   7.892 -2.7260  1.3225  0.2822
 2859SOL    HW210062   2.799   4.913   8.002  0.0301  1.2117 -2.2585
 2860SOL     OW10063   0.989   5.325   5.461  0.8098  0.4779 -0.6128
 2860SOL    HW110064   1.010   5.394   5.525  1.0791 -0.9374  0.8639
 2860SOL    HW210065   0.896   5.308   5.475  1.1819 -0.8076  0.4060
 2861SOL     OW10066   7.876   7.277   0.702 -0.7358 -0.1580  0.7889
 2861SOL    HW110067   7.792   7.279   0.655 -0.5480 -1.0248  0.4011
 2861SOL    HW210068   7.863   7.334   0.777 -1.4955  0.1546  0.4300
 2862SOL     OW10069   1.473   0.461   6.033  0.6339 -0.0974  0.4867
 2862SOL    HW110070   1.536   0.490   6.099  1.4889  0.0828 -0.3988
 2862SOL    HW210071   1.526   0.428   5.961 -0.3015 -1.0313  0.2057
 2863SOL     OW10072   2.634   6.735   1.164 -0.7223 -0.2249 -0.5536
 2863SOL    HW110073   2.722   6.769   1.179 -0.9026 -0.5028  1.2539
 2863SOL    HW210074   2.579   6.812   1.152 -0.5861  0.0310  0.4212
 2864SOL     OW10075   5.162   2.587   6.182 -0.0772  0.7680  0.4814
 2864SOL    HW110076   5.245   2.542   6.199 -0.3893  1.1001  3.0838
 2864SOL    HW210077   5.111   2.524   6.131  1.0711 -0.1595  0.4520
 2865SOL     OW10078   3.172   2.993   2.525 -0.0098 -0.3387 -0.4526
 2865SOL    HW110079   3.186   2.905   2.560  1.3836 -0.6893 -1.8296
 2865SOL    HW210080   3.078   3.007   2.533 -0.2986 -2.0758 -0.5102
 2866SOL     OW10081   7.766   2.271   2.683  0.0850  0.4099 -0.6084
 2866SOL    HW110082   7.711   2.332   2.633  0.0419  0.8759  0.0060
 2866SOL    HW210083   7.769   2.192   2.629  0.4502  1.0870 -1.5935
 2867SOL     OW10084   5.844   7.078   6.497  0.2805  0.0467  0.2821
 2867SOL    HW110085   5.778   7.135   6.536 -0.4642 -1.8484  1.8625
 2867SOL    HW210086   5.820   6.990   6.526  3.4429 -0.6959  0.7711
 2868SOL     OW10087   2.271   5.486   5.718  0.2784 -0.1554  0.4466
 2868SOL    HW110088   2.351   5.455   5.677  0.4945  1.0838 -0.0993
 2868SOL    HW210089   2.240   5.413   5.771  2.1299 -0.4164  1.1837
 2869SOL     OW10090   2.840   5.866   5.147 -0.5989  0.4458  0.2609
 2869SOL    HW110091   2.870   5.826   5.065 -0.3682 -0.6357  0.8576
 2869SOL    HW210092   2.805   5.793   5.198  0.0219  0.9626  1.4645
 2870SOL     OW10093   5.799   3.172   6.921 -0.1013 -0.1958 -0.5325
 2870SOL    HW110094   5.738   3.224   6.869 -0.4631 -1.3524 -1.2847
 2870SOL    HW210095   5.863   3.139   6.858  0.7139  0.1686  0.0920
 2871SOL     OW10096   7.845   4.682   7.194 -0.7147  0.2521  0.4238
 2871SOL    HW110097   7.860   4.672   7.100  0.0209  0.8860  0.4706
 2871SOL    HW210098   7.830   4.593   7.226  1.5950 -0.2787  0.1394
 2872SOL     OW10099   6.009   1.813   0.301 -0.2938  0.9335  0.6925
 2872SOL    HW110100   6.047   1.726   0.311 -0.6455  0.5992 -0.7279
 2872SOL    HW210101   5.943   1.802   0.233 -1.0262  2.1038  1.1952
 2873SOL     OW10102   7.206   0.825   2.399  0.3025 -0.4741  0.5500
 2873SOL    HW110103   7.168   0.771   2.468 -0.9964  0.1860  0.3603
 2873SOL    HW210104   7.184   0.915   2.424 -0.2489 -0.2376 -0.7542
 2874SOL     OW10105   3.726   4.421   4.651 -0.0688 -0.0556  0.1028
 2874SOL    HW110106   3.773   4.498   4.684 -1.5080 -0.3935  3.0971
 2874SOL    HW210107   3.791   4.373   4.600  1.4744  1.9805  0.0881
 2875SOL     OW10108   1.389   0.789   2.087  0.0923 -0.0566  0.1471
 2875SOL    HW110109   1.382   0.840   2.167 -1.1272  2.1492 -1.3125
 2875SOL    HW210110   1.357   0.701   2.111 -2.3007  1.1489  1.5599
 2876SOL     OW10111   1.913   1.993   3.753 -0.7312 -0.3910 -0.4401
 2876SOL    HW110112   1.986   1.936   3.729  0.6299  0.4584  1.5748
 2876SOL    HW210113   1.954   2.074   3.782 -2.4717 -0.0173  1.0767
 2877SOL     OW10114   6.752   8.077   7.517 -0.6364 -0.0252  0.5645
 2877SOL    HW110115   6.691   8.112   7.582 -0.6604 -0.2074  0.6420
 2877SOL    HW210116   6.814   8.148   7.501 -1.1034  0.2973  0.1847
 2878SOL     OW10117   0.293   0.474   0.895 -0.0826 -0.1081 -0.0872
 2878SOL    HW110118   0.331   0.387   0.913 -2.4758 -1.1929 -0.1679
 2878SOL    HW210119   0.207   0.472   0.935 -0.4581  2.0111 -0.7144
 2879SOL     OW10120   6.863   6.157   1.760 -0.0720 -0.3747  0.5340
 2879SOL    HW110121   6.799   6.115   1.817 -2.3653  3.0634  0.6334
 2879SOL    HW210122   6.911   6.217   1.816  1.3635 -0.8710 -0.1216
 2880SOL     OW10123   1.581   0.338   3.016 -0.5707 -0.3606 -0.4149
 2880SOL    HW110124   1.577   0.256   3.065 -0.2317  1.1479  2.1866
 2880SOL    HW210125   1.492   0.373   3.020 -0.1761  0.5456  0.4826
 2881SOL     OW10126   0.192   6.035   6.434 -0.3484  0.6932 -0.0425
 2881SOL    HW110127   0.192   6.120   6.390 -1.8314 -0.0494 -1.5104
 2881SOL    HW210128   0.192   5.971   6.363  0.1284 -0.5402  1.0462
 2882SOL     OW10129   5.509   4.153   1.467  0.6964  0.4723  0.1490
 2882SOL    HW110130   5.519   4.062   1.495  0.1425  0.7382  1.2377
 2882SOL    HW210131   5.525   4.151   1.373 -2.3745 -1.3097 -0.4191
 2883SOL     OW10132   4.508   2.253   2.595 -0.2281 -0.1883 -0.1900
 2883SOL    HW110133   4.584   2.281   2.647 -0.6136  0.9278 -0.2294
 2883SOL    HW210134   4.451   2.329   2.593 -0.3350 -0.3052 -2.0502
 2884SOL     OW10135   1.707   2.770   5.676 -0.3421  0.1628 -0.3288
 2884SOL    HW110136   1.720   2.727   5.760  0.4412  0.1423 -0.4487
 2884SOL    HW210137   1.646   2.841   5.694  1.0303  1.1419  0.6002
 2885SOL     OW10138   5.266   3.424   6.575  0.1305  0.8888 -0.4204
 2885SOL    HW110139   5.251   3.510   6.536 -0.0704  1.4803  0.9333
 2885SOL    HW210140   5.267   3.364   6.501  2.0331  2.2835 -1.5492
 2886SOL     OW10141   5.727   0.355   4.557 -0.4505  0.5955  0.1406
 2886SOL    HW110142   5.669   0.322   4.488 -3.1556  1.0489  2.1104
 2886SOL    HW210143   5.690   0.440   4.580  1.7855  1.4660  0.5878
 2887SOL     OW10144   2.999   5.680   5.288  0.1819 -0.5196  0.5838
 2887SOL    HW110145   3.069   5.621   5.260  0.0483 -1.5548  2.3474
 2887SOL    HW210146   3.033   5.768   5.270  0.9874 -1.0812 -0.6977
 2888SOL     OW10147   6.112   3.930   4.574  0.2278  0.0540 -0.9794
 2888SOL    HW110148   6.063   3.855   4.542 -2.2552  0.7795  0.9440
 2888SOL    HW210149   6.112   3.992   4.502 -0.9703 -0.2989 -1.2836
 2889SOL     OW10150   0.419   7.716   5.834  0.3504 -0.5580  0.4889
 2889SOL    HW110151   0.462   7.630   5.834 -1.0586 -1.3077 -1.5839
 2889SOL    HW210152   0.371   7.718   5.751 -0.5886  1.7642  1.0646
 2890SOL     OW10153   6.194   4.112   3.318  0.1469 -0.3235  0.0721
 2890SOL    HW110154   6.204   4.144   3.229  0.8054  0.6680  0.4874
 2890SOL    HW210155   6.231   4.024   3.317  3.5283  1.0162  0.1681
 2891SOL     OW10156   5.448   7.592   0.824 -0.0557  0.0391  0.4374
 2891SOL    HW110157   5.426   7.666   0.880 -0.8781  0.1629 -0.0446
 2891SOL    HW210158   5.385   7.597   0.752  1.6055  0.4758 -1.0364
 2892SOL     OW10159   4.540   0.884   0.665  0.0394  0.0434  0.5417
 2892SOL    HW110160   4.627   0.899   0.702  0.3944 -0.9908  0.1604
 2892SOL    HW210161   4.546   0.798   0.624 -1.1667 -0.0419  0.5109
 2893SOL     OW10162   4.254   5.967   3.876  0.2246  0.1030  0.3618
 2893SOL    HW110163   4.296   5.881   3.877 -0.9279 -0.4929 -0.4740
 2893SOL    HW210164   4.240   5.988   3.968 -0.8166 -1.2836  0.5425
 2894SOL     OW10165   7.610   0.781   7.602  0.4568 -0.3452 -0.4203
 2894SOL    HW110166   7.549   0.757   7.532  0.4685  1.0559 -0.9152
 2894SOL    HW210167   7.564   0.756   7.682 -0.1993 -0.5357 -0.8487
 2895SOL     OW10168   3.990   3.477   0.579 -0.1507 -0.2247  0.0986
 2895SOL    HW110169   3.976   3.429   0.497 -2.8846 -0.4059  0.6602
 2895SOL    HW210170   4.051   3.547   0.554  0.2433 -1.1888 -1.7512
 2896SOL     OW10171   3.194   4.623   5.071 -0.4230 -0.7869 -0.0042
 2896SOL    HW110172   3.215   4.551   5.130  2.5123 -1.2474 -1.5597
 2896SOL    HW210173   3.173   4.581   4.988  0.2869  0.1114 -0.6398
 2897SOL     OW10174   6.704   5.092   7.173  0.0116  0.5692 -0.0354
 2897SOL    HW110175   6.681   5.023   7.111  2.5302  1.1414 -1.7134
 2897SOL    HW210176   6.793   5.069   7.203 -0.0585  1.8129  1.2039
 2898SOL     OW10177   6.564   4.731   4.319  0.4533 -0.0253  0.2119
 2898SOL    HW110178   6.569   4.758   4.410 -2.3092 -1.8607  0.9767
 2898SOL    HW210179   6.523   4.805   4.274  0.4527  0.2934  0.7374
 2899SOL     OW10180   2.789   6.313   4.576  0.2721 -0.1307  0.2088
 2899SOL    HW110181   2.835   6.238   4.613  0.5548  0.5324  1.2353
 2899SOL    HW210182   2.713   6.276   4.531  0.1990 -0.9992  1.0429
 2900SOL     OW10183   7.247   3.676   7.950 -0.6198  0.4574 -0.2600
 2900SOL    HW110184   7.237   3.602   7.891 -1.7297  1.2409 -1.0767
 2900SOL    HW210185   7.327   3.720   7.920 -0.6642  0.3209 -0.5740
 2901SOL     OW10186   6.091   3.165   6.335 -0.0734  0.2937  0.4247
 2901SOL    HW110187   6.135   3.203   6.259 -0.3778 -1.5368 -0.7190
 2901SOL    HW210188   6.010   3.214   6.343 -0.3874  0.0096 -0.9160
 2902SOL     OW10189   0.167   4.152   1.311  0.0073 -0.4191 -0.4804
 2902SOL    HW110190   0.084   4.168   1.268  0.0218  0.0259 -0.3435
 2902SOL    HW210191   0.230   4.206   1.263 -0.4841  2.4988  1.9525
 2903SOL     OW10192   4.239   2.851   6.751  0.0476  0.3009 -0.3145
 2903SOL    HW110193   4.273   2.931   6.711  0.4666 -1.0752 -2.8823
 2903SOL    HW210194   4.303   2.784   6.727 -1.4320 -1.2065 -0.1042
 2904SOL     OW10195   3.121   4.211   4.101  0.3484 -0.2496  0.0849
 2904SOL    HW110196   3.133   4.136   4.043 -0.3632 -0.9297  0.8160
 2904SOL    HW210197   3.074   4.176   4.177 -1.3132  1.2277 -0.2356
 2905SOL     OW10198   2.378   0.951   2.748  0.3553 -0.5922 -0.0597
 2905SOL    HW110199   2.469   0.921   2.748  0.2975 -0.7662 -0.3367
 2905SOL    HW210200   2.384   1.045   2.731  0.5285 -0.4652  0.6966
 2906SOL     OW10201   8.079   7.963   0.969  0.0210  0.1118  0.1592
 2906SOL    HW110202   8.145   7.896   0.951  1.2709  1.3293  0.0811
 2906SOL    HW210203   8.130   8.043   0.982 -1.3671  0.7988  1.4651
 2907SOL     OW10204   6.204   6.991   5.093  0.3186  0.4921  0.7662
 2907SOL    HW110205   6.251   7.059   5.142 -0.0156  0.4949  1.0869
 2907SOL    HW210206   6.112   7.006   5.115  0.0331  1.3816 -0.9803
 2908SOL     OW10207   7.256   6.419   6.094  0.7230  0.5311 -0.1498
 2908SOL    HW110208   7.233   6.485   6.159  0.0426 -1.0506  1.2476
 2908SOL    HW210209   7.281   6.342   6.145  1.9916 -0.1519 -1.7476
 2909SOL     OW10210   3.320   3.046   5.080 -0.2227  0.0786 -0.0057
 2909SOL    HW110211   3.340   2.992   5.157 -0.2100  0.5364  0.3140
 2909SOL    HW210212   3.395   3.035   5.022 -0.2607 -0.3175  0.0183
 2910SOL     OW10213   0.505   2.280   6.472 -0.6647  0.4330 -0.1602
 2910SOL    HW110214   0.447   2.282   6.396 -0.0229 -0.8696 -0.7106
 2910SOL    HW210215   0.591   2.303   6.437 -0.4755  0.3846  0.2699
 2911SOL     OW10216   1.886   8.027   1.321  0.4751 -0.1657  0.4031
 2911SOL    HW110217   1.840   7.993   1.244  0.4875 -1.2213  0.8584
 2911SOL    HW210218   1.908   7.950   1.372  1.5256  0.4400  0.8874
 2912SOL     OW10219   5.194   6.503   6.309  0.1898 -0.7535 -0.6291
 2912SOL    HW110220   5.142   6.435   6.352 -0.6761  0.2935 -0.0203
 2912SOL    HW210221   5.137   6.535   6.238 -0.2892  0.8791  0.4746
 2913SOL     OW10222   7.215   5.487   4.841  0.3616 -0.1902  0.4264
 2913SOL    HW110223   7.298   5.534   4.846  0.1633  0.2525 -0.3329
 2913SOL    HW210224   7.168   5.512   4.921  1.0016 -0.5309  0.9133
 2914SOL     OW10225   4.761   2.847   6.016  0.7120 -0.1817  0.1899
 2914SOL    HW110226   4.818   2.801   5.953  1.5272  0.2999  0.5699
 2914SOL    HW210227   4.689   2.880   5.963  1.5126  0.4154 -0.5406
 2915SOL     OW10228   0.553   4.750   3.411  0.3154 -0.0385 -0.0030
 2915SOL    HW110229   0.541   4.795   3.327  1.7809 -0.1461 -0.2867
 2915SOL    HW210230   0.481   4.686   3.414 -1.4619  1.9241  0.1562
 2916SOL     OW10231   1.605   7.845   3.691 -0.4325  0.7875  0.1476
 2916SOL    HW110232   1.674   7.818   3.752  0.3674 -1.3464 -1.6439
 2916SOL    HW210233   1.578   7.764   3.649 -0.7088  2.2665 -2.5911
 2917SOL     OW10234   7.547   4.787   7.164  0.6865 -0.0976 -0.4328
 2917SOL    HW110235   7.456   4.801   7.193  1.0182 -0.8935  1.0364
 2917SOL    HW210236   7.538   4.739   7.082 -0.2173 -0.2402 -0.2604
 2918SOL     OW10237   4.327   3.914   1.296  0.3233 -0.3450 -0.1229
 2918SOL    HW110238   4.234   3.936   1.301  0.2886 -0.5969  0.3477
 2918SOL    HW210239   4.370   3.979   1.352  0.4551 -0.1095 -0.4917
 2919SOL     OW10240   0.254   2.269   5.468 -0.2852 -0.2667 -0.3085
 2919SOL    HW110241   0.313   2.334   5.507 -0.3221 -0.8830  0.7766
 2919SOL    HW210242   0.295   2.185   5.488 -0.4185 -0.5997 -1.4105
 2920SOL     OW10243   5.415   0.340   5.192  0.0853 -0.4744  0.4993
 2920SOL    HW110244   5.334   0.296   5.168 -0.6050  0.6913  0.6512
 2920SOL    HW210245   5.395   0.433   5.183  1.2976 -0.1690  0.8784
 2921SOL     OW10246   2.792   8.224   1.873 -0.5328 -0.0250  0.1470
 2921SOL    HW110247   2.842   8.278   1.933  1.8941 -1.4314 -0.5677
 2921SOL    HW210248   2.772   8.145   1.923 -0.8419 -0.0624 -0.0349
 2922SOL     OW10249   3.306   5.065   7.378 -0.3683  0.1687 -0.1522
 2922SOL    HW110250   3.302   5.096   7.468  1.1562  0.5925 -0.2263
 2922SOL    HW210251   3.278   5.140   7.326  0.2051  0.4096 -0.1212
 2923SOL     OW10252   2.799   4.143   5.622  0.6946  0.5432 -0.0108
 2923SOL    HW110253   2.888   4.179   5.623  0.9309  0.1116 -2.2806
 2923SOL    HW210254   2.812   4.049   5.609 -0.0903  0.6353 -1.6344
 2924SOL     OW10255   1.841   1.207   1.140  0.4688  0.1156 -0.3952
 2924SOL    HW110256   1.779   1.155   1.089 -0.0233 -0.5365  0.8536
 2924SOL    HW210257   1.910   1.146   1.165  1.3314  0.7077 -1.2838
 2925SOL     OW10258   7.702   7.536   4.650 -0.3738  0.2060 -0.0373
 2925SOL    HW110259   7.647   7.460   4.632 -1.1749  0.4666  1.2144
 2925SOL    HW210260   7.783   7.499   4.685 -0.2348 -0.1283 -0.7121
 2926SOL     OW10261   6.246   3.389   4.164 -0.6843  0.1734  0.4898
 2926SOL    HW110262   6.301   3.461   4.196 -2.2006  1.4247  0.3740
 2926SOL    HW210263   6.297   3.350   4.094 -0.6586  2.4309 -0.8042
 2927SOL     OW10264   7.894   0.014   4.179  0.5238  0.6029 -0.1820
 2927SOL    HW110265   7.957  -0.048   4.215 -1.1185 -0.6380  0.6499
 2927SOL    HW210266   7.831   0.028   4.249 -2.0263 -0.8733 -2.0732
 2928SOL     OW10267   3.483   5.108   2.907  0.0779 -0.0807 -0.0370
 2928SOL    HW110268   3.557   5.065   2.864  0.2361 -1.2221  1.3142
 2928SOL    HW210269   3.465   5.185   2.853  1.8531 -0.1188 -0.7305
 2929SOL     OW10270   2.186   1.907   1.158 -0.1668  0.1513  0.1281
 2929SOL    HW110271   2.135   1.893   1.238  2.1217  1.6881  1.9341
 2929SOL    HW210272   2.206   2.001   1.159  0.3408  0.0835 -1.9937
 2930SOL     OW10273   3.037   2.491   0.072 -0.1044  0.1051 -0.4675
 2930SOL    HW110274   3.108   2.503   0.008 -0.1505 -0.0917 -0.5557
 2930SOL    HW210275   2.964   2.541   0.035 -0.7543 -1.6204 -1.5698
 2931SOL     OW10276   4.380   7.764   5.069 -0.0449 -0.5017  0.2271
 2931SOL    HW110277   4.305   7.799   5.021  0.7761  0.2043 -0.5630
 2931SOL    HW210278   4.342   7.726   5.148 -1.2622 -0.4034 -0.2994
 2932SOL     OW10279   7.297   6.100   2.585 -0.3263  0.3094  0.2360
 2932SOL    HW110280   7.241   6.026   2.608  2.1484 -1.1675  1.6794
 2932SOL    HW210281   7.368   6.097   2.648  0.5813  3.0884 -0.5824
 2933SOL     OW10282   7.766   0.037   6.995 -0.6129  0.2202  0.4945
 2933SOL    HW110283   7.783  -0.035   7.056  0.7757 -0.1941 -0.3608
 2933SOL    HW210284   7.716  -0.002   6.924 -0.7650  0.3279  0.5427
 2934SOL     OW10285   3.713   3.487   6.022 -0.1986 -0.6844 -0.0104
 2934SOL    HW110286   3.737   3.571   5.984  0.4377 -1.1915 -0.7438
 2934SOL    HW210287   3.686   3.508   6.112 -0.2674  0.3243 -0.2661
 2935SOL     OW10288   5.421   7.729   0.110  0.2041 -0.1878  0.0156
 2935SOL    HW110289   5.468   7.647   0.128  0.2333 -0.1252  0.2179
 2935SOL    HW210290   5.453   7.790   0.176 -0.8744 -0.4157  0.7457
 2936SOL     OW10291   6.910   2.128   7.305 -0.6964  0.0678  0.5138
 2936SOL    HW110292   6.824   2.090   7.285 -0.9271  0.3630  0.9379
 2936SOL    HW210293   6.899   2.166   7.393  0.6999 -2.4820  1.8453
 2937SOL     OW10294   4.666   6.815   3.338 -0.3366  0.3671 -0.0440
 2937SOL    HW110295   4.707   6.844   3.256  0.8742 -1.2634 -0.0355
 2937SOL    HW210296   4.705   6.871   3.405  0.0920  0.4182 -0.3336
 2938SOL     OW10297   1.831   1.029   5.837  0.2425 -0.0524 -0.0368
 2938SOL    HW110298   1.923   1.002   5.842 -0.2951 -1.7568  0.7049
 2938SOL    HW210299   1.835   1.116   5.797  2.0302 -0.9429 -1.9227
 2939SOL     OW10300   6.627   0.083   4.697  0.1403 -0.0907 -0.4692
 2939SOL    HW110301   6.559   0.051   4.637 -0.0161 -1.6856  0.5264
 2939SOL    HW210302   6.709   0.049   4.661  0.2407  0.4529 -0.7601
 2940SOL     OW10303   7.783   0.602   6.249  0.1662  0.1705 -0.1241
 2940SOL    HW110304   7.796   0.657   6.172 -1.0758  0.3190 -0.2385
 2940SOL    HW210305   7.870   0.590   6.286  0.2991  3.3472  0.7003
 2941SOL     OW10306   7.512   6.085   2.725 -0.1986 -0.3204  0.4168
 2941SOL    HW110307   7.540   6.042   2.806  1.3163  0.3863  0.2710
 2941SOL    HW210308   7.578   6.152   2.708 -0.7004 -0.1996 -1.2000
 2942SOL     OW10309   0.493   4.572   5.517 -0.2949  0.2877 -0.0517
 2942SOL    HW110310   0.418   4.631   5.515  0.9991  1.9864 -0.2477
 2942SOL    HW210311   0.569   4.631   5.515  1.0313 -1.3944 -0.0510
 2943SOL     OW10312   0.885   1.903   6.997  0.3706 -0.1409  0.1763
 2943SOL    HW110313   0.922   1.891   6.910  0.2818  1.3112 -0.0799
 2943SOL    HW210314   0.855   1.816   7.023  1.7192 -0.8737 -0.6334
 2944SOL     OW10315   2.409   0.129   2.178 -0.9991  0.0989 -0.4631
 2944SOL    HW110316   2.369   0.055   2.132 -1.3925  0.9179 -1.4728
 2944SOL    HW210317   2.440   0.186   2.107  1.6063 -0.3249  0.2819
 2945SOL     OW10318   2.877   8.306   1.113 -0.8282 -0.1346 -0.2477
 2945SOL    HW110319   2.967   8.316   1.146 -1.3872  1.8244  0.7320
 2945SOL    HW210320   2.822   8.346   1.180 -2.2594  0.7042 -1.8841
 2946SOL     OW10321   1.412   0.476   4.004 -0.0149 -0.4002 -0.0279
 2946SOL    HW110322   1.374   0.392   3.978 -0.5005 -0.0891 -0.3325
 2946SOL    HW210323   1.401   0.479   4.099  0.0579 -0.7069 -0.0089
 2947SOL     OW10324   2.971   0.363   7.378  0.3967  0.0402  0.3290
 2947SOL    HW110325   2.892   0.319   7.347  0.6144 -0.3021  0.2635
 2947SOL    HW210326   3.031   0.360   7.303  0.7004 -0.2502  0.5839
 2948SOL     OW10327   5.924   7.663   0.043  0.0606 -0.5463  0.1385
 2948SOL    HW110328   5.953   7.754   0.032 -1.1843 -0.2827 -1.1899
 2948SOL    HW210329   5.837   7.661   0.004 -0.2000 -2.1711  0.7592
 2949SOL     OW10330   2.272   6.892   3.803 -0.0640  0.4088 -0.4492
 2949SOL    HW110331   2.177   6.907   3.808  0.0806  0.7458  1.3732
 2949SOL    HW210332   2.281   6.796   3.807 -0.2177  0.4631  1.5957
 2950SOL     OW10333   6.132   3.203   3.414  0.1348 -0.5219 -0.1587
 2950SOL    HW110334   6.196   3.152   3.465 -1.0082 -1.8512 -0.0317
 2950SOL    HW210335   6.166   3.292   3.416  1.3951 -1.0070  0.8720
 2951SOL     OW10336   0.844   2.116   4.169 -0.3822  0.2773 -0.1456
 2951SOL    HW110337   0.812   2.113   4.079  0.9596  2.0638 -0.7169
 2951SOL    HW210338   0.936   2.142   4.161  0.4000 -1.7769  1.6226
 2952SOL     OW10339   3.543   0.744   8.069  0.5227  0.3608 -0.4750
 2952SOL    HW110340   3.614   0.690   8.103 -0.7487 -1.4102 -0.5738
 2952SOL    HW210341   3.514   0.699   7.990 -1.6230  0.3151  0.3201
 2953SOL     OW10342   0.712   7.128   2.542 -0.1743 -0.6639 -0.3601
 2953SOL    HW110343   0.693   7.113   2.449 -0.4555 -0.1847 -0.3844
 2953SOL    HW210344   0.664   7.208   2.563 -1.1943 -1.5096  0.5531
 2954SOL     OW10345   2.087   2.633   5.504 -0.6902  0.3582  0.0967
 2954SOL    HW110346   2.143   2.618   5.580  0.2486  1.3592 -0.3837
 2954SOL    HW210347   1.999   2.610   5.534 -0.0307 -1.3356  0.8304
 2955SOL     OW10348   6.850   0.116   3.705  0.0121  0.2264 -0.4295
 2955SOL    HW110349   6.886   0.154   3.625  0.9162  0.0188 -0.1274
 2955SOL    HW210350   6.757   0.137   3.701  0.1860  0.9123 -1.1458
 2956SOL     OW10351   0.139   3.331   3.289 -0.0496  0.0090 -0.8863
 2956SOL    HW110352   0.226   3.299   3.312  0.2859  1.4019 -0.1458
 2956SOL    HW210353   0.139   3.422   3.317 -1.5005  0.2303 -1.5574
 2957SOL     OW10354   1.751   3.288   4.798 -0.6464  0.1685 -0.0696
 2957SOL    HW110355   1.734   3.249   4.712  0.2788 -1.5442  0.5082
 2957SOL    HW210356   1.783   3.376   4.778 -0.7510 -0.0985 -1.4686
 2958SOL     OW10357   8.222   0.856   1.118  0.1852 -0.3433  0.3671
 2958SOL    HW110358   8.307   0.811   1.122  1.0657  1.4294  3.1872
 2958SOL    HW210359   8.158   0.787   1.139  1.1495 -1.1444  0.7327
 2959SOL     OW10360   1.659   6.398   0.015 -0.2306 -0.0085  0.3853
 2959SOL    HW110361   1.642   6.398   0.109  0.8032 -0.9745  0.5861
 2959SOL    HW210362   1.717   6.474   0.001  1.1072 -0.9278  0.8309
 2960SOL     OW10363   6.889   3.113   0.551 -0.0904  0.2377  0.3439
 2960SOL    HW110364   6.975   3.155   0.550 -0.4051  0.8873  0.1789
 2960SOL    HW210365   6.838   3.162   0.487 -0.3178 -0.7129 -0.2171
 2961SOL     OW10366   1.045   6.763   7.425  0.1843  0.0447 -0.0612
 2961SOL    HW110367   1.003   6.682   7.454 -1.1712  0.6414 -0.3443
 2961SOL    HW210368   1.052   6.753   7.330 -0.1145  0.3254 -0.1117
 2962SOL     OW10369   5.697   1.774   2.024  0.2996 -0.0303  0.0173
 2962SOL    HW110370   5.766   1.772   1.958  0.8237  0.0934  0.5540
 2962SOL    HW210371   5.732   1.721   2.097  0.3471  1.0633  0.7933
 2963SOL     OW10372   5.975   7.889   6.222  0.1188  0.0142 -0.0326
 2963SOL    HW110373   5.971   7.957   6.289  1.1305 -0.6014  0.6508
 2963SOL    HW210374   6.017   7.931   6.147  0.7028  0.1498  0.3736
 2964SOL     OW10375   2.709   1.160   8.203  0.6013 -0.1044 -0.5940
 2964SOL    HW110376   2.639   1.214   8.240 -0.1229 -0.4286 -1.4902
 2964SOL    HW210377   2.739   1.107   8.277  2.4462  2.6241  0.7382
 2965SOL     OW10378   0.525   5.636   1.911  0.7463  0.1871  0.2581
 2965SOL    HW110379   0.570   5.562   1.870  3.3145  1.3281  0.9401
 2965SOL    HW210380   0.553   5.634   2.002  0.1932  1.5459  0.4651
 2966SOL     OW10381   7.633   0.550   5.232  0.6051  0.0772 -0.5851
 2966SOL    HW110382   7.575   0.499   5.288 -1.3366 -0.1246 -2.7303
 2966SOL    HW210383   7.702   0.488   5.206  0.5253 -0.3103  0.1217
 2967SOL     OW10384   0.199   1.540   1.801  0.1062  0.1893  0.3585
 2967SOL    HW110385   0.209   1.631   1.775 -0.6802  0.6197  1.5640
 2967SOL    HW210386   0.116   1.513   1.763  0.0084  0.1655  0.5953
 2968SOL     OW10387   0.282   3.752   4.052 -0.1000 -0.1548 -0.5005
 2968SOL    HW110388   0.206   3.792   4.095 -0.5836 -1.3108 -0.2486
 2968SOL    HW210389   0.264   3.762   3.958  2.4171  5.1424 -0.6146
 2969SOL     OW10390   6.373   4.123   6.831  0.2737  0.2280  0.1925
 2969SOL    HW110391   6.347   4.210   6.803  1.3464  0.8222  0.9854
 2969SOL    HW210392   6.315   4.063   6.784  0.7837  1.2781 -1.7892
 2970SOL     OW10393   3.824   3.197   0.694 -0.0841 -0.3433 -0.1904
 2970SOL    HW110394   3.875   3.139   0.751  0.0259 -0.2879 -0.2322
 2970SOL    HW210395   3.868   3.192   0.610  0.2739  0.2537 -0.0442
 2971SOL     OW10396   0.743   0.986   4.063 -0.9209 -0.2613  0.1662
 2971SOL    HW110397   0.691   0.950   4.135 -0.9215 -1.0601 -0.2232
 2971SOL    HW210398   0.815   0.924   4.053 -0.0156  0.7107  0.5490
 2972SOL     OW10399   1.510   0.344   2.721  0.5213  0.4192  0.8113
 2972SOL    HW110400   1.472   0.295   2.794  0.1511  0.5167  0.6814
 2972SOL    HW210401   1.495   0.435   2.743  1.3786  0.4814  1.1442
 2973SOL     OW10402   3.143   3.706   5.859  0.2630  0.2556  0.5764
 2973SOL    HW110403   3.068   3.663   5.900  0.0364 -0.7533 -0.8395
 2973SOL    HW210404   3.149   3.791   5.903 -2.6343  0.9773 -0.2797
 2974SOL     OW10405   0.909   2.796   5.652  0.6473 -0.2891 -0.3085
 2974SOL    HW110406   0.866   2.861   5.597 -0.2829 -1.9516 -1.6255
 2974SOL    HW210407   0.971   2.845   5.704  2.0086  1.3099 -3.2872
 2975SOL     OW10408   6.699   7.924   5.529  0.0547 -0.2032  0.0223
 2975SOL    HW110409   6.750   7.958   5.603  0.9026 -2.1911  0.3801
 2975SOL    HW210410   6.746   7.955   5.452 -0.2970  1.0778  0.3041
 2976SOL     OW10411   3.855   4.153   7.090  0.2050 -0.6546  0.0112
 2976SOL    HW110412   3.824   4.209   7.161 -0.6382  0.1071 -0.9436
 2976SOL    HW210413   3.846   4.064   7.125 -0.4835 -0.3100  0.7527
 2977SOL     OW10414   6.970   5.784   2.061  0.2992  0.3329  0.1915
 2977SOL    HW110415   7.004   5.841   2.131  0.0286 -0.2097  0.7721
 2977SOL    HW210416   7.039   5.719   2.048  0.1174  0.1175  0.3215
 2978SOL     OW10417   8.275   0.798   5.927 -0.1301  0.2956  0.2341
 2978SOL    HW110418   8.323   0.765   6.003  0.4231  2.5847  0.9078
 2978SOL    HW210419   8.328   0.871   5.894 -0.8082 -0.1081 -1.8350
 2979SOL     OW10420   3.805   7.756   6.422  0.2378 -0.2466 -0.4802
 2979SOL    HW110421   3.767   7.762   6.334 -0.4403  1.6094 -0.0798
 2979SOL    HW210422   3.898   7.738   6.406  0.4115  1.5042 -1.6452
 2980SOL     OW10423   0.926   4.084   5.844 -0.1472  0.2685 -0.0703
 2980SOL    HW110424   1.018   4.090   5.817  0.2668  1.3321  1.5435
 2980SOL    HW210425   0.885   4.031   5.775  1.9186 -1.2812 -0.1717
 2981SOL     OW10426   6.779   6.479   1.443 -0.5789  0.0917 -0.6229
 2981SOL    HW110427   6.844   6.464   1.375  0.3256 -0.1070  0.2661
 2981SOL    HW210428   6.777   6.573   1.455  0.3416  0.0297  0.0938
 2982SOL     OW10429   0.181   6.337   6.023 -0.1410 -0.1465 -0.1518
 2982SOL    HW110430   0.184   6.257   5.971 -1.2830 -0.6445  0.5258
 2982SOL    HW210431   0.090   6.344   6.052  0.6492 -0.4435  2.6326
 2983SOL     OW10432   4.799   7.265   7.557 -0.0197 -0.3181 -0.2387
 2983SOL    HW110433   4.761   7.276   7.645 -3.7124 -0.5905 -1.7028
 2983SOL    HW210434   4.829   7.353   7.534 -0.5352  0.1065  0.6548
 2984SOL     OW10435   3.888   8.210   2.655 -1.0175  0.4897 -0.2565
 2984SOL    HW110436   3.925   8.291   2.689 -3.4217  1.7638 -0.5773
 2984SOL    HW210437   3.922   8.142   2.713 -0.8487  2.0009  1.4581
 2985SOL     OW10438   0.964   6.014   0.667  0.1610  0.4276  0.1533
 2985SOL    HW110439   0.883   6.053   0.634 -1.2046 -1.2236  1.4187
 2985SOL    HW210440   1.030   6.037   0.603 -1.3699  1.6366 -1.0242
 2986SOL     OW10441   5.704   0.479   7.203 -0.1401 -0.1405  0.0697
 2986SOL    HW110442   5.636   0.478   7.135  0.4986 -0.0974 -0.5661
 2986SOL    HW210443   5.761   0.551   7.180 -0.1223  0.1071  0.8626
 2987SOL     OW10444   5.706   6.489   5.752 -0.2008 -0.4229  0.2338
 2987SOL    HW110445   5.707   6.414   5.811  1.0888 -0.4837  0.1445
 2987SOL    HW210446   5.772   6.548   5.787 -1.7605  1.0343  0.7531
 2988SOL     OW10447   3.924   4.497   6.997 -0.1234  0.3866 -0.5115
 2988SOL    HW110448   3.945   4.406   6.976 -0.8595  0.2751 -0.7822
 2988SOL    HW210449   3.940   4.544   6.915 -2.7443 -0.0067 -1.2961
 2989SOL     OW10450   5.989   7.929   6.660 -0.0586  0.4713  0.6304
 2989SOL    HW110451   5.996   7.835   6.647 -0.6596  0.5949 -0.6555
 2989SOL    HW210452   6.074   7.955   6.697 -0.4675 -0.8024  2.5129
 2990SOL     OW10453   5.709   6.786   5.861  0.0186  0.9583 -0.1913
 2990SOL    HW110454   5.757   6.820   5.785  0.5585 -0.1821 -0.3551
 2990SOL    HW210455   5.775   6.772   5.928  0.1265 -1.7584 -0.8144
 2991SOL     OW10456   7.298   6.302   1.754  0.9129 -0.1135 -0.1912
 2991SOL    HW110457   7.293   6.321   1.660  2.5742  0.1741 -0.2483
 2991SOL    HW210458   7.252   6.219   1.764  3.2048 -1.6357 -1.7479
 2992SOL     OW10459   7.618   0.413   1.253  0.1377 -0.0433 -0.3906
 2992SOL    HW110460   7.595   0.440   1.342  2.2693  1.2632 -0.1925
 2992SOL    HW210461   7.596   0.320   1.249  1.2262 -0.4381  1.9497
 2993SOL     OW10462   7.674   8.287   0.744  0.9105  0.1075  0.0231
 2993SOL    HW110463   7.749   8.299   0.802 -0.3523 -3.1085  2.4952
 2993SOL    HW210464   7.602   8.265   0.803 -1.4647  0.8685 -2.4889
 2994SOL     OW10465   7.209   2.236   2.060 -0.3253  0.1647  0.1910
 2994SOL    HW110466   7.167   2.217   2.144 -0.9253 -2.8020 -0.7241
 2994SOL    HW210467   7.141   2.281   2.009 -0.6860  0.0467  0.5602
 2995SOL     OW10468   5.944   0.593   0.018  0.3384  0.1138 -0.3475
 2995SOL    HW110469   6.037   0.614   0.004  0.6747 -0.4291  0.9629
 2995SOL    HW210470   5.911   0.666   0.071  0.1900 -0.0178 -0.2572
 2996SOL     OW10471   0.496   8.012   7.150  0.1988 -0.5460  0.1318
 2996SOL    HW110472   0.554   7.982   7.080  0.5185  0.5799 -0.1081
 2996SOL    HW210473   0.410   7.977   7.127  0.3499 -0.3823 -0.7129
 2997SOL     OW10474   6.896   0.428   6.101 -0.0127  0.1533  0.1641
 2997SOL    HW110475   6.914   0.358   6.164 -0.5901 -2.1171 -2.0987
 2997SOL    HW210476   6.812   0.463   6.129  1.0387  1.0933  2.2816
 2998SOL     OW10477   2.149   0.728   3.631  0.1460 -0.0575  0.5121
 2998SOL    HW110478   2.074   0.776   3.667 -0.2221 -0.3122  0.0902
 2998SOL    HW210479   2.168   0.661   3.697  0.6083  0.6108  1.0654
 2999SOL     OW10480   0.286   3.969   4.542 -0.4933 -0.2000  0.1464
 2999SOL    HW110481   0.299   3.882   4.580 -2.6792 -0.8293 -0.4362
 2999SOL    HW210482   0.191   3.981   4.543 -0.2073  2.3874  0.6502
 3000SOL     OW10483   2.389   6.000   0.016  0.0319  0.4800 -0.2662
 3000SOL    HW110484   2.466   6.021   0.069 -0.8926  0.3073  1.1595
 3000SOL    HW210485   2.331   6.076   0.026 -0.5756  0.0175 -0.2150
 3001SOL     OW10486   0.899   6.391   0.778 -0.1741 -0.7883 -0.3290
 3001SOL    HW110487   0.868   6.394   0.868  0.6248  1.5430 -0.1095
 3001SOL    HW210488   0.993   6.377   0.786 -0.1341 -0.7940 -0.8197
 3002SOL     OW10489   6.407   6.046   7.465 -0.2670  0.1350  0.2622
 3002SOL    HW110490   6.420   6.119   7.405 -0.0986  0.2344  0.4177
 3002SOL    HW210491   6.495   6.028   7.500 -0.3646  0.0849  0.4856
 3003SOL     OW10492   5.853   0.882   4.121 -0.5211 -0.1160  0.3935
 3003SOL    HW110493   5.823   0.971   4.134 -0.1281  0.0180  0.4060
 3003SOL    HW210494   5.800   0.829   4.181 -0.9676  0.0684  0.1592
 3004SOL     OW10495   2.145   0.379   3.003 -0.0087  0.4060  0.7633
 3004SOL    HW110496   2.168   0.369   2.910  0.8341 -0.1864  1.0358
 3004SOL    HW210497   2.160   0.293   3.041 -2.4202  0.0627  1.0102
 3005SOL     OW10498   2.931   6.037   4.422  0.2633 -0.2319  0.1908
 3005SOL    HW110499   2.885   5.953   4.429 -1.4469  0.6861  0.4199
 3005SOL    HW210500   2.861   6.101   4.406  1.4771  1.2276  0.6062
 3006SOL     OW10501   2.849   5.616   4.907  0.2680 -0.0559 -1.0311
 3006SOL    HW110502   2.871   5.558   4.980  0.1508  1.3651  0.1706
 3006SOL    HW210503   2.795   5.562   4.849 -2.1518 -0.4123  1.4022
 3007SOL     OW10504   5.441   1.788   1.657  0.3064  0.1890  0.2631
 3007SOL    HW110505   5.371   1.724   1.665 -0.4713  0.7780 -1.5408
 3007SOL    HW210506   5.520   1.741   1.681 -0.3471 -1.2266 -0.3410
 3008SOL     OW10507   8.035   4.402   2.484 -0.0889 -0.0214 -0.2481
 3008SOL    HW110508   8.125   4.431   2.469  0.2750 -0.6605  0.6033
 3008SOL    HW210509   8.040   4.351   2.566 -1.7021  2.1158  1.2171
 3009SOL     OW10510   1.359   0.325   4.363 -0.0048  0.1527 -0.8333
 3009SOL    HW110511   1.309   0.395   4.322 -0.0107  0.7513  0.1776
 3009SOL    HW210512   1.396   0.276   4.290 -0.9111  0.5374 -1.5684
 3010SOL     OW10513   7.857   2.048   0.123 -0.4115 -0.9597 -0.8080
 3010SOL    HW110514   7.857   1.963   0.079 -1.1563 -0.1291 -2.4381
 3010SOL    HW210515   7.837   2.111   0.054 -0.8376  0.4517  0.5815
 3011SOL     OW10516   3.331   1.909   5.270 -0.1995  1.1051 -0.0257
 3011SOL    HW110517   3.354   1.986   5.322 -0.1229  0.8776  0.2797
 3011SOL    HW210518   3.290   1.849   5.333  2.9358 -0.5581  0.5138
 3012SOL     OW10519   1.461   7.797   5.715 -0.3237 -0.1908 -0.1341
 3012SOL    HW110520   1.545   7.768   5.680 -0.3256 -0.4529  0.0749
 3012SOL    HW210521   1.478   7.882   5.754 -0.1116 -0.3383  0.0924
 3013SOL     OW10522   5.160   2.016   3.592  0.3738 -0.0062 -0.1928
 3013SOL    HW110523   5.073   2.032   3.556  0.4317  0.2051 -0.2370
 3013SOL    HW210524   5.151   2.032   3.686 -0.3199 -2.7120  0.2481
 3014SOL     OW10525   4.066   8.019   3.752  0.3413  0.4980 -0.5987
 3014SOL    HW110526   4.029   7.945   3.703  1.5862  0.4654 -1.5006
 3014SOL    HW210527   3.990   8.074   3.771 -0.3138 -0.0118 -1.6655
 3015SOL     OW10528   4.032   0.526   3.032  0.1885  0.2110 -0.5831
 3015SOL    HW110529   4.000   0.468   3.101 -0.5072  1.4090  0.1119
 3015SOL    HW210530   4.117   0.488   3.007  0.0120 -0.7759  0.2485
 3016SOL     OW10531   6.583   5.139   1.673 -0.8855  0.5394  0.0549
 3016SOL    HW110532   6.661   5.163   1.623 -0.6514 -1.0783 -0.4012
 3016SOL    HW210533   6.535   5.221   1.684  0.3190  1.3540 -0.6399
 3017SOL     OW10534   6.545   6.735   4.122 -0.6446  0.4143  0.2990
 3017SOL    HW110535   6.507   6.650   4.140  0.3227  0.0602  0.7113
 3017SOL    HW210536   6.530   6.786   4.202 -2.8033  1.2283 -0.5930
 3018SOL     OW10537   5.262   5.994   1.623 -0.2929  0.3514 -0.2732
 3018SOL    HW110538   5.275   6.023   1.533  1.1110 -0.5938 -0.3794
 3018SOL    HW210539   5.282   6.072   1.676 -0.9052  0.8422 -0.7514
 3019SOL     OW10540   3.216   3.647   0.074 -0.0600 -0.6873 -0.2422
 3019SOL    HW110541   3.303   3.640   0.113 -0.1308  1.7322  0.4530
 3019SOL    HW210542   3.231   3.655  -0.020  0.3390 -2.5270 -0.3347
 3020SOL     OW10543   8.167   5.493   4.421 -0.1799  0.1890  0.3616
 3020SOL    HW110544   8.246   5.477   4.472 -0.5120 -0.7418  0.5816
 3020SOL    HW210545   8.125   5.567   4.466  0.4101  0.4899  0.4186
 3021SOL     OW10546   7.868   3.820   1.498  0.0084 -0.2731  0.8689
 3021SOL    HW110547   7.939   3.776   1.544  1.4083  1.5738  0.5696
 3021SOL    HW210548   7.842   3.892   1.556  1.3686  1.6900 -0.8621
 3022SOL     OW10549   3.184   6.227   3.587  0.0354  0.1512 -0.0643
 3022SOL    HW110550   3.202   6.134   3.599  2.5401  0.6160 -0.0320
 3022SOL    HW210551   3.156   6.234   3.496  1.7760 -0.3802 -0.6630
 3023SOL     OW10552   1.003   6.828   1.953  0.1677 -0.1646  0.3399
 3023SOL    HW110553   0.993   6.772   1.877  1.6637 -0.5158  0.4025
 3023SOL    HW210554   0.931   6.803   2.011  0.1577 -1.2138 -0.1284
 3024SOL     OW10555   8.034   2.209   0.237  0.0861 -0.1140  0.1416
 3024SOL    HW110556   8.021   2.203   0.332  0.5160  0.0821  0.2172
 3024SOL    HW210557   7.971   2.148   0.200  1.2173 -1.6417  0.6576
 3025SOL     OW10558   6.655   1.642   2.409  0.1065  0.1949 -0.0991
 3025SOL    HW110559   6.563   1.623   2.427  0.0285 -1.1695 -1.8787
 3025SOL    HW210560   6.653   1.700   2.333  0.6865  1.2181  0.6447
 3026SOL     OW10561   0.446   0.938   1.468 -0.0215  0.3859  0.5111
 3026SOL    HW110562   0.476   1.002   1.402 -0.2162 -0.0584 -0.0125
 3026SOL    HW210563   0.523   0.883   1.484 -0.6360 -0.9498 -1.0647
 3027SOL     OW10564   3.800   1.869   8.233 -0.3739  0.7690 -0.2833
 3027SOL    HW110565   3.722   1.843   8.184  1.0469 -0.6486 -1.8435
 3027SOL    HW210566   3.795   1.819   8.315 -0.4367 -0.3116 -0.9398
 3028SOL     OW10567   5.905   2.442   0.497 -0.2562  0.8785 -0.3426
 3028SOL    HW110568   5.897   2.385   0.573  0.2145  2.3655  0.8495
 3028SOL    HW210569   5.982   2.409   0.449 -1.5615 -1.1136 -1.1248
 3029SOL     OW10570   4.694   7.298   5.489  0.4746 -0.3775  0.0767
 3029SOL    HW110571   4.714   7.376   5.438 -2.0871 -1.0546 -2.0873
 3029SOL    HW210572   4.772   7.242   5.480  1.1174  0.6584 -0.8330
 3030SOL     OW10573   1.219   4.252   3.250 -0.1650  0.2168 -0.2856
 3030SOL    HW110574   1.237   4.340   3.217  0.1203  0.3848  0.3178
 3030SOL    HW210575   1.140   4.262   3.303 -0.4207  0.0102 -0.6209
 3031SOL     OW10576   3.978   3.188   0.461  0.4862  0.1876 -0.4477
 3031SOL    HW110577   3.983   3.109   0.406  2.4064 -0.6979  0.9200
 3031SOL    HW210578   4.065   3.227   0.454  1.7448 -1.4945  4.1201
 3032SOL     OW10579   2.922   5.798   6.046 -0.2517  0.0171  0.1747
 3032SOL    HW110580   2.845   5.848   6.074  0.7829  1.5310  0.3517
 3032SOL    HW210581   2.889   5.739   5.979 -1.8435 -0.3118  1.2032
 3033SOL     OW10582   1.924   1.143   5.495 -0.5268  0.2880 -0.2003
 3033SOL    HW110583   1.900   1.180   5.580 -1.2547  0.9490 -0.6822
 3033SOL    HW210584   1.853   1.170   5.436  0.1987  0.2286 -1.1206
 3034SOL     OW10585   7.258   3.971   3.602  0.1736 -0.5029  0.4173
 3034SOL    HW110586   7.292   3.883   3.588  1.3365 -0.0536  0.2925
 3034SOL    HW210587   7.218   3.995   3.518 -0.5217 -1.0721  0.5878
 3035SOL     OW10588   7.666   5.256   3.460 -0.2460 -0.1553 -0.3604
 3035SOL    HW110589   7.592   5.316   3.448  0.7426  1.4506  1.2224
 3035SOL    HW210590   7.630   5.184   3.511 -1.4315 -0.9139 -2.2009
 3036SOL     OW10591   1.540   7.277   7.290 -0.2019 -0.6999 -0.3887
 3036SOL    HW110592   1.567   7.357   7.244  0.0322 -1.4385 -1.5495
 3036SOL    HW210593   1.610   7.215   7.272 -1.0932 -1.6172 -0.7121
 3037SOL     OW10594   7.878   7.455   3.941 -0.3599  0.3346 -0.0642
 3037SOL    HW110595   7.846   7.415   3.860 -1.9572  0.2059  0.6028
 3037SOL    HW210596   7.801   7.458   3.998  0.2609  2.2733  0.7258
 3038SOL     OW10597   8.061   6.874   4.461 -0.4410 -0.2050  0.2927
 3038SOL    HW110598   8.077   6.834   4.547  1.3501  1.0590  0.5743
 3038SOL    HW210599   8.145   6.865   4.415 -0.9024  0.6069 -0.7046
 3039SOL     OW10600   3.071   5.102   3.473 -0.0469 -0.5095 -0.0067
 3039SOL    HW110601   3.157   5.143   3.460 -1.4161  2.8923  1.1079
 3039SOL    HW210602   3.018   5.133   3.400 -1.6056  1.2327  1.7973
 3040SOL     OW10603   2.653   5.446   3.209 -0.0552 -0.7733 -0.1016
 3040SOL    HW110604   2.726   5.396   3.173  1.7380  0.4319  1.7151
 3040SOL    HW210605   2.669   5.446   3.304 -1.6986  0.6006  0.1953
 3041SOL     OW10606   1.219   7.404   7.765  0.3555  0.3431 -0.6604
 3041SOL    HW110607   1.181   7.491   7.771 -0.5383 -0.1638  1.4810
 3041SOL    HW210608   1.310   7.416   7.792 -0.0628  0.4431  0.7556
 3042SOL     OW10609   2.815   4.525   5.812 -0.2944  0.2739 -0.3343
 3042SOL    HW110610   2.731   4.492   5.782  0.0390 -0.9172  0.0299
 3042SOL    HW210611   2.796   4.614   5.844 -1.5214 -0.2150  0.3161
 3043SOL     OW10612   6.406   1.247   7.762  0.0308  0.6070  0.0827
 3043SOL    HW110613   6.502   1.248   7.757  0.2139 -2.5405  1.7307
 3043SOL    HW210614   6.388   1.237   7.855 -1.9113  1.1588 -0.2281
 3044SOL     OW10615   0.531   3.078   7.409 -0.6742  0.2909  0.2031
 3044SOL    HW110616   0.498   3.145   7.349 -0.1938  0.3480  0.0013
 3044SOL    HW210617   0.607   3.041   7.365 -1.2851 -0.8006  0.0573
 3045SOL     OW10618   7.729   4.254   1.952  0.2128 -0.4937 -0.5097
 3045SOL    HW110619   7.707   4.316   2.022 -0.2387 -0.0222 -1.0541
 3045SOL    HW210620   7.772   4.181   1.996 -3.1529 -1.8221  0.7300
 3046SOL     OW10621   7.221   4.495   7.231 -0.0486 -0.5891  0.3250
 3046SOL    HW110622   7.143   4.453   7.268 -0.7249  0.1804 -0.2150
 3046SOL    HW210623   7.293   4.465   7.287 -1.2820  2.0630  3.5195
 3047SOL     OW10624   2.456   5.482   8.188 -0.2463 -0.0977 -0.0605
 3047SOL    HW110625   2.438   5.393   8.218 -0.5671  0.1114  0.3630
 3047SOL    HW210626   2.380   5.506   8.134 -0.7227  0.3585  0.7966
 3048SOL     OW10627   4.373   0.185   4.448 -0.0372  0.3138 -0.3642
 3048SOL    HW110628   4.383   0.280   4.451  0.4290  0.3141 -1.8648
 3048SOL    HW210629   4.279   0.169   4.457 -0.1429  0.9191 -0.4203
 3049SOL     OW10630   0.667   3.217   4.532 -0.1632  0.2908 -0.2853
 3049SOL    HW110631   0.725   3.292   4.517  1.7087 -0.9589  0.4710
 3049SOL    HW210632   0.656   3.214   4.627 -0.8325  0.0369 -0.3678
 3050SOL     OW10633   5.364   6.735   7.024 -0.5715  0.2815 -0.3906
 3050SOL    HW110634   5.363   6.723   6.929  0.3612 -1.3178 -0.2169
 3050SOL    HW210635   5.376   6.829   7.036 -1.3597  0.5854 -1.8506
 3051SOL     OW10636   1.097   6.528   2.478 -0.1888  0.5141  0.0379
 3051SOL    HW110637   1.067   6.502   2.565 -0.1548 -0.2287 -0.1645
 3051SOL    HW210638   1.045   6.606   2.457 -0.1368  0.7437  0.7495
 3052SOL     OW10639   2.374   2.438   6.616 -0.0664  0.4089  0.4689
 3052SOL    HW110640   2.323   2.444   6.535 -0.1894 -3.3047  0.1570
 3052SOL    HW210641   2.323   2.488   6.680 -2.5201 -0.5827 -0.6203
 3053SOL     OW10642   0.254   5.833   3.363  0.4081 -0.0244 -0.0320
 3053SOL    HW110643   0.348   5.819   3.357  0.5271  0.8185 -0.2405
 3053SOL    HW210644   0.218   5.792   3.285  0.7484  0.8285 -0.6438
 3054SOL     OW10645   0.977   6.201   7.687 -0.1565  0.0961  0.6225
 3054SOL    HW110646   1.065   6.205   7.724 -0.3831  0.0519  1.1603
 3054SOL    HW210647   0.992   6.183   7.594  0.3170 -2.3015  1.1376
 3055SOL     OW10648   1.606   5.517   4.669  0.1401  0.0053  0.4355
 3055SOL    HW110649   1.562   5.434   4.648 -0.2373  0.3518 -0.1750
 3055SOL    HW210650   1.614   5.561   4.584  0.8188  0.3559  0.6846
 3056SOL     OW10651   6.778   6.737   6.323  0.1477 -0.2218  0.3654
 3056SOL    HW110652   6.701   6.761   6.374  0.1998  0.0903  0.2981
 3056SOL    HW210653   6.850   6.737   6.386 -0.1318 -1.8695  0.7124
 3057SOL     OW10654   1.964   5.203   2.243 -0.4456  0.0657  0.3663
 3057SOL    HW110655   1.870   5.220   2.233 -0.5021 -0.0186  0.7425
 3057SOL    HW210656   2.007   5.279   2.204 -0.6600 -0.2682 -0.5310
 3058SOL     OW10657   4.275   6.127   2.795  0.1060 -0.0530  0.1260
 3058SOL    HW110658   4.314   6.186   2.859 -0.4774 -1.2476  1.5881
 3058SOL    HW210659   4.217   6.183   2.743 -0.3420  0.7000  1.4148
 3059SOL     OW10660   6.228   5.114   3.478  0.2066  0.3719  0.0758
 3059SOL    HW110661   6.244   5.130   3.385  0.9459  0.2800  0.1803
 3059SOL    HW210662   6.160   5.176   3.503  1.0102  1.3594 -0.1921
 3060SOL     OW10663   1.290   8.005   0.138 -0.3437 -0.1178  0.3346
 3060SOL    HW110664   1.289   8.076   0.202  1.5014 -1.9399  2.5229
 3060SOL    HW210665   1.367   8.021   0.085 -0.5907  0.1629  0.0627
 3061SOL     OW10666   7.077   8.102   4.320 -0.0645 -0.1608  0.1609
 3061SOL    HW110667   7.068   8.061   4.234 -1.0385 -0.4212  0.3742
 3061SOL    HW210668   7.076   8.196   4.302  2.3820 -0.2044 -0.3496
 3062SOL     OW10669   7.663   4.701   0.996 -0.2866 -0.0315  0.3438
 3062SOL    HW110670   7.578   4.660   0.979 -0.0712 -0.2748 -0.1328
 3062SOL    HW210671   7.685   4.675   1.085 -0.1009 -1.0363  0.0108
 3063SOL     OW10672   3.508   4.202   5.154  0.3762  0.1327 -0.3836
 3063SOL    HW110673   3.541   4.267   5.216 -0.4235  1.2917 -1.1427
 3063SOL    HW210674   3.536   4.234   5.069 -0.0990 -0.4717 -0.7730
 3064SOL     OW10675   1.206   5.642   6.835 -0.1219  0.1835 -0.3962
 3064SOL    HW110676   1.154   5.714   6.799 -1.5721  0.2100  1.5985
 3064SOL    HW210677   1.153   5.564   6.820 -0.8050  0.2063  1.6389
 3065SOL     OW10678   1.828   3.522   4.716  0.1841 -0.6526  0.6621
 3065SOL    HW110679   1.862   3.610   4.728 -1.5790  0.2433 -0.6233
 3065SOL    HW210680   1.891   3.479   4.658 -0.1430  0.5288 -0.5820
 3066SOL     OW10681   8.039   5.315   4.795 -0.2319 -0.4190 -0.0916
 3066SOL    HW110682   8.052   5.313   4.890 -0.4061  0.2176 -0.0538
 3066SOL    HW210683   7.988   5.236   4.776 -1.0278 -0.0519  0.4744
 3067SOL     OW10684   0.206   3.890   3.749  0.1543  0.5751  0.0296
 3067SOL    HW110685   0.202   3.809   3.699 -0.4772  0.4016  0.3518
 3067SOL    HW210686   0.274   3.942   3.706  1.5600 -0.7021  0.6832
 3068SOL     OW10687   6.815   7.906   4.344  0.0088  0.1523 -0.5275
 3068SOL    HW110688   6.794   7.922   4.436  0.1639 -2.3436 -0.0105
 3068SOL    HW210689   6.894   7.957   4.328 -0.5912  1.3918  0.4434
 3069SOL     OW10690   7.294   5.859   0.101  0.1186 -0.0902  0.7615
 3069SOL    HW110691   7.256   5.872   0.187  2.1618 -1.4109  1.9205
 3069SOL    HW210692   7.336   5.773   0.106  0.4472 -0.0961 -1.4746
 3070SOL     OW10693   8.037   6.574   5.548 -0.1554  0.7282 -0.7873
 3070SOL    HW110694   8.127   6.545   5.539 -0.0113  1.4690 -1.8949
 3070SOL    HW210695   8.042   6.655   5.599 -0.1049  1.2434 -1.6074
 3071SOL     OW10696   3.438   5.976   5.217 -0.4483  0.2377  0.3287
 3071SOL    HW110697   3.460   6.003   5.128 -1.5332  0.9478  0.2663
 3071SOL    HW210698   3.474   5.887   5.224 -1.1732 -0.1935 -1.1450
 3072SOL     OW10699   2.811   4.686   2.294  0.4324 -0.0353 -0.4890
 3072SOL    HW110700   2.864   4.661   2.219 -1.4966  0.1182 -1.9672
 3072SOL    HW210701   2.764   4.606   2.318  3.0246 -0.7937  2.3107
 3073SOL     OW10702   2.693   5.277   2.654  0.2663 -0.0620 -0.1156
 3073SOL    HW110703   2.719   5.189   2.682 -0.7697 -0.1538  0.5933
 3073SOL    HW210704   2.653   5.263   2.568  1.1433 -0.1263 -0.5152
 3074SOL     OW10705   6.704   6.938   2.589 -0.2598 -0.2507  0.4162
 3074SOL    HW110706   6.656   6.996   2.531 -0.9573 -0.1719  1.0652
 3074SOL    HW210707   6.639   6.874   2.619 -0.2348  0.5060  2.1565
 3075SOL     OW10708   2.775   3.459   2.838 -0.1841 -0.6557 -0.4759
 3075SOL    HW110709   2.867   3.482   2.854 -0.2492  0.4230 -1.5896
 3075SOL    HW210710   2.727   3.494   2.912  0.0546  0.5226 -0.8786
 3076SOL     OW10711   6.052   7.194   1.736 -0.2453  0.2369  0.1795
 3076SOL    HW110712   5.998   7.258   1.690  0.9469  2.5416  1.8572
 3076SOL    HW210713   5.996   7.161   1.806 -0.2146  0.9392  0.5351
 3077SOL     OW10714   8.298   1.885   3.313 -0.1187  0.2520 -0.3693
 3077SOL    HW110715   8.316   1.975   3.288 -0.6717  0.7692  1.0847
 3077SOL    HW210716   8.210   1.867   3.280  0.0023  0.2292 -0.6820
 3078SOL     OW10717   1.915   2.278   5.804  0.3197 -0.2890  0.5073
 3078SOL    HW110718   2.001   2.318   5.818 -0.0385  0.2360  1.2160
 3078SOL    HW210719   1.883   2.319   5.723  0.2379  0.3755  0.8741
 3079SOL     OW10720   2.834   1.304   2.687 -0.0867  0.0615  0.4846
 3079SOL    HW110721   2.902   1.370   2.703  0.9388 -0.4579 -1.4317
 3079SOL    HW210722   2.770   1.349   2.632  0.9588 -0.6757 -1.4060
 3080SOL     OW10723   3.363   5.541   4.078  0.7310 -0.3559  0.7889
 3080SOL    HW110724   3.393   5.452   4.099  0.0883 -1.0041 -0.9550
 3080SOL    HW210725   3.285   5.527   4.024 -0.1421  1.2854  1.6077
 3081SOL     OW10726   4.510   2.562   0.106 -0.5014 -0.0273 -0.4289
 3081SOL    HW110727   4.598   2.539   0.135 -0.1987  1.5521 -0.0488
 3081SOL    HW210728   4.470   2.478   0.081  1.2907 -0.6833 -1.1589
 3082SOL     OW10729   3.053   7.556   2.000  0.1382 -0.0241 -0.0713
 3082SOL    HW110730   2.999   7.631   2.025 -0.6987 -0.2704 -1.1314
 3082SOL    HW210731   3.141   7.593   1.988 -0.5787  1.0793 -2.0939
 3083SOL     OW10732   5.046   1.294   5.062  0.1245 -0.0439  0.3842
 3083SOL    HW110733   5.110   1.362   5.042  2.7931 -3.1050 -2.2548
 3083SOL    HW210734   5.076   1.256   5.145  0.3466  0.1214  0.3798
 3084SOL     OW10735   8.012   2.093   6.296  0.6444  0.2367  0.3062
 3084SOL    HW110736   7.983   2.053   6.214 -0.8842 -1.4447  1.6073
 3084SOL    HW210737   7.961   2.175   6.302  0.1556 -0.0407 -0.0267
 3085SOL     OW10738   3.526   0.118   4.825  0.0495 -0.6032  0.0170
 3085SOL    HW110739   3.620   0.121   4.841 -0.0370  1.0921  0.3133
 3085SOL    HW210740   3.487   0.163   4.901 -0.9296 -0.5161 -0.5208
 3086SOL     OW10741   3.412   0.221   3.673 -0.2169 -0.1219 -0.0209
 3086SOL    HW110742   3.374   0.143   3.632  1.4288 -0.5308 -0.7947
 3086SOL    HW210743   3.375   0.295   3.624 -2.1504 -0.3594  1.0203
 3087SOL     OW10744   4.751   5.964   7.704  0.2823  0.3497 -0.0809
 3087SOL    HW110745   4.773   6.036   7.762  0.5392  0.4472 -0.2953
 3087SOL    HW210746   4.684   5.914   7.751  1.6088 -0.4663  0.9873
 3088SOL     OW10747   4.378   7.658   3.269 -0.3769 -0.1078  0.0148
 3088SOL    HW110748   4.386   7.606   3.189  1.8935 -0.5245  0.4621
 3088SOL    HW210749   4.458   7.711   3.272 -1.0835  0.9272  1.2910
 3089SOL     OW10750   1.568   5.551   3.402  0.2174  0.4617  0.8015
 3089SOL    HW110751   1.561   5.583   3.492  0.5564  0.3024  0.8864
 3089SOL    HW210752   1.546   5.458   3.407  1.3271  0.1961  0.9060
 3090SOL     OW10753   4.434   0.134   5.848  0.2869  0.6089 -0.2030
 3090SOL    HW110754   4.476   0.129   5.762  0.7695  0.2510  0.0558
 3090SOL    HW210755   4.506   0.133   5.911 -0.1706 -3.9272  0.4270
 3091SOL     OW10756   7.235   5.144   6.655  0.4439 -0.8058  0.5790
 3091SOL    HW110757   7.193   5.227   6.676  3.5822  1.3893 -1.2385
 3091SOL    HW210758   7.163   5.081   6.646 -2.0654  1.8637  1.3201
 3092SOL     OW10759   1.273   1.256   6.624  0.0960 -0.5820 -0.4612
 3092SOL    HW110760   1.277   1.300   6.709  0.5742  0.0877 -0.8285
 3092SOL    HW210761   1.275   1.162   6.646  0.9591 -0.4083  0.2255
 3093SOL     OW10762   1.412   2.071   2.395  0.5682  0.0246  0.8725
 3093SOL    HW110763   1.504   2.069   2.369  0.2178 -0.9490 -0.3193
 3093SOL    HW210764   1.413   2.047   2.488  1.3202 -2.2459  0.3019
 3094SOL     OW10765   4.287   5.264   6.258 -0.2062 -0.8171 -0.0903
 3094SOL    HW110766   4.308   5.296   6.345 -1.0198 -0.1054 -0.1460
 3094SOL    HW210767   4.193   5.279   6.249 -0.3638 -2.0608 -0.6058
 3095SOL     OW10768   6.991   1.219   1.479 -0.4280 -0.1321  0.0678
 3095SOL    HW110769   7.006   1.287   1.413  0.5560 -0.1702  0.2364
 3095SOL    HW210770   6.941   1.152   1.434 -0.8540  0.4199 -0.2836
 3096SOL     OW10771   6.554   5.435   3.625 -0.0762 -0.0495  0.3494
 3096SOL    HW110772   6.648   5.446   3.610 -0.0349  0.6669  1.0664
 3096SOL    HW210773   6.513   5.503   3.571 -0.1513 -0.0086  0.4582
 3097SOL     OW10774   4.196   1.912   7.652 -0.0869  0.6050  0.0376
 3097SOL    HW110775   4.273   1.969   7.660 -0.5990  1.3189 -0.0547
 3097SOL    HW210776   4.227   1.826   7.680  1.0209  0.6479 -1.0180
 3098SOL     OW10777   0.325   2.320   3.151 -0.4584  0.3531  0.0558
 3098SOL    HW110778   0.250   2.354   3.200 -0.7839 -0.8900  0.4515
 3098SOL    HW210779   0.397   2.378   3.174 -0.8714  0.4374  1.1563
 3099SOL     OW10780   2.051   5.173   3.546 -0.0442 -0.6437  0.3871
 3099SOL    HW110781   2.074   5.090   3.506  0.7272 -0.5616  0.6610
 3099SOL    HW210782   1.971   5.200   3.501  1.0079 -0.3772 -1.3705
 3100SOL     OW10783   3.005   1.139   0.004 -0.1551 -0.3656  0.2125
 3100SOL    HW110784   3.028   1.095  -0.077  0.9459  0.1123  0.2628
 3100SOL    HW210785   2.970   1.070   0.060  0.1555 -0.9004 -0.2541
 3101SOL     OW10786   1.426   4.883   1.298 -0.1974  0.3941 -0.2252
 3101SOL    HW110787   1.423   4.961   1.243 -0.4740 -0.2798 -1.1725
 3101SOL    HW210788   1.517   4.853   1.295 -0.5909 -0.7098 -1.8406
 3102SOL     OW10789   2.263   3.483   5.673  0.5384 -0.4037  0.2207
 3102SOL    HW110790   2.282   3.475   5.766 -0.2220 -1.3643  0.3049
 3102SOL    HW210791   2.328   3.544   5.640  1.0582 -0.3625  1.3093
 3103SOL     OW10792   5.915   6.745   6.009  0.3691 -0.3104  0.0151
 3103SOL    HW110793   5.981   6.743   5.940  1.8115 -2.1837  1.4180
 3103SOL    HW210794   5.950   6.690   6.079 -1.8714  0.0927  1.5330
 3104SOL     OW10795   1.327   1.392   0.173 -0.1262 -0.0125  0.1716
 3104SOL    HW110796   1.381   1.467   0.199  1.8100 -0.8131 -1.3838
 3104SOL    HW210797   1.355   1.321   0.229  1.0859 -0.6532 -1.2090
 3105SOL     OW10798   0.694   6.559   3.184 -0.8216 -0.4274  0.4801
 3105SOL    HW110799   0.729   6.586   3.269  1.4414  0.9476 -0.8358
 3105SOL    HW210800   0.666   6.641   3.143 -2.4160 -1.1489  0.0856
 3106SOL     OW10801   1.293   0.083   4.525 -0.1834  0.2727 -0.8626
 3106SOL    HW110802   1.198   0.079   4.518 -0.5800  2.6210  2.0443
 3106SOL    HW210803   1.318   0.162   4.478  0.0814  0.8532  0.2344
 3107SOL     OW10804   4.848   1.912   0.958  0.1925 -0.2534 -0.4411
 3107SOL    HW110805   4.881   1.938   0.872 -2.6486  0.0802 -1.5057
 3107SOL    HW210806   4.786   1.981   0.982  0.3588 -0.7582  1.5195
 3108SOL     OW10807   8.264   0.876   5.078  0.6148 -0.2848  0.4907
 3108SOL    HW110808   8.322   0.808   5.043 -2.0378 -2.3124 -0.1207
 3108SOL    HW210809   8.211   0.832   5.144 -2.0670  0.7870 -0.8291
 3109SOL     OW10810   4.939   6.970   2.375 -0.1255 -0.4001 -0.1776
 3109SOL    HW110811   4.881   6.911   2.326 -2.7743  0.3440  1.9301
 3109SOL    HW210812   4.977   6.915   2.444  0.9553 -0.6700 -0.9831
 3110SOL     OW10813   6.150   2.674   7.834 -0.7654  0.4503 -0.1595
 3110SOL    HW110814   6.177   2.684   7.925 -1.6148  0.5248  0.0916
 3110SOL    HW210815   6.217   2.720   7.783 -0.9457  1.4747  0.5146
 3111SOL     OW10816   1.702   2.607   4.382 -0.0891 -0.3229 -0.1215
 3111SOL    HW110817   1.760   2.605   4.457 -0.6087  0.5179  0.3094
 3111SOL    HW210818   1.624   2.559   4.411  0.1046 -0.8519 -0.4640
 3112SOL     OW10819   6.933   1.540   0.595  0.1740  0.8222 -0.3522
 3112SOL    HW110820   6.853   1.547   0.543  0.4061  1.3411 -0.6455
 3112SOL    HW210821   6.957   1.447   0.589 -0.0590  0.7878 -0.7841
 3113SOL     OW10822   7.372   4.644   2.620 -0.3513 -0.0219 -0.3411
 3113SOL    HW110823   7.377   4.558   2.662  0.8611  0.5515  0.7198
 3113SOL    HW210824   7.278   4.657   2.604 -0.8726 -0.1772  2.3775
 3114SOL     OW10825   6.590   1.119   4.873 -0.2165  0.1714 -0.1197
 3114SOL    HW110826   6.617   1.030   4.897  0.2014  0.2525 -0.2875
 3114SOL    HW210827   6.518   1.106   4.811 -1.4027 -0.0371  1.2835
 3115SOL     OW10828   7.440   3.547   0.102 -0.4298 -0.6188 -0.0540
 3115SOL    HW110829   7.455   3.563   0.009  0.0327  1.1486  0.2899
 3115SOL    HW210830   7.374   3.478   0.104  1.0048 -2.0994 -1.6586
 3116SOL     OW10831   5.770   6.433   6.625 -0.0487  0.7833  0.2748
 3116SOL    HW110832   5.691   6.464   6.668 -0.4493 -0.3027  0.3470
 3116SOL    HW210833   5.829   6.509   6.623 -0.5838  1.2254  1.4208
 3117SOL     OW10834   1.095   5.438   3.198  0.1481  0.6640 -0.1227
 3117SOL    HW110835   1.009   5.439   3.239  0.0563  1.7481 -0.3225
 3117SOL    HW210836   1.095   5.514   3.140  1.3886  0.9232  0.1933
 3118SOL     OW10837   6.033   7.354   4.332 -0.3736  0.7055 -0.0536
 3118SOL    HW110838   6.034   7.294   4.407  2.1635 -0.1661 -0.7303
 3118SOL    HW210839   6.022   7.441   4.370  1.3610  0.3127  1.3798
 3119SOL     OW10840   0.536   7.991   6.731 -0.2641 -0.2256  0.1156
 3119SOL    HW110841   0.582   8.000   6.648 -0.9092 -0.3984 -0.2568
 3119SOL    HW210842   0.607   7.980   6.796  0.2876  1.5809 -0.1743
 3120SOL     OW10843   7.701   6.614   6.540 -0.0368 -0.0345 -0.3751
 3120SOL    HW110844   7.650   6.674   6.594 -0.1586 -0.3891 -0.0984
 3120SOL    HW210845   7.742   6.554   6.603  0.5515  0.1211 -0.6092
 3121SOL     OW10846   3.469   2.661   5.028  0.1214 -0.2430  0.2012
 3121SOL    HW110847   3.420   2.671   4.947  0.0596 -1.3374  0.0941
 3121SOL    HW210848   3.442   2.575   5.062  1.0186 -0.3034  0.7810
 3122SOL     OW10849   1.314   4.566   5.709 -0.1638 -0.3169 -0.2994
 3122SOL    HW110850   1.320   4.526   5.796 -2.1763  0.1509  0.0781
 3122SOL    HW210851   1.397   4.544   5.667  1.1156  0.0055  1.9765
 3123SOL     OW10852   4.279   4.395   7.769  0.1718 -0.2416 -0.2983
 3123SOL    HW110853   4.286   4.490   7.764 -0.5227 -0.1649  0.1336
 3123SOL    HW210854   4.330   4.371   7.846  1.3894 -0.3428 -1.1242
 3124SOL     OW10855   0.427   2.021   0.789 -0.9420  0.5957 -0.8779
 3124SOL    HW110856   0.508   2.011   0.739  0.1108  0.4315  0.8267
 3124SOL    HW210857   0.447   2.087   0.855 -1.4185 -1.1681  1.0833
 3125SOL     OW10858   8.209   3.604   7.915 -0.0033  0.3541  0.6674
 3125SOL    HW110859   8.277   3.537   7.918  0.2566  0.6408  1.1394
 3125SOL    HW210860   8.231   3.657   7.838  0.6953  0.8592  1.2134
 3126SOL     OW10861   8.303   1.715   1.349  0.1172  0.2194 -0.1522
 3126SOL    HW110862   8.370   1.764   1.302  0.1370  0.6756  0.3451
 3126SOL    HW210863   8.298   1.631   1.303  0.4731  0.4782 -0.6709
 3127SOL     OW10864   8.042   8.211   6.230  0.0332  0.7142 -0.0419
 3127SOL    HW110865   8.052   8.121   6.263 -0.4428 -0.0155 -1.8313
 3127SOL    HW210866   8.113   8.221   6.168  0.3562  1.7533  0.4922
 3128SOL     OW10867   5.751   6.080   6.353  0.6415 -0.0858 -0.6144
 3128SOL    HW110868   5.807   6.052   6.425 -0.1050  1.0509  0.4442
 3128SOL    HW210869   5.694   6.147   6.392 -1.2852 -1.0516 -1.7226
 3129SOL     OW10870   4.485   1.442   2.432 -0.1111  0.4652  0.1096
 3129SOL    HW110871   4.452   1.370   2.485  0.6027 -0.0895 -0.2036
 3129SOL    HW210872   4.576   1.420   2.414 -0.1871  0.9230 -0.8847
 3130SOL     OW10873   4.852   5.354   0.842  0.7197  0.1641 -0.2546
 3130SOL    HW110874   4.878   5.385   0.755 -1.8414  1.0143 -0.7853
 3130SOL    HW210875   4.831   5.434   0.891 -1.5693 -0.4379 -0.1642
 3131SOL     OW10876   2.497   2.760   7.064 -0.4967 -0.0411  0.6217
 3131SOL    HW110877   2.460   2.818   7.131 -2.3592 -0.9619  0.4295
 3131SOL    HW210878   2.470   2.798   6.981 -0.3042 -0.2745  0.4495
 3132SOL     OW10879   1.822   2.654   6.898 -0.2066  0.3336 -0.4283
 3132SOL    HW110880   1.835   2.703   6.817 -0.8660 -0.7197 -1.1719
 3132SOL    HW210881   1.765   2.710   6.951 -1.6179  0.0297 -1.5911
 3133SOL     OW10882   2.299   7.972   1.487  0.5153  0.1653 -0.2898
 3133SOL    HW110883   2.390   7.998   1.503  0.8591 -0.1031 -1.7622
 3133SOL    HW210884   2.301   7.877   1.483  0.2221  0.1737 -0.6557
 3134SOL     OW10885   4.849   4.175   2.551 -0.0920  0.0255  0.1818
 3134SOL    HW110886   4.845   4.102   2.489  1.1936 -0.1483  0.2892
 3134SOL    HW210887   4.764   4.219   2.542  0.1688  0.1505 -1.8914
 3135SOL     OW10888   7.745   2.516   7.401 -0.0362 -0.0928  0.3427
 3135SOL    HW110889   7.744   2.429   7.361 -0.5075  0.7744 -1.5762
 3135SOL    HW210890   7.682   2.509   7.472 -0.9262 -1.0092 -0.5038
 3136SOL     OW10891   0.146   7.125   5.878  0.3625 -0.6408 -0.6032
 3136SOL    HW110892   0.160   7.043   5.831 -0.0827  0.2409 -2.3078
 3136SOL    HW210893   0.092   7.178   5.819 -2.6622 -0.5596  2.0454
 3137SOL     OW10894   6.927   5.036   2.000 -0.7023 -0.4058  0.3138
 3137SOL    HW110895   6.864   4.984   1.950 -0.6865 -0.2936  0.1757
 3137SOL    HW210896   6.998   5.053   1.938 -1.1012  0.5012  0.0959
 3138SOL     OW10897   0.969   5.859   5.348  0.2955 -0.2655  0.3054
 3138SOL    HW110898   0.902   5.885   5.286  0.1793 -0.2294  0.4460
 3138SOL    HW210899   0.925   5.858   5.433  1.1570  2.5871  0.8265
 3139SOL     OW10900   7.201   0.499   1.458 -0.5699 -0.2627  0.0929
 3139SOL    HW110901   7.222   0.588   1.487 -1.9729 -0.3988  1.5800
 3139SOL    HW210902   7.188   0.449   1.538 -1.1910 -1.4777 -0.7423
 3140SOL     OW10903   2.676   4.910   0.012  0.7246 -0.2939  0.0804
 3140SOL    HW110904   2.688   4.920  -0.083  1.2327 -0.2615  0.1447
 3140SOL    HW210905   2.727   4.832   0.035 -0.0231 -0.7418  0.2085
 3141SOL     OW10906   2.666   4.932   0.512 -0.1489  0.6379 -0.2491
 3141SOL    HW110907   2.753   4.905   0.540 -0.0754  1.0168 -0.1040
 3141SOL    HW210908   2.607   4.892   0.575 -0.1376 -0.2460 -0.7909
 3142SOL     OW10909   0.602   3.491   1.309  0.2028 -0.1203  0.2064
 3142SOL    HW110910   0.682   3.456   1.348  0.9185  1.8468  0.5228
 3142SOL    HW210911   0.623   3.581   1.285 -1.1649 -0.3283 -1.9415
 3143SOL     OW10912   3.043   3.356   0.979  0.2208  0.2431  0.2668
 3143SOL    HW110913   3.101   3.369   0.904 -1.1064 -0.8289 -0.9671
 3143SOL    HW210914   2.966   3.313   0.943 -0.4176 -0.3478  2.2578
 3144SOL     OW10915   5.499   6.917   1.629  0.1276  0.1232  0.3875
 3144SOL    HW110916   5.459   6.834   1.652 -0.2877  0.8802  2.5292
 3144SOL    HW210917   5.591   6.896   1.611 -0.3717 -1.0460 -0.9031
 3145SOL     OW10918   7.788   3.790   0.083 -0.2978  0.0721  0.7328
 3145SOL    HW110919   7.728   3.738   0.136  0.2272  0.0870  1.3433
 3145SOL    HW210920   7.820   3.858   0.142 -0.3556  0.5961  0.1646
 3146SOL     OW10921   1.444   2.088   3.048  0.1893  0.0054 -0.1082
 3146SOL    HW110922   1.439   2.122   3.137 -0.0781 -0.3699  0.0210
 3146SOL    HW210923   1.536   2.095   3.025 -0.1306  2.5102 -0.7526
 3147SOL     OW10924   4.359   0.663   7.460  0.0396  0.1388  0.1149
 3147SOL    HW110925   4.283   0.680   7.405 -0.2109 -0.1928  0.3585
 3147SOL    HW210926   4.400   0.585   7.421 -0.9525 -0.9660  1.2462
 3148SOL     OW10927   7.792   8.010   6.093 -0.2818  0.2777  0.3068
 3148SOL    HW110928   7.697   8.004   6.084 -0.1433 -0.8689 -0.4767
 3148SOL    HW210929   7.810   8.104   6.091 -1.4484  0.5364  1.1142
 3149SOL     OW10930   2.400   4.122   5.504 -0.0166 -0.0735 -0.3036
 3149SOL    HW110931   2.434   4.038   5.537 -1.0047 -0.0393  0.8396
 3149SOL    HW210932   2.410   4.182   5.578  0.4472  0.7685 -1.0338
 3150SOL     OW10933   1.107   8.112   6.239  0.3131  0.1186 -0.0690
 3150SOL    HW110934   1.186   8.085   6.192  0.2829  0.5833 -0.3890
 3150SOL    HW210935   1.118   8.206   6.253 -0.8464  0.4841 -1.4375
 3151SOL     OW10936   1.049   6.159   4.522  0.0277 -0.0280 -0.1918
 3151SOL    HW110937   1.066   6.243   4.565  0.1369 -0.5591  0.8107
 3151SOL    HW210938   1.021   6.101   4.592 -0.0594 -0.8338 -0.8820
 3152SOL     OW10939   4.657   6.877   5.650  0.8906 -0.3929 -0.1860
 3152SOL    HW110940   4.622   6.788   5.643 -0.2791  0.0301  0.3296
 3152SOL    HW210941   4.686   6.883   5.741  2.2030 -0.6884 -0.5650
 3153SOL     OW10942   1.033   5.811   4.342  0.3037 -0.3672 -0.2137
 3153SOL    HW110943   1.025   5.816   4.438  1.5652 -0.5974 -0.0987
 3153SOL    HW210944   0.966   5.872   4.310 -0.4367 -0.6308  0.8056
 3154SOL     OW10945   7.714   4.713   5.614 -0.6410  0.3818 -0.2851
 3154SOL    HW110946   7.737   4.805   5.603 -0.7720  0.3362 -0.9829
 3154SOL    HW210947   7.623   4.714   5.643  0.0408  0.5446  1.9252
 3155SOL     OW10948   6.966   7.220   0.163  0.0047 -0.2067  0.2217
 3155SOL    HW110949   7.003   7.132   0.172  0.4908  0.1622  2.0223
 3155SOL    HW210950   7.027   7.265   0.104  0.2707 -0.7999  0.0397
 3156SOL     OW10951   5.247   4.879   7.826  0.3818  0.3573  0.3765
 3156SOL    HW110952   5.153   4.888   7.814  0.7385  1.0029 -2.3505
 3156SOL    HW210953   5.264   4.786   7.810  0.4245  0.6063 -1.1346
 3157SOL     OW10954   7.313   8.030   1.499  0.1416  0.7443  0.9097
 3157SOL    HW110955   7.403   8.030   1.467  0.3442 -0.5508  1.4551
 3157SOL    HW210956   7.279   8.117   1.476  1.2151  0.8894 -0.1578
 3158SOL     OW10957   3.673   0.529   7.511  0.0914  0.4344 -0.5839
 3158SOL    HW110958   3.673   0.601   7.574  0.2157 -1.7689  2.0048
 3158SOL    HW210959   3.581   0.503   7.505  0.3615 -0.7691  0.3675
 3159SOL     OW10960   5.238   5.538   0.432 -0.4773 -0.5318 -0.2716
 3159SOL    HW110961   5.286   5.605   0.481  1.4259 -1.6793 -0.5208
 3159SOL    HW210962   5.184   5.495   0.497  0.7026 -0.8701  0.4910
 3160SOL     OW10963   0.543   6.719   6.746 -0.1423 -0.3692  0.0668
 3160SOL    HW110964   0.496   6.638   6.766 -0.9888  0.4076  1.2756
 3160SOL    HW210965   0.501   6.786   6.800  0.8968  0.7842 -0.5127
 3161SOL     OW10966   5.891   2.008   7.906 -0.2670  0.5351  0.0448
 3161SOL    HW110967   5.985   1.992   7.908 -0.0983  1.5856  0.8612
 3161SOL    HW210968   5.863   2.004   7.998 -1.3224 -1.4349 -0.3261
 3162SOL     OW10969   6.942   4.789   1.823 -0.4271  0.3371 -0.0139
 3162SOL    HW110970   7.037   4.786   1.814 -0.4299 -0.7032  0.2371
 3162SOL    HW210971   6.910   4.807   1.734 -0.0501 -0.6469 -0.3471
 3163SOL     OW10972   5.477   3.845   0.654  0.2386 -0.2957 -0.3258
 3163SOL    HW110973   5.555   3.899   0.645  0.6950 -0.9517 -0.3569
 3163SOL    HW210974   5.461   3.811   0.566 -0.4851  0.3884 -0.4612
 3164SOL     OW10975   5.268   7.482   7.077  0.6058  0.0622 -0.0888
 3164SOL    HW110976   5.181   7.487   7.039  1.0786  1.7990 -0.9610
 3164SOL    HW210977   5.284   7.388   7.088 -0.3984 -0.3697 -2.1732
 3165SOL     OW10978   2.612   3.194   6.993  0.0246  0.0017 -0.4996
 3165SOL    HW110979   2.661   3.165   6.916 -0.9215  0.6109 -1.3333
 3165SOL    HW210980   2.602   3.288   6.982 -2.4053 -0.2750 -0.9689
 3166SOL     OW10981   1.692   6.075   1.386  0.0613  0.3644 -0.1007
 3166SOL    HW110982   1.782   6.049   1.369 -0.5255 -2.1623  0.3898
 3166SOL    HW210983   1.698   6.142   1.454  1.6154  1.1379 -0.9779
 3167SOL     OW10984   0.561   1.338   4.840 -0.2148 -0.3095  0.5344
 3167SOL    HW110985   0.478   1.320   4.885 -0.7861 -0.1063 -0.4046
 3167SOL    HW210986   0.554   1.289   4.758 -0.1318  1.0555 -0.3125
 3168SOL     OW10987   6.543   6.948   6.902 -0.2339  0.0878  0.5097
 3168SOL    HW110988   6.598   6.933   6.978  0.7600 -1.1602 -0.4190
 3168SOL    HW210989   6.472   6.884   6.911  0.9261 -1.3920 -0.5608
 3169SOL     OW10990   1.001   5.699   6.590  0.2243 -0.6959  0.3700
 3169SOL    HW110991   0.973   5.744   6.670  1.5101 -1.4617  1.2628
 3169SOL    HW210992   0.945   5.621   6.585  1.9351 -2.0622  1.9881
 3170SOL     OW10993   3.713   5.056   0.599  0.3785 -0.2300 -0.2550
 3170SOL    HW110994   3.624   5.088   0.587  1.0622  1.1362 -1.7747
 3170SOL    HW210995   3.723   5.047   0.694 -0.5681  1.9586  0.0702
 3171SOL     OW10996   3.226   6.519   5.530 -0.4887 -0.3438 -0.0365
 3171SOL    HW110997   3.241   6.554   5.442  0.3140 -1.8829 -0.5238
 3171SOL    HW210998   3.271   6.581   5.588  0.5338 -0.3108 -0.8456
 3172SOL     OW10999   4.924   0.139   0.522  0.0692  0.4933 -0.2400
 3172SOL    HW111000   4.864   0.204   0.486  0.0800 -0.4010 -1.9073
 3172SOL    HW211001   5.007   0.185   0.530 -0.4377  1.2893  0.6161
 3173SOL     OW11002   7.018   5.253   4.276 -0.4393 -0.1307  0.1487
 3173SOL    HW111003   6.948   5.230   4.214 -2.3172  2.5540  1.1602
 3173SOL    HW211004   7.079   5.306   4.224  0.7227 -2.1898 -0.6483
 3174SOL     OW11005   3.698   1.185   0.637 -0.4882 -0.4372  0.5022
 3174SOL    HW111006   3.663   1.117   0.579  1.5218 -0.0538 -1.1966
 3174SOL    HW211007   3.627   1.249   0.644 -1.2396 -1.1527 -0.4201
 3175SOL     OW11008   7.374   6.080   8.224  0.9201 -0.2770 -0.0694
 3175SOL    HW111009   7.382   6.056   8.316 -0.9001 -0.8355 -0.0399
 3175SOL    HW211010   7.374   5.996   8.177 -2.2521 -0.2441 -0.2229
 3176SOL     OW11011   6.695   1.013   4.191 -0.1669 -0.5993  0.0252
 3176SOL    HW111012   6.605   0.982   4.206 -0.0712 -0.5127  0.8040
 3176SOL    HW211013   6.703   1.089   4.249  0.3534 -0.5106 -0.1704
 3177SOL     OW11014   7.830   1.615   6.343  0.4311 -0.1962  0.1570
 3177SOL    HW111015   7.829   1.620   6.247 -1.2134  0.3776  0.1957
 3177SOL    HW211016   7.920   1.592   6.365  1.0317  0.5583 -1.4914
 3178SOL     OW11017   7.893   5.407   3.343 -0.3226  0.5022 -0.1095
 3178SOL    HW111018   7.809   5.362   3.339 -0.4065  0.4742  1.4705
 3178SOL    HW211019   7.877   5.492   3.301 -0.3588 -0.6168 -2.3969
 3179SOL     OW11020   1.976   5.247   5.726  0.3653  0.2664 -0.3668
 3179SOL    HW111021   1.881   5.242   5.724  0.3670  0.1996 -0.2990
 3179SOL    HW211022   2.004   5.212   5.642  0.3713 -0.6939  0.0312
 3180SOL     OW11023   5.065   6.626   7.921 -0.2464 -0.6256 -0.1885
 3180SOL    HW111024   5.035   6.716   7.927 -2.2172 -1.2245 -0.4138
 3180SOL    HW211025   5.149   6.624   7.967  0.0679  1.4205 -0.6673
 3181SOL     OW11026   6.502   2.093   6.660 -0.4796 -0.3577 -0.2432
 3181SOL    HW111027   6.573   2.030   6.644  0.7874  0.8909  0.4063
 3181SOL    HW211028   6.546   2.178   6.664 -1.4727  0.0176  4.1852
 3182SOL     OW11029   2.430   2.799   1.433 -0.5270 -0.5612 -0.2496
 3182SOL    HW111030   2.385   2.844   1.504  1.8166 -0.2784  1.1258
 3182SOL    HW211031   2.478   2.868   1.387  0.5942 -1.1881 -0.0553
 3183SOL     OW11032   5.695   5.554   0.365  0.8466  0.4770 -0.2614
 3183SOL    HW111033   5.630   5.577   0.298 -1.2645  0.6893  1.7922
 3183SOL    HW211034   5.718   5.637   0.406  0.8673  0.1691  0.3715
 3184SOL     OW11035   4.790   2.236   4.935  0.0388 -0.2192  0.0697
 3184SOL    HW111036   4.858   2.253   5.000 -0.3770 -0.4523  0.5693
 3184SOL    HW211037   4.748   2.156   4.965  0.5879 -0.9549 -1.1065
 3185SOL     OW11038   4.872   1.706   7.569 -0.4550  0.0580 -0.2985
 3185SOL    HW111039   4.788   1.750   7.584  0.5114  1.4311  1.2014
 3185SOL    HW211040   4.931   1.774   7.539  0.8550 -0.3176  1.3273
 3186SOL     OW11041   4.923   4.750   1.021  0.1193 -0.2601 -0.0348
 3186SOL    HW111042   4.867   4.680   1.054  1.1168 -0.5097  1.1757
 3186SOL    HW211043   4.946   4.722   0.932 -2.0854  0.1106 -0.7361
 3187SOL     OW11044   3.764   2.478   7.671  0.2850 -0.1054 -0.1371
 3187SOL    HW111045   3.734   2.388   7.677 -0.1556  0.1394  1.4153
 3187SOL    HW211046   3.731   2.520   7.750  0.3994  1.4482 -0.8936
 3188SOL     OW11047   7.788   1.879   7.832 -0.1006 -0.7724 -0.2467
 3188SOL    HW111048   7.881   1.899   7.823  0.1692 -1.4742  0.8918
 3188SOL    HW211049   7.747   1.962   7.855  0.1612 -0.3519 -1.2818
 3189SOL     OW11050   5.601   4.390   4.487  0.4875  0.4224 -0.4287
 3189SOL    HW111051   5.518   4.438   4.481  0.0696 -0.2599 -0.1129
 3189SOL    HW211052   5.660   4.437   4.427  0.0196  1.1971 -0.2936
 3190SOL     OW11053   5.612   1.108   1.410  0.2106 -0.8416 -0.1015
 3190SOL    HW111054   5.644   1.045   1.345 -0.0138 -0.2462 -0.7997
 3190SOL    HW211055   5.614   1.192   1.364  0.0983 -0.4051  0.6868
 3191SOL     OW11056   7.895   7.173   5.615 -0.2578  0.4086  0.2331
 3191SOL    HW111057   7.892   7.089   5.570 -0.3352 -0.6546  2.1762
 3191SOL    HW211058   7.979   7.211   5.590 -0.6194  0.1567 -1.3714
 3192SOL     OW11059   1.490   2.614   0.674 -0.5803  0.7833  0.4421
 3192SOL    HW111060   1.401   2.648   0.674 -0.3539  1.3999  0.7773
 3192SOL    HW211061   1.492   2.552   0.601 -1.1522  1.1179  0.1326
 3193SOL     OW11062   2.026   3.181   1.058 -0.4155 -0.6070  0.0999
 3193SOL    HW111063   2.078   3.104   1.035 -0.7834 -1.1774  1.1464
 3193SOL    HW211064   1.938   3.162   1.023 -0.2447 -0.2092 -0.5446
 3194SOL     OW11065   4.869   6.218   2.405  0.2023  0.0082 -0.5008
 3194SOL    HW111066   4.904   6.250   2.489  1.6845 -2.5464 -0.0756
 3194SOL    HW211067   4.782   6.255   2.399  2.2787  5.2169 -0.7231
 3195SOL     OW11068   3.632   0.350   3.827 -0.6136 -0.1630 -0.1036
 3195SOL    HW111069   3.587   0.355   3.742 -0.1055 -3.0533 -0.5817
 3195SOL    HW211070   3.715   0.305   3.808  0.6911  1.4714  1.4936
 3196SOL     OW11071   0.333   7.083   2.716 -0.5494 -0.1412  0.0163
 3196SOL    HW111072   0.322   7.040   2.631 -0.5028 -0.0341 -0.0440
 3196SOL    HW211073   0.245   7.106   2.743 -0.5031  0.5240 -0.3654
 3197SOL     OW11074   5.760   6.465   1.432  0.1838 -0.7769  0.0176
 3197SOL    HW111075   5.770   6.385   1.381 -0.4046 -1.8570  1.5684
 3197SOL    HW211076   5.665   6.477   1.440  0.2727 -0.4529  0.6213
 3198SOL     OW11077   7.906   5.673   3.557  0.0676 -0.1395 -0.1797
 3198SOL    HW111078   7.995   5.707   3.561  0.5989 -1.4306 -1.0138
 3198SOL    HW211079   7.867   5.718   3.482 -0.4842  1.5666  1.0923
 3199SOL     OW11080   7.045   6.407   7.597 -0.3481 -0.0436  0.0224
 3199SOL    HW111081   7.054   6.499   7.621  0.0814  0.0545 -0.5175
 3199SOL    HW211082   7.086   6.360   7.670  0.0078  0.2149 -0.0086
 3200SOL     OW11083   1.582   4.262   7.859 -0.1525 -0.1597 -0.0653
 3200SOL    HW111084   1.626   4.178   7.845 -0.1846  0.0384 -1.4146
 3200SOL    HW211085   1.489   4.241   7.856 -0.1595 -0.1014 -0.2718
 3201SOL     OW11086   2.625   1.208   7.052 -0.1201 -0.1247  0.4284
 3201SOL    HW111087   2.717   1.231   7.045  0.1797 -1.1255  0.9767
 3201SOL    HW211088   2.586   1.280   7.102  0.7013 -0.5372  1.6912
 3202SOL     OW11089   4.792   2.044   1.408  0.1546  0.0704 -0.7179
 3202SOL    HW111090   4.858   2.073   1.345 -1.3564 -0.4451 -2.5896
 3202SOL    HW211091   4.840   1.990   1.470  1.7071  0.7146 -1.3215
 3203SOL     OW11092   7.965   1.408   0.364 -0.7682  0.2197 -0.0458
 3203SOL    HW111093   7.926   1.401   0.451  1.1791  0.9777  0.9193
 3203SOL    HW211094   8.045   1.458   0.378  0.4384 -1.1013 -2.0019
 3204SOL     OW11095   5.001   5.669   5.246  0.6722 -0.5689  0.1567
 3204SOL    HW111096   4.979   5.762   5.246 -1.4308 -1.0438  1.5097
 3204SOL    HW211097   5.096   5.667   5.257  1.1492  1.4603 -2.9976
 3205SOL     OW11098   6.502   1.077   2.593  0.5063 -0.2647 -0.3463
 3205SOL    HW111099   6.431   1.089   2.529  0.6702 -0.3714 -0.5481
 3205SOL    HW211100   6.459   1.084   2.678  0.0945 -1.2564 -0.4650
 3206SOL     OW11101   3.198   0.125   1.355  0.2528  0.2789  0.2058
 3206SOL    HW111102   3.280   0.085   1.328 -0.3346  1.2186 -3.1969
 3206SOL    HW211103   3.223   0.204   1.402  1.3055 -1.2984  2.3830
 3207SOL     OW11104   3.171   2.028   5.822 -0.0449  0.0138  0.4295
 3207SOL    HW111105   3.151   1.948   5.773 -3.0107  0.1214  1.3892
 3207SOL    HW211106   3.190   2.093   5.754 -1.5278 -0.4981 -0.4937
 3208SOL     OW11107   3.907   1.314   5.519  0.0907 -0.5036 -0.4181
 3208SOL    HW111108   3.904   1.330   5.424 -1.5913 -0.0277 -0.3096
 3208SOL    HW211109   3.927   1.221   5.526 -0.4875 -0.7013 -1.2641
 3209SOL     OW11110   2.987   6.667   1.001 -0.1321 -0.3434  0.1675
 3209SOL    HW111111   2.923   6.738   1.012 -1.3644 -1.5648  1.1061
 3209SOL    HW211112   3.028   6.658   1.087 -0.5613 -1.2924  0.2864
 3210SOL     OW11113   3.452   0.692   3.212 -0.5354 -0.2264 -0.5113
 3210SOL    HW111114   3.451   0.600   3.238  1.1465  0.2951  1.5274
 3210SOL    HW211115   3.383   0.733   3.266  0.9026  0.2833  0.9918
 3211SOL     OW11116   2.280   4.440   7.582  0.0394 -0.1075  0.1014
 3211SOL    HW111117   2.305   4.464   7.671  0.7114  0.0616 -0.1330
 3211SOL    HW211118   2.279   4.524   7.535 -2.2889  0.0779  0.4320
 3212SOL     OW11119   6.540   1.538   6.834  0.0256  0.0954  0.2379
 3212SOL    HW111120   6.555   1.471   6.767  0.0751  0.3561 -0.0144
 3212SOL    HW211121   6.467   1.504   6.885  2.0871 -1.6542  2.1151
 3213SOL     OW11122   0.960   3.432   6.698 -0.1745  0.2978 -0.4863
 3213SOL    HW111123   0.989   3.374   6.629 -2.6037 -0.0630 -1.2539
 3213SOL    HW211124   0.879   3.392   6.732 -1.2440  2.5583 -0.2236
 3214SOL     OW11125   6.230   6.182   2.698 -0.2846 -0.1962 -0.1695
 3214SOL    HW111126   6.217   6.263   2.649 -2.1233 -1.6288 -2.1634
 3214SOL    HW211127   6.167   6.186   2.770  0.3193  0.5666  0.3226
 3215SOL     OW11128   0.046   4.698   4.436 -0.8970  0.6774 -0.2301
 3215SOL    HW111129   0.134   4.718   4.404 -0.8929  1.9566  0.5527
 3215SOL    HW211130  -0.012   4.715   4.361 -0.2832 -2.3777 -1.4719
 3216SOL     OW11131   5.948   5.811   7.140 -0.1123 -0.4287  0.4624
 3216SOL    HW111132   5.875   5.751   7.151 -0.3416  0.0765  1.8610
 3216SOL    HW211133   6.021   5.768   7.184 -0.0003 -0.1777  0.5206
 3217SOL     OW11134   2.458   5.922   6.291 -0.0059  0.0210  0.5906
 3217SOL    HW111135   2.484   5.985   6.357 -0.6279 -1.6413  2.4767
 3217SOL    HW211136   2.389   5.870   6.332  0.8549 -2.2413 -0.6812
 3218SOL     OW11137   4.002   4.067   1.843 -0.7237  0.2170 -0.0344
 3218SOL    HW111138   4.095   4.073   1.865 -0.7943  1.7375 -0.1455
 3218SOL    HW211139   3.980   3.975   1.857  0.3273  0.2337  1.8281
 3219SOL     OW11140   8.178   5.712   3.706  0.3088 -0.9143  0.2580
 3219SOL    HW111141   8.144   5.625   3.687 -0.0159 -0.4547 -1.2482
 3219SOL    HW211142   8.268   5.710   3.673  0.2405 -0.6149  0.0502
 3220SOL     OW11143   6.182   2.586   5.295  0.3910  0.5600  0.0329
 3220SOL    HW111144   6.162   2.522   5.226 -0.9184 -1.5236  2.2644
 3220SOL    HW211145   6.102   2.637   5.304  1.0124  1.7076 -0.8790
 3221SOL     OW11146   7.288   4.168   7.926  0.4433  0.0728 -0.8958
 3221SOL    HW111147   7.279   4.158   8.021 -1.8346  1.1906 -0.9643
 3221SOL    HW211148   7.235   4.098   7.890 -0.5414  1.0309 -1.3340
 3222SOL     OW11149   5.019   0.498   1.013  0.0717  0.5500 -0.1126
 3222SOL    HW111150   5.028   0.583   1.056  1.5586  1.0133 -1.2815
 3222SOL    HW211151   5.060   0.510   0.927  0.7101 -1.4591 -0.1344
 3223SOL     OW11152   0.150   1.753   1.621  0.6600  0.5413  0.3296
 3223SOL    HW111153   0.099   1.829   1.651  1.3587  0.8410  0.7694
 3223SOL    HW211154   0.132   1.748   1.527 -1.8808 -0.6511  0.8236
 3224SOL     OW11155   1.688   3.904   6.586 -0.1469  0.1910  0.4011
 3224SOL    HW111156   1.694   3.841   6.515  0.0478 -0.5582  1.0637
 3224SOL    HW211157   1.607   3.882   6.632  0.6205 -0.4850  1.4672
 3225SOL     OW11158   6.509   1.893   5.204  0.2401  0.2634  0.2581
 3225SOL    HW111159   6.468   1.936   5.128 -0.6877  0.6111  0.9541
 3225SOL    HW211160   6.436   1.870   5.261  1.0665  1.9194  2.0620
 3226SOL     OW11161   1.642   8.011   1.573 -0.1208  0.2643 -0.0871
 3226SOL    HW111162   1.651   7.919   1.551 -0.2412  0.1234  0.4419
 3226SOL    HW211163   1.731   8.040   1.594 -0.1210  0.2077 -0.0094
 3227SOL     OW11164   0.835   8.197   2.036 -0.0489 -0.2858  0.3685
 3227SOL    HW111165   0.783   8.134   2.085 -0.2020  0.0002  0.5730
 3227SOL    HW211166   0.872   8.255   2.103 -0.5747  0.3406  0.1211
 3228SOL     OW11167   3.085   3.433   4.082 -0.3872  0.6960  0.1080
 3228SOL    HW111168   3.006   3.389   4.115  1.1331 -3.7351 -1.7853
 3228SOL    HW211169   3.063   3.457   3.993  0.5289 -1.1481 -0.6510
 3229SOL     OW11170   4.693   3.630   6.607 -0.1871 -0.4942 -0.1462
 3229SOL    HW111171   4.674   3.539   6.627 -0.4874 -0.7570 -1.5741
 3229SOL    HW211172   4.788   3.634   6.601 -0.2458 -1.1641 -2.0273
 3230SOL     OW11173   2.602   1.652   2.142 -0.0343  0.1245  0.1422
 3230SOL    HW111174   2.607   1.573   2.087 -0.6272  0.0695  0.1603
 3230SOL    HW211175   2.692   1.682   2.149  0.0222  0.2841 -1.0895
 3231SOL     OW11176   3.613   4.158   4.373 -0.3007  0.6488 -0.3458
 3231SOL    HW111177   3.694   4.115   4.401 -0.0541  0.8319 -0.7701
 3231SOL    HW211178   3.553   4.148   4.447 -0.0549  0.0761 -0.2270
 3232SOL     OW11179   5.941   0.338   5.991  0.6095  0.0669 -0.2175
 3232SOL    HW111180   6.013   0.353   5.930 -0.0177  1.5243 -0.6128
 3232SOL    HW211181   5.909   0.250   5.969  2.8947 -1.0519  0.6534
 3233SOL     OW11182   4.292   0.407   2.905  0.0371  0.2676  0.3604
 3233SOL    HW111183   4.368   0.464   2.893 -0.6298  1.6823  2.6261
 3233SOL    HW211184   4.329   0.320   2.920  1.0849  0.2393 -2.1330
 3234SOL     OW11185   2.854   5.638   5.818 -0.1493  0.5078 -0.3296
 3234SOL    HW111186   2.762   5.663   5.833 -0.8194 -0.8640 -2.0152
 3234SOL    HW211187   2.883   5.696   5.748 -0.5536 -0.7824 -1.6031
 3235SOL     OW11188   1.804   3.813   1.419 -0.4448  0.6339  0.4724
 3235SOL    HW111189   1.856   3.746   1.375 -1.7128 -1.0954  1.5356
 3235SOL    HW211190   1.868   3.862   1.471  0.7403  1.3341 -1.5939
 3236SOL     OW11191   2.898   0.379   4.957  0.2447  0.2695  0.4598
 3236SOL    HW111192   2.840   0.394   4.882 -2.4630  0.2312  2.4339
 3236SOL    HW211193   2.930   0.466   4.980 -1.0924  0.6706  0.8890
 3237SOL     OW11194   3.076   5.854   1.904 -0.3637 -0.0769 -0.5659
 3237SOL    HW111195   3.099   5.762   1.920  0.8127  0.0315 -1.6053
 3237SOL    HW211196   3.158   5.901   1.913 -0.9600  0.8738 -0.0921
 3238SOL     OW11197   6.916   8.275   0.250 -0.6263  0.1207 -0.1514
 3238SOL    HW111198   6.971   8.202   0.224  0.8294  0.4267  1.9965
 3238SOL    HW211199   6.928   8.340   0.181 -1.9739 -1.6274 -2.1077
 3239SOL     OW11200   7.510   1.413   4.952  0.2757  0.0262  0.0362
 3239SOL    HW111201   7.423   1.375   4.938  1.1050 -2.1080  0.4245
 3239SOL    HW211202   7.507   1.498   4.909 -1.6050 -0.5476 -1.0092
 3240SOL     OW11203   7.816   4.603   6.877  0.4167  0.4809  0.0629
 3240SOL    HW111204   7.841   4.685   6.836 -1.4983  1.8484  1.4985
 3240SOL    HW211205   7.724   4.615   6.900  0.2100 -1.9248  0.6661
 3241SOL     OW11206   7.872   0.869   6.393  0.1644 -0.1222  0.2090
 3241SOL    HW111207   7.887   0.853   6.486  0.2132  0.9835  0.3886
 3241SOL    HW211208   7.818   0.795   6.365  1.3427 -1.2179  0.7853
 3242SOL     OW11209   1.796   5.430   4.871  0.1852  0.1680 -0.1706
 3242SOL    HW111210   1.863   5.411   4.805 -1.2254  1.2387 -1.9571
 3242SOL    HW211211   1.727   5.475   4.823 -1.1920  0.3685  1.9247
 3243SOL     OW11212   2.705   4.009   7.554 -0.4842  0.2211 -0.8507
 3243SOL    HW111213   2.692   4.011   7.459 -1.6991  1.8699 -0.6713
 3243SOL    HW211214   2.617   4.004   7.590 -0.0988  0.9417  0.2217
 3244SOL     OW11215   2.558   1.252   0.797 -0.1179  0.0583  0.0496
 3244SOL    HW111216   2.538   1.224   0.886 -1.1488 -0.3740 -0.3150
 3244SOL    HW211217   2.499   1.202   0.742 -0.3632  1.2427 -0.7851
 3245SOL     OW11218   3.155   6.253   0.899 -0.2119 -0.1040 -0.5523
 3245SOL    HW111219   3.250   6.239   0.906 -0.3597 -0.1327  1.7651
 3245SOL    HW211220   3.147   6.330   0.843  1.2518  0.8460  0.4996
 3246SOL     OW11221   7.048   7.317   5.458 -0.1532  0.2031  0.2609
 3246SOL    HW111222   7.061   7.284   5.369 -0.8345 -1.1770  0.6615
 3246SOL    HW211223   7.126   7.371   5.475  0.5975 -0.5652 -0.6903
 3247SOL     OW11224   6.747   1.086   1.452 -0.1930 -0.0927 -0.1700
 3247SOL    HW111225   6.699   1.024   1.507 -1.2573  1.8939  1.2288
 3247SOL    HW211226   6.720   1.065   1.363  0.0919 -2.1310  0.1905
 3248SOL     OW11227   1.775   8.034   3.166  0.2206  0.9600 -0.0082
 3248SOL    HW111228   1.710   8.083   3.114 -0.5927 -1.1472 -1.0459
 3248SOL    HW211229   1.725   7.998   3.239  0.1026 -0.9405 -0.9874
 3249SOL     OW11230   5.488   2.808   7.151  0.2406  0.6221 -0.3862
 3249SOL    HW111231   5.430   2.744   7.194  0.7504 -0.6527 -1.5885
 3249SOL    HW211232   5.448   2.892   7.171 -2.2817 -0.2535 -1.5096
 3250SOL     OW11233   1.530   0.789   8.308 -0.5319 -0.4655 -0.0863
 3250SOL    HW111234   1.606   0.815   8.256  0.5452 -1.2804  1.0296
 3250SOL    HW211235   1.561   0.714   8.359 -1.4179  0.5425  2.0023
 3251SOL     OW11236   0.476   2.032   8.023  0.0197  0.4119  0.3640
 3251SOL    HW111237   0.509   2.016   8.112  0.0426 -0.7845  0.1430
 3251SOL    HW211238   0.550   2.011   7.966 -0.1721  0.6441  0.0311
 3252SOL     OW11239   2.073   6.222   0.220 -0.2274 -0.0381  0.2531
 3252SOL    HW111240   2.168   6.214   0.217 -0.0900  0.8937  1.5549
 3252SOL    HW211241   2.051   6.213   0.313 -1.5700 -1.8649 -0.2124
 3253SOL     OW11242   1.508   8.028   7.178 -0.1613 -0.8063 -0.0443
 3253SOL    HW111243   1.562   8.106   7.193 -1.2936 -0.1035  0.4047
 3253SOL    HW211244   1.459   8.016   7.259  0.2039 -2.1631 -0.0110
 3254SOL     OW11245   2.176   3.161   3.768 -0.2877  0.0398  0.5776
 3254SOL    HW111246   2.261   3.198   3.793  0.0985  0.4168 -1.2472
 3254SOL    HW211247   2.187   3.067   3.779 -0.5382  0.2511  3.0101
 3255SOL     OW11248   2.389   7.583   5.689 -0.0102 -0.5034  0.2457
 3255SOL    HW111249   2.386   7.531   5.609 -2.1892 -2.1739  1.3539
 3255SOL    HW211250   2.306   7.563   5.733  1.2526  0.1801  3.0103
 3256SOL     OW11251   5.250   5.956   2.776 -0.0997 -0.2163 -0.0511
 3256SOL    HW111252   5.184   5.948   2.708 -0.4436  1.6920  0.0378
 3256SOL    HW211253   5.202   5.980   2.855  0.5281 -0.3779  0.3895
 3257SOL     OW11254   5.974   8.127   7.508 -0.7051  0.2085  0.5317
 3257SOL    HW111255   5.977   8.033   7.529 -2.4304  0.1151  0.4998
 3257SOL    HW211256   6.023   8.136   7.427  1.5039 -0.2820  1.7646
 3258SOL     OW11257   2.098   0.741   6.064 -0.2291 -0.3458  0.0875
 3258SOL    HW111258   2.076   0.777   6.149  0.0967  0.8622 -0.3302
 3258SOL    HW211259   2.194   0.740   6.063 -0.1549  2.9907 -1.6228
 3259SOL     OW11260   1.208   7.137   7.674  0.0692 -0.4186 -0.0734
 3259SOL    HW111261   1.256   7.215   7.703 -0.8698  0.8011 -1.7019
 3259SOL    HW211262   1.268   7.091   7.616  0.4320 -0.6206  0.4629
 3260SOL     OW11263   2.719   0.029   1.366 -0.1679  0.5537  0.3965
 3260SOL    HW111264   2.637  -0.019   1.359 -0.1619  0.6802 -0.6001
 3260SOL    HW211265   2.746   0.017   1.457 -1.9002  1.5181  1.0642
 3261SOL     OW11266   6.781   8.257   5.447 -0.4323 -0.1046  0.2190
 3261SOL    HW111267   6.805   8.240   5.538  0.4737  1.3110  0.2676
 3261SOL    HW211268   6.853   8.219   5.397 -0.6559 -0.3970  0.1200
 3262SOL     OW11269   4.449   1.769   6.840 -0.5142  0.0786 -0.0859
 3262SOL    HW111270   4.482   1.695   6.889 -0.9279 -0.2150 -0.2454
 3262SOL    HW211271   4.505   1.773   6.762 -0.5742 -0.1451 -0.1404
 3263SOL     OW11272   7.462   0.820   6.822  0.3470  0.4840  0.2591
 3263SOL    HW111273   7.519   0.872   6.879  0.4332  1.3250 -0.5847
 3263SOL    HW211274   7.483   0.848   6.734 -0.7303  0.1433 -0.1230
 3264SOL     OW11275   3.124   7.141   4.618  0.0400 -0.6378  0.4112
 3264SOL    HW111276   3.126   7.050   4.649  0.2705 -0.4313  1.0235
 3264SOL    HW211277   3.075   7.188   4.686 -3.3652 -0.9564 -1.7336
 3265SOL     OW11278   3.703   4.250   5.835  0.0967 -0.0160 -0.0932
 3265SOL    HW111279   3.763   4.293   5.895 -0.2760  0.0735  0.2194
 3265SOL    HW211280   3.618   4.255   5.878 -0.2247  0.3029 -0.7602
 3266SOL     OW11281   1.209   3.823   2.641  0.4677  0.4455  0.7904
 3266SOL    HW111282   1.241   3.767   2.570  3.2371  1.4653  1.1979
 3266SOL    HW211283   1.118   3.840   2.618  0.2381 -2.3317 -0.5373
 3267SOL     OW11284   2.629   5.943   2.197 -0.6534  0.3728 -0.4243
 3267SOL    HW111285   2.554   5.992   2.164  0.5277  2.9839  0.6021
 3267SOL    HW211286   2.650   5.984   2.280  1.4906 -0.7410 -0.3658
 3268SOL     OW11287   7.271   0.402   4.901  0.7509 -0.0597 -0.1366
 3268SOL    HW111288   7.341   0.339   4.918  1.8244  0.7507 -1.4566
 3268SOL    HW211289   7.221   0.363   4.829  0.3683 -0.2149  0.2104
 3269SOL     OW11290   5.996   2.004   6.217  0.0855 -0.3595 -0.9304
 3269SOL    HW111291   5.926   1.947   6.251  1.4209 -2.6385 -1.8596
 3269SOL    HW211292   6.057   2.013   6.289  0.9452 -1.9268 -1.4375
 3270SOL     OW11293   2.026   8.087   6.706  0.2542  0.4540 -0.2330
 3270SOL    HW111294   1.961   8.018   6.722 -0.4634  0.7522 -1.7447
 3270SOL    HW211295   2.060   8.068   6.619 -0.1123  2.1386 -0.7543
 3271SOL     OW11296   7.066   4.307   3.967  0.2553  0.8635 -0.3340
 3271SOL    HW111297   7.056   4.222   4.009 -1.7483  1.6773  0.9049
 3271SOL    HW211298   7.059   4.288   3.873  0.2113 -0.3767 -0.0907
 3272SOL     OW11299   3.672   3.372   7.172  0.1365  0.9440 -0.2317
 3272SOL    HW111300   3.700   3.420   7.250  1.5747  0.0896 -0.2022
 3272SOL    HW211301   3.622   3.436   7.121 -0.9618  1.4498  1.4639
 3273SOL     OW11302   6.180   5.174   4.622 -0.6424 -0.2443 -0.2090
 3273SOL    HW111303   6.180   5.263   4.586 -0.4599  0.1229  0.7048
 3273SOL    HW211304   6.272   5.152   4.631 -0.6912 -0.3962 -0.0898
 3274SOL     OW11305   0.359   6.745   7.902  0.2578 -0.7018  0.6987
 3274SOL    HW111306   0.389   6.799   7.974  2.4611 -1.1251  0.1278
 3274SOL    HW211307   0.402   6.781   7.825 -2.8999  0.4389 -0.6476
 3275SOL     OW11308   4.121   5.266   1.191  0.0039 -0.2663  0.5165
 3275SOL    HW111309   4.095   5.277   1.282  0.5647  0.1355  0.6264
 3275SOL    HW211310   4.100   5.174   1.171 -0.0383 -0.3765  1.0705
 3276SOL     OW11311   6.529   7.125   0.536  0.9489 -0.1284  0.5112
 3276SOL    HW111312   6.480   7.179   0.475  1.3007  0.5720  0.8453
 3276SOL    HW211313   6.497   7.151   0.623  2.0045  0.4390  0.7444
 3277SOL     OW11314   2.400   4.963   3.326  0.2186 -0.3095 -0.0450
 3277SOL    HW111315   2.423   5.055   3.340 -0.9890 -0.0765  0.4058
 3277SOL    HW211316   2.475   4.914   3.360  1.1356  0.5173 -0.8398
 3278SOL     OW11317   7.132   0.506   3.865 -0.1972 -0.4762  0.1836
 3278SOL    HW111318   7.132   0.573   3.933  1.8319 -0.9904  0.7322
 3278SOL    HW211319   7.090   0.430   3.905 -2.2187  0.3513 -0.3366
 3279SOL     OW11320   3.992   4.146   5.671 -0.3368 -0.2537  0.2189
 3279SOL    HW111321   4.020   4.150   5.580 -1.9548 -1.3200 -0.3314
 3279SOL    HW211322   4.039   4.219   5.713  0.3944  0.2621 -1.4500
 3280SOL     OW11323   7.875   7.752   7.745 -0.1985 -0.1077 -0.4481
 3280SOL    HW111324   7.841   7.665   7.767  0.5673 -0.0189  1.1602
 3280SOL    HW211325   7.970   7.745   7.756 -0.1261  0.9260 -0.3274
 3281SOL     OW11326   1.258   6.101   1.545  0.5001  0.0840  0.4574
 3281SOL    HW111327   1.280   6.008   1.557 -0.7837 -0.2576  0.2409
 3281SOL    HW211328   1.334   6.148   1.579  1.7086 -1.0701 -0.5975
 3282SOL     OW11329   6.808   3.581   0.072  0.1897 -0.0676 -0.0777
 3282SOL    HW111330   6.750   3.616   0.004 -0.9935 -1.4015  0.2125
 3282SOL    HW211331   6.780   3.625   0.152  0.6667  0.4845 -0.2107
 3283SOL     OW11332   6.729   4.749   5.740  0.0483 -0.0276 -0.2034
 3283SOL    HW111333   6.731   4.784   5.829  2.6920  2.9819 -1.3462
 3283SOL    HW211334   6.644   4.706   5.733 -1.3862  2.1332  2.8754
 3284SOL     OW11335   5.781   5.748   6.724 -0.1862 -0.1340  0.1517
 3284SOL    HW111336   5.696   5.755   6.682  0.1974  2.3067 -0.2676
 3284SOL    HW211337   5.808   5.657   6.709 -2.2283 -0.6337 -0.5962
 3285SOL     OW11338   7.323   3.463   4.085 -0.0158  0.0192  0.3232
 3285SOL    HW111339   7.240   3.463   4.133  0.2746 -0.7671  0.8357
 3285SOL    HW211340   7.338   3.371   4.062  1.0092  0.0716  0.7510
 3286SOL     OW11341   0.527   4.960   4.827 -0.2582 -0.0071 -0.1814
 3286SOL    HW111342   0.528   5.045   4.783  0.4131  0.7490  1.2641
 3286SOL    HW211343   0.619   4.941   4.846 -0.3708 -1.2255 -0.7805
 3287SOL     OW11344   7.067   0.356   5.085  0.7356 -0.2783 -0.3149
 3287SOL    HW111345   7.127   0.383   5.015  1.6922 -1.2712  0.1088
 3287SOL    HW211346   6.995   0.419   5.080  0.9677 -0.1196 -1.9520
 3288SOL     OW11347   5.039   1.037   7.000 -0.5592  0.2904 -0.1668
 3288SOL    HW111348   4.960   1.055   7.052  0.4439  0.0572  1.4929
 3288SOL    HW211349   5.067   0.950   7.027  0.8324  0.7775  0.0337
 3289SOL     OW11350   5.318   2.646   8.281  0.2164  0.1932 -0.4177
 3289SOL    HW111351   5.288   2.706   8.349 -1.5932 -1.6085  0.4177
 3289SOL    HW211352   5.295   2.559   8.314  2.6185 -0.9709 -1.6850
 3290SOL     OW11353   3.816   8.015   4.011  0.4029  0.1453  0.4824
 3290SOL    HW111354   3.829   8.070   4.089  3.4717 -0.4484  0.4776
 3290SOL    HW211355   3.854   7.930   4.036 -0.5312 -0.7005 -0.9289
 3291SOL     OW11356   7.827   3.264   6.598 -0.0366  0.2420  0.2612
 3291SOL    HW111357   7.735   3.280   6.576 -0.0025 -1.8233 -1.5693
 3291SOL    HW211358   7.876   3.324   6.542 -0.2839  2.4893  2.3848
 3292SOL     OW11359   6.527   6.710   5.632  0.0636 -0.0261 -0.1624
 3292SOL    HW111360   6.619   6.709   5.661  0.9964 -1.1789 -3.0128
 3292SOL    HW211361   6.495   6.623   5.653  0.4280 -0.5115 -1.5884
 3293SOL     OW11362   5.088   3.616   4.169 -0.4959  0.9609 -0.3851
 3293SOL    HW111363   5.088   3.610   4.264 -0.3231 -0.0527 -0.4425
 3293SOL    HW211364   5.078   3.525   4.139  1.4064  1.0295 -1.3373
 3294SOL     OW11365   8.224   6.193   0.747  0.5046 -0.2965  0.2949
 3294SOL    HW111366   8.286   6.122   0.760  0.8754 -0.0604 -0.1849
 3294SOL    HW211367   8.156   6.155   0.691 -0.0242 -0.6928  1.2036
 3295SOL     OW11368   7.581   6.397   2.793  0.6710 -0.3083  0.3989
 3295SOL    HW111369   7.561   6.465   2.729 -1.3987 -0.2701  1.0520
 3295SOL    HW211370   7.498   6.382   2.839  1.9270 -0.9036  2.5185
 3296SOL     OW11371   2.081   4.590   6.165 -0.5196  0.5013 -0.1587
 3296SOL    HW111372   2.171   4.574   6.134 -0.2622  0.3661  0.6423
 3296SOL    HW211373   2.034   4.510   6.145  0.2798 -0.5603  2.0756
 3297SOL     OW11374   3.626   4.988   3.452 -0.2070 -0.1158 -0.4662
 3297SOL    HW111375   3.669   5.060   3.499 -0.5494 -0.7818  0.8891
 3297SOL    HW211376   3.698   4.934   3.419  0.0229 -1.1720  1.7074
 3298SOL     OW11377   6.331   2.251   1.329  0.2439 -0.1824  0.0826
 3298SOL    HW111378   6.376   2.281   1.408  2.2021 -1.8780 -0.3431
 3298SOL    HW211379   6.255   2.203   1.361 -0.4363  1.3632  0.8521
 3299SOL     OW11380   8.165   4.728   5.234  0.4051 -0.3986  0.8187
 3299SOL    HW111381   8.193   4.687   5.316 -0.2300 -0.1894  1.1469
 3299SOL    HW211382   8.072   4.704   5.226 -0.0509  1.1733  1.1587
 3300SOL     OW11383   4.654   0.412   4.630 -0.2077 -0.0349 -0.4801
 3300SOL    HW111384   4.688   0.501   4.632 -1.1919  0.3160  1.2377
 3300SOL    HW211385   4.659   0.387   4.538 -0.1645  1.8783 -1.0134
 3301SOL     OW11386   2.567   4.962   3.823 -0.1579  0.1260 -0.5549
 3301SOL    HW111387   2.546   4.936   3.913 -0.6475 -1.4216 -1.0979
 3301SOL    HW211388   2.501   5.028   3.801  0.7570  1.4694  0.6514
 3302SOL     OW11389   6.597   2.339   1.657 -0.9870 -0.3429  0.4367
 3302SOL    HW111390   6.613   2.284   1.733 -1.0925 -2.7835 -1.2636
 3302SOL    HW211391   6.502   2.345   1.651 -0.9792 -0.1831  0.4514
 3303SOL     OW11392   4.858   5.919   5.163 -0.2961 -0.3759 -0.2238
 3303SOL    HW111393   4.894   5.970   5.090 -0.5732 -0.9047 -0.7416
 3303SOL    HW211394   4.806   5.982   5.213 -0.5126 -0.1130 -0.7679
 3304SOL     OW11395   3.994   2.209   3.849 -0.0209 -0.7827 -0.2824
 3304SOL    HW111396   3.967   2.298   3.872 -1.7110 -1.1442 -0.7904
 3304SOL    HW211397   4.089   2.208   3.865 -0.0516  0.9658  0.1513
 3305SOL     OW11398   4.744   0.149   7.122  0.0640 -0.4192 -0.4162
 3305SOL    HW111399   4.665   0.153   7.067 -1.0767 -0.4870  1.1908
 3305SOL    HW211400   4.807   0.100   7.069 -0.8910 -0.1789 -1.8173
 3306SOL     OW11401   7.027   2.354   6.941  0.2241 -0.3065  0.2519
 3306SOL    HW111402   7.058   2.310   6.862  0.6402  0.6306 -0.1177
 3306SOL    HW211403   6.952   2.302   6.970  0.3704 -0.9337 -0.4875
 3307SOL     OW11404   2.705   2.376   6.232  0.8179  1.0809 -0.4801
 3307SOL    HW111405   2.723   2.370   6.138  0.5956  1.4932 -0.5520
 3307SOL    HW211406   2.770   2.437   6.265 -0.4801  2.6636 -0.7590
 3308SOL     OW11407   3.128   1.975   2.144 -0.0258  0.2232 -0.1714
 3308SOL    HW111408   3.060   2.020   2.193  0.1631  0.5936 -0.2474
 3308SOL    HW211409   3.099   1.884   2.140 -0.5068  0.3793 -0.1923
 3309SOL     OW11410   3.542   5.640   0.013  0.2482 -0.2698  0.0827
 3309SOL    HW111411   3.467   5.585   0.036 -0.5945  0.4325 -0.9294
 3309SOL    HW211412   3.599   5.583  -0.038  0.4138 -0.8176  0.8842
 3310SOL     OW11413   7.293   3.137   3.151  0.2933  0.1448  0.1527
 3310SOL    HW111414   7.266   3.224   3.122 -0.1117  0.1249  0.4677
 3310SOL    HW211415   7.217   3.081   3.137  0.3542 -0.0317  0.5080
 3311SOL     OW11416   5.930   6.244   6.730  0.3113 -0.1059  0.5217
 3311SOL    HW111417   5.956   6.174   6.669  0.2084 -0.3141  0.7141
 3311SOL    HW211418   5.878   6.304   6.677  0.3713 -0.1950  0.3612
 3312SOL     OW11419   2.054   3.435   1.464 -0.3363  0.1496  0.0250
 3312SOL    HW111420   1.991   3.386   1.517  1.7287 -3.0636 -0.3288
 3312SOL    HW211421   2.116   3.471   1.527 -0.0815 -0.3493  0.0561
 3313SOL     OW11422   7.784   0.158   3.250  0.0164 -0.7724 -0.1436
 3313SOL    HW111423   7.722   0.106   3.301 -1.3815  1.4939  0.5448
 3313SOL    HW211424   7.826   0.216   3.314 -0.0396  0.4615 -1.1859
 3314SOL     OW11425   6.330   4.187   2.389 -0.0217  0.2245 -0.2518
 3314SOL    HW111426   6.319   4.274   2.352 -2.2978 -0.0451 -0.2694
 3314SOL    HW211427   6.332   4.129   2.312  2.1859  0.3081 -0.2787
 3315SOL     OW11428   6.343   7.420   1.176 -0.2851 -0.2137  0.1023
 3315SOL    HW111429   6.329   7.416   1.081 -1.9522 -1.8594  0.3926
 3315SOL    HW211430   6.349   7.514   1.195  2.5725  0.0586 -1.9553
 3316SOL     OW11431   1.773   3.102   2.226 -0.3299 -0.3368 -0.0548
 3316SOL    HW111432   1.719   3.175   2.196  0.9626  0.0974 -1.3622
 3316SOL    HW211433   1.788   3.048   2.148  0.2951 -0.9876  0.4949
 3317SOL     OW11434   0.974   1.158   5.151 -0.7178  0.3951  0.4214
 3317SOL    HW111435   0.892   1.204   5.132  0.0276  1.7762  0.4731
 3317SOL    HW211436   0.996   1.115   5.068 -1.1635  0.5513  0.2155
 3318SOL     OW11437   4.059   4.056   4.270 -0.1447  0.2457 -0.5130
 3318SOL    HW111438   4.016   4.097   4.195  1.6593  1.3681 -0.9696
 3318SOL    HW211439   4.147   4.093   4.271  0.7351 -1.7546  0.5891
 3319SOL     OW11440   1.044   3.736   2.089 -0.0699 -0.2675  0.0204
 3319SOL    HW111441   1.132   3.699   2.096  0.5635  0.9700 -1.0543
 3319SOL    HW211442   1.059   3.829   2.072 -1.6023  0.3151  1.6180
 3320SOL     OW11443   6.274   1.423   7.438 -0.3012 -0.1345 -0.6252
 3320SOL    HW111444   6.264   1.387   7.526 -1.2352 -0.8378 -1.0000
 3320SOL    HW211445   6.368   1.425   7.422 -0.1427 -0.1631  0.3224
 3321SOL     OW11446   6.335   1.376   8.264 -0.3310  0.3293 -0.4567
 3321SOL    HW111447   6.287   1.427   8.199 -0.9017  1.1463  0.5846
 3321SOL    HW211448   6.352   1.438   8.335 -0.5760 -0.7824  0.5925
 3322SOL     OW11449   1.614   1.073   6.013  0.1836  0.4194  0.0179
 3322SOL    HW111450   1.572   0.987   6.006  0.4785  0.3581 -1.0243
 3322SOL    HW211451   1.691   1.068   5.957 -1.4134  2.3272 -2.4562
 3323SOL     OW11452   2.073   2.794   2.317 -0.3898 -0.4648 -0.2405
 3323SOL    HW111453   2.151   2.768   2.268 -1.4003  0.8688 -2.6236
 3323SOL    HW211454   2.058   2.721   2.377  2.5730 -0.8178  0.1434
 3324SOL     OW11455   2.609   2.494   1.864 -0.4795  0.1100 -0.7735
 3324SOL    HW111456   2.588   2.586   1.876  2.0109  0.7876 -1.2420
 3324SOL    HW211457   2.633   2.463   1.952 -0.7684  0.0530 -0.7143
 3325SOL     OW11458   0.507   7.459   0.835 -0.2272  0.2110 -0.2519
 3325SOL    HW111459   0.555   7.418   0.907  0.1807 -0.5104 -0.9289
 3325SOL    HW211460   0.510   7.553   0.855  0.8262  0.1155  0.0981
 3326SOL     OW11461   0.116   4.958   1.765  0.4965 -0.0646 -0.3462
 3326SOL    HW111462   0.172   4.974   1.841 -1.2280  0.8142  0.7622
 3326SOL    HW211463   0.063   4.882   1.790  0.9236 -0.6711 -1.2474
 3327SOL     OW11464   1.202   3.026   2.028  0.1701 -0.2324  0.3342
 3327SOL    HW111465   1.275   3.052   2.085 -0.3551  0.1603  0.8420
 3327SOL    HW211466   1.126   3.028   2.086 -0.3660  0.1387 -0.3841
 3328SOL     OW11467   5.696   1.414   3.076  0.1863  0.0241  0.2556
 3328SOL    HW111468   5.691   1.477   3.148  2.4553  1.9153 -1.2111
 3328SOL    HW211469   5.631   1.445   3.013  0.6260  0.3223 -0.0455
 3329SOL     OW11470   7.350   3.840   4.675  0.0584 -0.1347 -0.3762
 3329SOL    HW111471   7.392   3.777   4.734  0.4515  0.9754  0.5442
 3329SOL    HW211472   7.422   3.897   4.646 -0.7052  1.4628  0.8007
 3330SOL     OW11473   0.674   3.152   6.182  0.7411 -0.3631 -0.3020
 3330SOL    HW111474   0.617   3.215   6.226  2.6178  0.5746  0.8558
 3330SOL    HW211475   0.643   3.067   6.213  0.0387  0.1369  0.3908
 3331SOL     OW11476   0.595   1.428   8.074 -0.2738  0.3519  0.2209
 3331SOL    HW111477   0.548   1.490   8.018  0.2560  0.2448 -0.3530
 3331SOL    HW211478   0.686   1.434   8.045 -0.2650 -0.9039 -0.0444
 3332SOL     OW11479   4.185   5.275   4.451  0.0627  0.6453 -0.2061
 3332SOL    HW111480   4.110   5.308   4.402  0.8877  1.8340 -0.6821
 3332SOL    HW211481   4.189   5.331   4.528  0.4852  0.6019 -0.1994
 3333SOL     OW11482   3.016   2.811   1.150  0.1016  0.1955 -0.1779
 3333SOL    HW111483   3.081   2.850   1.090  0.3324  0.2462  0.1060
 3333SOL    HW211484   3.067   2.786   1.227 -0.0407 -0.7062 -0.3774
 3334SOL     OW11485   4.764   6.581   6.181  1.0510  0.1924 -0.2191
 3334SOL    HW111486   4.698   6.521   6.146  1.6522  0.1177 -1.2432
 3334SOL    HW211487   4.805   6.619   6.104 -0.5688  3.3606  0.3895
 3335SOL     OW11488   3.839   1.279   2.126  0.0166 -0.0380 -0.2299
 3335SOL    HW111489   3.829   1.234   2.042 -0.6146  0.0737 -0.2201
 3335SOL    HW211490   3.760   1.256   2.175  0.0898  0.3956  0.0968
 3336SOL     OW11491   1.456   0.517   2.083 -0.0268 -0.7571 -0.0276
 3336SOL    HW111492   1.415   0.525   1.997  0.0411 -0.1144 -0.0012
 3336SOL    HW211493   1.494   0.429   2.083  0.5752 -0.5053 -0.9169
 3337SOL     OW11494   1.492   2.290   7.901  0.2607  0.2820  0.3275
 3337SOL    HW111495   1.418   2.346   7.927 -0.1242 -0.1314  0.1246
 3337SOL    HW211496   1.471   2.204   7.937  1.3803  0.5149  1.5809
 3338SOL     OW11497   2.881   4.394   6.648  0.0026 -0.1346 -0.4082
 3338SOL    HW111498   2.914   4.401   6.558 -2.5352 -0.9931 -1.4447
 3338SOL    HW211499   2.794   4.434   6.645  0.6526  1.6033  2.1542
 3339SOL     OW11500   4.200   0.613   4.298 -0.0549 -0.1289 -0.2600
 3339SOL    HW111501   4.156   0.676   4.356  0.4452  1.1444 -1.2311
 3339SOL    HW211502   4.171   0.637   4.210 -0.7993 -2.0399 -0.5599
 3340SOL     OW11503   1.670   2.762   0.030  0.1464  0.0051 -0.0727
 3340SOL    HW111504   1.679   2.692  -0.035 -0.9650 -2.4148  2.2891
 3340SOL    HW211505   1.583   2.797   0.015  0.9102  1.3290 -1.6239
 3341SOL     OW11506   5.206   8.112   1.973  0.5190  0.2603  0.5571
 3341SOL    HW111507   5.188   8.101   1.880 -0.7544  1.2368  0.6608
 3341SOL    HW211508   5.301   8.106   1.981  0.5635 -0.8238 -0.6572
 3342SOL     OW11509   3.939   6.689   3.264 -0.5790  0.1178 -0.2021
 3342SOL    HW111510   3.887   6.698   3.184 -0.1607 -1.8165 -0.7100
 3342SOL    HW211511   4.020   6.648   3.235 -1.0533 -2.0731  1.4338
 3343SOL     OW11512   2.560   7.028   1.673  0.3107  0.6000  0.0126
 3343SOL    HW111513   2.576   7.051   1.765 -0.8820 -1.6766  0.8151
 3343SOL    HW211514   2.517   6.943   1.677  1.7378 -0.2892 -2.7421
 3344SOL     OW11515   6.194   5.420   4.519  0.4398  0.2623 -0.0354
 3344SOL    HW111516   6.225   5.508   4.541 -1.3098  0.6811  0.8017
 3344SOL    HW211517   6.123   5.435   4.457 -0.9138 -0.4699  1.3144
 3345SOL     OW11518   3.375   7.646   2.333  0.1502  0.1659 -0.1067
 3345SOL    HW111519   3.445   7.666   2.396  0.0408  0.4872 -0.0866
 3345SOL    HW211520   3.316   7.588   2.381  0.0769  0.3942  0.0842
 3346SOL     OW11521   2.647   1.363   4.673 -0.0562  0.1786  0.0219
 3346SOL    HW111522   2.715   1.427   4.695  0.1070  0.4508 -1.2063
 3346SOL    HW211523   2.696   1.284   4.648 -0.2240 -0.0372  0.3765
 3347SOL     OW11524   2.539   5.384   3.848  0.1624  0.4030 -0.7544
 3347SOL    HW111525   2.612   5.444   3.837  0.1561  0.7346  0.8529
 3347SOL    HW211526   2.555   5.314   3.786  1.0409  1.2363 -1.4783
 3348SOL     OW11527   5.990   1.633   3.310 -0.2922 -0.0860  0.3756
 3348SOL    HW111528   5.975   1.575   3.236  0.0288  0.8198 -0.4100
 3348SOL    HW211529   5.997   1.720   3.271 -2.1238  0.6723  1.6659
 3349SOL     OW11530   3.161   3.180   0.097  0.3612 -0.1438 -0.4573
 3349SOL    HW111531   3.086   3.121   0.109  0.1672  0.0248 -0.8356
 3349SOL    HW211532   3.211   3.172   0.178 -0.5791  0.4828  0.1918
 3350SOL     OW11533   6.724   7.952   1.829  0.0413  0.1550  0.2089
 3350SOL    HW111534   6.697   7.993   1.747 -2.2716 -0.7953  0.4454
 3350SOL    HW211535   6.729   8.025   1.892 -2.1740  0.3877  0.1700
 3351SOL     OW11536   3.114   2.040   4.526 -0.3971 -0.0444  0.2483
 3351SOL    HW111537   3.148   2.129   4.529 -2.1377  0.6465  0.3049
 3351SOL    HW211538   3.082   2.023   4.615  0.2375 -0.8576  0.3276
 3352SOL     OW11539   3.152   1.222   1.969 -0.1787 -0.1468 -0.4453
 3352SOL    HW111540   3.246   1.207   1.964 -0.1752 -0.5842  0.8193
 3352SOL    HW211541   3.113   1.145   1.926  0.0099 -0.4907  0.0008
 3353SOL     OW11542   3.925   0.028   1.151 -0.0723  0.0690 -0.1405
 3353SOL    HW111543   3.942   0.037   1.057  0.1110  4.1497  0.1737
 3353SOL    HW211544   3.834   0.057   1.162 -0.4845 -1.5168  0.8325
 3354SOL     OW11545   5.836   1.039   1.031  0.0316 -0.0033 -0.1120
 3354SOL    HW111546   5.793   1.117   1.068 -1.2535 -0.8430  0.1959
 3354SOL    HW211547   5.911   1.024   1.088  0.3446  1.0794 -0.2317
 3355SOL     OW11548   7.657   6.544   0.386 -0.9564  0.6378  0.1140
 3355SOL    HW111549   7.669   6.505   0.472 -0.7644  0.9699  0.2422
 3355SOL    HW211550   7.563   6.560   0.379 -0.8960  1.2296  0.5427
 3356SOL     OW11551   0.402   1.817   2.748  0.6057 -0.2254  0.4501
 3356SOL    HW111552   0.485   1.846   2.711 -0.0607  1.8632  0.5491
 3356SOL    HW211553   0.409   1.722   2.751  2.3687 -0.1567 -0.9949
 3357SOL     OW11554   7.536   4.540   0.098  0.1665  0.2023 -0.3935
 3357SOL    HW111555   7.504   4.524   0.009 -0.7740  2.8974 -0.5805
 3357SOL    HW211556   7.478   4.487   0.154 -1.2070  0.8564 -1.1593
 3358SOL     OW11557   5.892   5.978   0.369 -0.4629  0.1038 -0.0080
 3358SOL    HW111558   5.931   5.907   0.318 -0.6481  0.8438 -1.2020
 3358SOL    HW211559   5.961   6.044   0.376 -0.6720  0.3156  0.0897
 3359SOL     OW11560   0.244   7.391   7.472 -0.4319 -0.2139  0.3899
 3359SOL    HW111561   0.292   7.419   7.395 -0.7613 -1.2862 -0.2220
 3359SOL    HW211562   0.162   7.355   7.437 -0.1381 -1.6723  1.1465
 3360SOL     OW11563   5.174   0.396   4.179  0.7479 -0.0006  0.7409
 3360SOL    HW111564   5.215   0.321   4.136 -2.0719 -1.1084 -0.1854
 3360SOL    HW211565   5.176   0.466   4.113  0.7353 -0.1995  0.5297
 3361SOL     OW11566   0.046   4.539   5.052 -0.0447  0.1085 -0.0672
 3361SOL    HW111567   0.047   4.454   5.095  1.5888 -0.2412 -0.7360
 3361SOL    HW211568  -0.040   4.575   5.072 -0.4943 -1.3901  0.8172
 3362SOL     OW11569   2.797   5.103   7.734  0.1400  0.0144  0.2357
 3362SOL    HW111570   2.808   5.025   7.680 -0.0751 -0.5779  1.0515
 3362SOL    HW211571   2.880   5.150   7.724 -0.6755  0.9999 -2.3275
 3363SOL     OW11572   3.689   3.874   3.055  0.2841  0.1836  0.5795
 3363SOL    HW111573   3.648   3.812   2.995 -2.4883  1.0227  1.5108
 3363SOL    HW211574   3.734   3.819   3.119 -0.3156 -0.8215  0.1509
 3364SOL     OW11575   6.623   3.727   4.612 -0.1802 -0.4221  0.1791
 3364SOL    HW111576   6.595   3.639   4.635 -0.0882 -0.0737  1.6580
 3364SOL    HW211577   6.710   3.736   4.651  0.1044  0.0898 -0.5495
 3365SOL     OW11578   4.417   3.916   3.456 -0.0461  0.4049 -0.1279
 3365SOL    HW111579   4.338   3.916   3.511  0.4531  0.4025  0.6003
 3365SOL    HW211580   4.471   3.845   3.491  0.3466  0.5037 -0.5266
 3366SOL     OW11581   3.752   0.331   6.994  0.3765  0.2966 -0.2878
 3366SOL    HW111582   3.732   0.258   7.053  2.8537 -0.0834  0.1383
 3366SOL    HW211583   3.771   0.289   6.910  0.7575  0.5445 -0.3224
 3367SOL     OW11584   2.174   6.818   2.092  1.0841  0.3103  0.4814
 3367SOL    HW111585   2.268   6.797   2.088  0.7157 -1.1511 -1.1509
 3367SOL    HW211586   2.157   6.863   2.009 -0.2448 -2.0673 -0.5816
 3368SOL     OW11587   4.319   1.894   3.224  0.5603 -0.2548 -0.3242
 3368SOL    HW111588   4.305   1.837   3.149  0.8505 -0.1148 -0.4822
 3368SOL    HW211589   4.236   1.890   3.272  0.9830 -1.7562  0.3114
 3369SOL     OW11590   2.140   4.111   2.007  0.4600  0.0150  0.1012
 3369SOL    HW111591   2.130   4.081   1.916  2.0955  3.2538 -1.2230
 3369SOL    HW211592   2.071   4.176   2.018  1.7271  1.3180  0.4133
 3370SOL     OW11593   1.804   3.243   7.872  0.4949  0.8476 -0.4494
 3370SOL    HW111594   1.868   3.303   7.833  1.3430 -0.5698 -1.2773
 3370SOL    HW211595   1.734   3.237   7.806  0.4384  0.8800 -0.3922
 3371SOL     OW11596   7.996   0.164   1.709  0.1711 -0.7284 -0.0807
 3371SOL    HW111597   7.933   0.167   1.781  0.2874 -0.1538  0.0039
 3371SOL    HW211598   8.071   0.214   1.741 -0.9312  2.0976 -1.6883
 3372SOL     OW11599   6.144   4.016   3.839  0.9498 -0.2847 -0.3180
 3372SOL    HW111600   6.133   3.927   3.872  1.7313 -0.6881 -1.1106
 3372SOL    HW211601   6.107   4.013   3.751 -0.2618  0.5296  0.1584
 3373SOL     OW11602   5.421   2.047   1.568  0.9170  0.0804  0.0383
 3373SOL    HW111603   5.475   2.109   1.617 -1.4335 -0.0565  2.9319
 3373SOL    HW211604   5.432   1.964   1.613 -0.8755 -0.1588  0.0862
 3374SOL     OW11605   0.607   5.524   3.184  0.0428  0.4695  0.2283
 3374SOL    HW111606   0.565   5.438   3.191  0.1010  0.5257  1.3458
 3374SOL    HW211607   0.697   5.509   3.213 -0.3624  1.2096  1.9276
 3375SOL     OW11608   4.217   5.662   8.132 -0.4412  0.3043 -0.6306
 3375SOL    HW111609   4.289   5.631   8.077 -0.5967  1.8103 -1.7044
 3375SOL    HW211610   4.198   5.750   8.100 -1.3777  0.7245  1.0130
 3376SOL     OW11611   2.502   0.101   4.375 -0.3923 -0.2082  0.1669
 3376SOL    HW111612   2.414   0.071   4.398 -0.2674 -0.8531 -0.1916
 3376SOL    HW211613   2.489   0.167   4.307 -0.7489  1.4742  1.8177
 3377SOL     OW11614   1.988   5.718   4.802 -0.1909  0.1336  0.3395
 3377SOL    HW111615   2.012   5.806   4.832 -0.6011  0.2977  0.1801
 3377SOL    HW211616   1.898   5.706   4.832 -1.1370  0.8669 -2.0941
 3378SOL     OW11617   7.150   7.629   0.219 -0.7604  0.7299 -0.0368
 3378SOL    HW111618   7.147   7.539   0.186  0.9882 -0.8927  3.8022
 3378SOL    HW211619   7.179   7.681   0.145  0.8327 -2.2951 -1.6584
 3379SOL     OW11620   4.328   0.951   1.299  0.1162 -0.0173  0.4385
 3379SOL    HW111621   4.299   1.040   1.323 -0.1341  0.2142 -0.6887
 3379SOL    HW211622   4.343   0.956   1.205 -2.5568 -1.9030 -0.1196
 3380SOL     OW11623   0.497   1.579   0.623  0.0601 -0.2869 -0.2984
 3380SOL    HW111624   0.580   1.546   0.587 -0.5344 -1.5601 -0.5193
 3380SOL    HW211625   0.431   1.548   0.561 -0.4754  1.7260 -0.7613
 3381SOL     OW11626   2.536   7.523   4.470  0.0654 -0.1081  0.1033
 3381SOL    HW111627   2.445   7.494   4.481  0.2437 -0.0769  1.8621
 3381SOL    HW211628   2.583   7.443   4.448 -0.2338 -0.2929  0.1189
 3382SOL     OW11629   6.414   2.090   5.828 -0.5151 -0.2264 -0.0633
 3382SOL    HW111630   6.449   2.079   5.739  0.8017  1.8195  0.1801
 3382SOL    HW211631   6.412   2.185   5.841 -2.1564 -0.4558  1.5335
 3383SOL     OW11632   7.474   6.859   7.679  0.5425  0.2406 -0.3204
 3383SOL    HW111633   7.465   6.944   7.722 -0.3308  0.2374 -0.4839
 3383SOL    HW211634   7.439   6.796   7.742  1.7394 -0.0675  0.0393
 3384SOL     OW11635   4.717   1.128   2.562  0.1606  0.0485  0.0603
 3384SOL    HW111636   4.735   1.220   2.541  0.3098 -0.6325 -3.2138
 3384SOL    HW211637   4.754   1.080   2.487  0.2264 -2.6800  1.7941
 3385SOL     OW11638   6.902   1.320   1.027  0.0561 -0.4911  0.0767
 3385SOL    HW111639   6.861   1.247   1.073 -0.1347 -0.4128  0.0291
 3385SOL    HW211640   6.995   1.314   1.050 -0.3565  0.8081  2.1654
 3386SOL     OW11641   7.929   0.329   3.735 -0.0358  0.0759  0.3196
 3386SOL    HW111642   7.860   0.335   3.802  0.5576  4.6036  0.6423
 3386SOL    HW211643   8.010   0.322   3.786  0.2369  1.4055  0.0890
 3387SOL     OW11644   7.358   0.237   1.008  0.0770 -0.5266 -0.1657
 3387SOL    HW111645   7.291   0.200   0.951 -0.8122  0.7951 -0.0135
 3387SOL    HW211646   7.414   0.288   0.949 -0.1374 -0.1368 -0.0339
 3388SOL     OW11647   0.639   0.501   6.819  0.2738 -0.3959 -0.4387
 3388SOL    HW111648   0.561   0.498   6.874 -0.3174  3.3881 -0.9492
 3388SOL    HW211649   0.712   0.503   6.880 -0.2565  1.0025  0.1568
 3389SOL     OW11650   2.131   8.034   3.358 -0.0962 -0.4118 -0.2207
 3389SOL    HW111651   2.117   8.024   3.264  0.9075  0.6118 -0.4975
 3389SOL    HW211652   2.090   8.118   3.379 -1.2321 -1.1212  0.4681
 3390SOL     OW11653   0.013   4.449   6.682 -0.0052 -0.1765 -0.7529
 3390SOL    HW111654  -0.012   4.367   6.639 -0.7270 -0.5667  0.3993
 3390SOL    HW211655   0.017   4.513   6.610 -1.7967 -0.6796 -1.3241
 3391SOL     OW11656   6.487   4.097   1.331  0.0979 -0.4611 -0.1161
 3391SOL    HW111657   6.415   4.123   1.389 -0.1457  0.7002 -0.9211
 3391SOL    HW211658   6.449   4.033   1.272 -0.1022 -0.3668 -0.0911
 3392SOL     OW11659   5.635   6.301   3.413  0.5121 -0.5200 -0.3867
 3392SOL    HW111660   5.639   6.322   3.507 -1.3018 -0.1150 -0.3826
 3392SOL    HW211661   5.652   6.384   3.369  2.9707 -1.0321 -0.4433
 3393SOL     OW11662   8.290   4.900   3.692 -0.6005 -0.2560  0.2410
 3393SOL    HW111663   8.353   4.829   3.678 -0.4232 -0.1219  0.3623
 3393SOL    HW211664   8.295   4.952   3.611 -0.9988 -0.5857 -0.0025
 3394SOL     OW11665   7.728   1.713   1.434  0.4697 -0.1905 -0.4115
 3394SOL    HW111666   7.737   1.627   1.474  0.4032  0.3466  0.7670
 3394SOL    HW211667   7.717   1.695   1.341  0.5271 -1.4520 -0.1796
 3395SOL     OW11668   1.743   7.761   1.897  0.7462  0.2132 -0.0595
 3395SOL    HW111669   1.792   7.739   1.976  1.1758  0.7878 -0.1580
 3395SOL    HW211670   1.761   7.854   1.884  0.3102  0.2246 -0.5787
 3396SOL     OW11671   2.543   4.826   5.524 -0.3033 -0.4323  0.5670
 3396SOL    HW111672   2.526   4.920   5.529 -1.1773 -0.4449 -1.6302
 3396SOL    HW211673   2.468   4.786   5.568 -1.0369 -0.1517 -0.4005
 3397SOL     OW11674   1.026   6.098   5.592 -0.0872 -0.1620  0.3099
 3397SOL    HW111675   1.056   6.026   5.648 -1.0120  0.7890  2.0613
 3397SOL    HW211676   0.931   6.090   5.592 -0.0844 -0.5940 -1.7670
 3398SOL     OW11677   3.228   0.448   4.401 -0.5498 -0.3576 -0.3556
 3398SOL    HW111678   3.303   0.414   4.353  0.2412 -1.1526  1.4081
 3398SOL    HW211679   3.218   0.538   4.370 -1.0627 -1.3449 -3.1629
 3399SOL     OW11680   6.119   1.875   3.161 -0.3725 -0.4286 -0.3563
 3399SOL    HW111681   6.024   1.863   3.153 -0.4141 -0.2875 -0.0626
 3399SOL    HW211682   6.129   1.939   3.231 -0.0908  0.1242 -0.9013
 3400SOL     OW11683   3.670   3.269   4.993  0.1570  0.1121 -0.4563
 3400SOL    HW111684   3.671   3.264   5.088  0.9531 -0.1045 -0.4704
 3400SOL    HW211685   3.596   3.326   4.972 -0.4739 -0.4401  0.2598
 3401SOL     OW11686   7.509   1.689   3.101 -0.0563  0.3486  0.5143
 3401SOL    HW111687   7.535   1.598   3.108  1.6137  0.8134  0.4713
 3401SOL    HW211688   7.413   1.687   3.111  0.0770 -1.2631  1.7407
 3402SOL     OW11689   1.627   4.415   5.934  0.0782 -0.0344 -0.4948
 3402SOL    HW111690   1.599   4.410   5.843  0.9182 -0.4378 -0.7361
 3402SOL    HW211691   1.641   4.324   5.960 -0.7152  0.0396  0.2188
 3403SOL     OW11692   0.385   2.286   4.786 -0.1710 -0.5523 -0.4324
 3403SOL    HW111693   0.417   2.208   4.742  0.1850 -0.3648 -0.5032
 3403SOL    HW211694   0.462   2.341   4.798 -0.0322 -1.1423  1.5435
 3404SOL     OW11695   1.618   6.444   1.069 -1.0797 -0.2054 -0.2311
 3404SOL    HW111696   1.701   6.417   1.108 -0.8464  0.3291 -0.3520
 3404SOL    HW211697   1.580   6.505   1.132 -0.3090  1.3043 -1.2106
 3405SOL     OW11698   2.368   4.746   2.473 -0.2126  0.1375  0.0725
 3405SOL    HW111699   2.401   4.823   2.519  0.9556 -0.8842  0.9837
 3405SOL    HW211700   2.432   4.731   2.403 -0.4194 -0.0284 -0.0801
 3406SOL     OW11701   1.287   3.246   7.006 -0.4407 -0.4842 -0.2486
 3406SOL    HW111702   1.342   3.273   7.080 -0.1237 -0.1254 -0.6131
 3406SOL    HW211703   1.221   3.314   6.998 -0.9521 -0.9189  0.1907
 3407SOL     OW11704   4.944   2.973   7.086  0.0158  0.1645  0.1822
 3407SOL    HW111705   4.944   2.975   7.182  1.2866  2.0662  0.1864
 3407SOL    HW211706   4.875   3.035   7.061  0.4759  0.5704 -0.1035
 3408SOL     OW11707   2.531   7.359   7.440  0.1683 -0.0167 -0.3764
 3408SOL    HW111708   2.614   7.347   7.394  0.4525 -0.8301  0.3361
 3408SOL    HW211709   2.539   7.306   7.519 -0.3535  1.2777  0.5690
 3409SOL     OW11710   7.351   4.384   2.777  0.9415 -0.1043  0.8199
 3409SOL    HW111711   7.311   4.360   2.860  1.0557 -0.1340  0.8661
 3409SOL    HW211712   7.382   4.301   2.740  0.5317 -0.1447  0.5590
 3410SOL     OW11713   6.281   1.304   5.795  0.1072  0.5477  0.6944
 3410SOL    HW111714   6.338   1.377   5.769 -0.1589  0.0920 -1.2443
 3410SOL    HW211715   6.308   1.283   5.885  1.4549  1.8111  0.5990
 3411SOL     OW11716   2.092   7.941   6.429 -0.0823 -0.0275 -0.3461
 3411SOL    HW111717   2.137   8.021   6.400 -0.0973  0.0123 -0.2587
 3411SOL    HW211718   2.088   7.887   6.351 -1.9124  0.9121 -0.9291
 3412SOL     OW11719   0.607   1.112   1.002 -0.2661  0.1106  0.3494
 3412SOL    HW111720   0.543   1.182   1.015  0.3751  0.7531  0.0980
 3412SOL    HW211721   0.681   1.155   0.958  0.1959 -0.6924  0.3276
 3413SOL     OW11722   2.642   0.412   7.838 -0.7334 -0.5697 -0.4363
 3413SOL    HW111723   2.698   0.486   7.817 -0.8252 -0.3806 -0.0172
 3413SOL    HW211724   2.578   0.447   7.900  0.6645 -1.5657  1.5935
 3414SOL     OW11725   5.202   2.945   3.645  0.0118 -0.3522  0.2864
 3414SOL    HW111726   5.217   3.025   3.594 -1.1083 -0.9341 -0.9903
 3414SOL    HW211727   5.141   2.972   3.714 -0.1456 -0.0529  0.0286
 3415SOL     OW11728   7.644   0.739   5.819 -0.6079 -0.1976  0.1573
 3415SOL    HW111729   7.701   0.665   5.795  0.0326  0.1808  0.5148
 3415SOL    HW211730   7.555   0.703   5.813 -0.2751 -1.2038  1.0245
 3416SOL     OW11731   3.286   3.917   6.702  0.4029 -0.7883 -0.2140
 3416SOL    HW111732   3.363   3.932   6.648  0.3050 -0.0704 -0.1593
 3416SOL    HW211733   3.252   3.833   6.673  1.6289 -1.4598  0.2680
 3417SOL     OW11734   4.910   2.970   3.589 -0.1536  0.0543  0.3491
 3417SOL    HW111735   4.833   3.016   3.621  1.9945  2.8306  1.6749
 3417SOL    HW211736   4.893   2.878   3.610 -2.5210  0.7744  1.7620
 3418SOL     OW11737   0.966   0.766   3.158 -0.0591  0.2397  0.2230
 3418SOL    HW111738   0.965   0.737   3.067  1.7043  1.8517 -0.3534
 3418SOL    HW211739   0.963   0.685   3.209 -0.0304 -0.7259 -1.2746
 3419SOL     OW11740   1.822   6.443   2.145 -0.2389  0.1556 -0.7261
 3419SOL    HW111741   1.732   6.472   2.163 -0.7681 -1.8188 -0.1461
 3419SOL    HW211742   1.830   6.448   2.050 -0.0550  2.8904 -0.6263
 3420SOL     OW11743   5.074   4.443   1.060 -0.1059  0.3053 -0.3981
 3420SOL    HW111744   5.154   4.390   1.057 -0.4156 -0.2157  0.3494
 3420SOL    HW211745   5.086   4.509   0.992  2.1315  1.8978  1.5123
 3421SOL     OW11746   3.283   1.654   0.247  0.0228  0.2093 -0.1038
 3421SOL    HW111747   3.191   1.671   0.225 -0.5657 -1.4494  0.9807
 3421SOL    HW211748   3.330   1.730   0.213 -1.7560  1.0877 -0.6699
 3422SOL     OW11749   5.803   6.781   3.097 -0.6200 -0.0909  0.4067
 3422SOL    HW111750   5.730   6.745   3.047 -0.3018  0.8785 -0.7672
 3422SOL    HW211751   5.787   6.875   3.099 -1.2650 -0.2129  3.1798
 3423SOL     OW11752   6.281   5.752   0.494  0.6215 -0.2012 -0.3127
 3423SOL    HW111753   6.328   5.674   0.523  2.0032  0.9699  0.6325
 3423SOL    HW211754   6.242   5.789   0.573 -1.9359 -1.1248 -1.0601
 3424SOL     OW11755   3.163   2.424   8.112 -0.2646  0.0110 -0.3298
 3424SOL    HW111756   3.207   2.509   8.112  0.8923 -0.5700  1.1530
 3424SOL    HW211757   3.071   2.445   8.097  0.2129  1.4030 -1.4325
 3425SOL     OW11758   6.194   1.532   6.239  0.2430  0.0601  0.1554
 3425SOL    HW111759   6.148   1.494   6.164 -0.0393 -1.5887  1.1270
 3425SOL    HW211760   6.127   1.578   6.288 -0.0315 -0.7868  0.5900
 3426SOL     OW11761   6.222   2.017   4.350 -0.5105  0.0710 -0.0911
 3426SOL    HW111762   6.229   2.001   4.444 -4.1741  1.6690  0.5608
 3426SOL    HW211763   6.240   2.110   4.340  1.2523 -0.3670 -1.2035
 3427SOL     OW11764   3.532   0.099   6.968 -0.0007 -0.0846 -0.0799
 3427SOL    HW111765   3.606   0.092   6.906  0.0388 -2.7942  0.1983
 3427SOL    HW211766   3.459   0.131   6.915  0.7003  0.1067 -0.9442
 3428SOL     OW11767   2.940   0.533   4.014  0.2110  0.2649 -0.2025
 3428SOL    HW111768   2.945   0.482   4.095  0.7035  0.3422 -0.1847
 3428SOL    HW211769   2.912   0.471   3.947 -0.6414  0.2990  0.1176
 3429SOL     OW11770   1.050   4.926   3.192 -0.4618 -0.1472  0.0110
 3429SOL    HW111771   1.096   4.873   3.127 -0.5061 -0.1648 -0.0056
 3429SOL    HW211772   1.098   5.008   3.195 -0.7365  0.0266 -0.3784
 3430SOL     OW11773   6.650   5.814   5.829  0.2180  0.4732 -0.2786
 3430SOL    HW111774   6.592   5.887   5.849 -0.1438  0.6942 -2.0219
 3430SOL    HW211775   6.738   5.852   5.831  0.0429  0.9221 -1.0230
 3431SOL     OW11776   0.965   3.895   7.624 -0.0866  0.1987  0.2165
 3431SOL    HW111777   1.049   3.922   7.661  0.2876 -0.8364  0.1274
 3431SOL    HW211778   0.952   3.806   7.655 -1.2747  0.4275  0.4234
 3432SOL     OW11779   3.326   7.811   3.776  0.5157  0.1930 -0.2263
 3432SOL    HW111780   3.354   7.733   3.824 -1.5636 -0.9224 -0.7695
 3432SOL    HW211781   3.297   7.778   3.691 -2.9165  1.1597  0.4884
 3433SOL     OW11782   3.889   5.029   4.130 -0.1101  0.1150 -0.3883
 3433SOL    HW111783   3.913   4.939   4.107 -1.8664  0.4041 -3.6194
 3433SOL    HW211784   3.959   5.082   4.092  0.6384  0.2086  1.0550
 3434SOL     OW11785   1.572   4.424   4.004  0.3684 -0.2796 -0.1161
 3434SOL    HW111786   1.659   4.455   4.031  1.2837 -1.8753 -1.1305
 3434SOL    HW211787   1.581   4.408   3.910 -1.1948  0.0487 -0.3287
 3435SOL     OW11788   1.309   7.907   6.997 -0.5178 -0.7705  0.6477
 3435SOL    HW111789   1.235   7.883   6.941 -1.0322 -0.3521  1.1460
 3435SOL    HW211790   1.271   7.962   7.065  0.3517 -0.0671  0.5709
 3436SOL     OW11791   2.855   7.340   3.749 -0.1219 -0.1889 -0.4491
 3436SOL    HW111792   2.932   7.330   3.804 -1.0321  1.3061  1.1551
 3436SOL    HW211793   2.793   7.275   3.783 -0.7816  0.9192  0.4671
 3437SOL     OW11794   2.156   0.937   0.308  0.6906  0.6467  0.3710
 3437SOL    HW111795   2.163   0.842   0.297  1.6173  0.8444 -0.8410
 3437SOL    HW211796   2.086   0.948   0.373  1.2533 -0.8904  1.2786
 3438SOL     OW11797   3.226   3.501   4.317  0.1377 -0.1886 -0.0569
 3438SOL    HW111798   3.321   3.496   4.305  0.1701 -0.0007  0.1132
 3438SOL    HW211799   3.189   3.469   4.234  0.3399 -2.1093  0.5641
 3439SOL     OW11800   2.075   0.780   1.244 -0.7008 -0.0624  0.4163
 3439SOL    HW111801   2.086   0.686   1.234  0.3536  0.2027 -0.9891
 3439SOL    HW211802   2.087   0.796   1.337  1.9723 -0.9498  0.2538
 3440SOL     OW11803   1.198   3.564   4.600 -0.9766  0.1679 -0.1303
 3440SOL    HW111804   1.112   3.541   4.564 -0.2472 -0.1896 -1.6647
 3440SOL    HW211805   1.259   3.504   4.558 -0.1007 -0.3356  1.8060
 3441SOL     OW11806   7.936   1.498   0.698  0.0569  0.7145 -0.6386
 3441SOL    HW111807   8.012   1.444   0.720  0.3932  0.4899 -2.2966
 3441SOL    HW211808   7.940   1.572   0.759  0.9536  0.1111  0.0413
 3442SOL     OW11809   2.521   5.482   4.492 -0.1423  0.0014 -0.2713
 3442SOL    HW111810   2.428   5.503   4.498 -1.0055 -3.2994 -1.3981
 3442SOL    HW211811   2.536   5.463   4.400  1.4185 -0.5678  0.0816
 3443SOL     OW11812   5.681   4.377   6.362 -0.1653  0.1084 -0.6895
 3443SOL    HW111813   5.775   4.382   6.342 -0.5776  2.6112 -2.1669
 3443SOL    HW211814   5.672   4.420   6.447 -0.3454  2.8371 -2.0211
 3444SOL     OW11815   6.391   0.852   0.339  0.7288  0.4676 -0.8245
 3444SOL    HW111816   6.403   0.760   0.312  2.3270  0.1437  0.8986
 3444SOL    HW211817   6.298   0.870   0.322  0.5038 -1.3247 -1.6167
 3445SOL     OW11818   0.820   6.463   6.401  0.2064 -0.1958  0.0047
 3445SOL    HW111819   0.767   6.533   6.362 -0.6173 -1.0723 -0.4578
 3445SOL    HW211820   0.795   6.464   6.494 -0.1690 -0.2065 -0.0943
 3446SOL     OW11821   5.825   3.599   6.558  0.7769 -0.2728  0.6429
 3446SOL    HW111822   5.851   3.659   6.489  3.2495 -0.6844  1.1488
 3446SOL    HW211823   5.752   3.642   6.602 -0.4029  0.2718 -1.8081
 3447SOL     OW11824   0.747   3.122   4.300 -0.1777 -0.2793 -0.0243
 3447SOL    HW111825   0.739   3.026   4.301 -2.7454 -0.1084 -0.7897
 3447SOL    HW211826   0.697   3.151   4.376  1.9241  0.4127  1.1286
 3448SOL     OW11827   6.396   7.990   6.573  0.2906  0.1358  0.0912
 3448SOL    HW111828   6.326   7.959   6.515 -0.0735  0.0734  0.5664
 3448SOL    HW211829   6.476   7.954   6.534  0.1729  1.1452 -1.0844
 3449SOL     OW11830   2.842   5.380   7.322 -0.3201 -0.1010  0.2135
 3449SOL    HW111831   2.818   5.326   7.247 -0.6921 -1.2624  1.1611
 3449SOL    HW211832   2.829   5.323   7.398  0.7895  0.8198  1.1030
 3450SOL     OW11833   1.222   8.064   4.172 -0.2216 -0.1570 -0.2413
 3450SOL    HW111834   1.196   8.047   4.081  0.6400 -1.2016 -0.2954
 3450SOL    HW211835   1.158   8.017   4.224 -1.1858  1.0791 -0.2724
 3451SOL     OW11836   2.256   0.325   2.741 -0.1144 -0.1581  0.0386
 3451SOL    HW111837   2.261   0.419   2.726 -0.4665 -0.3217 -1.1320
 3451SOL    HW211838   2.329   0.289   2.692 -0.3692 -0.5508 -0.0589
 3452SOL     OW11839   6.038   1.047   5.357 -0.0655  0.1531  0.5533
 3452SOL    HW111840   6.058   1.127   5.405  2.6286  0.4323 -0.9409
 3452SOL    HW211841   6.122   1.002   5.348 -1.0733 -1.5165 -0.9799
 3453SOL     OW11842   4.773   6.228   6.568 -0.6046  0.3321 -0.3194
 3453SOL    HW111843   4.806   6.143   6.538 -0.6499 -0.2385  1.2016
 3453SOL    HW211844   4.828   6.250   6.643 -0.1699  1.9711 -1.0971
 3454SOL     OW11845   4.512   7.055   4.197 -0.1685  0.2186 -0.0641
 3454SOL    HW111846   4.552   7.104   4.125  1.1394 -0.4203  0.2279
 3454SOL    HW211847   4.570   6.981   4.212 -0.5599  0.2087  1.4955
 3455SOL     OW11848   6.128   0.094   4.102  0.1625  0.0673 -0.2662
 3455SOL    HW111849   6.114   0.117   4.194  0.2464  0.8403 -0.4355
 3455SOL    HW211850   6.059   0.142   4.055  0.6042  0.3127 -0.6749
 3456SOL     OW11851   2.473   5.725   2.423  0.6247 -0.0190  0.1461
 3456SOL    HW111852   2.505   5.784   2.356 -0.4930 -0.5804 -0.9025
 3456SOL    HW211853   2.394   5.767   2.457 -0.8987 -1.4459 -1.4844
 3457SOL     OW11854   5.152   4.853   4.326 -0.0093  0.1913  0.4704
 3457SOL    HW111855   5.102   4.898   4.395 -0.5973 -1.1384  0.9412
 3457SOL    HW211856   5.229   4.908   4.312 -0.1011  0.7107  1.8910
 3458SOL     OW11857   2.374   0.131   6.058  0.3917 -0.1120 -0.1097
 3458SOL    HW111858   2.422   0.089   5.987 -0.4723 -1.8011  0.2653
 3458SOL    HW211859   2.287   0.149   6.022 -0.8332 -3.0830  1.1140
 3459SOL     OW11860   2.667   6.463   7.039 -0.5973 -0.6506 -0.6667
 3459SOL    HW111861   2.605   6.535   7.049  1.3754  0.9909  0.1164
 3459SOL    HW211862   2.650   6.429   6.952 -0.2084  2.1061 -1.8674
 3460SOL     OW11863   0.324   0.101   1.652 -0.2112 -0.3254 -0.0097
 3460SOL    HW111864   0.285   0.173   1.602  0.0697 -0.4693 -0.4398
 3460SOL    HW211865   0.312   0.024   1.596 -0.3827 -0.5867  0.3856
 3461SOL     OW11866   2.089   4.652   2.638 -0.7675 -0.0849  0.3722
 3461SOL    HW111867   2.128   4.626   2.554 -0.1234 -2.1845  1.2949
 3461SOL    HW211868   2.098   4.747   2.640  3.1155 -0.3519 -0.0921
 3462SOL     OW11869   5.922   1.493   1.141 -0.1448  0.1225 -0.0564
 3462SOL    HW111870   5.997   1.505   1.084 -0.2266 -2.0949 -0.6827
 3462SOL    HW211871   5.927   1.566   1.204  1.1428  1.3461 -1.5497
 3463SOL     OW11872   0.698   2.062   1.796  0.2265 -0.3568 -0.0244
 3463SOL    HW111873   0.747   1.999   1.744 -0.3216  0.1005 -1.0900
 3463SOL    HW211874   0.765   2.104   1.851  0.9717 -0.0474 -1.1562
 3464SOL     OW11875   4.290   2.942   0.305  0.2129 -0.3005 -0.0337
 3464SOL    HW111876   4.311   3.001   0.377  0.7111  0.0532 -0.4629
 3464SOL    HW211877   4.210   2.897   0.333  0.6547 -0.5016  0.9304
 3465SOL     OW11878   1.185   3.312   0.577  0.5320  0.4112 -0.1604
 3465SOL    HW111879   1.205   3.289   0.486  0.8075 -1.9034  0.4631
 3465SOL    HW211880   1.130   3.390   0.570  0.4027  0.1598 -2.3219
 3466SOL     OW11881   5.032   1.521   7.288  0.2879 -0.5263 -0.2668
 3466SOL    HW111882   5.043   1.606   7.246 -1.3973  0.8287  1.9224
 3466SOL    HW211883   4.943   1.524   7.325  0.4629 -2.9696  0.4176
 3467SOL     OW11884   4.356   6.747   6.163  0.3137 -0.5301 -0.2112
 3467SOL    HW111885   4.322   6.835   6.177  0.8418 -0.6463  1.9560
 3467SOL    HW211886   4.302   6.691   6.219  2.0462 -1.1371  0.8936
 3468SOL     OW11887   5.695   0.630   2.451  0.1116 -0.1052  0.0079
 3468SOL    HW111888   5.646   0.713   2.458 -1.0147 -0.6590 -1.1214
 3468SOL    HW211889   5.721   0.625   2.359  0.7087 -0.7180  0.2079
 3469SOL     OW11890   6.299   1.171   8.011 -0.3554 -0.2994 -0.5128
 3469SOL    HW111891   6.210   1.135   8.007 -0.5877  0.3609 -1.9624
 3469SOL    HW211892   6.294   1.240   8.077 -0.6646 -0.9644  0.1503
 3470SOL     OW11893   6.641   6.342   4.603  0.0613 -0.1057  0.2653
 3470SOL    HW111894   6.600   6.411   4.551 -1.5956 -1.2463  0.0043
 3470SOL    HW211895   6.687   6.288   4.540  0.3657  0.0964  0.3169
 3471SOL     OW11896   8.306   6.788   1.540 -0.2536 -0.3108 -0.3944
 3471SOL    HW111897   8.223   6.804   1.585  0.7277  0.6651  1.0979
 3471SOL    HW211898   8.281   6.738   1.462 -2.1257 -0.9288  0.5557
 3472SOL     OW11899   4.516   7.033   5.486  0.1674  0.7664 -0.5541
 3472SOL    HW111900   4.583   6.979   5.529  1.4476  2.0395 -0.8816
 3472SOL    HW211901   4.534   7.122   5.518 -1.7976  1.0409 -0.1508
 3473SOL     OW11902   0.149   2.447   3.936  0.4359  0.1763  0.3010
 3473SOL    HW111903   0.199   2.528   3.930 -0.6490  0.7585 -0.9740
 3473SOL    HW211904   0.184   2.392   3.866  0.2619  0.0392  0.3216
 3474SOL     OW11905   7.558   6.394   2.400  0.4085 -0.6396  0.3622
 3474SOL    HW111906   7.608   6.422   2.477  2.3560 -0.2267 -0.9922
 3474SOL    HW211907   7.575   6.300   2.393  0.4159 -0.6355  0.3230
 3475SOL     OW11908   7.673   2.538   3.284  0.2796  0.7286  0.5017
 3475SOL    HW111909   7.739   2.500   3.226 -0.0246  1.3425 -0.2481
 3475SOL    HW211910   7.706   2.519   3.372 -0.5322 -2.4891  0.1867
 3476SOL     OW11911   1.086   8.145   7.956  0.0164 -0.0088 -0.4788
 3476SOL    HW111912   1.093   8.164   7.863 -3.0087 -0.1683 -0.7800
 3476SOL    HW211913   1.049   8.057   7.960 -0.8538  0.3990  0.8615
 3477SOL     OW11914   5.855   0.685   7.632 -0.0475 -0.2316 -0.3216
 3477SOL    HW111915   5.886   0.762   7.584 -0.2038  0.4188  0.6083
 3477SOL    HW211916   5.866   0.612   7.571  0.6126  0.4465 -1.0137
 3478SOL     OW11917   5.692   1.362   2.411 -0.2531  0.2863 -0.2223
 3478SOL    HW111918   5.684   1.333   2.502 -0.6835 -1.5130 -0.8141
 3478SOL    HW211919   5.779   1.333   2.383 -0.2722  0.4943 -0.5100
 3479SOL     OW11920   1.528   6.895   4.118 -0.7997 -0.2499 -0.1213
 3479SOL    HW111921   1.503   6.897   4.211 -1.4954 -0.8294 -0.2894
 3479SOL    HW211922   1.444   6.891   4.072 -0.4457 -0.0975 -0.7711
 3480SOL     OW11923   7.846   8.312   5.837 -0.3054  0.1424 -0.2943
 3480SOL    HW111924   7.763   8.318   5.791 -1.3605 -0.4441  1.4713
 3480SOL    HW211925   7.862   8.218   5.847  1.8912  0.1825 -2.8851
 3481SOL     OW11926   7.783   7.295   0.330 -0.5350 -0.6884  0.2401
 3481SOL    HW111927   7.711   7.355   0.347  0.5338  0.5540  0.4601
 3481SOL    HW211928   7.857   7.333   0.378  0.6016 -1.2257 -1.0671
 3482SOL     OW11929   2.839   1.003   5.550  0.6541  0.0850 -0.2596
 3482SOL    HW111930   2.779   0.929   5.562 -0.5012  0.9313 -0.7300
 3482SOL    HW211931   2.784   1.080   5.558  1.7694  0.8939 -0.2733
 3483SOL     OW11932   4.070   7.908   6.685 -0.0994  0.1929  0.1938
 3483SOL    HW111933   4.014   7.963   6.630  1.3230 -0.8142 -2.3640
 3483SOL    HW211934   4.011   7.870   6.749 -1.1941  4.3158  1.7612
 3484SOL     OW11935   1.179   3.713   1.548 -0.1612  0.4881  0.6231
 3484SOL    HW111936   1.157   3.798   1.586 -1.0129  0.3524  0.4421
 3484SOL    HW211937   1.210   3.734   1.460 -0.5837  0.6012  0.4965
 3485SOL     OW11938   0.286   3.129   4.344 -0.3462 -0.0764  0.5814
 3485SOL    HW111939   0.357   3.079   4.384  0.1702  0.9103  0.9079
 3485SOL    HW211940   0.286   3.213   4.391 -1.9782 -0.2110  0.8548
 3486SOL     OW11941   0.580   7.194   3.051 -0.3232  0.0549 -0.1552
 3486SOL    HW111942   0.673   7.180   3.036 -0.6137 -4.5039  1.4049
 3486SOL    HW211943   0.574   7.277   3.098  2.9912  0.0946  0.2496
 3487SOL     OW11944   0.315   4.806   0.587  0.1747 -0.4159  0.1622
 3487SOL    HW111945   0.255   4.732   0.594  0.7688 -0.8877  0.3293
 3487SOL    HW211946   0.260   4.883   0.604 -0.4111 -0.8267  0.1508
 3488SOL     OW11947   8.299   0.499   1.845 -0.0557  0.0080 -0.3888
 3488SOL    HW111948   8.295   0.593   1.829  0.8087 -0.0033 -0.7142
 3488SOL    HW211949   8.208   0.471   1.849 -0.4223  1.3402  2.5201
 3489SOL     OW11950   0.911   1.302   3.900  0.1849 -0.1597  0.3108
 3489SOL    HW111951   0.834   1.249   3.878 -0.6023  1.4444 -0.8779
 3489SOL    HW211952   0.976   1.277   3.835  0.6190 -1.3986  1.2150
 3490SOL     OW11953   8.235   0.982   7.360 -0.3158  0.1360 -0.0728
 3490SOL    HW111954   8.200   1.037   7.430  0.6181  0.7835 -0.0973
 3490SOL    HW211955   8.204   1.024   7.280  0.4192  0.6641 -0.0922
 3491SOL     OW11956   7.987   3.742   7.921  0.5460 -0.0092 -0.1101
 3491SOL    HW111957   8.057   3.677   7.916 -0.2074 -0.7569 -1.2850
 3491SOL    HW211958   7.988   3.772   8.012  2.1452 -0.2681 -0.0264
 3492SOL     OW11959   4.197   2.473   4.534 -0.2567  0.3741 -0.1200
 3492SOL    HW111960   4.102   2.480   4.545 -0.2196 -0.6251  0.9978
 3492SOL    HW211961   4.233   2.515   4.612  0.1293 -2.3140  1.2163
 3493SOL     OW11962   4.106   6.030   2.223  0.6275 -0.8506 -0.1935
 3493SOL    HW111963   4.075   5.997   2.307 -0.6584  2.0666  0.5417
 3493SOL    HW211964   4.043   6.098   2.199  2.6846  0.4863 -1.9881
 3494SOL     OW11965   5.770   1.086   2.628  0.7001  0.3038 -0.0434
 3494SOL    HW111966   5.718   1.013   2.661 -1.2794  1.1304 -1.2029
 3494SOL    HW211967   5.722   1.164   2.656  1.9284  1.1248 -0.1849
 3495SOL     OW11968   0.073   5.756   4.618  0.0005  0.9515 -0.1052
 3495SOL    HW111969   0.134   5.823   4.587 -0.3186  1.4091  0.2413
 3495SOL    HW211970  -0.009   5.804   4.633  0.2440  0.8053  1.7476
 3496SOL     OW11971   4.121   1.376   4.549  0.3317  0.2162 -0.5762
 3496SOL    HW111972   4.149   1.462   4.516  2.1074 -0.5141 -1.0289
 3496SOL    HW211973   4.172   1.363   4.629  2.4038 -1.7319 -2.1381
 3497SOL     OW11974   6.560   6.882   6.446  0.3950 -0.0870 -0.1680
 3497SOL    HW111975   6.554   6.951   6.512  2.1266  0.3637 -0.4521
 3497SOL    HW211976   6.543   6.926   6.363 -0.7639 -0.4548 -0.1300
 3498SOL     OW11977   2.493   5.144   2.809 -0.3414 -0.3705 -0.0288
 3498SOL    HW111978   2.481   5.100   2.893  0.2009 -2.1632 -0.8732
 3498SOL    HW211979   2.587   5.138   2.792 -0.4013  0.2623 -0.6258
 3499SOL     OW11980   3.445   4.380   8.212 -0.5264 -0.0969  0.0423
 3499SOL    HW111981   3.362   4.341   8.240 -0.8000  0.5821  0.1788
 3499SOL    HW211982   3.445   4.467   8.251  0.5694 -0.3494  0.6106
 3500SOL     OW11983   6.696   6.250   7.710 -0.2805 -0.3311  0.3660
 3500SOL    HW111984   6.787   6.234   7.734 -0.2769 -1.4531 -0.3476
 3500SOL    HW211985   6.646   6.208   7.780 -0.2605 -2.6561 -0.9605
 3501SOL     OW11986   3.670   7.613   0.705  0.0695 -0.3016 -0.2798
 3501SOL    HW111987   3.715   7.539   0.746 -0.8649  0.0351  1.4258
 3501SOL    HW211988   3.620   7.574   0.634 -0.5586 -1.3658  0.7137
 3502SOL     OW11989   2.712   7.219   5.574  0.0259 -0.5282 -0.5467
 3502SOL    HW111990   2.640   7.172   5.531 -0.0537  0.1851 -1.2021
 3502SOL    HW211991   2.727   7.171   5.655 -0.4509 -1.3414 -0.9314
 3503SOL     OW11992   0.534   6.988   3.242 -0.2615 -0.0842  0.3839
 3503SOL    HW111993   0.483   6.917   3.204  0.7794 -0.5327 -0.1761
 3503SOL    HW211994   0.542   7.053   3.172 -0.2485  0.0925  0.5459
 3504SOL     OW11995   0.375   0.869   7.404  0.3879  0.1854 -0.0302
 3504SOL    HW111996   0.334   0.820   7.333  1.7451 -0.0483 -0.6557
 3504SOL    HW211997   0.445   0.812   7.436  0.8153  0.9567  0.4303
 3505SOL     OW11998   3.924   6.207   2.503 -1.0300  0.0364  0.6140
 3505SOL    HW111999   3.839   6.227   2.463 -0.8600 -0.0939  0.1868
 3505SOL    HW212000   3.944   6.118   2.474  0.0787  0.7061 -0.7351
 3506SOL     OW12001   3.489   8.110   4.339  0.4298  0.2437 -0.2475
 3506SOL    HW112002   3.481   8.080   4.249  1.4210 -1.0426  0.0882
 3506SOL    HW212003   3.450   8.040   4.391  2.4131 -0.3263  0.5140
 3507SOL     OW12004   2.459   6.124   6.459  0.5929 -0.0595  0.0506
 3507SOL    HW112005   2.416   6.133   6.544 -1.7990 -0.2784 -1.1033
 3507SOL    HW212006   2.521   6.196   6.456 -0.3841  0.8555  1.3836
 3508SOL     OW12007   3.248   5.612   0.096  0.2950  0.1558  0.2648
 3508SOL    HW112008   3.224   5.700   0.124  0.9337  0.6789 -0.7788
 3508SOL    HW212009   3.164   5.567   0.083 -0.3319  2.3745 -4.6605
 3509SOL     OW12010   7.103   6.083   3.384 -0.5335 -0.1013  0.2695
 3509SOL    HW112011   7.193   6.083   3.352 -0.4988  0.8052  0.3614
 3509SOL    HW212012   7.049   6.086   3.305 -0.4880 -0.5001  0.2195
 3510SOL     OW12013   0.940   1.585   1.129  0.5952  0.6417  0.1832
 3510SOL    HW112014   0.890   1.638   1.067  1.9578  1.5030 -0.1988
 3510SOL    HW212015   0.877   1.521   1.162 -0.5124  1.0913 -1.0110
 3511SOL     OW12016   7.952   7.833   6.695  0.2203  0.0454  0.1973
 3511SOL    HW112017   7.884   7.800   6.637 -0.4657  0.4602  0.7623
 3511SOL    HW212018   7.981   7.756   6.744 -0.6395  0.0805  0.7653
 3512SOL     OW12019   4.773   1.182   3.610  0.0838  0.3239  0.6481
 3512SOL    HW112020   4.697   1.161   3.665 -1.2104 -0.9652 -1.5612
 3512SOL    HW212021   4.736   1.225   3.533  1.6703  0.3583 -0.1141
 3513SOL     OW12022   1.618   5.901   8.250 -0.1574 -0.3469  0.4724
 3513SOL    HW112023   1.559   5.942   8.313  0.7042 -0.7279  1.5314
 3513SOL    HW212024   1.678   5.971   8.225 -1.7448  0.3638 -1.4912
 3514SOL     OW12025   6.634   7.420   2.699 -0.1442 -0.0761 -1.0332
 3514SOL    HW112026   6.639   7.329   2.667 -2.9760  0.2424 -2.5359
 3514SOL    HW212027   6.720   7.436   2.736  0.3996 -3.4275 -0.6339
 3515SOL     OW12028   0.283   6.059   3.238 -0.3401 -0.9720 -0.1663
 3515SOL    HW112029   0.271   6.001   3.313 -1.5484 -2.3134 -1.3447
 3515SOL    HW212030   0.296   6.000   3.164  0.0487  0.2995 -1.1371
 3516SOL     OW12031   0.331   5.892   0.851  0.5575 -0.1709  0.5691
 3516SOL    HW112032   0.389   5.857   0.919  0.4673  0.1139  0.7943
 3516SOL    HW212033   0.306   5.815   0.799  2.1151 -0.1056 -0.2869
 3517SOL     OW12034   3.591   1.560   0.671  0.4204  0.2593 -0.0553
 3517SOL    HW112035   3.563   1.473   0.702  0.4987 -0.7620 -2.6837
 3517SOL    HW212036   3.511   1.601   0.639  0.1397  1.7649  2.4516
 3518SOL     OW12037   0.669   3.176   6.524  0.1589 -0.0405 -0.2792
 3518SOL    HW112038   0.574   3.179   6.531 -0.1145  0.0201 -3.5621
 3518SOL    HW212039   0.689   3.084   6.509  0.6245 -0.0452  0.3446
 3519SOL     OW12040   5.280   2.999   0.498 -0.4228 -0.0657 -0.0615
 3519SOL    HW112041   5.188   3.028   0.502 -0.5260 -0.1836 -1.3576
 3519SOL    HW212042   5.317   3.049   0.426  0.1102 -1.2012 -0.5739
 3520SOL     OW12043   3.142   3.046   0.938 -0.2233 -0.2652  0.9512
 3520SOL    HW112044   3.051   3.056   0.909  0.0127 -0.4503  0.1313
 3520SOL    HW212045   3.176   2.975   0.884  0.8781  0.8647  0.1410
 3521SOL     OW12046   0.346   0.130   4.258  0.1812  0.2554  0.3639
 3521SOL    HW112047   0.305   0.061   4.205 -0.2980  1.9476 -1.5353
 3521SOL    HW212048   0.429   0.092   4.287  0.0116 -1.0537 -0.8079
 3522SOL     OW12049   3.745   0.825   5.320  0.0892 -0.1831  0.3886
 3522SOL    HW112050   3.819   0.817   5.259 -0.1621 -1.2171  0.2140
 3522SOL    HW212051   3.679   0.765   5.286 -1.3124  1.6313 -0.1319
 3523SOL     OW12052   0.735   6.777   4.659 -0.1270 -0.2948 -0.3530
 3523SOL    HW112053   0.780   6.719   4.597 -2.0359 -1.1612 -0.9777
 3523SOL    HW212054   0.738   6.730   4.742 -0.2260 -0.5372 -0.4852
 3524SOL     OW12055   1.370   0.302   4.775 -0.4635 -0.0828 -0.2816
 3524SOL    HW112056   1.422   0.221   4.780 -0.6710 -0.2093 -0.1592
 3524SOL    HW212057   1.421   0.359   4.717 -0.7012 -0.5857 -0.9906
 3525SOL     OW12058   2.272   5.105   6.920  0.1539  0.2137  0.2361
 3525SOL    HW112059   2.267   5.194   6.953 -0.2234  0.7620 -1.2508
 3525SOL    HW212060   2.185   5.068   6.935 -0.6047  1.0924 -1.8277
 3526SOL     OW12061   5.031   4.915   5.286 -0.2365 -0.6600  0.4581
 3526SOL    HW112062   4.971   4.986   5.262 -0.9649 -1.3347  0.2583
 3526SOL    HW212063   4.991   4.836   5.249  0.6054 -1.1698  0.6154
 3527SOL     OW12064   5.329   0.300   7.963  0.4532  0.0416 -0.8003
 3527SOL    HW112065   5.289   0.228   8.012  1.5017 -0.1358 -0.1909
 3527SOL    HW212066   5.413   0.314   8.006 -0.3904  2.6874  0.0831
 3528SOL     OW12067   7.511   0.531   4.541  0.0176 -0.3723  0.6109
 3528SOL    HW112068   7.439   0.552   4.600  0.1370 -0.5164  0.8082
 3528SOL    HW212069   7.482   0.452   4.495 -1.1998  1.2273 -1.4367
 3529SOL     OW12070   3.120   6.837   3.576  0.0704  0.1586 -0.3329
 3529SOL    HW112071   3.149   6.890   3.651  4.4638 -1.3669 -0.7899
 3529SOL    HW212072   3.120   6.747   3.609  2.6669 -0.6061 -2.2066
 3530SOL     OW12073   5.649   6.164   7.506  0.6664 -0.2750 -0.0386
 3530SOL    HW112074   5.710   6.238   7.502  1.4706 -1.0377 -2.0487
 3530SOL    HW212075   5.700   6.094   7.546  0.6265 -0.4523 -0.3005
 3531SOL     OW12076   6.017   4.673   3.549  0.6470  0.0413 -0.1115
 3531SOL    HW112077   5.990   4.700   3.461 -0.6919 -0.0949  0.2467
 3531SOL    HW212078   6.065   4.592   3.536 -0.0291 -0.2729 -0.6651
 3532SOL     OW12079   6.840   2.816   1.152 -0.4745  0.2381 -0.1207
 3532SOL    HW112080   6.836   2.721   1.157  1.3161  0.2096  1.2596
 3532SOL    HW212081   6.896   2.834   1.077  0.2221  0.1905  0.3900
 3533SOL     OW12082   7.398   1.414   0.969 -0.0257 -0.1734  0.2306
 3533SOL    HW112083   7.416   1.473   0.895 -0.4670 -0.7287 -0.3217
 3533SOL    HW212084   7.478   1.363   0.979 -0.3206 -0.7818 -0.5011
 3534SOL     OW12085   0.406   4.469   3.408  0.0144  0.5620  0.1953
 3534SOL    HW112086   0.395   4.462   3.502 -0.2422 -0.4363  0.0941
 3534SOL    HW212087   0.342   4.534   3.380 -2.3227 -1.6665  0.2466
 3535SOL     OW12088   0.034   7.737   1.651 -0.2763  0.1275  0.1332
 3535SOL    HW112089   0.068   7.776   1.732 -0.5009 -0.9345  0.7498
 3535SOL    HW212090   0.062   7.645   1.656  1.0049  0.3881 -1.7114
 3536SOL     OW12091   4.728   3.011   5.721  0.1791 -0.6159  0.3060
 3536SOL    HW112092   4.809   2.961   5.711  1.1240  0.4607  2.3138
 3536SOL    HW212093   4.756   3.102   5.719 -1.2753 -0.1738 -1.2228
 3537SOL     OW12094   0.612   0.903   4.287  0.0735 -0.0414  0.2347
 3537SOL    HW112095   0.538   0.845   4.272 -0.6021  0.6787  0.7297
 3537SOL    HW212096   0.573   0.984   4.321  1.1437  0.0494  1.2894
 3538SOL     OW12097   7.584   5.986   4.084 -0.3617 -0.2524  0.1530
 3538SOL    HW112098   7.587   5.892   4.070  0.0648 -0.3142  0.6542
 3538SOL    HW212099   7.674   6.011   4.105 -0.5770  0.1771  0.5896
 3539SOL     OW12100   6.812   5.541   1.850  0.1202 -0.0919  0.1775
 3539SOL    HW112101   6.854   5.573   1.930 -1.8800 -0.3805  1.3745
 3539SOL    HW212102   6.788   5.451   1.871  1.9113 -1.0460 -1.6904
 3540SOL     OW12103   6.298   5.162   2.348 -0.6303  0.0425  0.1223
 3540SOL    HW112104   6.269   5.181   2.259 -1.4808  0.8589  0.5723
 3540SOL    HW212105   6.265   5.074   2.366  0.2292 -0.4491 -0.6525
 3541SOL     OW12106   1.981   0.841   6.308 -0.1248  0.6512  0.1330
 3541SOL    HW112107   1.964   0.754   6.345 -1.2947  0.0333 -1.7808
 3541SOL    HW212108   1.897   0.886   6.311 -0.1635  0.7085 -1.4213
 3542SOL     OW12109   7.215   7.081   6.465 -0.1837 -0.0772  0.7227
 3542SOL    HW112110   7.286   7.093   6.528 -0.8537  0.9451  1.2951
 3542SOL    HW212111   7.155   7.021   6.508 -0.0491 -0.3294  0.5599
 3543SOL     OW12112   5.375   2.407   5.485 -0.0479  0.1901 -0.1072
 3543SOL    HW112113   5.325   2.488   5.490 -0.8632 -0.2647 -0.7477
 3543SOL    HW212114   5.318   2.341   5.525 -0.4321 -0.5537 -1.8523
 3544SOL     OW12115   7.200   0.920   2.135 -0.3371 -0.2662 -0.3078
 3544SOL    HW112116   7.109   0.931   2.108 -1.1019 -1.2933  1.7322
 3544SOL    HW212117   7.194   0.883   2.223  2.0561  0.1894  0.0736
 3545SOL     OW12118   2.286   3.885   0.201 -0.6049 -0.0097 -0.3538
 3545SOL    HW112119   2.250   3.834   0.128 -1.2980  2.1999 -1.6148
 3545SOL    HW212120   2.212   3.937   0.233  0.4923  1.5510 -0.2966
 3546SOL     OW12121   4.458   6.711   3.483  0.0281 -0.2640  0.3520
 3546SOL    HW112122   4.400   6.787   3.479 -0.1464 -0.2634  2.1532
 3546SOL    HW212123   4.534   6.736   3.431 -0.4950  0.7348  0.0486
 3547SOL     OW12124   6.517   1.088   6.189 -0.6596  0.0617 -0.3766
 3547SOL    HW112125   6.478   1.070   6.274 -2.0107  0.4838 -0.9071
 3547SOL    HW212126   6.607   1.056   6.198 -1.4116 -1.8895  0.4848
 3548SOL     OW12127   3.805   3.301   2.471  0.4387 -0.0336  0.2772
 3548SOL    HW112128   3.714   3.303   2.441 -0.7956  0.9569  3.8017
 3548SOL    HW212129   3.855   3.334   2.396 -2.4837  2.7511 -0.5807
 3549SOL     OW12130   4.280   3.401   5.092  0.4087 -0.2870  0.4295
 3549SOL    HW112131   4.375   3.408   5.105  0.1658 -1.0985  3.1213
 3549SOL    HW212132   4.244   3.475   5.142 -0.3901 -0.1948 -0.2819
 3550SOL     OW12133   7.632   5.982   3.096 -0.1598  1.0597 -0.1219
 3550SOL    HW112134   7.665   5.937   3.018  1.1597  1.7370  0.0368
 3550SOL    HW212135   7.645   6.075   3.078  0.2874  1.2135  0.9669
 3551SOL     OW12136   8.287   4.144   5.915 -0.1423 -0.1935  0.3668
 3551SOL    HW112137   8.229   4.180   5.847  0.7262  1.2404  0.3665
 3551SOL    HW212138   8.297   4.215   5.978  0.9891 -0.6998  0.7699
 3552SOL     OW12139   5.726   2.650   5.493  1.0619  0.1141 -0.1468
 3552SOL    HW112140   5.803   2.601   5.521  1.9094  0.9469 -0.9831
 3552SOL    HW212141   5.653   2.590   5.507  1.9574 -0.9829 -0.1193
 3553SOL     OW12142   7.191   4.934   4.377 -0.1980 -0.1867  0.4061
 3553SOL    HW112143   7.128   4.864   4.362 -0.7640  0.4827 -0.3996
 3553SOL    HW212144   7.183   4.954   4.470 -2.4335  1.0568 -0.0072
 3554SOL     OW12145   3.685   4.431   6.618  0.7294  0.7185  0.7669
 3554SOL    HW112146   3.607   4.432   6.673  0.6055 -0.4558  0.6175
 3554SOL    HW212147   3.744   4.369   6.660  0.8165  0.1688 -0.1536
 3555SOL     OW12148   6.945   1.997   2.661 -0.0204  0.1810  0.1179
 3555SOL    HW112149   6.909   2.058   2.597 -0.0501  1.0149  0.9308
 3555SOL    HW212150   6.901   1.914   2.642  0.1708  0.3570 -1.1154
 3556SOL     OW12151   3.650   4.164   8.238 -0.3091  0.7085  0.4792
 3556SOL    HW112152   3.581   4.231   8.240 -0.7360  0.2781  0.2495
 3556SOL    HW212153   3.622   4.103   8.170  0.0161  0.2297  0.7733
 3557SOL     OW12154   6.620   6.111   5.668  0.0264 -0.6089  0.0589
 3557SOL    HW112155   6.572   6.068   5.598 -0.8336  0.0461  0.2347
 3557SOL    HW212156   6.584   6.074   5.749 -0.3785  0.0709  0.1970
 3558SOL     OW12157   0.009   1.957   1.812 -0.6585  0.4680  0.9396
 3558SOL    HW112158   0.100   1.971   1.785 -0.3309 -0.0688  1.7259
 3558SOL    HW212159  -0.036   2.039   1.792 -0.0970  0.5805  0.1393
 3559SOL     OW12160   2.503   4.352   6.992  0.5307  0.6411 -0.3924
 3559SOL    HW112161   2.502   4.446   7.008 -4.4240  0.6525 -0.0187
 3559SOL    HW212162   2.499   4.344   6.896 -3.3630  0.9717 -0.3432
 3560SOL     OW12163   4.330   2.185   3.193  0.5299  0.0147  0.6730
 3560SOL    HW112164   4.280   2.250   3.242 -1.5074 -0.6814 -0.4449
 3560SOL    HW212165   4.320   2.105   3.244  0.4017 -0.1528  0.3818
 3561SOL     OW12166   1.920   4.187   5.811  0.5824  0.1116 -0.1725
 3561SOL    HW112167   1.844   4.172   5.867 -1.1149 -1.8543 -2.8951
 3561SOL    HW212168   1.963   4.102   5.805  1.8969  0.7635 -0.2672
 3562SOL     OW12169   1.701   4.572   4.665  0.4857 -0.2443 -0.0872
 3562SOL    HW112170   1.697   4.562   4.760  1.0861  2.1984  0.2387
 3562SOL    HW212171   1.625   4.626   4.643  2.0194  1.8126 -0.5623
 3563SOL     OW12172   1.548   3.526   2.457  0.6751 -0.3506  0.4237
 3563SOL    HW112173   1.583   3.571   2.380  0.1224 -0.5230  0.0660
 3563SOL    HW212174   1.625   3.502   2.508  1.0270  0.1260  0.1273
 3564SOL     OW12175   1.449   3.140   2.924  0.0278 -0.9272 -0.1230
 3564SOL    HW112176   1.357   3.149   2.898  0.4166  0.6239 -1.0472
 3564SOL    HW212177   1.494   3.114   2.844  0.3171 -2.2278  0.4588
 3565SOL     OW12178   2.142   4.694   3.521 -0.0400  0.0412 -0.0018
 3565SOL    HW112179   2.062   4.690   3.469 -1.4790 -0.1683  2.1478
 3565SOL    HW212180   2.136   4.777   3.568  1.6718  0.6530 -0.8236
 3566SOL     OW12181   0.419   7.425   4.553  0.2378  0.0293 -0.2688
 3566SOL    HW112182   0.468   7.397   4.631  0.1019 -0.0096 -0.1979
 3566SOL    HW212183   0.485   7.468   4.498  0.0777  1.1352  0.4013
 3567SOL     OW12184   4.706   6.612   4.125  0.4848  0.4915 -0.3100
 3567SOL    HW112185   4.650   6.563   4.064 -0.0685  0.3351  0.3215
 3567SOL    HW212186   4.727   6.549   4.194  0.6371  0.8350 -0.0429
 3568SOL     OW12187   7.731   1.666   3.373 -0.3369 -0.0940  0.6163
 3568SOL    HW112188   7.655   1.610   3.363 -0.0632 -0.4401  0.4659
 3568SOL    HW212189   7.784   1.623   3.441  0.3127 -0.5043 -0.1492
 3569SOL     OW12190   3.923   0.226   2.503  0.4775 -0.4819 -0.3252
 3569SOL    HW112191   4.004   0.204   2.548  1.2540 -0.0414 -1.4765
 3569SOL    HW212192   3.939   0.314   2.467  0.0070 -0.9379 -1.7007
 3570SOL     OW12193   2.348   6.420   2.483 -0.2727  0.0221 -0.0300
 3570SOL    HW112194   2.259   6.440   2.455  0.1362  0.6927 -0.8613
 3570SOL    HW212195   2.354   6.325   2.477 -0.5097  0.0815 -1.2409
 3571SOL     OW12196   6.877   3.581   2.958 -0.0461  0.3450  0.0678
 3571SOL    HW112197   6.810   3.526   2.999  0.7316 -0.7562 -0.1376
 3571SOL    HW212198   6.932   3.610   3.031  1.2201 -1.4540 -0.1384
 3572SOL     OW12199   6.323   4.814   2.620 -0.2587 -0.5721 -1.0237
 3572SOL    HW112200   6.314   4.905   2.595 -1.4997 -0.5460 -0.4955
 3572SOL    HW212201   6.332   4.816   2.716  1.2054 -0.9070 -1.1339
 3573SOL     OW12202   4.267   2.372   6.625  0.0130 -0.5670  0.0738
 3573SOL    HW112203   4.196   2.342   6.683  0.2934 -0.9778  0.2030
 3573SOL    HW212204   4.342   2.318   6.649  0.6476  0.5541  0.6248
 3574SOL     OW12205   6.149   4.132   6.515 -0.0003 -0.3361 -0.1595
 3574SOL    HW112206   6.130   4.083   6.435  0.5058  0.8561 -1.0158
 3574SOL    HW212207   6.174   4.064   6.578  0.8805 -1.1787 -1.3796
 3575SOL     OW12208   1.803   3.479   6.807  0.0805  0.3227 -0.0485
 3575SOL    HW112209   1.878   3.473   6.866 -0.9823  3.2048  1.7397
 3575SOL    HW212210   1.734   3.429   6.852  0.4152 -0.8833 -0.8558
 3576SOL     OW12211   0.939   6.287   6.236  0.2505  1.0340  0.0502
 3576SOL    HW112212   0.906   6.204   6.268  0.4049  0.7024 -0.6503
 3576SOL    HW212213   0.899   6.353   6.294  0.4654  0.4484  0.8625
 3577SOL     OW12214   5.765   7.343   2.170 -0.1938 -0.4310  0.5395
 3577SOL    HW112215   5.700   7.370   2.106  2.9160  0.7286 -2.2495
 3577SOL    HW212216   5.781   7.421   2.223  0.2715 -0.1954  0.0478
 3578SOL     OW12217   5.286   8.113   7.045 -0.1377  0.2619 -0.2591
 3578SOL    HW112218   5.345   8.181   7.015  1.5556 -1.9475 -2.0595
 3578SOL    HW212219   5.340   8.057   7.102 -0.6890 -1.2945 -1.2374
 3579SOL     OW12220   0.007   6.070   3.987 -0.1114  0.2412  0.1632
 3579SOL    HW112221   0.067   6.009   4.029 -0.9970 -1.4879 -1.0167
 3579SOL    HW212222   0.031   6.067   3.895 -1.7120 -0.1539 -0.2523
 3580SOL     OW12223   4.927   2.519   1.104  0.4086  0.0733 -0.0856
 3580SOL    HW112224   4.918   2.447   1.041 -0.4637  0.9108 -0.9319
 3580SOL    HW212225   4.912   2.478   1.190  2.1189 -1.1747 -0.3609
 3581SOL     OW12226   4.664   0.714   8.217  0.0741 -0.6459 -0.0331
 3581SOL    HW112227   4.735   0.700   8.279 -0.0552 -2.3262 -0.2429
 3581SOL    HW212228   4.706   0.708   8.131 -0.1499 -0.6454 -0.1430
 3582SOL     OW12229   7.266   6.625   0.089 -0.0383  0.3002 -0.1877
 3582SOL    HW112230   7.354   6.654   0.065 -0.5012  3.3876  1.5744
 3582SOL    HW212231   7.281   6.544   0.138  1.6265 -0.4024 -1.7724
 3583SOL     OW12232   7.677   1.134   1.318  0.0726 -0.1189  0.5041
 3583SOL    HW112233   7.696   1.084   1.397 -1.2428 -0.0801  0.8410
 3583SOL    HW212234   7.599   1.093   1.281 -1.3117  1.9954  1.0482
 3584SOL     OW12235   8.078   5.810   1.723 -0.1754  0.1451 -0.4644
 3584SOL    HW112236   8.056   5.728   1.680 -0.4293 -0.5254  0.9029
 3584SOL    HW212237   8.071   5.877   1.655  1.2763 -1.1242 -1.9024
 3585SOL     OW12238   7.057   3.404   3.795 -0.2052 -0.1116  0.5112
 3585SOL    HW112239   7.046   3.313   3.766 -1.9795  0.0850  0.4971
 3585SOL    HW212240   7.144   3.429   3.765 -1.6684 -0.1267 -4.0294
 3586SOL     OW12241   2.564   7.412   5.862 -0.6446  0.3993 -0.0164
 3586SOL    HW112242   2.487   7.453   5.822 -1.3487  0.0540  0.9380
 3586SOL    HW212243   2.527   7.351   5.927  0.3995 -1.0254 -0.7401
 3587SOL     OW12244   4.193   0.179   2.571 -0.0257  0.6733  0.4053
 3587SOL    HW112245   4.177   0.178   2.476  1.1040  1.6933  0.1921
 3587SOL    HW212246   4.278   0.136   2.581 -0.2179  0.4302  0.9650
 3588SOL     OW12247   4.973   0.285   6.362  0.2858 -0.2438  0.1869
 3588SOL    HW112248   5.015   0.231   6.429 -1.0427 -1.7611 -0.1995
 3588SOL    HW212249   4.882   0.257   6.362 -1.2253  4.2183  2.2228
 3589SOL     OW12250   0.513   3.628   5.745 -0.1835 -0.0911  0.2523
 3589SOL    HW112251   0.418   3.617   5.737 -0.2607  1.4257 -1.0759
 3589SOL    HW212252   0.550   3.551   5.700 -0.7725  1.0557 -2.2680
 3590SOL     OW12253   2.248   2.019   6.101 -0.5018  0.2401 -0.3574
 3590SOL    HW112254   2.309   2.014   6.174  0.4535 -0.0900 -1.1623
 3590SOL    HW212255   2.175   1.964   6.127  0.6965 -1.4215 -0.4469
 3591SOL     OW12256   0.596   2.430   2.075  0.1726  0.7375 -0.3562
 3591SOL    HW112257   0.517   2.419   2.021 -0.2609 -0.3573  0.4731
 3591SOL    HW212258   0.606   2.345   2.118  1.2054  1.2251  0.3553
 3592SOL     OW12259   4.101   1.542   4.219  0.1831  0.1088  0.0818
 3592SOL    HW112260   4.060   1.456   4.217 -1.3395  0.8180 -1.8695
 3592SOL    HW212261   4.048   1.592   4.281 -0.8404  0.4970 -1.0772
 3593SOL     OW12262   6.296   8.261   6.258 -0.4243  0.0756 -0.7023
 3593SOL    HW112263   6.332   8.202   6.192 -0.2424 -2.3109  1.4606
 3593SOL    HW212264   6.341   8.344   6.243  1.7690 -1.2469 -1.7068
 3594SOL     OW12265   1.717   5.234   7.914  0.4719 -1.1638  0.2571
 3594SOL    HW112266   1.731   5.327   7.901 -1.3181 -0.9768 -0.4261
 3594SOL    HW212267   1.722   5.222   8.009 -0.8517 -0.1144  0.4691
 3595SOL     OW12268   7.273   2.795   5.936  0.4181 -0.7687 -0.1953
 3595SOL    HW112269   7.249   2.861   6.001  1.3823  0.1371 -0.7412
 3595SOL    HW212270   7.366   2.812   5.919  0.1845 -1.0186 -1.7869
 3596SOL     OW12271   8.270   3.670   6.213  0.7843 -0.4422  0.3494
 3596SOL    HW112272   8.243   3.667   6.121  2.5823 -0.0872 -0.2078
 3596SOL    HW212273   8.208   3.729   6.254  1.0385  0.8139 -1.0217
 3597SOL     OW12274   7.627   4.437   5.028 -0.1020 -0.3640 -0.2519
 3597SOL    HW112275   7.578   4.411   4.950 -1.4706  0.4777  0.2944
 3597SOL    HW212276   7.680   4.511   5.000 -2.2411  1.3770  0.0863
 3598SOL     OW12277   4.092   2.118   6.257  0.6037 -0.0530  0.4653
 3598SOL    HW112278   4.088   2.208   6.291 -2.4983 -0.2211  0.7143
 3598SOL    HW212279   4.109   2.064   6.334 -0.5786  0.0754  0.8276
 3599SOL     OW12280   1.026   7.344   4.597 -0.5017 -0.1914  0.1273
 3599SOL    HW112281   1.056   7.336   4.687  0.2758 -1.3733 -0.2202
 3599SOL    HW212282   0.996   7.434   4.589  3.3571  1.2215  0.4199
 3600SOL     OW12283   4.354   1.116   4.674 -0.0002  0.0673  0.1222
 3600SOL    HW112284   4.365   1.210   4.687  0.8866  0.0551 -0.4559
 3600SOL    HW212285   4.397   1.099   4.590  0.9670 -1.0673  0.8365
 3601SOL     OW12286   6.422   3.040   3.811  0.4876 -0.1459 -0.9666
 3601SOL    HW112287   6.377   3.061   3.893 -2.0074  0.3830 -2.4340
 3601SOL    HW212288   6.493   3.104   3.806  0.1495  0.3480  0.3685
 3602SOL     OW12289   6.398   2.700   3.803  0.2664  0.4620 -0.5979
 3602SOL    HW112290   6.492   2.686   3.791  0.4586  2.2311 -1.2518
 3602SOL    HW212291   6.388   2.795   3.810 -1.1180  0.1428  2.8026
 3603SOL     OW12292   0.828   7.322   7.048 -0.2393 -0.0236 -0.2494
 3603SOL    HW112293   0.860   7.300   7.135 -0.4734 -0.7584 -0.3395
 3603SOL    HW212294   0.841   7.242   6.997 -1.6646 -0.1570 -0.4351
 3604SOL     OW12295   6.908   8.223   6.969 -0.1156 -0.2950  0.1034
 3604SOL    HW112296   6.981   8.175   6.930  0.8369  1.4085 -0.2671
 3604SOL    HW212297   6.894   8.297   6.910 -1.4281  0.0006  0.7650
 3605SOL     OW12298   3.202   6.623   6.224 -0.0296 -0.2222  0.0924
 3605SOL    HW112299   3.235   6.702   6.179  1.5209  0.2028  1.8958
 3605SOL    HW212300   3.220   6.639   6.316 -0.4189 -2.3749  0.5658
 3606SOL     OW12301   5.212   2.282   7.065 -0.0459 -0.1226 -0.5613
 3606SOL    HW112302   5.301   2.282   7.100 -0.5967 -0.1915  0.8523
 3606SOL    HW212303   5.173   2.202   7.098 -0.5983 -0.1503 -1.2824
 3607SOL     OW12304   0.948   4.028   1.173  0.4084 -0.3964 -0.3374
 3607SOL    HW112305   0.971   3.936   1.159  1.5299  0.1579 -2.2780
 3607SOL    HW212306   0.881   4.046   1.106  1.5923  0.7193 -1.2372
 3608SOL     OW12307   0.777   7.054   7.267  0.3847 -0.4777  0.7963
 3608SOL    HW112308   0.847   7.049   7.333  1.2448 -2.0304 -0.2035
 3608SOL    HW212309   0.786   6.973   7.216 -1.5826 -0.2761  0.0764
 3609SOL     OW12310   2.135   3.453   6.222 -0.2346 -0.2119 -0.0678
 3609SOL    HW112311   2.100   3.535   6.256 -0.9544 -1.1457  1.5231
 3609SOL    HW212312   2.230   3.467   6.217 -0.1934  0.1936  1.6509
 3610SOL     OW12313   7.336   5.818   5.188  0.0033 -0.5784 -0.6963
 3610SOL    HW112314   7.259   5.860   5.225  1.2514  0.4541  0.7879
 3610SOL    HW212315   7.310   5.727   5.175 -1.8988  0.0572 -1.5145
 3611SOL     OW12316   7.956   5.970   0.318 -0.1400  0.0509 -0.1323
 3611SOL    HW112317   7.876   6.015   0.293 -1.7425 -1.2841  2.4186
 3611SOL    HW212318   7.934   5.877   0.314  1.2859 -0.3311  0.5507
 3612SOL     OW12319   6.580   7.693   3.171 -0.2430 -0.0447 -0.7888
 3612SOL    HW112320   6.632   7.680   3.092  0.5675 -1.1133 -0.1047
 3612SOL    HW212321   6.579   7.606   3.213 -0.4505  0.5692  0.4940
 3613SOL     OW12322   0.079   8.311   5.451  0.2484 -0.3145  0.0592
 3613SOL    HW112323   0.128   8.362   5.516  1.4797 -0.9311 -0.3576
 3613SOL    HW212324   0.118   8.337   5.367 -1.7832  0.9781 -0.5098
 3614SOL     OW12325   2.051   4.739   1.059 -0.5933  0.0199 -0.2250
 3614SOL    HW112326   2.022   4.812   1.113  2.1566  1.8428 -1.0967
 3614SOL    HW212327   2.023   4.661   1.106 -1.1437  1.6020  2.1256
 3615SOL     OW12328   5.628   5.420   2.179 -0.1197 -0.4056 -0.1558
 3615SOL    HW112329   5.635   5.327   2.202 -1.3067 -0.3550  0.4341
 3615SOL    HW212330   5.653   5.466   2.259  0.2454 -0.2153 -0.3794
 3616SOL     OW12331   4.891   5.551   6.977  0.3474  0.0057  0.0329
 3616SOL    HW112332   4.980   5.579   6.954  0.4905 -0.7738 -0.3486
 3616SOL    HW212333   4.834   5.612   6.930  0.6531 -0.6550 -1.2121
 3617SOL     OW12334   8.308   8.079   7.332 -0.2272  0.1657 -0.5013
 3617SOL    HW112335   8.355   8.047   7.256  2.2108 -1.5999  1.6676
 3617SOL    HW212336   8.368   8.140   7.374 -0.6314 -0.5465  1.1729
 3618SOL     OW12337   2.294   0.057   7.294  0.5202  0.0520  0.3472
 3618SOL    HW112338   2.212   0.046   7.246 -0.1242  0.2278  1.3799
 3618SOL    HW212339   2.270   0.109   7.371  1.5489 -0.1406  0.8151
 3619SOL     OW12340   5.766   4.920   3.525 -0.0325  0.4227 -0.4850
 3619SOL    HW112341   5.683   4.932   3.478  0.2408  0.1152 -1.0435
 3619SOL    HW212342   5.821   4.869   3.465  0.0584 -0.6006  0.4589
 3620SOL     OW12343   0.358   5.744   6.233  0.9118  0.1351  0.7572
 3620SOL    HW112344   0.395   5.815   6.284  0.9721  0.3929  0.3587
 3620SOL    HW212345   0.427   5.721   6.170  0.6238  0.2225  0.4027
 3621SOL     OW12346   4.782   0.854   6.815 -0.2166  0.6001  0.1242
 3621SOL    HW112347   4.839   0.779   6.803 -0.2056  0.3854  1.4272
 3621SOL    HW212348   4.779   0.867   6.910  0.2075  2.5717 -0.1097
 3622SOL     OW12349   7.187   0.987   7.918  0.5640  0.0006 -0.6659
 3622SOL    HW112350   7.185   0.916   7.855 -0.4267  0.5630 -1.2682
 3622SOL    HW212351   7.240   1.055   7.877  1.7068 -0.4631  0.0064
 3623SOL     OW12352   6.582   6.875   5.430  0.2857 -0.1054 -0.4139
 3623SOL    HW112353   6.665   6.845   5.394  1.6019  0.6968  1.8402
 3623SOL    HW212354   6.551   6.802   5.484  0.1064  0.0392 -0.3201
 3624SOL     OW12355   0.324   4.624   1.636 -0.4084  0.0752 -0.6627
 3624SOL    HW112356   0.327   4.543   1.584  1.3107  0.6520 -1.5037
 3624SOL    HW212357   0.292   4.596   1.721  1.0630 -1.6665 -0.6562
 3625SOL     OW12358   5.412   1.972   6.462 -0.2674 -0.0707  0.0352
 3625SOL    HW112359   5.366   1.913   6.522  0.9606 -1.5685 -0.4535
 3625SOL    HW212360   5.428   1.920   6.384  0.3514  1.0970 -0.6345
 3626SOL     OW12361   1.015   1.992   2.374  0.5265 -0.5788 -0.1723
 3626SOL    HW112362   0.945   2.020   2.433  0.2357 -1.1694 -0.2306
 3626SOL    HW212363   1.084   2.058   2.384 -0.3342  0.4040 -0.6570
 3627SOL     OW12364   5.387   2.225   4.989  0.0057  0.3311 -0.0705
 3627SOL    HW112365   5.375   2.131   4.978  0.4805  0.2541  0.0815
 3627SOL    HW212366   5.460   2.247   4.932  1.5505  0.1691  1.8093
 3628SOL     OW12367   4.902   8.172   7.222 -0.1411 -0.1239 -0.0185
 3628SOL    HW112368   4.825   8.121   7.244  0.3519 -0.4479  0.9739
 3628SOL    HW212369   4.957   8.112   7.171  1.1232 -1.1184  2.4195
 3629SOL     OW12370   2.461   6.430   4.011 -0.0416  0.6229 -0.1493
 3629SOL    HW112371   2.453   6.346   4.056 -1.3170  0.1104 -1.3053
 3629SOL    HW212372   2.554   6.452   4.018  0.2646 -0.7740  0.3450
 3630SOL     OW12373   8.023   3.788   6.348  0.4837  0.3807 -0.0514
 3630SOL    HW112374   7.969   3.837   6.410  0.2417  1.5038 -1.1450
 3630SOL    HW212375   7.968   3.714   6.321  0.1203  0.5996  0.0851
 3631SOL     OW12376   6.840   6.003   1.003 -0.4798 -0.1401 -0.4106
 3631SOL    HW112377   6.848   5.927   0.946 -0.0678 -0.1636 -0.3267
 3631SOL    HW212378   6.748   6.027   0.999 -0.4545 -0.1510 -1.0732
 3632SOL     OW12379   2.639   8.293   4.672 -0.3012 -0.3433  0.4201
 3632SOL    HW112380   2.689   8.367   4.635  1.2571 -1.3709  0.4235
 3632SOL    HW212381   2.688   8.216   4.643 -3.1656 -1.5080 -1.4922
 3633SOL     OW12382   2.778   0.291   4.030  0.3666  0.3493 -0.6182
 3633SOL    HW112383   2.839   0.223   4.062 -1.5053 -1.5184 -0.9088
 3633SOL    HW212384   2.761   0.267   3.939  0.2602  1.6791 -0.9611
 3634SOL     OW12385   4.129   4.024   0.058  0.3469  0.3195  0.5105
 3634SOL    HW112386   4.045   4.001   0.097  1.0169 -1.7703  0.8316
 3634SOL    HW212387   4.110   4.038  -0.035 -0.4768  0.6491  0.7288
 3635SOL     OW12388   4.914   5.202   4.228 -0.3854 -0.0093 -0.3753
 3635SOL    HW112389   5.009   5.198   4.241 -0.2255 -0.2132 -1.5361
 3635SOL    HW212390   4.878   5.220   4.315  0.8387  1.8382 -0.2160
 3636SOL     OW12391   2.585   6.231   2.315  0.5114 -0.3973 -0.4553
 3636SOL    HW112392   2.518   6.204   2.252  0.1897  0.0728 -0.3168
 3636SOL    HW212393   2.622   6.311   2.278 -1.5651  1.4338  1.2766
 3637SOL     OW12394   6.812   5.526   7.967  0.2300 -0.3766 -0.0182
 3637SOL    HW112395   6.880   5.459   7.971  3.0451  2.3980  0.4451
 3637SOL    HW212396   6.775   5.527   8.056 -1.0964 -2.5191 -0.5186
 3638SOL     OW12397   5.450   1.014   7.007 -0.0685  0.7495  0.2946
 3638SOL    HW112398   5.474   1.104   6.987  1.2062  0.3105 -0.2121
 3638SOL    HW212399   5.407   0.982   6.927  0.4396  0.5764  0.0909
 3639SOL     OW12400   7.193   7.134   3.730 -0.5806  0.1011 -0.3985
 3639SOL    HW112401   7.191   7.044   3.699  1.2031  0.5766 -1.9501
 3639SOL    HW212402   7.233   7.129   3.817 -0.9689 -0.6483 -0.2644
 3640SOL     OW12403   8.127   6.465   4.704  0.6786  0.0961  0.2005
 3640SOL    HW112404   8.107   6.473   4.797  0.9871 -2.1080  0.4721
 3640SOL    HW212405   8.097   6.548   4.667 -0.4494  0.5754  2.0849
 3641SOL     OW12406   4.930   3.829   2.423 -0.0544 -0.0650 -0.1386
 3641SOL    HW112407   4.950   3.887   2.349 -2.2783  0.0109 -0.7339
 3641SOL    HW212408   4.940   3.740   2.387 -1.9753 -0.0359 -0.8330
 3642SOL     OW12409   0.954   4.810   5.791  0.2015  0.3054  0.0365
 3642SOL    HW112410   1.002   4.735   5.827  0.8345 -0.2488 -1.8878
 3642SOL    HW212411   0.958   4.798   5.697 -1.1710  1.8748 -0.2495
 3643SOL     OW12412   6.092   7.291   1.222  0.6120 -0.4774 -0.3866
 3643SOL    HW112413   6.167   7.347   1.243  0.7621 -0.2921 -1.3820
 3643SOL    HW212414   6.127   7.227   1.160  0.2510 -1.1885  0.1373
 3644SOL     OW12415   0.080   0.386   7.661  0.1832  0.1577 -0.2048
 3644SOL    HW112416   0.060   0.473   7.627  0.5605  0.0630 -0.6705
 3644SOL    HW212417   0.123   0.341   7.589  0.6509 -0.1716  0.2761
 3645SOL     OW12418   5.620   2.896   5.565 -0.3511  0.0472 -0.1937
 3645SOL    HW112419   5.643   2.806   5.542 -0.5017 -0.1301  0.3389
 3645SOL    HW212420   5.621   2.943   5.482 -0.0056 -0.3884 -0.4382
 3646SOL     OW12421   2.111   1.450   4.832 -0.3912  0.3944  0.1300
 3646SOL    HW112422   2.030   1.417   4.868 -0.5616  1.7957  1.0844
 3646SOL    HW212423   2.176   1.437   4.901  0.2026 -0.7010 -0.6187
 3647SOL     OW12424   6.048   2.393   1.089 -0.5169 -0.1259  0.3099
 3647SOL    HW112425   6.047   2.413   0.996 -1.2218  0.3322  0.4195
 3647SOL    HW212426   6.044   2.297   1.092  2.7648 -0.3569 -0.1998
 3648SOL     OW12427   4.152   3.963   6.084  0.0248  0.2102 -0.2636
 3648SOL    HW112428   4.133   3.995   5.996 -0.7993  1.0068  0.1874
 3648SOL    HW212429   4.127   4.036   6.141 -0.1556 -0.5747  0.6696
 3649SOL     OW12430   3.990   5.525   5.042 -0.1243 -0.2740 -0.9195
 3649SOL    HW112431   3.958   5.572   5.119  1.3281  0.5512 -0.8002
 3649SOL    HW212432   3.971   5.433   5.060  1.6488 -0.2654  1.1589
 3650SOL     OW12433   3.474   7.480   4.904  0.1778 -0.4882 -0.3280
 3650SOL    HW112434   3.536   7.522   4.964 -1.2948 -1.2960  1.8283
 3650SOL    HW212435   3.480   7.532   4.824  4.2817 -1.0568 -0.5441
 3651SOL     OW12436   3.927   2.235   4.624  0.1723  0.4648 -0.5376
 3651SOL    HW112437   3.974   2.184   4.558  0.7929  0.4979 -0.1236
 3651SOL    HW212438   3.917   2.322   4.584 -0.0890  0.2804 -0.8780
 3652SOL     OW12439   6.320   5.179   5.781  0.3395 -0.1646  0.1608
 3652SOL    HW112440   6.370   5.223   5.850 -2.2557 -0.2928  2.2103
 3652SOL    HW212441   6.368   5.098   5.764  0.6295 -0.4870  2.3909
 3653SOL     OW12442   0.278   5.376   5.303  0.4671 -0.3221  0.1021
 3653SOL    HW112443   0.354   5.373   5.361  0.3089 -1.3514  0.2654
 3653SOL    HW212444   0.309   5.339   5.221 -0.1981 -2.0085  0.5844
 3654SOL     OW12445   7.385   7.568   4.575  0.6597 -0.6506  0.0510
 3654SOL    HW112446   7.385   7.657   4.539 -1.2185 -1.2129 -1.4337
 3654SOL    HW212447   7.387   7.511   4.498 -1.4549 -1.8862  0.8697
 3655SOL     OW12448   8.173   8.246   6.817  0.4378 -0.4985 -0.0237
 3655SOL    HW112449   8.089   8.206   6.794  0.9533 -2.0491  0.7365
 3655SOL    HW212450   8.185   8.315   6.752 -1.9425  0.4676  0.5121
 3656SOL     OW12451   5.904   3.555   1.158  0.1047 -0.0790  0.2630
 3656SOL    HW112452   5.873   3.465   1.161 -0.9049  0.2211 -0.8256
 3656SOL    HW212453   5.956   3.565   1.238  0.0233 -1.5412  0.5163
 3657SOL     OW12454   7.571   2.743   4.952  0.1372 -0.4459 -0.3720
 3657SOL    HW112455   7.640   2.792   4.907 -0.4412  0.1108 -0.6451
 3657SOL    HW212456   7.490   2.770   4.909 -0.2893 -0.8554  0.1708
 3658SOL     OW12457   7.750   0.508   7.587 -0.2549 -0.3892  0.1165
 3658SOL    HW112458   7.706   0.590   7.610  2.9013  1.4481 -0.0785
 3658SOL    HW212459   7.728   0.494   7.495  0.2230  0.9703 -0.2241
 3659SOL     OW12460   6.735   5.126   4.171 -0.1033 -0.3217 -0.1879
 3659SOL    HW112461   6.661   5.066   4.161 -1.2388  1.3605 -2.3722
 3659SOL    HW212462   6.760   5.148   4.082  2.3272  0.0420  0.5499
 3660SOL     OW12463   7.591   1.813   8.207  0.3655 -0.2437 -0.5903
 3660SOL    HW112464   7.601   1.771   8.121  0.6809 -0.4725 -0.4446
 3660SOL    HW212465   7.679   1.813   8.244  0.4122  0.7753 -0.6876
 3661SOL     OW12466   5.629   2.363   4.167  0.1766  0.2009 -0.1350
 3661SOL    HW112467   5.651   2.275   4.136 -0.4895  0.2446 -0.7417
 3661SOL    HW212468   5.671   2.369   4.253  1.2937 -0.2452 -0.6426
 3662SOL     OW12469   2.017   7.152   0.973  0.3403 -0.2497  0.0984
 3662SOL    HW112470   2.074   7.150   0.896  0.7205  0.1715  0.3652
 3662SOL    HW212471   1.968   7.234   0.963  1.1434  0.3266  0.8403
 3663SOL     OW12472   7.084   8.091   0.108 -0.2125  0.0047 -0.0184
 3663SOL    HW112473   7.014   8.104   0.045  1.9156  0.3899 -2.4047
 3663SOL    HW212474   7.154   8.048   0.058  0.2826 -2.8141  2.9233
 3664SOL     OW12475   1.327   5.852   3.559 -0.4701  0.0821 -0.2438
 3664SOL    HW112476   1.260   5.797   3.516 -1.4280 -0.1838  1.5301
 3664SOL    HW212477   1.399   5.792   3.577 -0.3754  0.0248 -0.8173
 3665SOL     OW12478   1.505   2.327   5.115  0.0012  0.2164  0.4371
 3665SOL    HW112479   1.493   2.400   5.054 -0.6432 -0.7077 -0.5479
 3665SOL    HW212480   1.501   2.368   5.201 -1.4423  1.1984 -0.0727
 3666SOL     OW12481   1.689   7.804   5.163 -0.0698 -0.2345  0.5914
 3666SOL    HW112482   1.622   7.739   5.181  1.0615 -1.3909  0.7149
 3666SOL    HW212483   1.733   7.817   5.247 -0.5110  0.9583  0.6511
 3667SOL     OW12484   1.000   5.392   1.716  0.4561 -0.1588  0.2175
 3667SOL    HW112485   0.923   5.341   1.689  0.7291 -0.8679  0.7361
 3667SOL    HW212486   0.968   5.481   1.727 -0.1956 -0.3634 -0.0184
 3668SOL     OW12487   2.113   6.659   2.623  0.0725  0.4952 -0.3208
 3668SOL    HW112488   2.118   6.587   2.685  1.4385  1.6835  0.9895
 3668SOL    HW212489   2.187   6.645   2.564 -0.5458  0.0062 -0.9910
 3669SOL     OW12490   0.980   3.766   1.095  0.0346 -0.2824  0.5637
 3669SOL    HW112491   0.953   3.754   1.004 -2.0126 -0.4138  1.1793
 3669SOL    HW212492   1.072   3.792   1.089 -0.0926 -0.2574 -1.5441
 3670SOL     OW12493   7.257   2.276   3.152 -0.5614  0.0470 -0.2895
 3670SOL    HW112494   7.327   2.318   3.202 -0.5568 -0.8563  0.4762
 3670SOL    HW212495   7.272   2.183   3.164 -1.4566 -0.1577 -0.7428
 3671SOL     OW12496   1.829   6.430   5.458  1.0637 -0.2607 -0.2865
 3671SOL    HW112497   1.919   6.437   5.427  1.4551 -0.1475  0.8350
 3671SOL    HW212498   1.837   6.392   5.545 -0.0983 -1.7808 -0.8325
 3672SOL     OW12499   0.765   7.567   7.240 -0.2155  0.2245 -0.2295
 3672SOL    HW112500   0.807   7.493   7.196 -1.5768  0.2207 -1.5698
 3672SOL    HW212501   0.756   7.633   7.171  0.9471  1.6293  0.9509
 3673SOL     OW12502   1.824   4.182   1.300  0.0798 -0.1306  0.3330
 3673SOL    HW112503   1.773   4.170   1.219  0.2798 -0.3006  0.2304
 3673SOL    HW212504   1.774   4.246   1.350 -0.7644 -1.0430  0.6828
 3674SOL     OW12505   1.896   2.527   4.875 -0.2052 -0.4410  0.0235
 3674SOL    HW112506   1.873   2.452   4.929  0.8093 -0.4913  0.3962
 3674SOL    HW212507   1.914   2.597   4.938 -0.5241 -0.0706 -0.2986
 3675SOL     OW12508   5.288   0.340   3.729 -0.4732  0.3275  0.3617
 3675SOL    HW112509   5.282   0.255   3.773 -3.0960  0.8474  1.1055
 3675SOL    HW212510   5.304   0.319   3.637  0.2993 -0.8976  0.7594
 3676SOL     OW12511   5.023   3.268   2.733  1.1004 -0.2773  0.2505
 3676SOL    HW112512   5.104   3.255   2.683  1.0790  0.4494  0.0258
 3676SOL    HW212513   5.047   3.241   2.822  1.6655  0.1641  0.2390
 3677SOL     OW12514   4.874   1.315   0.767  0.3053  0.5069  0.3658
 3677SOL    HW112515   4.923   1.257   0.710  0.3388  0.5706  0.3297
 3677SOL    HW212516   4.937   1.341   0.835 -0.6994 -2.4118  2.5015
 3678SOL     OW12517   5.164   4.214   1.294 -0.1036  0.5706 -0.1267
 3678SOL    HW112518   5.136   4.140   1.240  1.0481 -0.2685  0.3887
 3678SOL    HW212519   5.228   4.260   1.241 -1.1975  1.5002 -0.6457
 3679SOL     OW12520   0.939   4.614   4.838 -0.3881  0.4406 -0.0739
 3679SOL    HW112521   1.028   4.649   4.831  0.0585 -0.5741  0.4657
 3679SOL    HW212522   0.946   4.542   4.901 -1.2536 -0.7271 -1.2884
 3680SOL     OW12523   2.756   0.355   5.197  0.2551 -0.7298  0.0206
 3680SOL    HW112524   2.787   0.373   5.108  0.7445  0.6350  0.4410
 3680SOL    HW212525   2.689   0.422   5.212 -0.2320 -1.3194  0.4644
 3681SOL     OW12526   2.706   4.539   6.104  0.3135 -0.0672  0.7480
 3681SOL    HW112527   2.628   4.594   6.115  0.6498  0.3620  0.9800
 3681SOL    HW212528   2.687   4.486   6.027 -0.5458 -0.5272  1.2644
 3682SOL     OW12529   3.333   8.073   2.361  0.1734 -0.7409  0.4924
 3682SOL    HW112530   3.387   8.000   2.331  0.4310 -1.2824  2.2524
 3682SOL    HW212531   3.379   8.108   2.437  0.9341  2.3081 -1.2455
 3683SOL     OW12532   1.092   7.458   6.195  0.3609  0.0121  0.5685
 3683SOL    HW112533   1.114   7.551   6.195  0.0170  0.1009 -0.7429
 3683SOL    HW212534   1.169   7.415   6.159  0.8913 -0.3197  2.0518
 3684SOL     OW12535   1.496   0.291   1.576 -0.1940  0.3908 -0.6085
 3684SOL    HW112536   1.551   0.368   1.593 -0.2575  0.0506  1.2261
 3684SOL    HW212537   1.558   0.218   1.575 -0.2931  0.3123 -1.1410
 3685SOL     OW12538   1.859   2.805   4.965 -0.0345 -0.3548 -0.2094
 3685SOL    HW112539   1.808   2.885   4.951  1.0475  0.3303 -0.3026
 3685SOL    HW212540   1.939   2.819   4.914  0.9738 -0.7081  1.2599
 3686SOL     OW12541   5.097   7.643   4.531  0.1062 -0.2618  0.7464
 3686SOL    HW112542   5.126   7.731   4.552 -0.5714  0.2430 -0.3841
 3686SOL    HW212543   5.178   7.595   4.509  0.3206  0.4916 -0.1201
 3687SOL     OW12544   7.262   3.792   1.787  0.3733 -0.4448 -0.1068
 3687SOL    HW112545   7.354   3.818   1.783  0.4139 -0.6646 -0.7877
 3687SOL    HW212546   7.234   3.792   1.695  0.3992 -2.8916 -0.1436
 3688SOL     OW12547   5.491   5.806   1.047 -0.3667 -0.2190 -0.5946
 3688SOL    HW112548   5.480   5.900   1.059  2.3345  0.1118 -0.5322
 3688SOL    HW212549   5.405   5.769   1.071 -0.9731  2.0673  0.9432
 3689SOL     OW12550   6.734   8.015   4.601 -0.2810  0.1354 -0.7241
 3689SOL    HW112551   6.763   8.034   4.690  1.3717 -0.4099 -1.1416
 3689SOL    HW212552   6.638   8.018   4.606 -0.1920  0.4869  0.9773
 3690SOL     OW12553   7.642   6.473   0.650 -0.5241 -0.2749 -0.2983
 3690SOL    HW112554   7.677   6.394   0.692  1.7550  0.3023 -1.0488
 3690SOL    HW212555   7.668   6.545   0.708 -0.0797  0.2141 -1.1047
 3691SOL     OW12556   5.222   2.459   2.183 -0.1869  0.4112  0.1270
 3691SOL    HW112557   5.190   2.383   2.136 -1.1469  2.5542 -2.8386
 3691SOL    HW212558   5.314   2.466   2.159 -0.6529  1.4488 -1.3893
 3692SOL     OW12559   1.058   2.563   5.481 -0.2090 -0.3022  0.2818
 3692SOL    HW112560   0.967   2.566   5.509 -0.5060 -0.6601 -0.6486
 3692SOL    HW212561   1.097   2.494   5.536 -0.1064  0.9040  1.7738
 3693SOL     OW12562   1.617   2.021   7.005  0.4391 -0.0081 -0.1377
 3693SOL    HW112563   1.707   1.991   6.991  0.3792  0.4518 -1.5278
 3693SOL    HW212564   1.566   1.981   6.934 -0.1971  0.8537 -0.1866
 3694SOL     OW12565   6.458   1.870   7.691 -0.4340 -0.2062 -0.1092
 3694SOL    HW112566   6.377   1.894   7.645 -0.8216  0.6289  0.9792
 3694SOL    HW212567   6.527   1.915   7.642 -0.6744 -0.5722 -0.7902
 3695SOL     OW12568   6.146   1.391   5.261 -0.5328  0.2258  0.5750
 3695SOL    HW112569   6.170   1.470   5.212  0.9784 -0.5177  0.0926
 3695SOL    HW212570   6.055   1.375   5.237 -0.1557  0.5339 -1.0821
 3696SOL     OW12571   1.052   3.737   5.896 -0.1397 -0.5869 -0.0693
 3696SOL    HW112572   1.006   3.766   5.974  0.2334 -2.3880  0.8536
 3696SOL    HW212573   0.983   3.713   5.834 -0.4339  0.8758 -0.3222
 3697SOL     OW12574   3.418   0.944   2.481 -0.2562  0.0200 -0.2905
 3697SOL    HW112575   3.448   1.032   2.458  0.5413 -0.5454 -1.4594
 3697SOL    HW212576   3.499   0.895   2.498 -0.7027 -0.4571  0.4899
 3698SOL     OW12577   4.229   8.154   4.488 -0.1854  0.3712 -0.2685
 3698SOL    HW112578   4.312   8.151   4.536 -0.3467 -2.4973 -0.1158
 3698SOL    HW212579   4.253   8.134   4.397 -0.5902  0.4236 -0.3886
 3699SOL     OW12580   1.167   6.079   0.489 -0.4542  0.1687 -0.3295
 3699SOL    HW112581   1.243   6.029   0.462 -0.8275 -0.2088 -0.6908
 3699SOL    HW212582   1.189   6.170   0.467  0.4258  0.2243  0.7984
 3700SOL     OW12583   3.966   3.895   3.424 -0.1038 -0.2613 -0.1544
 3700SOL    HW112584   4.032   3.929   3.363 -0.2837 -1.7526 -1.1976
 3700SOL    HW212585   3.900   3.964   3.427 -0.0400 -0.1143 -1.5711
 3701SOL     OW12586   4.913   0.814   6.500  0.3276 -0.7745 -0.0451
 3701SOL    HW112587   4.855   0.840   6.429 -0.2186 -1.4738  0.1334
 3701SOL    HW212588   4.924   0.893   6.553 -1.8578 -1.0529  0.8741
 3702SOL     OW12589   1.575   8.118   2.222 -0.0624 -0.2499 -0.6440
 3702SOL    HW112590   1.546   8.193   2.169 -2.0151  0.1997  0.9658
 3702SOL    HW212591   1.496   8.065   2.232  0.4204 -0.6384  1.2655
 3703SOL     OW12592   4.639   2.038   5.039  0.6313  0.1745 -0.0471
 3703SOL    HW112593   4.662   1.947   5.060 -0.0135 -0.1450 -0.6967
 3703SOL    HW212594   4.543   2.038   5.035  0.6060  0.9938  0.4228
 3704SOL     OW12595   5.895   7.685   2.419 -0.2861  0.1961  0.1222
 3704SOL    HW112596   5.897   7.662   2.512  0.6641 -1.4205 -0.2780
 3704SOL    HW212597   5.805   7.710   2.402 -0.7603 -0.7331  1.2167
 3705SOL     OW12598   0.348   0.047   2.594  0.5123  0.4658  0.0669
 3705SOL    HW112599   0.441   0.036   2.610  0.4520 -0.1160  0.0327
 3705SOL    HW212600   0.307  -0.032   2.631  0.0813  0.5093 -0.3043
 3706SOL     OW12601   0.619   3.193   2.811 -0.0820 -0.0855 -0.5669
 3706SOL    HW112602   0.616   3.261   2.877 -1.1847 -0.8290  0.1711
 3706SOL    HW212603   0.628   3.240   2.728 -0.0005  0.9065 -0.0022
 3707SOL     OW12604   7.874   6.090   5.192 -0.0053  0.1234  0.9823
 3707SOL    HW112605   7.791   6.137   5.191  0.2207  0.5303  1.0643
 3707SOL    HW212606   7.872   6.037   5.272 -0.8686 -1.1098  0.1606
 3708SOL     OW12607   2.200   3.337   1.233 -0.3231 -0.3010  0.9282
 3708SOL    HW112608   2.173   3.287   1.155  0.2711 -0.3249  0.7403
 3708SOL    HW212609   2.133   3.315   1.298 -1.2386  0.2870  0.2162
 3709SOL     OW12610   7.249   7.960   6.133  0.0238 -0.1484 -0.1747
 3709SOL    HW112611   7.201   8.031   6.177 -1.0632 -1.4860  0.8401
 3709SOL    HW212612   7.189   7.930   6.064 -0.5588 -1.6843  0.9630
 3710SOL     OW12613   5.783   7.549   5.458 -0.6567  0.1087  0.7378
 3710SOL    HW112614   5.756   7.629   5.504 -1.8026  1.9814 -2.9566
 3710SOL    HW212615   5.878   7.551   5.461 -0.6494  2.0641  0.0258
 3711SOL     OW12616   1.651   6.012   0.930  0.1213 -0.4695 -0.2061
 3711SOL    HW112617   1.725   5.964   0.892 -1.4879 -3.2374 -0.0139
 3711SOL    HW212618   1.650   5.986   1.022 -0.8400 -0.1281 -0.1177
 3712SOL     OW12619   0.756   6.090   0.484  0.0634 -0.4142 -0.1621
 3712SOL    HW112620   0.793   6.040   0.411 -1.3410 -1.2676 -0.3125
 3712SOL    HW212621   0.668   6.054   0.496  1.1512 -2.1106  3.6306
 3713SOL     OW12622   5.364   1.337   4.831  0.7747  0.3650 -0.1241
 3713SOL    HW112623   5.303   1.379   4.892  2.3678 -0.1828  1.8804
 3713SOL    HW212624   5.420   1.408   4.801  1.2030  0.2904  0.5098
 3714SOL     OW12625   2.092   1.444   5.701  0.2520 -0.3084  0.2400
 3714SOL    HW112626   2.176   1.431   5.744  0.3207 -3.5934 -0.7212
 3714SOL    HW212627   2.115   1.473   5.612  0.3535 -0.7931  0.1083
 3715SOL     OW12628   4.623   0.799   2.546 -0.4664 -0.4509 -0.0074
 3715SOL    HW112629   4.693   0.863   2.556 -0.8828 -0.1233  0.8217
 3715SOL    HW212630   4.667   0.714   2.554 -0.1271 -0.2546  0.2303
 3716SOL     OW12631   0.661   8.219   4.672 -0.1206 -0.3102 -0.3383
 3716SOL    HW112632   0.736   8.176   4.631  0.3099  0.7732 -0.7013
 3716SOL    HW212633   0.662   8.308   4.637 -1.9335 -0.4534 -0.8193
 3717SOL     OW12634   4.587   0.085   4.972  0.2885 -0.1780  0.3590
 3717SOL    HW112635   4.539   0.093   5.055  0.3930  1.3530  0.2859
 3717SOL    HW212636   4.525   0.117   4.906  0.3189 -1.0989 -0.1289
 3718SOL     OW12637   7.176   1.330   0.577  0.2128 -0.2250 -0.4547
 3718SOL    HW112638   7.267   1.346   0.551  0.0866 -1.2996 -1.6325
 3718SOL    HW212639   7.181   1.257   0.638 -0.0105 -1.6805 -2.1141
 3719SOL     OW12640   6.562   5.510   5.221  0.5974  0.0454 -0.0819
 3719SOL    HW112641   6.510   5.479   5.147  0.9157  1.0388 -0.7365
 3719SOL    HW212642   6.524   5.595   5.243  1.4593  0.4268 -0.0688
 3720SOL     OW12643   7.031   2.449   7.578  0.5008 -0.2175  0.2015
 3720SOL    HW112644   6.995   2.362   7.599  1.4609 -0.9169 -0.9719
 3720SOL    HW212645   7.044   2.447   7.483  1.7265  0.7386  0.3402
 3721SOL     OW12646   2.996   4.560   2.971 -0.2484  0.3243 -0.0727
 3721SOL    HW112647   2.948   4.624   3.024 -0.4157 -0.4160  0.6836
 3721SOL    HW212648   3.067   4.529   3.028  0.6951  0.8664 -0.9246
 3722SOL     OW12649   5.274   8.092   1.259  0.0167  0.6383  0.3003
 3722SOL    HW112650   5.212   8.031   1.218 -0.1904  0.6523  0.5924
 3722SOL    HW212651   5.230   8.177   1.256 -0.1883  0.5562  0.9556
 3723SOL     OW12652   2.753   4.664   6.714 -0.3198  0.0519 -0.2269
 3723SOL    HW112653   2.717   4.751   6.731 -3.2679 -0.9034 -1.3310
 3723SOL    HW212654   2.803   4.673   6.632 -0.1999  0.7891 -0.0720
 3724SOL     OW12655   1.223   0.434   3.078 -0.3271 -0.6815  0.3500
 3724SOL    HW112656   1.263   0.521   3.073  0.3627 -0.8817  2.0311
 3724SOL    HW212657   1.215   0.406   2.987  1.4130  0.2631 -0.1184
 3725SOL     OW12658   6.107   0.180   5.170  0.0912 -0.4415 -0.7165
 3725SOL    HW112659   6.139   0.224   5.249 -3.3855  1.6344 -0.3763
 3725SOL    HW212660   6.143   0.233   5.098  0.5621 -0.4127 -0.4673
 3726SOL     OW12661   5.848   7.604   7.269 -0.1863  0.8244  0.4458
 3726SOL    HW112662   5.830   7.544   7.341 -2.7560  1.5194  0.4425
 3726SOL    HW212663   5.832   7.552   7.190  1.2442  0.4639  0.3901
 3727SOL     OW12664   1.234   3.687   0.470  0.3348  0.1713  0.6675
 3727SOL    HW112665   1.176   3.643   0.531  0.7609 -0.4355  0.6358
 3727SOL    HW212666   1.187   3.766   0.445 -0.7807 -0.6604  0.1157
 3728SOL     OW12667   2.084   7.565   3.154  0.0706 -0.4492  0.3638
 3728SOL    HW112668   2.087   7.470   3.153 -0.2981 -0.4580 -1.5906
 3728SOL    HW212669   1.991   7.586   3.153  0.1643 -0.0594 -0.2332
 3729SOL     OW12670   3.670   0.287   5.429  0.4517  0.5213 -0.1111
 3729SOL    HW112671   3.663   0.286   5.334  0.6056  0.7410 -0.1259
 3729SOL    HW212672   3.695   0.377   5.451  2.1745  0.0380 -0.0016
 3730SOL     OW12673   4.127   1.282   2.697 -0.6593  0.0111  0.3982
 3730SOL    HW112674   4.193   1.234   2.647  0.0593  0.2134  1.1484
 3730SOL    HW212675   4.156   1.373   2.695 -1.6584  0.3293 -0.4375
 3731SOL     OW12676   2.476   5.872   4.908  0.1644 -0.0675  0.3687
 3731SOL    HW112677   2.568   5.880   4.882 -0.2701  0.4863 -1.1117
 3731SOL    HW212678   2.462   5.779   4.920  0.7600 -0.2223 -0.0886
 3732SOL     OW12679   4.460   4.132   2.965  0.1010  0.0907 -0.0400
 3732SOL    HW112680   4.369   4.142   2.995  0.8943  0.0041  2.5516
 3732SOL    HW212681   4.453   4.120   2.871 -2.6997 -1.2455  0.2778
 3733SOL     OW12682   4.551   6.410   5.808  0.0157  0.7712 -0.6257
 3733SOL    HW112683   4.642   6.381   5.812 -0.0031  0.9470  1.7271
 3733SOL    HW212684   4.501   6.336   5.842 -0.5891  1.1560 -0.6765
 3734SOL     OW12685   1.851   3.823   7.754 -0.3728 -0.1643  0.2589
 3734SOL    HW112686   1.935   3.870   7.752  0.3501 -1.4172 -1.6726
 3734SOL    HW212687   1.851   3.778   7.838  0.2408  1.0120  0.8986
 3735SOL     OW12688   5.798   8.043   4.715  0.3181  0.7931  0.2072
 3735SOL    HW112689   5.745   8.085   4.783 -1.0447  1.8781 -1.4722
 3735SOL    HW212690   5.777   8.092   4.635  0.2248 -1.8188 -1.4188
 3736SOL     OW12691   6.301   1.981   7.453 -0.7153  0.2120  0.6067
 3736SOL    HW112692   6.213   1.980   7.491 -0.8168  0.0683  0.3682
 3736SOL    HW212693   6.293   2.037   7.376 -0.3769  0.9510  1.1119
 3737SOL     OW12694   0.037   6.626   6.981 -0.8192 -0.4789 -0.1716
 3737SOL    HW112695   0.107   6.687   7.003 -2.1707  1.0509 -0.0124
 3737SOL    HW212696   0.046   6.611   6.887 -1.2023  0.9480 -0.4577
 3738SOL     OW12697   1.107   1.447   1.294  0.4814 -1.0698 -0.0787
 3738SOL    HW112698   1.032   1.496   1.259  0.1731 -1.6689 -0.2559
 3738SOL    HW212699   1.170   1.446   1.223  0.7852 -0.2950  0.1776
 3739SOL     OW12700   2.430   6.098   4.667 -0.3548 -0.1225 -0.0028
 3739SOL    HW112701   2.469   6.184   4.655  1.8817 -1.2557 -1.2962
 3739SOL    HW212702   2.452   6.074   4.757  0.9721 -0.2438 -0.3402
 3740SOL     OW12703   1.613   0.824   4.885 -0.4883  0.1149 -0.2590
 3740SOL    HW112704   1.530   0.834   4.931 -0.4365 -1.2532  0.1538
 3740SOL    HW212705   1.588   0.803   4.795 -0.5863  1.8713 -0.6565
 3741SOL     OW12706   0.210   6.986   3.698 -0.4059 -0.0728 -0.0411
 3741SOL    HW112707   0.218   7.022   3.610 -1.0038  0.3343  0.0644
 3741SOL    HW212708   0.115   6.982   3.714 -0.3689 -2.0140 -0.1812
 3742SOL     OW12709   5.841   2.183   4.479 -0.3297  0.0816  0.1924
 3742SOL    HW112710   5.844   2.278   4.486 -1.9562  0.1339  0.4385
 3742SOL    HW212711   5.748   2.161   4.488 -0.0565 -1.4777 -0.5225
 3743SOL     OW12712   3.150   0.180   3.842 -0.8097 -0.5736  0.1483
 3743SOL    HW112713   3.088   0.214   3.778 -1.8275 -0.3566  1.2469
 3743SOL    HW212714   3.215   0.250   3.851 -1.5446  0.0644  0.5450
 3744SOL     OW12715   6.439   4.382   2.193  0.6323  0.3119  0.4418
 3744SOL    HW112716   6.435   4.346   2.104 -0.3984  0.5628  0.3866
 3744SOL    HW212717   6.533   4.388   2.211  0.9272  2.3028 -1.4938
 3745SOL     OW12718   1.925   1.270   7.337  0.2746 -0.3088  0.4056
 3745SOL    HW112719   1.834   1.272   7.366  0.0957 -0.6731 -0.1191
 3745SOL    HW212720   1.955   1.182   7.359 -1.1441 -2.1164 -4.2871
 3746SOL     OW12721   0.794   4.366   5.319 -1.0283 -0.1112  0.3541
 3746SOL    HW112722   0.869   4.426   5.312 -0.2308 -1.3660 -2.1168
 3746SOL    HW212723   0.813   4.313   5.397 -0.6755  1.3231  1.2795
 3747SOL     OW12724   0.428   4.804   7.005  0.1427 -0.3545  0.5500
 3747SOL    HW112725   0.408   4.763   7.090  3.4675 -0.9666  1.1035
 3747SOL    HW212726   0.397   4.894   7.014 -0.7697 -0.7923  1.9389
 3748SOL     OW12727   2.339   7.572   6.205 -0.5556 -0.2167 -0.1769
 3748SOL    HW112728   2.354   7.587   6.298 -0.7118  0.4840 -0.2634
 3748SOL    HW212729   2.426   7.550   6.170 -0.0100  2.0513 -0.3342
 3749SOL     OW12730   6.369   6.543   6.721  0.0592 -0.7291 -0.1786
 3749SOL    HW112731   6.395   6.472   6.780 -0.1594  0.1895  1.0401
 3749SOL    HW212732   6.440   6.548   6.656 -0.2235 -2.4453 -0.6309
 3750SOL     OW12733   3.774   0.496   2.704  0.0227 -0.1317 -0.0702
 3750SOL    HW112734   3.748   0.485   2.613  1.0522 -1.5277 -0.2142
 3750SOL    HW212735   3.781   0.407   2.738  1.9785  0.2685  0.6766
 3751SOL     OW12736   5.234   0.122   4.127  0.0454  0.2245 -0.2432
 3751SOL    HW112737   5.270   0.064   4.195 -0.9583  1.2243  1.1855
 3751SOL    HW212738   5.280   0.097   4.047 -0.0713 -2.2473  0.4317
 3752SOL     OW12739   1.824   1.080   3.504 -0.2890  0.8639 -0.3246
 3752SOL    HW112740   1.909   1.121   3.487  0.8320 -2.0603 -2.0994
 3752SOL    HW212741   1.838   1.026   3.581 -0.6785  0.7526 -0.3293
 3753SOL     OW12742   5.935   7.347   2.891 -0.3878  0.4544 -0.3221
 3753SOL    HW112743   5.941   7.418   2.828 -0.4716 -0.9762 -1.9595
 3753SOL    HW212744   5.956   7.388   2.975  2.3339  1.8338 -1.6157
 3754SOL     OW12745   6.791   3.606   1.015 -0.1319  0.1297 -0.1238
 3754SOL    HW112746   6.858   3.638   1.075 -1.9205  0.1476  1.9007
 3754SOL    HW212747   6.710   3.648   1.045 -1.0169  0.3720 -2.7319
 3755SOL     OW12748   6.946   5.844   5.888 -0.0561 -0.4167  0.1765
 3755SOL    HW112749   7.009   5.801   5.946 -0.0424  1.4060  1.5276
 3755SOL    HW212750   6.913   5.918   5.938  1.2951  2.2630 -2.7500
 3756SOL     OW12751   4.578   2.694   3.107  0.0093  0.3332  0.1538
 3756SOL    HW112752   4.518   2.767   3.118  0.1567  0.5412 -0.4172
 3756SOL    HW212753   4.531   2.619   3.142  0.2223  0.8675  1.5959
 3757SOL     OW12754   8.305   5.836   3.036 -0.3223  0.6785 -0.1014
 3757SOL    HW112755   8.333   5.746   3.050 -0.8241  0.4788 -0.3566
 3757SOL    HW212756   8.385   5.882   3.010 -0.0301  0.3497  0.2042
 3758SOL     OW12757   2.600   4.332   0.678 -0.2131  0.0790 -0.3385
 3758SOL    HW112758   2.617   4.415   0.635 -0.3621  0.5681  0.5298
 3758SOL    HW212759   2.622   4.265   0.613  1.7985  0.7475 -0.3896
 3759SOL     OW12760   1.402   3.594   4.823 -0.0317 -0.9813 -0.0034
 3759SOL    HW112761   1.373   3.578   4.913  2.2366 -2.7049  0.4684
 3759SOL    HW212762   1.324   3.580   4.769 -1.2361 -0.6401  1.6074
 3760SOL     OW12763   0.426   3.609   6.411 -0.7531  0.0326  0.8635
 3760SOL    HW112764   0.364   3.681   6.410 -0.9936 -0.1763  0.4220
 3760SOL    HW212765   0.486   3.629   6.482 -1.3184  0.2427  1.2815
 3761SOL     OW12766   5.309   3.096   6.991  0.3614  0.1595  0.4786
 3761SOL    HW112767   5.381   3.099   6.929  0.6177 -1.1567  0.6944
 3761SOL    HW212768   5.231   3.081   6.937  0.8041 -2.9297  0.5556
 3762SOL     OW12769   8.272   2.495   4.958 -0.4567 -0.4783 -0.8228
 3762SOL    HW112770   8.204   2.543   4.911  0.1631  0.3807 -0.8463
 3762SOL    HW212771   8.352   2.511   4.907  0.3495  0.9828  0.8808
 3763SOL     OW12772   0.998   8.038   1.053 -0.8968  0.0807  0.4408
 3763SOL    HW112773   1.028   8.104   0.991 -1.4499 -0.8824 -0.8919
 3763SOL    HW212774   0.946   8.087   1.117  0.4191  1.2170  0.6560
 3764SOL     OW12775   8.099   7.220   3.560  0.4486 -0.5312 -0.1001
 3764SOL    HW112776   8.061   7.149   3.612  0.6000  0.2309  1.0752
 3764SOL    HW212777   8.147   7.176   3.490  1.0204 -1.6062  0.9460
 3765SOL     OW12778   6.729   4.560   6.505  0.3196 -0.3404  0.2099
 3765SOL    HW112779   6.802   4.555   6.566  0.3250 -0.1637  0.2181
 3765SOL    HW212780   6.735   4.648   6.467  1.6391 -1.1933 -1.6670
 3766SOL     OW12781   2.927   7.606   1.662  0.5401 -0.1482 -0.4652
 3766SOL    HW112782   2.935   7.527   1.715 -0.5183  0.3096  0.4035
 3766SOL    HW212783   2.961   7.582   1.576  0.0406 -1.5876 -0.2621
 3767SOL     OW12784   4.509   0.578   2.921  0.0258  0.5875 -0.1827
 3767SOL    HW112785   4.499   0.640   2.993  1.2907 -0.2873  0.7530
 3767SOL    HW212786   4.592   0.602   2.880  0.4305 -0.3579  0.0663
 3768SOL     OW12787   5.830   4.914   4.225 -0.0598  0.0503 -0.1656
 3768SOL    HW112788   5.857   5.004   4.245 -1.1964  0.3968 -0.1408
 3768SOL    HW212789   5.809   4.915   4.132  0.6430 -0.3874 -0.3365
 3769SOL     OW12790   5.785   6.115   4.958  0.1260 -0.4821 -0.0873
 3769SOL    HW112791   5.708   6.061   4.940 -0.8510  1.2845 -1.4754
 3769SOL    HW212792   5.813   6.089   5.046 -1.2523 -2.0860 -0.0982
 3770SOL     OW12793   0.262   6.832   3.195  0.3846  0.2051  0.1811
 3770SOL    HW112794   0.182   6.876   3.224  0.0508  0.0086 -0.4097
 3770SOL    HW212795   0.271   6.757   3.254  0.4958  0.5995  0.6632
 3771SOL     OW12796   1.657   7.963   3.394 -0.3944  0.6159  0.2708
 3771SOL    HW112797   1.746   7.964   3.429 -0.1722 -0.2682 -0.2628
 3771SOL    HW212798   1.601   7.969   3.471  0.1310  2.1953  0.5512
 3772SOL     OW12799   8.055   5.275   0.767 -0.1639  0.7025 -0.3696
 3772SOL    HW112800   8.105   5.236   0.839  0.2111 -0.9768 -1.5220
 3772SOL    HW212801   8.090   5.363   0.759  0.7362  0.4504  0.6240
 3773SOL     OW12802   6.060   7.832   4.044  0.1360  0.0416  0.6052
 3773SOL    HW112803   6.077   7.740   4.063 -0.1273  0.2015  1.6422
 3773SOL    HW212804   6.146   7.870   4.027  0.1603 -0.5872 -0.7314
 3774SOL     OW12805   8.019   0.222   0.498  0.3827  0.4161  0.1730
 3774SOL    HW112806   7.928   0.249   0.486  0.3601 -0.2915 -1.3883
 3774SOL    HW212807   8.048   0.199   0.410  1.4305 -1.3962  0.9876
 3775SOL     OW12808   0.144   2.080   6.458  0.0522  0.3108  0.1451
 3775SOL    HW112809   0.110   2.124   6.380  0.3799  0.7025  0.2211
 3775SOL    HW212810   0.077   2.094   6.525 -0.4170 -0.3708 -0.1746
 3776SOL     OW12811   7.436   7.042   4.686 -0.0260 -0.0583  0.0797
 3776SOL    HW112812   7.479   6.956   4.687  1.6395  0.7541  0.0446
 3776SOL    HW212813   7.369   7.036   4.754 -0.9520 -1.8919 -0.9508
 3777SOL     OW12814   2.617   0.517   4.072  0.1883 -0.1351  0.2122
 3777SOL    HW112815   2.685   0.455   4.095 -1.2387 -1.9170 -0.2029
 3777SOL    HW212816   2.543   0.462   4.046 -1.3359  1.7420  0.4707
 3778SOL     OW12817   3.145   5.628   3.061 -0.6430 -0.4303 -0.2195
 3778SOL    HW112818   3.067   5.670   3.096 -1.2847  0.0154 -2.1157
 3778SOL    HW212819   3.115   5.585   2.981  0.4816 -2.5835  0.4677
 3779SOL     OW12820   1.279   6.514   7.171 -0.3715 -0.4844  0.2123
 3779SOL    HW112821   1.187   6.536   7.182 -0.1349  0.4444  0.3298
 3779SOL    HW212822   1.307   6.561   7.093 -0.6230 -2.7336 -1.2717
 3780SOL     OW12823   1.180   5.315   6.312 -0.0283  0.1055  0.1960
 3780SOL    HW112824   1.115   5.308   6.382  0.5009  1.7406  0.8541
 3780SOL    HW212825   1.152   5.250   6.247 -1.8586  0.2191  0.8495
 3781SOL     OW12826   2.923   2.996   0.029  0.2670 -0.0165 -0.2898
 3781SOL    HW112827   2.875   3.033  -0.045  0.3425 -2.2666 -1.5197
 3781SOL    HW212828   2.856   2.976   0.094 -0.3385 -2.0049 -1.5019
 3782SOL     OW12829   1.350   1.431   4.142  0.0543  0.2489  0.2860
 3782SOL    HW112830   1.405   1.463   4.214  2.0307 -0.0140 -1.0501
 3782SOL    HW212831   1.296   1.507   4.118  0.7851  0.9270  0.7560
 3783SOL     OW12832   5.887   2.797   1.636 -0.3033  0.3907  0.1843
 3783SOL    HW112833   5.847   2.878   1.670 -0.0928  0.0364  1.2852
 3783SOL    HW212834   5.979   2.819   1.622 -0.0227  0.0668  1.4393
 3784SOL     OW12835   1.022   4.407   4.993 -0.2216  0.5971  0.3799
 3784SOL    HW112836   1.091   4.344   5.015  0.3853  1.3667  0.6869
 3784SOL    HW212837   0.941   4.364   5.021  0.1297 -0.3113  0.0204
 3785SOL     OW12838   4.702   2.823   2.912  0.0444 -0.3234 -0.4812
 3785SOL    HW112839   4.797   2.815   2.919 -0.1445 -3.2782 -0.7688
 3785SOL    HW212840   4.669   2.775   2.987 -1.2433  3.1547  1.3113
 3786SOL     OW12841   3.514   1.701   6.703 -0.6806  0.2215  0.1794
 3786SOL    HW112842   3.506   1.648   6.623 -0.1409 -0.0136  0.2782
 3786SOL    HW212843   3.434   1.681   6.753  1.0539 -3.1180  1.7677
 3787SOL     OW12844   2.159   8.183   8.190  0.3115  0.3900 -0.1627
 3787SOL    HW112845   2.172   8.096   8.228  0.2105  0.3764 -0.1606
 3787SOL    HW212846   2.155   8.242   8.265  1.2938  0.5145 -0.1961
 3788SOL     OW12847   7.086   4.246   5.154 -0.0145  0.8513  0.2382
 3788SOL    HW112848   7.010   4.238   5.211 -0.4328  0.7243 -0.3332
 3788SOL    HW212849   7.118   4.335   5.169  0.1686  0.6544  1.0308
 3789SOL     OW12850   7.421   8.194   4.502  0.2874  0.2033 -0.4538
 3789SOL    HW112851   7.339   8.223   4.542  0.6115  0.5338 -0.0181
 3789SOL    HW212852   7.396   8.120   4.447  0.3177 -2.6106  3.1184
 3790SOL     OW12853   5.098   6.314   5.600 -0.0319 -0.1990 -0.1390
 3790SOL    HW112854   5.032   6.287   5.536 -2.0185  1.1230  1.2892
 3790SOL    HW212855   5.155   6.237   5.609 -1.2938 -1.3338 -1.4808
 3791SOL     OW12856   0.278   7.834   6.542  0.0930  0.3105  0.2121
 3791SOL    HW112857   0.332   7.871   6.473  0.8960 -2.0485 -0.4758
 3791SOL    HW212858   0.253   7.748   6.510 -3.7752  1.1751  0.7145
 3792SOL     OW12859   4.424   0.636   5.301 -0.1691 -0.2133 -0.2520
 3792SOL    HW112860   4.367   0.559   5.294  1.4284 -1.3275 -1.3280
 3792SOL    HW212861   4.406   0.671   5.388 -0.6055 -2.0785  0.4281
 3793SOL     OW12862   3.997   0.645   5.067 -0.6585  0.2433 -0.6030
 3793SOL    HW112863   3.929   0.681   5.010 -1.8994 -1.6059 -0.3531
 3793SOL    HW212864   4.068   0.620   5.008  0.0546  2.6404 -0.8131
 3794SOL     OW12865   3.540   0.635   4.374  0.3858 -0.9364 -0.3367
 3794SOL    HW112866   3.490   0.639   4.292 -0.8525  0.4503  0.4492
 3794SOL    HW212867   3.587   0.718   4.378 -0.5155 -0.4689  0.9249
 3795SOL     OW12868   1.387   6.467   6.220  0.2171  0.0348 -0.0940
 3795SOL    HW112869   1.294   6.452   6.202  0.3157 -2.0834  1.0848
 3795SOL    HW212870   1.394   6.562   6.228 -1.4152  0.4029 -2.4417
 3796SOL     OW12871   1.227   4.055   6.571  0.4548 -0.2349 -0.0857
 3796SOL    HW112872   1.259   4.009   6.493 -1.1767 -1.6744  0.0651
 3796SOL    HW212873   1.134   4.067   6.555  1.0382  4.4258 -0.7866
 3797SOL     OW12874   1.820   6.029   2.048  0.0285  0.0520  0.5392
 3797SOL    HW112875   1.762   6.095   2.009  0.1413 -0.6724 -0.9022
 3797SOL    HW212876   1.763   5.978   2.106 -0.7480 -0.5020 -0.6771
 3798SOL     OW12877   6.149   4.571   7.033 -0.0827  0.5650  0.2664
 3798SOL    HW112878   6.070   4.525   7.062 -0.3427 -0.0404 -1.3140
 3798SOL    HW212879   6.220   4.532   7.084 -0.4175 -1.0376 -0.4478
 3799SOL     OW12880   8.012   5.242   5.051  0.1028  0.1100 -0.2016
 3799SOL    HW112881   7.918   5.254   5.061 -0.2202 -2.3864 -0.0763
 3799SOL    HW212882   8.050   5.292   5.124 -0.9928  2.5328 -1.2270
 3800SOL     OW12883   4.661   5.597   1.527 -0.4664 -0.5861  0.0248
 3800SOL    HW112884   4.751   5.566   1.511 -0.7694 -1.3471 -0.2345
 3800SOL    HW212885   4.668   5.692   1.521 -0.2055 -0.7345 -3.0099
 3801SOL     OW12886   5.829   4.946   6.880  0.0806 -0.0013  0.2144
 3801SOL    HW112887   5.861   4.856   6.884 -0.7442 -0.3701 -1.0908
 3801SOL    HW212888   5.902   4.997   6.846 -0.6356 -0.8113 -2.6206
 3802SOL     OW12889   7.822   5.731   0.397  0.1723 -0.3954 -0.0298
 3802SOL    HW112890   7.819   5.712   0.490  0.3093 -3.4428 -0.5970
 3802SOL    HW212891   7.732   5.717   0.367  0.0165  1.0967 -0.2595
 3803SOL     OW12892   8.141   0.144   0.937 -0.2081 -0.1000 -0.6929
 3803SOL    HW112893   8.167   0.168   0.848  2.2707 -0.0304  0.0117
 3803SOL    HW212894   8.177   0.214   0.992 -0.5227 -0.8659  0.5030
 3804SOL     OW12895   0.809   5.707   2.607  0.1118 -0.2663  0.3433
 3804SOL    HW112896   0.866   5.714   2.683 -2.1568 -1.2277  2.1754
 3804SOL    HW212897   0.722   5.689   2.643 -1.0433 -0.5817 -2.4593
 3805SOL     OW12898   0.102   2.635   7.253 -0.1041  0.7141 -0.3189
 3805SOL    HW112899   0.187   2.629   7.296 -0.2702 -1.6423 -0.2555
 3805SOL    HW212900   0.113   2.705   7.189  2.3328 -0.4713 -1.2647
 3806SOL     OW12901   3.536   2.618   4.123 -0.1139 -0.2932 -0.3581
 3806SOL    HW112902   3.471   2.663   4.070  0.9343  0.5966 -0.9233
 3806SOL    HW212903   3.487   2.550   4.170 -1.4238  0.3384 -0.7931
 3807SOL     OW12904   6.170   0.459   6.227  0.3170  0.9707 -0.1702
 3807SOL    HW112905   6.076   0.442   6.238  0.4967  0.2545  0.2837
 3807SOL    HW212906   6.192   0.418   6.143  0.5677 -0.3211  0.5129
 3808SOL     OW12907   1.964   1.799   5.714  0.3703 -0.6907 -0.1923
 3808SOL    HW112908   1.925   1.754   5.640  1.8961  0.5268 -1.7718
 3808SOL    HW212909   1.984   1.730   5.777 -1.0884 -1.7100 -0.8227
 3809SOL     OW12910   7.490   3.824   2.897  0.1718  0.1021 -0.4386
 3809SOL    HW112911   7.450   3.834   2.984 -0.5708 -2.3800 -0.4679
 3809SOL    HW212912   7.509   3.731   2.890  1.9321  0.5827 -2.2239
 3810SOL     OW12913   5.776   8.032   6.545 -0.2111 -0.0812 -0.3118
 3810SOL    HW112914   5.851   7.995   6.591  1.5190 -0.1790 -3.1488
 3810SOL    HW212915   5.808   8.052   6.457 -3.2892  0.5959 -1.3497
 3811SOL     OW12916   6.974   5.338   2.891 -0.1050 -0.7641 -0.1076
 3811SOL    HW112917   6.893   5.341   2.943 -0.0757 -0.3891 -0.0830
 3811SOL    HW212918   7.032   5.402   2.934 -1.2034  1.9282 -2.4819
 3812SOL     OW12919   3.752   2.809   5.771 -0.2308 -0.1898 -0.3302
 3812SOL    HW112920   3.770   2.715   5.761  3.8182  0.5313 -0.4999
 3812SOL    HW212921   3.690   2.829   5.700 -2.1403 -2.9202  0.4538
 3813SOL     OW12922   1.839   7.664   3.529  0.1925  0.1321  0.4960
 3813SOL    HW112923   1.767   7.714   3.490  0.3155  1.3589  1.8241
 3813SOL    HW212924   1.803   7.576   3.543 -0.2030 -0.0165 -1.2932
 3814SOL     OW12925   3.594   0.762   0.802  0.2668 -0.3147 -0.0698
 3814SOL    HW112926   3.679   0.805   0.796  0.0997  0.1947  1.1216
 3814SOL    HW212927   3.531   0.833   0.816 -0.2570 -0.7674 -0.0702
 3815SOL     OW12928   6.604   5.779   6.709 -0.4626 -0.5766 -0.0147
 3815SOL    HW112929   6.552   5.701   6.727  0.6332 -1.4739 -0.6842
 3815SOL    HW212930   6.540   5.846   6.684 -1.2583 -1.7974 -1.3099
 3816SOL     OW12931   6.402   0.203   6.209 -0.3316  0.9665 -0.3457
 3816SOL    HW112932   6.457   0.263   6.259 -0.1137  0.3620  0.1484
 3816SOL    HW212933   6.375   0.253   6.132 -1.2722  2.1561  0.7329
 3817SOL     OW12934   8.288   5.769   2.578  0.1761 -0.4529 -0.0432
 3817SOL    HW112935   8.329   5.855   2.591  0.1029 -0.3618 -0.3872
 3817SOL    HW212936   8.194   5.786   2.583  0.1059 -0.2332 -1.6287
 3818SOL     OW12937   5.294   0.631   2.576 -0.3386  0.2795 -0.8275
 3818SOL    HW112938   5.240   0.566   2.622 -0.3510  0.0630 -1.1471
 3818SOL    HW212939   5.376   0.585   2.557  0.0884  0.7077 -0.0574
 3819SOL     OW12940   0.710   1.056   4.971 -0.4074  0.5275  0.0845
 3819SOL    HW112941   0.732   1.070   4.879 -1.0576  2.6084  0.2159
 3819SOL    HW212942   0.754   0.975   4.994 -0.1628  0.0314 -2.0390
 3820SOL     OW12943   6.398   7.589   1.788  0.1225 -0.3862  0.0309
 3820SOL    HW112944   6.325   7.531   1.810  1.2476 -1.1522  1.8217
 3820SOL    HW212945   6.395   7.658   1.854 -0.1707  0.6694 -1.0768
 3821SOL     OW12946   5.763   4.792   0.921  0.6302  0.0168  0.1893
 3821SOL    HW112947   5.846   4.750   0.899  0.2812  0.4297 -2.0425
 3821SOL    HW212948   5.780   4.886   0.913 -0.3822  0.0705 -1.6551
 3822SOL     OW12949   7.957   6.134   2.023 -0.0289 -0.4325  0.3207
 3822SOL    HW112950   7.898   6.107   2.093  0.8467 -0.6453  0.9871
 3822SOL    HW212951   7.904   6.128   1.943 -1.3924  1.0123  1.0944
 3823SOL     OW12952   5.170   4.830   4.972  0.0835 -0.1616 -0.3277
 3823SOL    HW112953   5.085   4.791   4.993  1.0298 -0.8063  2.5443
 3823SOL    HW212954   5.224   4.813   5.049  2.0509  2.5231 -1.0375
 3824SOL     OW12955   4.050   7.195   5.915 -0.3260  0.3404 -0.4036
 3824SOL    HW112956   4.133   7.150   5.902 -0.5190 -0.5440  1.2946
 3824SOL    HW212957   3.997   7.132   5.964 -2.0769  0.8086 -1.6490
 3825SOL     OW12958   2.809   4.841   2.543  0.1397  0.2776 -0.1513
 3825SOL    HW112959   2.861   4.786   2.601  0.3119  0.8577  0.2451
 3825SOL    HW212960   2.834   4.814   2.455  2.5668  1.8887  0.0092
 3826SOL     OW12961   2.129   6.748   7.870  0.0630  0.1193 -0.1744
 3826SOL    HW112962   2.131   6.759   7.775 -0.6576 -0.9355 -0.3284
 3826SOL    HW212963   2.138   6.653   7.883  2.6052  0.4641  0.9119
 3827SOL     OW12964   7.154   0.628   5.469  0.4534 -0.2982  0.5958
 3827SOL    HW112965   7.213   0.558   5.439  1.0926  0.1104  0.9064
 3827SOL    HW212966   7.074   0.582   5.495 -0.1088 -0.6774 -1.6905
 3828SOL     OW12967   6.856   6.830   6.006  0.2652 -0.4744 -0.4379
 3828SOL    HW112968   6.848   6.852   5.914 -0.6436  1.3466  0.0560
 3828SOL    HW212969   6.897   6.907   6.046  0.2980 -1.0883  0.7522
 3829SOL     OW12970   4.223   2.331   4.268  0.2692  0.4203 -0.1639
 3829SOL    HW112971   4.201   2.379   4.348  0.1821 -0.7986  0.5562
 3829SOL    HW212972   4.316   2.312   4.276  0.4591  1.0501 -0.7758
 3830SOL     OW12973   6.673   3.737   6.537 -0.2138  0.3436  0.4508
 3830SOL    HW112974   6.661   3.647   6.568 -2.4745  0.0360 -1.2307
 3830SOL    HW212975   6.652   3.791   6.613 -1.7533 -0.4934  0.6491
 3831SOL     OW12976   0.318   1.119   6.287  0.6312 -0.2584 -0.0268
 3831SOL    HW112977   0.384   1.181   6.317 -0.7712  0.5337  1.4768
 3831SOL    HW212978   0.277   1.087   6.367  0.3287 -2.0152 -0.8560
 3832SOL     OW12979   4.690   6.539   3.126 -0.0513 -0.2934 -0.1584
 3832SOL    HW112980   4.679   6.619   3.177  1.2118 -1.3360  1.8137
 3832SOL    HW212981   4.769   6.554   3.074  2.2598 -1.5243  2.8327
 3833SOL     OW12982   4.268   5.237   3.558  0.4419 -0.1838 -0.0180
 3833SOL    HW112983   4.298   5.178   3.627 -1.7524 -1.3472 -0.0278
 3833SOL    HW212984   4.198   5.288   3.598 -1.2916 -1.3114 -1.5207
 3834SOL     OW12985   7.780   3.727   2.897  0.5389 -0.2545  0.8260
 3834SOL    HW112986   7.755   3.793   2.833 -1.1656 -0.2411  1.4912
 3834SOL    HW212987   7.854   3.681   2.857 -0.5140 -0.2534 -1.1358
 3835SOL     OW12988   5.044   6.853   3.283  0.3875 -0.0831  0.3907
 3835SOL    HW112989   4.969   6.870   3.225  0.6587  0.9765  0.3351
 3835SOL    HW212990   5.033   6.762   3.311  0.8685 -1.0055 -2.2302
 3836SOL     OW12991   2.916   6.760   0.461 -0.1658  0.5277 -0.5437
 3836SOL    HW112992   2.844   6.728   0.515 -0.7128  0.6815 -1.1666
 3836SOL    HW212993   2.962   6.823   0.516 -1.1942  1.2767 -0.5255
 3837SOL     OW12994   0.209   7.278   1.151 -0.5163  0.5616  0.5075
 3837SOL    HW112995   0.141   7.234   1.101  0.1052  1.4446 -1.1309
 3837SOL    HW212996   0.242   7.211   1.211 -2.5951  0.0375  1.1296
 3838SOL     OW12997   3.076   2.392   7.130  0.0332 -0.2025  1.0471
 3838SOL    HW112998   2.988   2.420   7.107  0.6708  0.6986 -0.3729
 3838SOL    HW212999   3.104   2.338   7.056  0.7178 -0.3619  1.4229
 3839SOL     OW13000   6.481   0.554   1.929  0.4629 -0.1960  0.0885
 3839SOL    HW113001   6.538   0.477   1.925 -1.7686 -1.7877 -1.7791
 3839SOL    HW213002   6.485   0.582   2.021  1.3505 -2.4677  0.7711
 3840SOL     OW13003   2.093   7.910   4.032  0.2818 -0.7013 -0.2104
 3840SOL    HW113004   2.130   7.978   4.089 -0.1953 -2.1733  1.9416
 3840SOL    HW213005   2.102   7.945   3.944  0.6772  1.8559  0.7899
 3841SOL     OW13006   6.582   6.112   0.203  0.1377 -0.3058 -0.6113
 3841SOL    HW113007   6.504   6.080   0.248 -0.7554  1.0204 -1.1794
 3841SOL    HW213008   6.554   6.125   0.112  0.6796  1.3297 -0.5683
 3842SOL     OW13009   5.898   3.345   6.432  0.3630 -0.2379  0.1825
 3842SOL    HW113010   5.883   3.432   6.468  2.0909 -0.0428  0.4719
 3842SOL    HW213011   5.917   3.291   6.509  0.1616 -0.6917 -0.0807
 3843SOL     OW13012   3.045   1.312   6.817  0.3371  0.1043  0.0644
 3843SOL    HW113013   3.032   1.400   6.783 -2.1198 -0.5355 -0.6979
 3843SOL    HW213014   3.119   1.277   6.767 -0.1751  0.8883 -1.2429
 3844SOL     OW13015   8.071   3.959   1.363 -0.2310 -0.3398 -0.0213
 3844SOL    HW113016   8.016   4.023   1.317 -0.0205 -2.0227 -2.6860
 3844SOL    HW213017   8.009   3.893   1.395 -0.1859 -0.1023  0.5597
 3845SOL     OW13018   1.537   5.445   5.966  0.5944 -0.0977 -0.0234
 3845SOL    HW113019   1.511   5.362   6.005 -1.5292  1.0149  1.0189
 3845SOL    HW213020   1.587   5.490   6.035 -0.7722  0.6892  0.4878
 3846SOL     OW13021   8.165   2.822   5.497 -0.0645 -0.2660 -0.4634
 3846SOL    HW113022   8.223   2.816   5.421  0.1146  0.7970 -0.4141
 3846SOL    HW213023   8.078   2.802   5.463  0.2882 -1.6247 -0.5865
 3847SOL     OW13024   7.775   8.118   7.155  0.0570  0.5601 -0.1451
 3847SOL    HW113025   7.836   8.050   7.127  0.5252  0.1454  1.8106
 3847SOL    HW213026   7.696   8.104   7.102  0.8378 -0.3078 -1.0845
 3848SOL     OW13027   6.813   6.040   0.376  0.0945  0.0422 -0.3829
 3848SOL    HW113028   6.741   6.061   0.317  1.2467  0.5857 -1.6191
 3848SOL    HW213029   6.833   6.122   0.420  1.3632  0.4266 -1.6293
 3849SOL     OW13030   7.538   4.153   1.070  0.4350 -0.3090  0.6052
 3849SOL    HW113031   7.588   4.165   0.989 -0.3916 -0.9477 -0.0027
 3849SOL    HW213032   7.485   4.233   1.078  1.4830  0.3399  1.2148
 3850SOL     OW13033   4.530   3.778   8.214  0.2156 -0.4478  0.4451
 3850SOL    HW113034   4.477   3.836   8.160 -1.0373 -0.8313  1.2360
 3850SOL    HW213035   4.600   3.834   8.248  0.2376  0.0953 -0.4856
 3851SOL     OW13036   0.148   3.296   4.160 -0.2692 -0.4088 -0.3720
 3851SOL    HW113037   0.209   3.368   4.176  0.1376 -0.5903 -1.0795
 3851SOL    HW213038   0.182   3.223   4.212 -0.3337 -0.2723 -0.1389
 3852SOL     OW13039   1.821   6.448   7.580  0.2404 -0.4332  0.6992
 3852SOL    HW113040   1.891   6.510   7.601 -0.9931  0.9909  0.7167
 3852SOL    HW213041   1.817   6.390   7.656  0.2367  0.5798  1.4876
 3853SOL     OW13042   2.537   7.692   7.972  1.0987  0.2931  0.3017
 3853SOL    HW113043   2.525   7.656   8.060 -0.4406  0.5549  0.2162
 3853SOL    HW213044   2.605   7.637   7.933  2.2199  0.5360  1.8446
 3854SOL     OW13045   0.470   5.955   1.408 -0.1391  0.2763 -0.4518
 3854SOL    HW113046   0.448   5.935   1.499 -0.3388 -1.3009 -0.8437
 3854SOL    HW213047   0.560   5.987   1.412  0.0768 -0.4118  0.2169
 3855SOL     OW13048   7.309   1.517   7.679 -0.0755 -0.1569 -0.4160
 3855SOL    HW113049   7.328   1.602   7.719 -3.0886 -0.1395  1.0868
 3855SOL    HW213050   7.376   1.459   7.714 -0.3980  0.7185  1.7140
 3856SOL     OW13051   5.216   2.193   5.507 -0.2666  0.1602 -0.3730
 3856SOL    HW113052   5.165   2.191   5.588  1.1320  0.2502  0.5292
 3856SOL    HW213053   5.203   2.106   5.469  0.6080 -0.5707  0.9443
 3857SOL     OW13054   1.740   6.132   1.678  0.3573  0.0947 -0.3266
 3857SOL    HW113055   1.705   6.148   1.766 -0.8023 -0.1688 -0.7250
 3857SOL    HW213056   1.832   6.109   1.693  0.3288  0.6342  0.7647
 3858SOL     OW13057   8.280   6.193   8.304 -0.0747 -0.0314 -0.0300
 3858SOL    HW113058   8.296   6.121   8.242 -0.2694 -0.4813  0.4383
 3858SOL    HW213059   8.366   6.233   8.316 -0.2060  0.6858 -1.3547
 3859SOL     OW13060   0.245   1.780   0.619  0.6811 -0.2522 -0.0071
 3859SOL    HW113061   0.265   1.721   0.692  1.8128 -0.4104 -0.4390
 3859SOL    HW213062   0.324   1.780   0.566 -0.0686  0.0280 -1.1345
 3860SOL     OW13063   4.183   3.998   3.293  0.2559  0.4318  0.8699
 3860SOL    HW113064   4.199   4.054   3.217 -1.5284  0.1743  0.2719
 3860SOL    HW213065   4.265   3.951   3.306 -0.2409 -1.6746 -2.7531
 3861SOL     OW13066   7.425   2.985   3.689  0.6962  0.0814  0.1127
 3861SOL    HW113067   7.484   2.925   3.735 -0.2649 -0.1664  1.0362
 3861SOL    HW213068   7.337   2.954   3.711  0.2157  0.5840 -1.0743
 3862SOL     OW13069   4.501   2.478   6.875 -0.2664  0.0589 -0.4046
 3862SOL    HW113070   4.573   2.416   6.876 -0.4209 -0.1388  2.7652
 3862SOL    HW213071   4.490   2.500   6.782  3.4056 -0.3869 -1.0371
 3863SOL     OW13072   7.046   1.593   6.731  0.5631 -0.1690 -0.0016
 3863SOL    HW113073   7.061   1.592   6.637  0.8302  1.8968 -0.0057
 3863SOL    HW213074   6.960   1.554   6.742  0.2180  0.2266 -1.1808
 3864SOL     OW13075   1.183   8.077   7.160  0.0138  0.1642 -0.4687
 3864SOL    HW113076   1.096   8.110   7.139  0.4914  2.2713  0.6416
 3864SOL    HW213077   1.226   8.151   7.205  1.9973 -1.1862 -0.0766
 3865SOL     OW13078   7.563   3.504   1.157 -0.1869 -0.1360 -0.1254
 3865SOL    HW113079   7.657   3.511   1.173 -0.2173 -1.5879  0.7841
 3865SOL    HW213080   7.529   3.591   1.176  1.1933  0.8686 -2.0607
 3866SOL     OW13081   6.276   7.895   7.681 -0.2094  0.0582 -0.4467
 3866SOL    HW113082   6.278   7.903   7.776 -0.1034 -2.1888 -0.2478
 3866SOL    HW213083   6.183   7.904   7.658 -0.2026  0.8785 -0.1718
 3867SOL     OW13084   0.487   4.223   6.369 -0.3433 -0.6601 -0.2169
 3867SOL    HW113085   0.512   4.250   6.457 -1.1183 -2.0298  0.4386
 3867SOL    HW213086   0.534   4.283   6.311 -1.1665  1.3652  1.1551
 3868SOL     OW13087   2.769   8.043   2.069 -0.1952  0.0523 -0.6591
 3868SOL    HW113088   2.793   7.951   2.082  0.0500  0.0107 -1.3806
 3868SOL    HW213089   2.850   8.091   2.081 -0.1249  0.0850 -1.2417
 3869SOL     OW13090   2.027   2.425   4.012  0.4361  0.1368 -0.1206
 3869SOL    HW113091   2.030   2.460   3.923  1.9302  1.0762  0.2769
 3869SOL    HW213092   1.990   2.496   4.064 -0.9182 -0.6010 -0.0758
 3870SOL     OW13093   4.490   3.076   2.038 -0.5853 -0.3585  0.1396
 3870SOL    HW113094   4.404   3.048   2.069 -1.9451  0.3097 -2.8333
 3870SOL    HW213095   4.552   3.023   2.087 -2.6925 -1.0258  2.1707
 3871SOL     OW13096   0.949   0.379   6.597  0.1950  0.0065 -0.3466
 3871SOL    HW113097   0.863   0.419   6.588 -0.3112 -0.8152  0.7472
 3871SOL    HW213098   0.978   0.405   6.685  0.8469 -0.1297 -0.5194
 3872SOL     OW13099   2.236   5.019   4.391  0.4252 -0.1048  0.6055
 3872SOL    HW113100   2.262   5.023   4.298  3.4897 -1.6117  1.3283
 3872SOL    HW213101   2.156   4.966   4.391  0.7863 -0.7008 -1.1293
 3873SOL     OW13102   7.088   1.499   3.583 -0.0330  0.3730 -0.4454
 3873SOL    HW113103   7.169   1.550   3.586 -0.7035  1.3919  0.7868
 3873SOL    HW213104   7.023   1.559   3.546  0.1162 -0.9571 -2.9500
 3874SOL     OW13105   0.642   2.821   6.892  0.5146 -0.1556 -0.4282
 3874SOL    HW113106   0.628   2.779   6.807  1.5383  0.0920 -0.7179
 3874SOL    HW213107   0.617   2.754   6.956  1.6939 -1.0586 -0.8944
 3875SOL     OW13108   7.467   0.901   0.660  0.1955  0.3980 -0.4736
 3875SOL    HW113109   7.434   0.976   0.710 -0.5872 -0.6311  0.5947
 3875SOL    HW213110   7.522   0.853   0.723  0.5616 -0.0096 -1.0995
 3876SOL     OW13111   0.317   2.684   1.799  0.1662  0.1913 -0.2098
 3876SOL    HW113112   0.313   2.590   1.816 -1.8928  0.2623 -0.2040
 3876SOL    HW213113   0.363   2.720   1.875  0.4827 -0.7516  0.0492
 3877SOL     OW13114   5.483   5.300   2.800 -0.0567  0.5035  0.1280
 3877SOL    HW113115   5.417   5.231   2.799 -0.2663  0.6714  1.5233
 3877SOL    HW213116   5.529   5.289   2.884  1.1479  0.8937 -0.4556
 3878SOL     OW13117   1.129   2.292   6.961 -0.4616 -0.1136  0.7142
 3878SOL    HW113118   1.079   2.322   7.036 -0.8437  0.9623  0.0395
 3878SOL    HW213119   1.099   2.202   6.947 -1.0401 -0.0166  1.2989
 3879SOL     OW13120   0.917   2.303   1.796 -0.0366  0.0300  0.0261
 3879SOL    HW113121   0.887   2.373   1.854  0.7142  1.2755 -1.0716
 3879SOL    HW213122   0.993   2.340   1.751  0.6515 -1.6481 -0.2351
 3880SOL     OW13123   4.109   4.180   6.240 -0.3736 -0.2068 -0.1131
 3880SOL    HW113124   4.121   4.208   6.331 -1.8734  0.8254 -0.2254
 3880SOL    HW213125   4.140   4.254   6.188  0.4932 -0.8012 -0.4513
 3881SOL     OW13126   4.573   4.929   7.448  0.2948  0.1705 -0.1622
 3881SOL    HW113127   4.581   4.996   7.516  0.8063  0.7946 -0.8321
 3881SOL    HW213128   4.479   4.929   7.426  0.3650  0.9724 -0.4704
 3882SOL     OW13129   1.762   4.937   1.380 -0.4561 -0.1538  0.0456
 3882SOL    HW113130   1.729   4.848   1.382 -1.8012  0.3357 -0.1342
 3882SOL    HW213131   1.777   4.960   1.472  0.8461 -0.8998  0.0346
 3883SOL     OW13132   1.206   4.159   2.664 -0.4613 -0.5305 -0.3662
 3883SOL    HW113133   1.167   4.205   2.738 -1.5727 -0.8257 -0.7457
 3883SOL    HW213134   1.149   4.083   2.651  0.3385 -1.0461 -0.8484
 3884SOL     OW13135   0.081   6.277   5.348  0.3249  0.1420 -0.3829
 3884SOL    HW113136   0.069   6.264   5.442 -1.4161 -0.3455 -0.6513
 3884SOL    HW213137   0.169   6.314   5.340 -0.0695  1.5630  1.5415
 3885SOL     OW13138   2.676   6.475   2.951 -0.0616  0.2695 -0.1638
 3885SOL    HW113139   2.764   6.488   2.986 -0.2276 -1.7379  1.0241
 3885SOL    HW213140   2.634   6.561   2.961  1.7037  1.2309 -0.6685
 3886SOL     OW13141   4.039   7.807   1.858  0.0751 -0.5891  0.6646
 3886SOL    HW113142   3.999   7.784   1.775 -0.1655 -0.4877  0.7491
 3886SOL    HW213143   4.133   7.801   1.843  0.0408 -0.0878  0.2451
 3887SOL     OW13144   0.871   4.156   0.468 -0.4204 -0.0529  0.3075
 3887SOL    HW113145   0.892   4.097   0.540 -0.9687 -0.8412 -0.1717
 3887SOL    HW213146   0.775   4.152   0.461 -0.3463 -0.2353 -0.6657
 3888SOL     OW13147   1.782   2.368   5.315  0.7769  0.5562 -0.4421
 3888SOL    HW113148   1.785   2.347   5.408 -0.0850 -1.8439 -0.9069
 3888SOL    HW213149   1.689   2.382   5.296  1.0962  2.4926 -0.6651
 3889SOL     OW13150   0.643   5.369   5.788  0.6813 -0.2729 -0.2448
 3889SOL    HW113151   0.687   5.296   5.832 -1.2831 -0.4786  1.4207
 3889SOL    HW213152   0.568   5.389   5.843 -0.6151  0.9037 -2.3726
 3890SOL     OW13153   6.926   7.090   2.297 -0.8814 -0.3928 -0.0421
 3890SOL    HW113154   6.843   7.135   2.279 -1.5059 -1.5423 -0.1012
 3890SOL    HW213155   6.947   7.114   2.388  0.6355  2.8436 -1.1791
 3891SOL     OW13156   1.614   7.270   5.663 -0.7288 -0.6950 -0.4188
 3891SOL    HW113157   1.625   7.209   5.589  2.2055 -0.8238  0.0806
 3891SOL    HW213158   1.544   7.232   5.715 -0.5486 -2.3954 -1.3817
 3892SOL     OW13159   2.352   7.667   3.211  0.1227 -0.0698 -0.2899
 3892SOL    HW113160   2.259   7.660   3.192 -0.0360 -2.8571  1.3158
 3892SOL    HW213161   2.395   7.659   3.126 -1.0031 -1.6965 -0.7275
 3893SOL     OW13162   2.974   3.561   5.242 -0.6434 -0.1194 -0.3836
 3893SOL    HW113163   3.009   3.472   5.249  1.8539  0.8772  0.5248
 3893SOL    HW213164   3.025   3.611   5.306 -1.1118  2.2207 -1.7954
 3894SOL     OW13165   4.731   6.598   1.456  0.3817  0.1792 -0.1747
 3894SOL    HW113166   4.743   6.566   1.367 -1.0411  0.2072 -0.3917
 3894SOL    HW213167   4.770   6.685   1.456  0.2748  0.2273 -0.8081
 3895SOL     OW13168   7.015   7.733   6.107 -0.0648  0.1118 -0.0063
 3895SOL    HW113169   7.070   7.665   6.144 -1.0712 -0.2141  0.9014
 3895SOL    HW213170   7.012   7.801   6.174 -0.1187  0.4903 -0.3842
 3896SOL     OW13171   7.965   6.967   1.749 -0.2947  0.0978 -0.1427
 3896SOL    HW113172   8.015   6.995   1.825  0.7990 -0.8915 -0.4855
 3896SOL    HW213173   7.956   7.045   1.695  0.2257  0.4465  0.2755
 3897SOL     OW13174   4.324   4.697   4.817 -0.0334  0.3616  0.1157
 3897SOL    HW113175   4.266   4.763   4.778 -1.1836 -0.4028  0.5177
 3897SOL    HW213176   4.275   4.663   4.891  1.7232  1.0462  1.6277
 3898SOL     OW13177   3.382   5.375   2.803  0.1994  0.5059  0.7287
 3898SOL    HW113178   3.315   5.444   2.792  0.5496  0.3736 -2.8332
 3898SOL    HW213179   3.347   5.300   2.755  2.3662  0.0707 -0.2455
 3899SOL     OW13180   1.840   4.353   0.500 -0.0772  0.4313 -0.2222
 3899SOL    HW113181   1.893   4.300   0.559  0.0891 -1.8114 -2.2852
 3899SOL    HW213182   1.870   4.443   0.515  1.2655 -0.2984  1.7160
 3900SOL     OW13183   1.821   0.409   2.539  0.3597  0.1213 -0.9938
 3900SOL    HW113184   1.906   0.366   2.529  0.3665 -0.1521  0.1890
 3900SOL    HW213185   1.841   0.492   2.581 -0.0545 -0.3761  0.2140
 3901SOL     OW13186   0.454   5.390   3.573  0.1557  0.4296  0.0601
 3901SOL    HW113187   0.492   5.476   3.591  0.2882  0.2255  0.7787
 3901SOL    HW213188   0.375   5.387   3.628  0.7180 -0.3132  0.8396
 3902SOL     OW13189   8.011   6.479   3.191 -0.0308 -0.4066  0.3390
 3902SOL    HW113190   7.989   6.500   3.281  0.1834  0.2795  0.2322
 3902SOL    HW213191   7.928   6.486   3.144 -0.0023 -0.0108  0.3440
 3903SOL     OW13192   3.651   7.589   3.809 -0.4987  0.4535 -0.0782
 3903SOL    HW113193   3.740   7.552   3.808 -1.0657 -0.9856  0.9557
 3903SOL    HW213194   3.653   7.657   3.742  1.5064  0.7133  0.2155
 3904SOL     OW13195   7.284   1.939   5.481  0.2817 -0.2014  0.3568
 3904SOL    HW113196   7.245   1.851   5.486  1.4684 -0.7349  0.4610
 3904SOL    HW213197   7.314   1.957   5.570 -1.9373  1.2534  0.8469
 3905SOL     OW13198   6.618   6.482   2.091  0.6773  0.0179 -0.3569
 3905SOL    HW113199   6.534   6.529   2.089 -0.0547 -1.2863 -2.6093
 3905SOL    HW213200   6.632   6.461   2.183  0.1832  3.1199  0.4980
 3906SOL     OW13201   7.434   1.591   8.253 -0.1460 -0.2416  0.7364
 3906SOL    HW113202   7.347   1.595   8.214  0.6566  1.8853 -0.9076
 3906SOL    HW213203   7.470   1.679   8.241  2.9222 -1.5710 -0.2563
 3907SOL     OW13204   5.338   7.169   2.583  0.0422  0.0085 -0.4396
 3907SOL    HW113205   5.370   7.162   2.673  1.0861  3.0847 -0.4866
 3907SOL    HW213206   5.256   7.218   2.591  0.8718  1.5739 -1.2409
 3908SOL     OW13207   5.078   0.081   6.155  0.3797  0.1780 -0.3261
 3908SOL    HW113208   5.022   0.038   6.091 -0.9252  0.7218  0.4465
 3908SOL    HW213209   5.080   0.021   6.230  1.1977 -0.0442 -0.5142
 3909SOL     OW13210   1.507   5.812   6.982  0.6019  0.3516  0.1620
 3909SOL    HW113211   1.413   5.818   7.000  0.0293 -1.7906 -1.8956
 3909SOL    HW213212   1.544   5.771   7.061 -0.6237 -1.4389 -0.1733
 3910SOL     OW13213   1.159   7.543   0.766 -0.1788 -0.4869 -0.0252
 3910SOL    HW113214   1.120   7.577   0.847 -1.3903 -1.1515 -0.3135
 3910SOL    HW213215   1.183   7.621   0.717 -2.4882  0.0052 -0.4651
 3911SOL     OW13216   5.858   7.195   5.901 -0.4092 -0.1006 -0.1665
 3911SOL    HW113217   5.885   7.147   5.823  1.5095 -0.4581  0.6909
 3911SOL    HW213218   5.878   7.287   5.881 -0.8981 -0.0603 -0.4870
 3912SOL     OW13219   4.239   0.457   5.275  0.2832  0.3265 -0.4248
 3912SOL    HW113220   4.231   0.364   5.257  0.3188  0.3248 -0.4326
 3912SOL    HW213221   4.150   0.486   5.294  0.3695  0.1421  0.2799
 3913SOL     OW13222   0.838   0.865   6.733 -0.0251 -0.4040 -0.4974
 3913SOL    HW113223   0.808   0.818   6.655 -0.6593 -0.4113 -0.2518
 3913SOL    HW213224   0.899   0.804   6.775  1.9004  0.4001 -2.0530
 3914SOL     OW13225   6.591   8.118   3.154 -0.1412 -0.1623  0.4769
 3914SOL    HW113226   6.587   8.062   3.076 -0.1405  1.3020 -0.5843
 3914SOL    HW213227   6.663   8.082   3.206  0.3384 -0.6838 -0.5420
 3915SOL     OW13228   0.579   3.585   3.749 -0.0713 -0.5545  1.0705
 3915SOL    HW113229   0.652   3.624   3.797  0.1535 -0.1359  0.4073
 3915SOL    HW213230   0.515   3.562   3.816  0.1059  0.2932  1.5409
 3916SOL     OW13231   0.202   8.105   2.291 -0.6740 -0.1542  0.6553
 3916SOL    HW113232   0.235   8.042   2.227 -0.8938  0.7322 -0.3543
 3916SOL    HW213233   0.260   8.096   2.366 -0.0737 -0.8271  0.1198
 3917SOL     OW13234   2.116   8.118   1.739  0.1686 -0.5869 -0.5576
 3917SOL    HW113235   2.061   8.046   1.770 -1.2992 -0.5423 -2.9506
 3917SOL    HW213236   2.060   8.168   1.680  1.5777  1.7759  0.0287
 3918SOL     OW13237   4.903   4.050   6.381 -0.5874 -0.0129 -0.5437
 3918SOL    HW113238   4.967   4.121   6.387 -1.1279  0.5395 -1.2832
 3918SOL    HW213239   4.820   4.094   6.361 -1.1950 -0.7260  0.3638
 3919SOL     OW13240   6.143   5.864   6.390 -0.5271  0.2961  0.2333
 3919SOL    HW113241   6.141   5.829   6.301 -0.7894  0.7763  0.0468
 3919SOL    HW213242   6.074   5.931   6.390 -1.1028 -0.2839  1.0404
 3920SOL     OW13243   7.502   1.007   1.613  0.0733  0.6402 -0.2447
 3920SOL    HW113244   7.575   1.064   1.587  0.2803  0.0871 -0.9053
 3920SOL    HW213245   7.425   1.062   1.608  0.3821  1.0960 -0.0321
 3921SOL     OW13246   6.991   4.293   0.389  0.6094 -0.1062  0.5748
 3921SOL    HW113247   6.990   4.387   0.368  1.9735  0.2200  1.8420
 3921SOL    HW213248   7.018   4.250   0.308 -0.5768  0.5386 -0.1784
 3922SOL     OW13249   0.442   5.459   2.255 -0.0426  0.1020 -0.2469
 3922SOL    HW113250   0.474   5.537   2.209  0.6512  0.0594  0.1568
 3922SOL    HW213251   0.521   5.410   2.277 -0.3729  0.0100  0.7927
 3923SOL     OW13252   7.210   2.742   7.379 -0.2725  0.1648  0.3433
 3923SOL    HW113253   7.141   2.679   7.401 -0.6128  0.8037  1.1709
 3923SOL    HW213254   7.282   2.689   7.346 -0.7559 -0.6103  0.5206
 3924SOL     OW13255   7.219   0.011   5.676 -0.1714  0.0230 -1.3817
 3924SOL    HW113256   7.271  -0.059   5.637  0.6938  0.6851 -1.4300
 3924SOL    HW213257   7.281   0.082   5.690 -0.6730  0.1768  0.2354
 3925SOL     OW13258   1.188   7.591   3.238  0.2697 -0.3396  0.8582
 3925SOL    HW113259   1.206   7.588   3.144  0.1859  1.8719  0.7523
 3925SOL    HW213260   1.093   7.607   3.243  0.4545  0.6557  1.2953
 3926SOL     OW13261   6.891   6.222   5.278  0.0556  0.6216 -0.3605
 3926SOL    HW113262   6.843   6.140   5.292  1.9905 -0.5634 -0.5328
 3926SOL    HW213263   6.911   6.222   5.184 -1.4101  2.1292 -0.6867
 3927SOL     OW13264   5.505   1.606   0.280 -0.0106  0.0222 -0.1237
 3927SOL    HW113265   5.440   1.554   0.327 -0.2858  0.5309  0.0681
 3927SOL    HW213266   5.560   1.542   0.235 -1.1007 -0.3994 -0.8865
 3928SOL     OW13267   6.017   7.342   5.081 -0.3352 -0.2819 -0.1702
 3928SOL    HW113268   5.963   7.410   5.041  1.7185  2.2290  1.1558
 3928SOL    HW213269   6.104   7.353   5.042  0.8030 -0.1114  2.2749
 3929SOL     OW13270   3.708   6.995   3.195 -0.3282  0.1201  0.3006
 3929SOL    HW113271   3.626   6.948   3.178 -0.4946  0.0421  1.2715
 3929SOL    HW213272   3.739   6.960   3.279  0.3965  0.5658  0.2244
 3930SOL     OW13273   0.650   7.395   6.834  0.2337  0.3574  0.1132
 3930SOL    HW113274   0.730   7.379   6.885  1.0064 -1.9278 -1.7019
 3930SOL    HW213275   0.680   7.392   6.742 -1.8714 -0.2167 -0.5727
 3931SOL     OW13276   1.477   0.063   7.045 -0.3207 -0.0550 -0.5487
 3931SOL    HW113277   1.525   0.137   7.080  1.2476 -0.2680 -2.1607
 3931SOL    HW213278   1.545  -0.001   7.022 -1.6076 -1.7556  0.3089
 3932SOL     OW13279   5.147   0.186   4.420  0.0826 -0.2484 -0.2561
 3932SOL    HW113280   5.139   0.218   4.331 -1.0224  0.4275  0.0767
 3932SOL    HW213281   5.066   0.213   4.463  0.9636  0.2103  1.1853
 3933SOL     OW13282   3.334   4.411   4.815 -0.1018 -0.2209  0.3040
 3933SOL    HW113283   3.375   4.409   4.728  0.1031 -3.3022  0.4196
 3933SOL    HW213284   3.240   4.412   4.798 -0.0677 -1.2049  0.0290
 3934SOL     OW13285   4.695   7.504   7.411 -0.6739 -0.1836 -0.3836
 3934SOL    HW113286   4.612   7.463   7.388 -0.9781  0.4051 -0.3261
 3934SOL    HW213287   4.688   7.594   7.379 -0.2225 -0.0099 -0.0075
 3935SOL     OW13288   0.130   5.427   3.634 -0.1262  0.1486 -0.2680
 3935SOL    HW113289   0.035   5.435   3.620 -0.4426  2.5164  2.8540
 3935SOL    HW213290   0.163   5.516   3.624  1.8146 -0.6674 -1.3221
 3936SOL     OW13291   6.231   6.031   6.115 -0.9379 -0.3354  0.1022
 3936SOL    HW113292   6.181   5.949   6.114 -0.1564 -0.8091 -2.1319
 3936SOL    HW213293   6.320   6.004   6.137 -0.8270  0.0099  0.0697
 3937SOL     OW13294   2.464   1.382   5.197 -0.2420  0.0509 -0.5316
 3937SOL    HW113295   2.524   1.430   5.254  0.6858 -1.4467 -0.2103
 3937SOL    HW213296   2.481   1.290   5.216 -0.6875 -0.4600 -2.4411
 3938SOL     OW13297   3.174   0.622   3.819 -0.2016 -0.1876 -0.8353
 3938SOL    HW113298   3.205   0.705   3.856  0.9937 -1.4460  1.0623
 3938SOL    HW213299   3.120   0.584   3.888 -0.6183 -1.0891 -1.6478
 3939SOL     OW13300   7.959   4.401   6.552 -0.2357  0.5047 -0.2968
 3939SOL    HW113301   7.908   4.372   6.627 -0.9300 -2.0195 -1.6958
 3939SOL    HW213302   8.000   4.483   6.581 -1.2234  0.0625  2.4819
 3940SOL     OW13303   3.340   5.412   5.481  0.1846 -0.3188 -0.3896
 3940SOL    HW113304   3.413   5.451   5.528  0.4308 -0.6632 -0.4833
 3940SOL    HW213305   3.379   5.369   5.405 -0.0855 -0.6685 -0.3374
 3941SOL     OW13306   0.693   4.050   4.263 -0.5030 -0.2481  0.6567
 3941SOL    HW113307   0.640   3.976   4.233  0.5864 -0.1981 -1.4424
 3941SOL    HW213308   0.766   4.009   4.310 -0.6162 -0.4338  0.6742
 3942SOL     OW13309   4.102   2.053   7.415 -0.0036 -0.1554 -0.2610
 3942SOL    HW113310   4.018   2.094   7.432 -0.2238 -0.4276 -0.6787
 3942SOL    HW213311   4.130   2.020   7.500  0.1496  0.7986  0.0629
 3943SOL     OW13312   2.673   4.025   3.831 -0.2861 -0.0586  0.4269
 3943SOL    HW113313   2.711   4.098   3.782  0.3251 -0.2697  0.5822
 3943SOL    HW213314   2.739   3.956   3.827 -1.1004 -0.8101 -0.1921
 3944SOL     OW13315   3.002   6.296   2.999 -0.1938 -0.2129  0.1153
 3944SOL    HW113316   2.999   6.389   2.975 -0.5345 -0.2221  0.1241
 3944SOL    HW213317   3.085   6.265   2.964 -0.7055 -0.2420 -1.0995
 3945SOL     OW13318   2.948   5.314   1.519  0.4575  0.2362 -0.1777
 3945SOL    HW113319   3.034   5.302   1.559  0.2783  0.2203  0.2088
 3945SOL    HW213320   2.928   5.230   1.478 -0.2555 -0.4322  1.4704
 3946SOL     OW13321   6.687   5.422   0.199 -0.3700 -0.6565  0.6429
 3946SOL    HW113322   6.658   5.332   0.184  1.4231 -1.3044  0.9093
 3946SOL    HW213323   6.624   5.458   0.261 -1.4975 -1.5100 -0.0008
 3947SOL     OW13324   0.471   5.158   3.446 -0.0510  0.0715 -0.0607
 3947SOL    HW113325   0.474   5.252   3.463 -0.1513  0.4875 -2.1786
 3947SOL    HW213326   0.420   5.121   3.518 -0.1717  1.6731  0.6731
 3948SOL     OW13327   2.716   4.093   4.908  0.3208 -0.3847  0.5594
 3948SOL    HW113328   2.705   4.125   4.998 -1.7138 -0.8599  0.5142
 3948SOL    HW213329   2.704   4.171   4.854 -1.1810 -0.5737  0.5987
 3949SOL     OW13330   5.133   7.228   4.206 -0.3253 -0.4152 -0.2756
 3949SOL    HW113331   5.162   7.138   4.196  0.2592 -0.1560 -0.8918
 3949SOL    HW213332   5.184   7.278   4.143  0.6472  0.6313  1.2948
 3950SOL     OW13333   0.960   3.416   8.269 -0.0390 -0.4549  0.0018
 3950SOL    HW113334   0.950   3.511   8.262  0.3036 -0.4409 -0.3063
 3950SOL    HW213335   0.872   3.381   8.251 -0.5570 -0.1214  1.8193
 3951SOL     OW13336   2.336   4.275   8.049  0.4749 -0.3801  0.1144
 3951SOL    HW113337   2.371   4.306   8.132  0.5599 -0.3341  0.0625
 3951SOL    HW213338   2.268   4.213   8.073 -1.5732  1.8761  0.2428
 3952SOL     OW13339   5.789   1.529   4.991 -0.6409  0.7815  0.2849
 3952SOL    HW113340   5.834   1.612   5.005 -0.6801  1.0707 -1.2654
 3952SOL    HW213341   5.773   1.496   5.079 -0.1478  2.1580  0.9092
 3953SOL     OW13342   1.524   0.600   7.422 -1.2098  0.2809 -0.3871
 3953SOL    HW113343   1.542   0.684   7.466  0.3750  0.5907 -1.6026
 3953SOL    HW213344   1.566   0.608   7.336 -0.4013 -2.0331 -0.2452
 3954SOL     OW13345   4.074   3.120   6.189 -0.2262  0.1612  0.4600
 3954SOL    HW113346   4.139   3.171   6.237  1.0678 -0.4915 -0.5647
 3954SOL    HW213347   4.072   3.036   6.233  1.2480 -0.5733 -0.8315
 3955SOL     OW13348   2.512   0.805   7.453 -0.1529  0.3905 -0.0057
 3955SOL    HW113349   2.448   0.833   7.518  0.8933  1.2618  0.6558
 3955SOL    HW213350   2.518   0.878   7.392  0.8480  0.6737  0.4220
 3956SOL     OW13351   1.040   4.741   1.666 -0.7693 -0.1316 -0.6013
 3956SOL    HW113352   0.956   4.768   1.628 -0.9470 -1.1759 -0.9888
 3956SOL    HW213353   1.086   4.822   1.685 -1.8389  0.4483 -0.4763
 3957SOL     OW13354   2.202   0.378   4.239  0.2379  0.5911  0.1956
 3957SOL    HW113355   2.147   0.307   4.273  0.1264  0.4714 -0.2384
 3957SOL    HW213356   2.174   0.389   4.148 -0.1136  1.5479  0.4089
 3958SOL     OW13357   7.527   4.947   1.864  0.0058  0.6027 -0.1057
 3958SOL    HW113358   7.529   4.851   1.870  1.6595  0.6723  0.6915
 3958SOL    HW213359   7.449   4.972   1.914  0.0542 -0.2863  0.4315
 3959SOL     OW13360   3.722   3.090   3.890 -0.4264  1.1134 -0.1242
 3959SOL    HW113361   3.770   3.119   3.812  2.4771 -0.8969  0.8135
 3959SOL    HW213362   3.681   3.008   3.864  1.6180 -0.2306  0.7919
 3960SOL     OW13363   1.854   6.759   1.278 -0.0167 -0.6547 -0.4154
 3960SOL    HW113364   1.876   6.713   1.197  1.0760 -0.4446 -0.2468
 3960SOL    HW213365   1.938   6.789   1.312 -0.6356  0.7493 -0.0882
 3961SOL     OW13366   4.279   1.201   7.299 -0.1789  0.0900  0.0206
 3961SOL    HW113367   4.370   1.218   7.324 -0.0212 -1.3971  0.4879
 3961SOL    HW213368   4.285   1.130   7.236 -1.0078  0.1999 -0.1837
 3962SOL     OW13369   5.725   2.893   7.370  0.2305 -0.0027  0.2101
 3962SOL    HW113370   5.792   2.897   7.438 -0.1633 -0.8600  0.6491
 3962SOL    HW213371   5.768   2.849   7.297 -0.4197 -2.2796  1.1678
 3963SOL     OW13372   6.446   3.716   7.728  0.0060 -0.0258 -0.2135
 3963SOL    HW113373   6.353   3.737   7.724  0.0600  0.2965  0.1898
 3963SOL    HW213374   6.490   3.801   7.722  0.2325 -0.0270  1.2825
 3964SOL     OW13375   2.350   4.971   4.699  0.5481  0.0068 -0.2589
 3964SOL    HW113376   2.419   4.921   4.656  1.6257  0.5443  0.8207
 3964SOL    HW213377   2.277   4.909   4.706  1.0421 -0.6861 -1.0452
 3965SOL     OW13378   5.068   4.887   7.160  0.3654 -0.1926 -0.0195
 3965SOL    HW113379   5.077   4.792   7.156 -0.2211 -0.2596  0.2371
 3965SOL    HW213380   5.019   4.903   7.241 -0.6526  0.2502 -0.7172
 3966SOL     OW13381   1.947   1.505   7.179 -0.1691  0.1267  0.1687
 3966SOL    HW113382   1.936   1.426   7.232 -0.6022 -0.3794 -0.6779
 3966SOL    HW213383   1.960   1.473   7.090 -1.1487  1.0342 -0.3118
 3967SOL     OW13384   5.610   6.405   6.155  0.1727 -0.1481  0.4843
 3967SOL    HW113385   5.558   6.485   6.159  0.1771 -0.1299  0.2077
 3967SOL    HW213386   5.688   6.423   6.207 -0.1474 -0.2108  0.9852
 3968SOL     OW13387   6.719   3.044   4.728  0.4199  0.4227 -0.1884
 3968SOL    HW113388   6.707   3.135   4.699 -1.8577  0.4676  0.7807
 3968SOL    HW213389   6.688   2.992   4.653 -2.1481  0.5187  0.7396
 3969SOL     OW13390   2.725   6.915   3.056 -0.1516  0.4262  0.0107
 3969SOL    HW113391   2.799   6.896   2.998 -0.2339 -0.5126  0.1943
 3969SOL    HW213392   2.762   6.967   3.127  0.1663  0.6614 -0.3249
 3970SOL     OW13393   0.788   2.037   5.857  0.1750  0.3841  0.4047
 3970SOL    HW113394   0.807   2.078   5.941  0.7678  1.9207 -0.4587
 3970SOL    HW213395   0.777   2.110   5.796  0.7644 -0.7248 -1.0695
 3971SOL     OW13396   5.560   5.011   5.721 -0.5522 -0.0354  0.0396
 3971SOL    HW113397   5.577   4.957   5.644  0.5754  1.3327 -0.6928
 3971SOL    HW213398   5.608   4.968   5.792 -0.3820 -0.4823 -0.3467
 3972SOL     OW13399   3.778   5.380   5.301 -0.3568 -0.8927  0.2458
 3972SOL    HW113400   3.761   5.308   5.240 -1.1733 -1.2681  0.9094
 3972SOL    HW213401   3.866   5.362   5.334 -0.5020 -1.5279  0.3113
 3973SOL     OW13402   2.189   1.428   1.314 -0.3312  0.1602 -0.5863
 3973SOL    HW113403   2.275   1.465   1.296 -0.2765 -1.2518 -3.5408
 3973SOL    HW213404   2.127   1.487   1.271 -0.8849  1.4168  1.9097
 3974SOL     OW13405   4.475   7.822   1.615 -0.7222  0.4046 -0.0571
 3974SOL    HW113406   4.453   7.731   1.635 -0.2280  0.1733 -0.5616
 3974SOL    HW213407   4.437   7.838   1.529  0.8524  0.0829 -0.8157
 3975SOL     OW13408   6.556   2.410   0.130 -0.3517 -0.6313 -0.3386
 3975SOL    HW113409   6.578   2.502   0.146 -0.2413 -0.6509 -0.3738
 3975SOL    HW213410   6.590   2.393   0.042  0.1490 -0.8673 -0.0995
 3976SOL     OW13411   6.751   1.608   5.176  0.2203 -0.0998 -0.3055
 3976SOL    HW113412   6.724   1.629   5.087 -0.1069 -0.6057 -0.3250
 3976SOL    HW213413   6.768   1.694   5.216  0.2165  0.1348 -0.8021
 3977SOL     OW13414   5.210   7.770   0.798  0.5099  0.0839  0.0893
 3977SOL    HW113415   5.256   7.833   0.742  1.8741 -1.5369 -0.6345
 3977SOL    HW213416   5.166   7.711   0.737  2.4901 -2.0505  0.6700
 3978SOL     OW13417   2.437   2.539   2.511 -0.1586  0.4537  0.1870
 3978SOL    HW113418   2.525   2.509   2.489 -0.5324  0.4478 -1.3511
 3978SOL    HW213419   2.414   2.599   2.440 -1.5699  0.1091  0.3513
 3979SOL     OW13420   3.850   2.335   6.739 -0.0674 -0.0311  0.0024
 3979SOL    HW113421   3.930   2.309   6.784  0.8675  1.7288 -0.6037
 3979SOL    HW213422   3.780   2.301   6.794  1.0699  0.7939  2.0140
 3980SOL     OW13423   0.758   4.717   6.420 -0.6290 -0.2313 -1.1740
 3980SOL    HW113424   0.761   4.640   6.477 -0.3135  1.7419  1.5533
 3980SOL    HW213425   0.849   4.748   6.418 -1.2410  1.7481  0.1612
 3981SOL     OW13426   3.321   2.148   2.775 -0.2918  0.0166  0.0977
 3981SOL    HW113427   3.387   2.198   2.727 -0.0151  0.5602  1.0349
 3981SOL    HW213428   3.359   2.061   2.785 -0.4817 -0.1908 -0.9290
 3982SOL     OW13429   6.378   1.452   4.956 -0.0323  0.5598  0.0562
 3982SOL    HW113430   6.321   1.515   5.001  0.2985 -0.1617  1.5434
 3982SOL    HW213431   6.415   1.501   4.883  0.1366  2.0703  1.1150
 3983SOL     OW13432   6.164   3.917   5.978 -0.1536  0.1484 -0.0998
 3983SOL    HW113433   6.256   3.899   5.959  0.0604  0.9789  0.1479
 3983SOL    HW213434   6.116   3.854   5.923  0.5741 -1.1281  0.7125
 3984SOL     OW13435   4.879   4.734   1.667 -0.0714  0.2874 -0.1945
 3984SOL    HW113436   4.893   4.798   1.736 -0.4452 -1.7608  1.8461
 3984SOL    HW213437   4.952   4.747   1.607 -0.6976  3.2819 -0.3880
 3985SOL     OW13438   7.624   6.225   5.121 -0.0920 -0.3579  0.3028
 3985SOL    HW113439   7.541   6.181   5.139 -1.1719  1.0325 -1.1110
 3985SOL    HW213440   7.619   6.250   5.028  1.6624  0.2363  0.3403
 3986SOL     OW13441   5.633   7.396   8.206 -0.5315 -0.1959 -0.0578
 3986SOL    HW113442   5.638   7.300   8.205  1.9884 -0.0893 -1.3824
 3986SOL    HW213443   5.643   7.421   8.114  0.4064  1.3940  0.4583
 3987SOL     OW13444   6.545   6.249   6.096 -0.0057  0.5392  0.7764
 3987SOL    HW113445   6.624   6.238   6.148 -0.5555  0.5015  1.6019
 3987SOL    HW213446   6.478   6.276   6.158 -0.3786  1.7017 -0.0978
 3988SOL     OW13447   7.641   1.516   0.605  0.0358  0.0992  0.1753
 3988SOL    HW113448   7.723   1.512   0.655  0.9158  0.0716 -1.2146
 3988SOL    HW213449   7.645   1.601   0.561 -0.4824 -0.0882 -0.2348
 3989SOL     OW13450   7.795   1.598   2.337  0.5127 -0.2581  0.1522
 3989SOL    HW113451   7.727   1.533   2.351 -0.2245  0.6864  0.9952
 3989SOL    HW213452   7.827   1.620   2.425  0.2229  1.0628 -0.0551
 3990SOL     OW13453   5.226   0.548   0.426 -0.2040 -0.0256 -0.0392
 3990SOL    HW113454   5.309   0.565   0.381  0.0899 -1.2332  0.0313
 3990SOL    HW213455   5.171   0.623   0.405  0.4879  0.1906 -1.0897
 3991SOL     OW13456   5.316   4.302   3.694 -0.0420  0.5398 -0.7473
 3991SOL    HW113457   5.289   4.211   3.683  0.3392  0.4587 -0.9995
 3991SOL    HW213458   5.280   4.327   3.779 -0.0863  0.1313 -0.6446
 3992SOL     OW13459   6.047   3.441   7.770 -0.2256 -0.2868  0.0771
 3992SOL    HW113460   6.095   3.423   7.689  0.4712  0.8742  0.2159
 3992SOL    HW213461   6.026   3.534   7.765  0.1569 -0.1190  1.4006
 3993SOL     OW13462   1.863   5.602   3.499 -0.1206  0.0382  0.1904
 3993SOL    HW113463   1.848   5.563   3.585 -1.9006 -1.3658 -0.7122
 3993SOL    HW213464   1.776   5.622   3.466  0.5708  1.0358 -1.0774
 3994SOL     OW13465   3.854   3.611   4.448 -0.7356  0.2126 -0.1168
 3994SOL    HW113466   3.832   3.526   4.409  0.5409 -0.3529  0.3562
 3994SOL    HW213467   3.784   3.669   4.419 -1.3434 -0.8725 -0.8932
 3995SOL     OW13468   5.109   2.408   0.496  0.2800  0.1194  0.2587
 3995SOL    HW113469   5.130   2.379   0.585 -0.7488  0.4222  0.6084
 3995SOL    HW213470   5.152   2.492   0.488  0.8109 -0.1469  0.2861
 3996SOL     OW13471   0.348   4.427   1.409 -0.1204  0.4747 -0.6051
 3996SOL    HW113472   0.355   4.364   1.337 -1.9536 -0.0215 -0.3944
 3996SOL    HW213473   0.272   4.481   1.386  0.0035  1.0754  0.3660
 3997SOL     OW13474   6.804   1.613   3.643  0.1726  0.2208  0.6639
 3997SOL    HW113475   6.836   1.536   3.690 -0.5919  0.0142  0.8468
 3997SOL    HW213476   6.839   1.687   3.694  0.0394 -0.0026  1.0818
 3998SOL     OW13477   2.782   2.057   8.304  0.1311  0.2355  0.1683
 3998SOL    HW113478   2.796   2.110   8.382 -0.0020  1.3307 -0.5435
 3998SOL    HW213479   2.814   2.111   8.232  0.4926 -0.8720 -0.5111
 3999SOL     OW13480   1.818   6.052   2.442 -0.5514 -0.1019  0.3763
 3999SOL    HW113481   1.872   5.974   2.432 -0.5653 -0.1641  0.7565
 3999SOL    HW213482   1.740   6.034   2.389 -0.9731 -0.7410  1.1923
 4000SOL     OW13483   4.096   2.531   7.336 -0.2395 -0.0397  0.6431
 4000SOL    HW113484   4.135   2.503   7.418  0.1313 -1.1858  0.0889
 4000SOL    HW213485   4.002   2.533   7.353 -0.2933 -1.7585  0.6776
 4001SOL     OW13486   2.791   0.500   3.185 -0.2999 -0.4287  0.1370
 4001SOL    HW113487   2.740   0.489   3.105 -0.3538 -2.6995  0.4467
 4001SOL    HW213488   2.854   0.428   3.183  1.1964  0.8431  1.0219
 4002SOL     OW13489   8.029   2.355   2.791 -0.9936  0.1839 -0.2359
 4002SOL    HW113490   8.064   2.300   2.721 -0.4133 -1.0195  0.9982
 4002SOL    HW213491   7.934   2.346   2.783 -0.9203 -0.2872 -0.5871
 4003SOL     OW13492   6.883   3.961   6.089  0.2091 -0.5619 -0.2862
 4003SOL    HW113493   6.928   3.952   6.173  0.2893  0.3144 -0.2293
 4003SOL    HW213494   6.796   3.995   6.111  0.8610  1.4281 -0.6863
 4004SOL     OW13495   3.644   1.245   2.827 -0.0910 -0.0975 -0.1070
 4004SOL    HW113496   3.558   1.280   2.804 -0.5314  0.1714  1.8392
 4004SOL    HW213497   3.694   1.321   2.857 -0.0046 -0.6139  1.1149
 4005SOL     OW13498   5.017   2.534   1.800  0.2393  0.4138 -0.3789
 4005SOL    HW113499   4.951   2.532   1.731 -0.5120 -0.9616  0.3459
 4005SOL    HW213500   5.047   2.443   1.807  1.6081  0.8743 -0.1221
 4006SOL     OW13501   7.543   4.819   4.992  0.0647  0.6806 -0.0005
 4006SOL    HW113502   7.618   4.764   4.970  0.8771  1.1326  1.6012
 4006SOL    HW213503   7.579   4.906   5.006 -1.3429  1.9264 -3.4899
 4007SOL     OW13504   2.414   0.608   1.979  0.1632 -0.1917  0.2057
 4007SOL    HW113505   2.320   0.624   1.981  0.2908  0.7259 -0.5993
 4007SOL    HW213506   2.439   0.628   1.888  0.8416 -2.0950 -0.0603
 4008SOL     OW13507   7.148   3.234   1.362  0.6591 -0.1803 -0.1367
 4008SOL    HW113508   7.064   3.246   1.407 -0.0979 -0.5775 -1.3854
 4008SOL    HW213509   7.153   3.139   1.346 -0.3808  0.2255 -3.2117
 4009SOL     OW13510   1.959   3.232   3.595 -0.2577  0.4655 -0.0196
 4009SOL    HW113511   2.022   3.223   3.667 -0.6015  1.8799  0.4701
 4009SOL    HW213512   2.010   3.274   3.525  0.2317 -1.4074 -0.8398
 4010SOL     OW13513   5.483   1.873   2.320  0.3550 -0.9760  0.7990
 4010SOL    HW113514   5.517   1.934   2.385 -2.1660  1.1359  0.1878
 4010SOL    HW213515   5.499   1.787   2.358  2.4385  0.0726  2.4339
 4011SOL     OW13516   2.490   2.537   5.602  0.2734  0.0052  0.7277
 4011SOL    HW113517   2.491   2.480   5.680 -1.2644 -1.4230 -0.2588
 4011SOL    HW213518   2.450   2.483   5.534 -2.7188  2.7915  0.1468
 4012SOL     OW13519   6.825   2.115   0.344 -0.0640 -0.6819  0.1501
 4012SOL    HW113520   6.916   2.140   0.328  0.1117 -1.0014  0.6347
 4012SOL    HW213521   6.784   2.114   0.257  0.2371  0.0750  0.0036
 4013SOL     OW13522   7.764   0.259   1.900 -0.0466 -0.1042 -0.8674
 4013SOL    HW113523   7.718   0.258   1.816  0.5449 -2.7283 -1.1931
 4013SOL    HW213524   7.719   0.194   1.953 -0.8793  2.0603  1.1481
 4014SOL     OW13525   5.907   7.081   7.130 -0.2048 -0.3633 -0.0605
 4014SOL    HW113526   5.886   6.989   7.149  0.6398 -0.6016 -0.2678
 4014SOL    HW213527   5.825   7.128   7.147 -0.7755 -1.2177 -0.3939
 4015SOL     OW13528   3.763   0.781   6.084  0.4404  0.5302  0.1211
 4015SOL    HW113529   3.847   0.735   6.082  0.1148 -0.0677 -0.1369
 4015SOL    HW213530   3.758   0.820   6.171 -0.5726 -2.3811  1.4227
 4016SOL     OW13531   5.598   4.963   4.373  0.0885  0.4405  0.1499
 4016SOL    HW113532   5.683   4.953   4.330 -0.3872 -0.0852 -0.6792
 4016SOL    HW213533   5.565   4.874   4.382  0.3201  0.5228  1.8991
 4017SOL     OW13534   1.180   7.836   1.558  0.3374 -0.0283  0.2229
 4017SOL    HW113535   1.182   7.788   1.640  0.5327  0.0661  0.2735
 4017SOL    HW213536   1.119   7.787   1.502 -0.0118  0.0667  0.5200
 4018SOL     OW13537   0.449   5.966   8.097  0.0477  0.1098  0.0793
 4018SOL    HW113538   0.403   5.998   8.175 -1.2618 -0.1108 -0.6005
 4018SOL    HW213539   0.528   6.020   8.093 -0.4192  0.8760  0.9310
 4019SOL     OW13540   7.345   1.332   1.649  0.0074 -0.0901 -0.1308
 4019SOL    HW113541   7.357   1.370   1.562  1.6344 -0.7380 -0.2036
 4019SOL    HW213542   7.273   1.270   1.639 -2.6202  2.8397 -0.0450
 4020SOL     OW13543   5.337   6.552   4.458  0.2199 -0.2976 -0.2232
 4020SOL    HW113544   5.289   6.565   4.539  0.0507 -1.0338 -0.1993
 4020SOL    HW213545   5.316   6.462   4.432  0.0753  0.0156 -1.2090
 4021SOL     OW13546   3.644   3.587   5.593  0.4046 -0.2319 -0.2011
 4021SOL    HW113547   3.617   3.661   5.647  1.0629  0.5349 -0.9214
 4021SOL    HW213548   3.563   3.555   5.553  0.0211 -0.3480  0.6614
 4022SOL     OW13549   4.848   4.105   3.238  0.0336  0.2132 -0.0102
 4022SOL    HW113550   4.808   4.075   3.320  0.4094  1.7567  0.7517
 4022SOL    HW213551   4.785   4.166   3.202 -0.5016 -1.0846 -1.3090
 4023SOL     OW13552   0.477   5.570   8.045 -0.5521  0.3531  0.2005
 4023SOL    HW113553   0.527   5.492   8.023  0.0220  0.7836 -0.0422
 4023SOL    HW213554   0.432   5.548   8.126 -1.0632 -0.5223 -0.3171
 4024SOL     OW13555   4.074   6.288   1.254  0.1084 -0.0882  0.7711
 4024SOL    HW113556   4.123   6.285   1.172  2.4020 -0.6693  2.1216
 4024SOL    HW213557   4.135   6.257   1.320 -1.4083  1.2421  2.8787
 4025SOL     OW13558   6.523   2.621   0.641  0.7623  0.3753 -0.3344
 4025SOL    HW113559   6.442   2.618   0.692  2.0326 -0.4611  1.6840
 4025SOL    HW213560   6.520   2.541   0.589  0.4786  0.1488  0.0235
 4026SOL     OW13561   4.786   6.998   2.710  0.3608 -0.4185 -0.1404
 4026SOL    HW113562   4.874   7.033   2.695 -0.1726  0.3331 -1.5930
 4026SOL    HW213563   4.734   7.075   2.732  0.1935 -0.9526  1.4097
 4027SOL     OW13564   5.780   5.023   4.785  0.3315  0.5761 -0.4475
 4027SOL    HW113565   5.695   5.043   4.744 -0.5792  0.6767  1.4512
 4027SOL    HW213566   5.843   5.030   4.713 -1.5386 -1.6202 -2.3811
 4028SOL     OW13567   0.653   0.461   8.156  0.6609  0.1139 -0.1415
 4028SOL    HW113568   0.681   0.478   8.066  0.2111 -1.0675 -0.5111
 4028SOL    HW213569   0.657   0.547   8.199  1.9688  0.4906 -0.9714
 4029SOL     OW13570   7.817   6.439   5.009 -0.2598  0.1912  0.2948
 4029SOL    HW113571   7.807   6.422   5.103 -0.3500  0.2041  0.2884
 4029SOL    HW213572   7.908   6.416   4.990  0.5156  2.5396  0.8919
 4030SOL     OW13573   4.612   5.146   6.131 -0.3195 -0.4046  0.1869
 4030SOL    HW113574   4.637   5.084   6.063  1.0186 -2.1553  2.2162
 4030SOL    HW213575   4.592   5.092   6.208 -0.7723  1.5634  1.5154
 4031SOL     OW13576   4.702   8.196   5.823  0.4045 -0.1831 -0.6461
 4031SOL    HW113577   4.723   8.221   5.733  1.2145 -0.8842 -0.6646
 4031SOL    HW213578   4.716   8.102   5.825 -0.0050 -0.2296  0.1146
 4032SOL     OW13579   1.462   6.198   6.516  0.3802 -0.2322  0.1295
 4032SOL    HW113580   1.495   6.112   6.493  2.1674  0.7245 -1.0518
 4032SOL    HW213581   1.371   6.199   6.486 -0.2669 -2.3486  1.9176
 4033SOL     OW13582   0.589   7.275   1.003 -0.1279 -0.2169 -0.0753
 4033SOL    HW113583   0.651   7.319   1.062 -0.0929 -1.5550  0.9067
 4033SOL    HW213584   0.590   7.183   1.031 -2.9251 -0.1877  0.3006
 4034SOL     OW13585   6.427   2.841   6.393 -0.5325 -0.1746  0.3649
 4034SOL    HW113586   6.522   2.843   6.408 -0.4711  0.7334 -0.1418
 4034SOL    HW213587   6.390   2.886   6.470 -0.4929  0.3014  0.1080
 4035SOL     OW13588   2.743   5.934   4.843  0.1190  0.4689  0.3297
 4035SOL    HW113589   2.832   5.967   4.856 -0.2269  1.0463  1.2471
 4035SOL    HW213590   2.751   5.871   4.771  0.9917  1.6696 -0.6466
 4036SOL     OW13591   2.086   6.220   3.031 -0.1367  0.1391 -0.6827
 4036SOL    HW113592   2.153   6.152   3.020 -0.7087 -0.6250  0.4921
 4036SOL    HW213593   2.129   6.286   3.085  0.5829  0.9727 -2.2203
 4037SOL     OW13594   5.022   6.277   5.317  0.0437 -0.2999 -0.4678
 4037SOL    HW113595   5.032   6.335   5.241  1.2416 -1.4519 -1.2193
 4037SOL    HW213596   5.089   6.209   5.304  0.3038 -0.4855  1.6502
 4038SOL     OW13597   6.624   5.242   3.288  0.1667 -0.3974 -0.0826
 4038SOL    HW113598   6.634   5.148   3.273 -0.5154 -0.3848 -0.6441
 4038SOL    HW213599   6.531   5.252   3.312 -0.0436  0.2797 -1.1798
 4039SOL     OW13600   4.006   0.486   5.556  0.0042  0.1124 -0.6300
 4039SOL    HW113601   3.985   0.463   5.465 -1.1701  0.2838 -0.4005
 4039SOL    HW213602   3.940   0.441   5.608 -0.6952  1.8586 -0.0003
 4040SOL     OW13603   4.128   2.668   6.991  0.1154  0.3025  0.5024
 4040SOL    HW113604   4.056   2.631   7.042  0.1154 -0.9711 -0.3749
 4040SOL    HW213605   4.201   2.607   7.004  0.8880  1.3030  0.9712
 4041SOL     OW13606   3.715   7.726   5.963  0.3784  0.4883 -0.2575
 4041SOL    HW113607   3.771   7.795   6.000 -1.6591  1.1198  1.8056
 4041SOL    HW213608   3.726   7.652   6.023 -0.4289  0.3868 -0.2247
 4042SOL     OW13609   7.292   7.105   7.550  0.0658 -0.1784  0.1693
 4042SOL    HW113610   7.368   7.109   7.607 -0.7948  0.3303  1.2999
 4042SOL    HW213611   7.290   7.190   7.506 -0.0523 -0.0463  0.4250
 4043SOL     OW13612   3.358   3.576   6.035 -0.3956 -0.1446  0.2610
 4043SOL    HW113613   3.307   3.593   5.956  0.8010 -1.5668 -0.8404
 4043SOL    HW213614   3.381   3.483   6.029 -0.0931 -0.2090  2.1699
 4044SOL     OW13615   6.302   3.963   4.766 -0.2006  0.4007 -0.0505
 4044SOL    HW113616   6.295   3.882   4.816 -1.6330  0.0362 -0.8227
 4044SOL    HW213617   6.234   3.957   4.699 -0.5414  2.3653  0.0649
 4045SOL     OW13618   7.408   5.113   3.805 -1.1891 -0.6397 -0.2343
 4045SOL    HW113619   7.392   5.019   3.813 -0.6379 -0.6182  1.2422
 4045SOL    HW213620   7.501   5.124   3.824 -0.7944 -0.0172 -2.4102
 4046SOL     OW13621   7.516   0.740   6.450  0.0217 -0.4420 -0.2175
 4046SOL    HW113622   7.434   0.748   6.401  0.1589  0.1051 -0.3644
 4046SOL    HW213623   7.530   0.646   6.459 -0.5615 -0.5365 -0.2968
 4047SOL     OW13624   4.967   6.674   5.653 -0.1854  0.2042 -0.4532
 4047SOL    HW113625   4.952   6.762   5.620  0.2634  0.3192 -0.3439
 4047SOL    HW213626   4.915   6.618   5.596 -0.7643  0.5736 -0.2946
 4048SOL     OW13627   1.905   0.811   0.659  0.2883 -0.5401  0.1236
 4048SOL    HW113628   1.911   0.734   0.603 -1.9147 -0.4332 -0.3166
 4048SOL    HW213629   1.876   0.882   0.601  1.4360  0.4239  0.7005
 4049SOL     OW13630   7.204   3.751   3.127  0.5595  0.8348  0.0097
 4049SOL    HW113631   7.121   3.744   3.174  0.1616  1.3488 -0.6177
 4049SOL    HW213632   7.201   3.680   3.062  0.6699  0.7746  0.0697
 4050SOL     OW13633   7.189   1.913   0.099 -0.4844 -0.4567 -0.1492
 4050SOL    HW113634   7.195   1.883   0.008  0.2017  0.8456 -0.5373
 4050SOL    HW213635   7.273   1.887   0.137 -0.3341 -0.0190 -0.1847
 4051SOL     OW13636   7.761   6.888   1.493  0.2210  0.1147  0.0506
 4051SOL    HW113637   7.685   6.943   1.473  0.7290  1.2927  1.3342
 4051SOL    HW213638   7.725   6.815   1.543 -0.4890 -0.8870 -1.8547
 4052SOL     OW13639   2.120   5.567   0.541 -0.1119 -0.2160  0.0682
 4052SOL    HW113640   2.077   5.586   0.624  0.2661 -1.2013  0.5020
 4052SOL    HW213641   2.183   5.498   0.562  0.2336 -0.2298 -0.9690
 4053SOL     OW13642   1.647   3.656   6.458  0.1815 -0.1301  0.1674
 4053SOL    HW113643   1.709   3.615   6.397  0.5184 -1.6620  1.4974
 4053SOL    HW213644   1.584   3.587   6.478 -0.3540  0.5844  0.9891
 4054SOL     OW13645   6.717   0.746   4.915 -0.0371 -0.0559  0.2376
 4054SOL    HW113646   6.740   0.808   4.847 -1.3580 -1.1996 -1.2863
 4054SOL    HW213647   6.709   0.799   4.995  0.9571  1.3670 -0.5951
 4055SOL     OW13648   8.013   3.192   1.460  0.0904  0.1643 -0.2076
 4055SOL    HW113649   8.026   3.250   1.385 -0.6066 -0.1201 -0.5538
 4055SOL    HW213650   8.007   3.104   1.421 -1.8333  0.1743  0.0281
 4056SOL     OW13651   4.555   1.894   4.232 -0.0669  0.2490  0.4272
 4056SOL    HW113652   4.536   1.950   4.307  0.3529 -0.2764  0.9337
 4056SOL    HW213653   4.624   1.836   4.262 -0.6067 -0.6495 -0.0402
 4057SOL     OW13654   4.448   5.415   4.053 -0.0250  0.2013 -0.5682
 4057SOL    HW113655   4.536   5.439   4.022  0.8212 -0.4887  1.2627
 4057SOL    HW213656   4.397   5.405   3.973  1.3774  1.3247 -1.6352
 4058SOL     OW13657   5.577   6.503   2.759  0.1669  0.0881 -0.1693
 4058SOL    HW113658   5.628   6.579   2.787 -0.2981  0.5471 -0.5418
 4058SOL    HW213659   5.637   6.429   2.765  1.0854  0.7334 -1.2618
 4059SOL     OW13660   4.139   2.017   1.640  0.1675 -0.3485 -0.4023
 4059SOL    HW113661   4.054   1.975   1.625 -0.1548  0.0910  0.2125
 4059SOL    HW213662   4.167   2.045   1.553  0.2302 -1.5299 -0.7771
 4060SOL     OW13663   5.326   3.257   3.718 -0.2838 -0.1521  0.1100
 4060SOL    HW113664   5.243   3.217   3.742 -0.5950 -0.7343 -1.9346
 4060SOL    HW213665   5.303   3.342   3.683  0.0002 -0.2281 -0.2644
 4061SOL     OW13666   4.598   8.218   2.088 -0.3768  0.5291 -0.3614
 4061SOL    HW113667   4.511   8.242   2.054 -0.3298  1.5174  0.1912
 4061SOL    HW213668   4.630   8.152   2.027 -2.3646 -1.3500  0.5743
 4062SOL     OW13669   4.286   4.247   4.984  0.5319 -0.0092  0.2092
 4062SOL    HW113670   4.213   4.273   4.928  0.1884 -1.7205 -0.1651
 4062SOL    HW213671   4.318   4.166   4.945  2.0524  0.2284  0.9094
 4063SOL     OW13672   0.734   6.226   3.423  0.0240  0.0757  0.0871
 4063SOL    HW113673   0.813   6.212   3.476  0.6585 -0.6988 -1.0429
 4063SOL    HW213674   0.693   6.303   3.462  0.0475 -0.9517  2.2143
 4064SOL     OW13675   1.565   3.842   3.792 -0.4050 -0.8226 -0.3848
 4064SOL    HW113676   1.519   3.838   3.708 -1.1694 -0.2805  0.0063
 4064SOL    HW213677   1.580   3.751   3.816  0.3177 -0.9777 -1.3828
 4065SOL     OW13678   5.720   8.178   5.523  0.0517  0.3763 -0.5210
 4065SOL    HW113679   5.636   8.140   5.548 -0.1348  0.9832 -0.2017
 4065SOL    HW213680   5.697   8.256   5.473  0.4204  0.7328 -0.1436
 4066SOL     OW13681   5.466   0.499   6.592  0.0404 -0.8060 -0.0154
 4066SOL    HW113682   5.462   0.553   6.513  0.1889 -0.5006  0.1816
 4066SOL    HW213683   5.559   0.480   6.603  0.1618  0.1781  0.7623
 4067SOL     OW13684   2.602   4.974   6.226 -0.0434 -0.3760  0.4202
 4067SOL    HW113685   2.675   4.966   6.287 -1.2438  0.1775  1.9750
 4067SOL    HW213686   2.610   5.062   6.189  0.2858 -0.4548  0.3041
 4068SOL     OW13687   1.983   7.698   7.855  0.2209  0.2146 -0.2732
 4068SOL    HW113688   2.021   7.640   7.790 -1.6740 -1.1341 -0.2247
 4068SOL    HW213689   2.057   7.727   7.908  1.3378 -1.2497 -1.0091
 4069SOL     OW13690   1.116   1.331   0.559  0.3789 -0.4901  0.0261
 4069SOL    HW113691   1.038   1.303   0.511  1.9142  0.4945 -3.2103
 4069SOL    HW213692   1.095   1.419   0.590 -0.5496 -1.0445  0.9795
 4070SOL     OW13693   6.560   7.814   4.771  0.1086  0.4872  0.0999
 4070SOL    HW113694   6.496   7.748   4.796 -1.7606  1.4889 -1.8453
 4070SOL    HW213695   6.516   7.898   4.785 -1.0310  1.1227 -5.9781
 4071SOL     OW13696   5.128   4.124   2.781 -0.4086  0.0528 -0.0014
 4071SOL    HW113697   5.221   4.118   2.804 -0.8123 -2.3048  1.1023
 4071SOL    HW213698   5.092   4.039   2.803 -3.0926  1.3054  0.6582
 4072SOL     OW13699   7.374   3.215   5.972 -0.5658 -0.4844  0.2144
 4072SOL    HW113700   7.402   3.164   5.896 -1.4867 -1.8933  0.8047
 4072SOL    HW213701   7.326   3.289   5.934 -0.5083 -0.8605 -0.5942
 4073SOL     OW13702   6.965   6.772   0.985 -0.1391  0.0865 -0.0366
 4073SOL    HW113703   7.015   6.731   0.915 -0.7220 -0.0779 -0.3645
 4073SOL    HW213704   7.009   6.856   1.001  1.6089 -1.0580  1.2735
 4074SOL     OW13705   5.495   7.057   4.332  0.3165 -0.5641  0.3911
 4074SOL    HW113706   5.493   7.152   4.319 -0.6550 -0.5157  0.8466
 4074SOL    HW213707   5.403   7.032   4.335  0.5663 -1.6693 -0.7454
 4075SOL     OW13708   4.001   3.686   7.804 -0.0238  0.5272 -0.9272
 4075SOL    HW113709   3.970   3.671   7.715 -2.5248  1.8670 -0.3353
 4075SOL    HW213710   4.057   3.763   7.799  0.5965  0.0477 -1.4660
 4076SOL     OW13711   3.933   2.391   4.862  0.5386  0.2527 -0.3987
 4076SOL    HW113712   3.923   2.327   4.791 -2.4045  0.7211 -0.4755
 4076SOL    HW213713   3.977   2.343   4.931 -1.0007 -1.6897 -0.7210
 4077SOL     OW13714   6.493   2.125   3.883 -0.2705 -0.5489  0.2288
 4077SOL    HW113715   6.496   2.057   3.950  3.9152 -1.0620 -0.3426
 4077SOL    HW213716   6.491   2.077   3.800 -2.3189  0.0720 -0.0979
 4078SOL     OW13717   4.824   6.003   6.820 -0.2453 -0.3562 -0.0172
 4078SOL    HW113718   4.919   5.989   6.818 -0.0844  0.5527  0.8769
 4078SOL    HW213719   4.814   6.091   6.856 -1.4342 -0.4583 -0.0940
 4079SOL     OW13720   5.910   3.795   0.382 -0.6255  0.5124 -0.2110
 4079SOL    HW113721   6.004   3.776   0.386 -0.5587  1.0617  0.7356
 4079SOL    HW213722   5.873   3.719   0.337  0.0973 -0.3402  0.6080
 4080SOL     OW13723   0.012   3.786   4.151 -0.3191  0.0438 -0.1104
 4080SOL    HW113724   0.005   3.874   4.189 -3.2872 -0.2227  0.0998
 4080SOL    HW213725  -0.014   3.728   4.222 -0.5743 -0.8472 -0.9250
 4081SOL     OW13726   8.129   0.996   7.640 -0.4409  0.7800 -0.0868
 4081SOL    HW113727   8.097   0.928   7.581 -0.8304  1.4521 -0.6646
 4081SOL    HW213728   8.050   1.045   7.665 -0.1657  1.0137  0.3196
 4082SOL     OW13729   6.530   4.236   4.750  0.2472  0.6829 -0.5561
 4082SOL    HW113730   6.437   4.217   4.766  0.5903 -1.6128 -1.0504
 4082SOL    HW213731   6.530   4.322   4.709 -1.5447  1.3754  0.8095
 4083SOL     OW13732   0.778   2.541   5.646  0.0642 -0.4821 -0.0756
 4083SOL    HW113733   0.822   2.624   5.662  0.5598 -0.6883 -0.3434
 4083SOL    HW213734   0.716   2.532   5.718  0.6992 -0.3489  0.4850
 4084SOL     OW13735   7.291   1.170   3.677 -0.0136 -0.2008  0.0934
 4084SOL    HW113736   7.286   1.213   3.762  0.3880 -1.2401  0.6580
 4084SOL    HW213737   7.258   1.081   3.694 -1.3766  0.0574 -1.1634
 4085SOL     OW13738   1.992   6.163   6.321 -0.0804  0.7172  0.5428
 4085SOL    HW113739   2.040   6.125   6.395 -0.6921  0.8742  1.0237
 4085SOL    HW213740   1.932   6.225   6.361  0.7244  2.0095 -0.2187
 4086SOL     OW13741   5.078   3.005   3.384  0.3513 -0.2424 -0.0562
 4086SOL    HW113742   5.090   3.095   3.354 -1.3645  0.3279  0.8784
 4086SOL    HW213743   4.998   3.008   3.437  1.5919 -1.8400  1.9634
 4087SOL     OW13744   5.047   0.423   1.586  0.0600 -0.3788 -0.1024
 4087SOL    HW113745   5.030   0.415   1.493  2.0697 -0.1845 -0.5186
 4087SOL    HW213746   5.114   0.491   1.593 -1.2245  0.7412  1.6151
 4088SOL     OW13747   4.285   2.335   3.631 -0.0678  0.0602  0.0882
 4088SOL    HW113748   4.291   2.425   3.660  0.3296  0.0894 -0.0866
 4088SOL    HW213749   4.281   2.284   3.712 -1.5798  0.3142  0.1931
 4089SOL     OW13750   5.467   0.996   5.717  0.2364 -0.4397 -0.3510
 4089SOL    HW113751   5.399   1.046   5.671 -1.2543 -0.5570  1.6542
 4089SOL    HW213752   5.531   1.062   5.743  0.6164 -0.2417 -1.7562
 4090SOL     OW13753   1.361   1.218   0.778  0.3076 -0.0319 -0.0234
 4090SOL    HW113754   1.422   1.260   0.839  1.0518  0.1323 -0.8803
 4090SOL    HW213755   1.384   1.253   0.693  0.6023 -1.7799 -0.6918
 4091SOL     OW13756   3.798   7.391   0.778  0.4860 -0.6204 -0.2164
 4091SOL    HW113757   3.778   7.299   0.794  0.0654 -0.7973 -1.6576
 4091SOL    HW213758   3.891   7.392   0.757  0.6749 -0.5964  0.5863
 4092SOL     OW13759   6.326   6.591   6.149  0.0796  0.4275 -0.3756
 4092SOL    HW113760   6.290   6.654   6.211  0.4515  0.8466 -0.5850
 4092SOL    HW213761   6.331   6.509   6.198 -1.3346  0.3097 -0.3949
 4093SOL     OW13762   6.121   1.109   2.017 -0.1978  0.4065 -0.3780
 4093SOL    HW113763   6.121   1.055   1.938 -0.3939 -0.4265  0.1859
 4093SOL    HW213764   6.070   1.186   1.993 -1.6972 -0.6243 -0.5515
 4094SOL     OW13765   1.075   2.889   4.943  0.0265  0.2930 -0.1904
 4094SOL    HW113766   1.146   2.896   4.880 -1.5412 -0.4084 -2.0965
 4094SOL    HW213767   1.014   2.958   4.918 -1.0830 -0.6329 -0.0781
 4095SOL     OW13768   1.151   1.546   5.429  0.2676 -0.7390 -0.1223
 4095SOL    HW113769   1.152   1.459   5.388  2.8341 -1.4122  1.2961
 4095SOL    HW213770   1.213   1.597   5.377  0.4946 -0.4201  0.4682
 4096SOL     OW13771   0.053   6.389   3.754  0.0044 -0.3436 -0.3788
 4096SOL    HW113772   0.057   6.404   3.849 -0.7181  3.0157 -0.7954
 4096SOL    HW213773   0.145   6.379   3.728  0.1924 -1.5842  0.6963
 4097SOL     OW13774   2.119   2.181   7.320  0.2083  0.1940 -0.2785
 4097SOL    HW113775   2.169   2.261   7.330 -0.7781  0.5607  2.0269
 4097SOL    HW213776   2.173   2.113   7.361  0.0167  0.0952 -0.1878
 4098SOL     OW13777   2.662   0.219   3.187  0.1587 -0.0471 -0.0323
 4098SOL    HW113778   2.687   0.291   3.246 -0.1832  0.3975 -0.4217
 4098SOL    HW213779   2.608   0.262   3.120  1.6012 -0.3326 -1.3850
 4099SOL     OW13780   8.074   1.902   4.477 -0.2603  0.2709 -0.5112
 4099SOL    HW113781   8.002   1.849   4.440 -1.8186  2.3370 -0.5394
 4099SOL    HW213782   8.127   1.926   4.401  1.0996 -2.1372 -0.3657
 4100SOL     OW13783   1.527   0.724   0.945  0.5986  0.3052 -0.2557
 4100SOL    HW113784   1.439   0.694   0.923  0.3125 -0.2141  1.4852
 4100SOL    HW213785   1.576   0.715   0.864 -1.4192  2.4811 -1.7822
 4101SOL     OW13786   4.090   8.122   1.140  0.4391 -0.2072 -0.5123
 4101SOL    HW113787   4.035   8.199   1.156 -1.1043 -1.3972  0.1280
 4101SOL    HW213788   4.076   8.101   1.048  1.6230  0.8322 -0.9440
 4102SOL     OW13789   1.564   5.410   2.424 -0.5073  0.3985  0.6239
 4102SOL    HW113790   1.589   5.502   2.427  1.3605 -0.0092 -1.2794
 4102SOL    HW213791   1.579   5.377   2.512  0.9235  1.3967  0.7650
 4103SOL     OW13792   4.028   4.338   3.828  0.0845  0.5496  0.1662
 4103SOL    HW113793   3.951   4.388   3.855  0.4131  1.1986 -0.0855
 4103SOL    HW213794   3.998   4.247   3.826 -0.2476  0.6118  1.6303
 4104SOL     OW13795   5.109   3.702   3.169  0.5769  0.1532  0.0444
 4104SOL    HW113796   5.040   3.635   3.165  0.8713 -0.1834  0.4321
 4104SOL    HW213797   5.178   3.660   3.221  0.9508  0.5937 -0.1039
 4105SOL     OW13798   0.566   2.920   5.207 -0.1343  0.5215  0.2068
 4105SOL    HW113799   0.657   2.890   5.211 -0.4425 -0.4242  0.1528
 4105SOL    HW213800   0.536   2.894   5.120  0.0748  2.3782 -0.4305
 4106SOL     OW13801   7.350   0.018   3.446 -0.6704 -0.2316  0.6583
 4106SOL    HW113802   7.352  -0.048   3.516  1.4451 -0.4792  0.3771
 4106SOL    HW213803   7.305  -0.026   3.373  0.5450 -1.3093  0.5469
 4107SOL     OW13804   3.779   4.560   0.720 -0.6306 -0.1972 -0.8281
 4107SOL    HW113805   3.857   4.614   0.729 -1.0202  0.2632 -0.2046
 4107SOL    HW213806   3.742   4.556   0.808 -2.4466  1.3043 -1.4847
 4108SOL     OW13807   2.388   3.456   5.920 -0.3259 -0.0577  0.3876
 4108SOL    HW113808   2.380   3.409   6.003 -0.1772 -0.9527 -0.0971
 4108SOL    HW213809   2.458   3.519   5.934  1.2277 -1.7052  0.2716
 4109SOL     OW13810   3.540   4.711   3.099 -0.0775  0.1959 -0.0851
 4109SOL    HW113811   3.487   4.767   3.042 -1.1817 -0.3702  0.3833
 4109SOL    HW213812   3.478   4.671   3.159  0.4163 -2.8659 -1.4929
 4110SOL     OW13813   5.983   0.630   3.317  0.0238 -0.0452 -0.2027
 4110SOL    HW113814   5.914   0.639   3.383  0.3152 -1.1482  0.2690
 4110SOL    HW213815   5.968   0.543   3.279  1.5363 -0.5567  0.3502
 4111SOL     OW13816   7.843   2.022   6.087  0.0767  0.9032 -0.1484
 4111SOL    HW113817   7.878   2.045   6.001 -0.6442 -0.7234 -0.8860
 4111SOL    HW213818   7.763   1.973   6.068 -0.3968  1.0358  1.4606
 4112SOL     OW13819   4.211   1.591   3.368 -0.6988 -0.3437 -0.4173
 4112SOL    HW113820   4.305   1.600   3.351 -0.4149 -3.0164 -0.4233
 4112SOL    HW213821   4.206   1.572   3.462 -1.4091  1.7613  0.0088
 4113SOL     OW13822   4.356   7.793   3.768  0.3051 -0.1333  0.0709
 4113SOL    HW113823   4.345   7.720   3.707  1.6593  0.4468 -0.8949
 4113SOL    HW213824   4.312   7.764   3.848 -2.4776 -0.4373 -1.5277
 4114SOL     OW13825   0.951   0.171   1.805  0.0044  0.3633  0.4483
 4114SOL    HW113826   0.885   0.101   1.814 -2.2870  2.5431  1.2075
 4114SOL    HW213827   0.940   0.224   1.884  1.9856  1.3872  0.0731
 4115SOL     OW13828   0.156   6.668   2.277 -0.0259  0.2077  0.3627
 4115SOL    HW113829   0.142   6.586   2.324 -1.4467  0.2732  0.0818
 4115SOL    HW213830   0.069   6.706   2.269  0.2074  0.2855 -2.1802
 4116SOL     OW13831   1.762   5.778   3.157  0.2364  0.4689  0.0951
 4116SOL    HW113832   1.795   5.693   3.188  0.4738 -0.7703 -3.2889
 4116SOL    HW213833   1.667   5.772   3.169  0.4617  0.7026  2.1005
 4117SOL     OW13834   5.213   4.032   6.533  0.0046 -0.2828 -0.2071
 4117SOL    HW113835   5.200   4.126   6.525 -0.4955 -0.3847 -0.5805
 4117SOL    HW213836   5.298   4.024   6.578 -0.9574  0.3761  1.8018
 4118SOL     OW13837   3.648   5.226   4.707  0.4057 -0.1182 -0.1668
 4118SOL    HW113838   3.742   5.216   4.721  0.9895  2.6794 -1.7681
 4118SOL    HW213839   3.619   5.283   4.779  0.4136  1.0969 -1.1256
 4119SOL     OW13840   0.252   3.815   3.093  0.2816  0.0545  0.1866
 4119SOL    HW113841   0.210   3.825   3.178  0.4318  0.0941  0.2542
 4119SOL    HW213842   0.262   3.721   3.082 -2.1492 -0.1224 -0.9328
 4120SOL     OW13843   3.335   4.896   2.667  1.1733 -0.0549  0.3201
 4120SOL    HW113844   3.278   4.822   2.648  0.0978  0.6324  0.8086
 4120SOL    HW213845   3.387   4.908   2.587  0.0433 -0.1761 -0.4458
 4121SOL     OW13846   3.095   2.456   1.135  0.2293  0.5050 -0.1730
 4121SOL    HW113847   3.059   2.445   1.047  1.4747 -0.7075 -0.5438
 4121SOL    HW213848   3.082   2.372   1.178  1.0001  0.6061  0.2788
 4122SOL     OW13849   3.052   1.217   7.370  0.4368 -0.0791  0.2914
 4122SOL    HW113850   3.006   1.134   7.385 -0.4820  0.0063 -1.9550
 4122SOL    HW213851   3.070   1.250   7.458 -0.1695 -2.1145  1.2107
 4123SOL     OW13852   4.390   4.659   3.429  0.0858  0.6149 -0.8806
 4123SOL    HW113853   4.314   4.688   3.481  1.8869  1.3728  1.4049
 4123SOL    HW213854   4.432   4.592   3.484  1.3075  0.4927 -1.9517
 4124SOL     OW13855   8.125   7.349   6.888  0.3968  0.0240 -0.3769
 4124SOL    HW113856   8.104   7.273   6.943  1.8720 -1.3987 -1.7223
 4124SOL    HW213857   8.127   7.314   6.799  1.4832  1.5664 -0.9783
 4125SOL     OW13858   0.230   0.385   4.970 -0.3408  0.3269 -0.3170
 4125SOL    HW113859   0.210   0.294   4.947  0.2955  0.0823  0.0885
 4125SOL    HW213860   0.297   0.379   5.038 -0.4154  1.0986 -0.1672
 4126SOL     OW13861   1.441   6.244   6.073  0.7085  0.2537 -0.1768
 4126SOL    HW113862   1.427   6.326   6.121 -0.1014  0.6426 -1.0586
 4126SOL    HW213863   1.426   6.267   5.982  0.9479 -0.7785 -0.4846
 4127SOL     OW13864   7.419   1.460   3.652 -0.0270  0.3915 -0.4240
 4127SOL    HW113865   7.353   1.393   3.671  0.7317 -0.1867  0.2100
 4127SOL    HW213866   7.411   1.523   3.723 -0.0808  0.4697 -0.4985
 4128SOL     OW13867   5.802   6.787   1.358 -0.2124  0.0662  0.0993
 4128SOL    HW113868   5.798   6.692   1.345 -0.8309 -0.2404  2.4601
 4128SOL    HW213869   5.800   6.799   1.452 -0.0788  2.4474 -0.1735
 4129SOL     OW13870   8.064   1.916   7.780 -0.4984 -0.1155 -0.1148
 4129SOL    HW113871   8.115   1.984   7.825 -0.8340  1.0251 -1.4375
 4129SOL    HW213872   8.100   1.914   7.691 -1.6401 -0.4734 -0.5797
 4130SOL     OW13873   1.994   8.136   5.794 -0.2537 -0.2067 -0.4987
 4130SOL    HW113874   2.041   8.066   5.748 -0.2365  0.0373 -0.8520
 4130SOL    HW213875   1.988   8.206   5.730 -3.3702 -1.1765 -1.3368
 4131SOL     OW13876   0.279   3.640   1.472  0.2028 -0.1116 -0.0052
 4131SOL    HW113877   0.336   3.716   1.465  1.0132 -0.5428  1.6808
 4131SOL    HW213878   0.195   3.676   1.502 -0.1517  0.4008 -1.5606
 4132SOL     OW13879   0.305   3.006   5.799 -0.3456 -0.4519 -0.1495
 4132SOL    HW113880   0.282   2.919   5.767  0.1377 -0.2069 -1.1872
 4132SOL    HW213881   0.304   3.061   5.721 -3.6411  1.1258  0.9254
 4133SOL     OW13882   2.997   1.901   5.239  0.2868 -0.0814 -0.3117
 4133SOL    HW113883   3.011   1.982   5.190 -0.6098  0.5149  0.4159
 4133SOL    HW213884   2.903   1.888   5.237  0.2979 -0.3425  0.8202
 4134SOL     OW13885   1.777   0.329   1.356 -0.1323  0.3486  0.6819
 4134SOL    HW113886   1.714   0.305   1.288  0.8076  0.2043 -0.1555
 4134SOL    HW213887   1.839   0.257   1.357  0.9624  1.2719  0.3230
 4135SOL     OW13888   5.559   5.025   6.945 -0.0039  0.5105  0.7698
 4135SOL    HW113889   5.545   4.973   7.024  1.9125 -0.9165  0.2147
 4135SOL    HW213890   5.649   5.004   6.919 -0.5035  1.2280 -1.5954
 4136SOL     OW13891   4.277   2.551   4.786  0.1555 -0.6618 -0.3930
 4136SOL    HW113892   4.242   2.512   4.866 -0.1155  0.3471 -0.0077
 4136SOL    HW213893   4.372   2.552   4.799 -0.0132  2.0847  1.1868
 4137SOL     OW13894   1.514   2.731   6.797 -0.0658 -0.0179  0.2349
 4137SOL    HW113895   1.427   2.726   6.757  0.2056 -1.0858 -0.2409
 4137SOL    HW213896   1.545   2.640   6.797  1.1378  0.3958  0.2043
 4138SOL     OW13897   5.425   3.584   5.463 -0.4098 -0.0959  0.1894
 4138SOL    HW113898   5.473   3.666   5.477 -1.3244  0.6862 -1.1477
 4138SOL    HW213899   5.381   3.568   5.546  1.3212 -0.2811  1.1036
 4139SOL     OW13900   4.931   5.444   3.804 -0.6448  0.5454 -0.5119
 4139SOL    HW113901   4.971   5.509   3.863  0.4502 -0.6759  0.1212
 4139SOL    HW213902   4.868   5.398   3.859  0.0660 -0.3062 -0.4061
 4140SOL     OW13903   4.115   5.891   1.588 -0.8042  0.2661  0.5875
 4140SOL    HW113904   4.195   5.899   1.641 -0.0369  0.9308 -0.6509
 4140SOL    HW213905   4.109   5.974   1.540 -2.2677  0.2409  0.6927
 4141SOL     OW13906   4.818   6.937   3.532 -0.1325 -0.1382 -0.2072
 4141SOL    HW113907   4.902   6.892   3.518  0.0975  0.1067  0.3864
 4141SOL    HW213908   4.803   6.932   3.626  0.1466  1.4452 -0.0571
 4142SOL     OW13909   0.027   6.563   6.696  0.0094  0.5582  0.3040
 4142SOL    HW113910   0.079   6.623   6.642  0.7248  1.0645  1.5555
 4142SOL    HW213911  -0.064   6.582   6.672  0.3499  0.2336 -1.2929
 4143SOL     OW13912   2.728   1.951   5.220  0.0168  0.1449 -0.4292
 4143SOL    HW113913   2.669   1.967   5.147  0.6915 -0.2390 -1.0695
 4143SOL    HW213914   2.671   1.927   5.293 -0.6232 -0.0569 -0.9925
 4144SOL     OW13915   6.309   2.133   0.987 -0.4349 -0.3987 -0.0328
 4144SOL    HW113916   6.274   2.185   0.914 -0.6587 -1.0622 -0.4034
 4144SOL    HW213917   6.333   2.050   0.947  2.9489  0.5265 -0.0858
 4145SOL     OW13918   0.141   2.415   8.291  0.5052  0.5526 -0.1223
 4145SOL    HW113919   0.120   2.487   8.350  1.0719  0.3965  0.2685
 4145SOL    HW213920   0.101   2.441   8.208 -1.6344  0.0709  0.7051
 4146SOL     OW13921   5.146   0.576   1.900 -0.0124  0.5407  0.1018
 4146SOL    HW113922   5.214   0.622   1.949 -1.0147  0.7990  1.2674
 4146SOL    HW213923   5.140   0.491   1.943 -0.9161  0.7808  0.4521
 4147SOL     OW13924   0.790   2.797   8.285  0.0541  0.2760 -0.2485
 4147SOL    HW113925   0.789   2.827   8.194  1.7103 -0.9697 -0.6969
 4147SOL    HW213926   0.731   2.722   8.286  0.7235 -0.2653 -0.5140
 4148SOL     OW13927   5.167   2.743   2.312 -0.2545 -0.2000  0.0764
 4148SOL    HW113928   5.202   2.687   2.241  0.5488 -0.7491  0.8881
 4148SOL    HW213929   5.144   2.681   2.381  0.4566  0.4565  0.9077
 4149SOL     OW13930   7.639   0.541   6.795  0.4343 -0.1500 -0.2733
 4149SOL    HW113931   7.725   0.506   6.819  0.0117 -1.0448 -0.0624
 4149SOL    HW213932   7.624   0.613   6.857  0.2807 -1.1004  0.8038
 4150SOL     OW13933   8.211   3.920   3.005  0.0992 -0.0789  0.2454
 4150SOL    HW113934   8.182   3.846   3.058  0.6071  0.1077  0.7822
 4150SOL    HW213935   8.134   3.977   2.999 -0.4978 -0.9684 -0.7411
 4151SOL     OW13936   6.544   6.434   0.940  0.5803  0.3251  0.0867
 4151SOL    HW113937   6.625   6.443   0.891  0.0341  2.4838 -0.4592
 4151SOL    HW213938   6.479   6.408   0.875  0.0911  2.1052 -0.1593
 4152SOL     OW13939   4.218   6.967   1.210  0.1444  0.1704 -0.1442
 4152SOL    HW113940   4.304   6.959   1.252 -0.1953  0.5543  0.6467
 4152SOL    HW213941   4.200   7.061   1.210 -1.2485 -0.0711  1.7352
 4153SOL     OW13942   1.820   7.075   3.841 -0.4298 -0.5290 -0.0605
 4153SOL    HW113943   1.809   7.095   3.748 -0.7585 -0.9587 -0.1156
 4153SOL    HW213944   1.882   7.141   3.872  0.0877 -0.7049 -0.7028
 4154SOL     OW13945   6.036   5.471   0.506 -0.1918 -0.5738 -0.8061
 4154SOL    HW113946   6.055   5.381   0.479 -0.1300 -0.8598  0.1910
 4154SOL    HW213947   5.951   5.466   0.549  1.1328 -0.6779  1.8734
 4155SOL     OW13948   3.115   8.101   3.318  0.4102 -0.0478  0.8535
 4155SOL    HW113949   3.166   8.165   3.268  0.1237 -0.7396 -0.3319
 4155SOL    HW213950   3.042   8.151   3.353 -0.2987  0.1095 -0.8051
 4156SOL     OW13951   1.558   2.960   0.971  0.1733  0.1519  0.0925
 4156SOL    HW113952   1.508   2.933   1.048 -0.4039 -0.0277 -0.3420
 4156SOL    HW213953   1.595   2.878   0.937 -1.7688 -0.1540 -1.3609
 4157SOL     OW13954   3.771   5.966   3.402 -0.3425  0.0491  0.2017
 4157SOL    HW113955   3.866   5.964   3.409 -0.3442 -2.7005  0.0369
 4157SOL    HW213956   3.754   5.954   3.308 -0.8505  1.1135  0.1518
 4158SOL     OW13957   4.835   4.459   1.217  0.0308 -0.2759  0.3404
 4158SOL    HW113958   4.913   4.436   1.166 -0.3732  0.8023 -0.7921
 4158SOL    HW213959   4.795   4.375   1.238  0.6476 -0.7774 -0.4430
 4159SOL     OW13960   5.238   4.397   2.177 -0.4183 -0.0077  0.1141
 4159SOL    HW113961   5.317   4.363   2.136  0.0559  1.7785 -0.5017
 4159SOL    HW213962   5.183   4.320   2.192  0.8686 -1.0920 -0.6773
 4160SOL     OW13963   7.193   4.998   7.016 -0.4215  0.0742  0.2557
 4160SOL    HW113964   7.283   5.012   7.046 -0.8641  0.9925  1.1691
 4160SOL    HW213965   7.148   5.081   7.034 -0.6585  0.7354 -3.1387
 4161SOL     OW13966   3.667   3.755   0.980  0.3224  0.5017 -0.4160
 4161SOL    HW113967   3.589   3.710   0.947  1.7057 -1.6511 -0.8351
 4161SOL    HW213968   3.740   3.718   0.930  2.0010  0.1168  2.1966
 4162SOL     OW13969   4.048   0.974   6.964 -0.1836 -1.2574 -0.5403
 4162SOL    HW113970   4.096   1.019   7.033 -2.4429  1.9319 -0.9163
 4162SOL    HW213971   3.971   0.937   7.008 -2.5690  2.2894 -1.4736
 4163SOL     OW13972   0.538   0.461   0.549 -0.0637 -0.4051  0.3818
 4163SOL    HW113973   0.515   0.531   0.609  3.0677  0.8988  0.1621
 4163SOL    HW213974   0.456   0.416   0.531 -1.6647  1.5240  2.6536
 4164SOL     OW13975   4.350   0.053   5.474  0.0963  0.2694 -0.0625
 4164SOL    HW113976   4.422   0.070   5.535 -0.8905  0.4031  1.0886
 4164SOL    HW213977   4.342  -0.042   5.473  1.7842  0.0993 -1.9932
 4165SOL     OW13978   4.211   1.151   5.342 -0.0595 -0.0598  0.3693
 4165SOL    HW113979   4.128   1.105   5.334 -0.5052  0.7335  0.4782
 4165SOL    HW213980   4.197   1.235   5.298  0.5126  0.2976  0.8650
 4166SOL     OW13981   5.027   7.833   1.343 -0.3584 -0.0354 -0.4166
 4166SOL    HW113982   5.075   7.859   1.265 -0.3807 -0.5466 -0.5991
 4166SOL    HW213983   5.082   7.765   1.384  1.0363  2.1553  1.5066
 4167SOL     OW13984   0.419   7.281   0.214 -0.1541  0.1968 -0.0712
 4167SOL    HW113985   0.404   7.375   0.205  0.3708  0.2939  0.0188
 4167SOL    HW213986   0.341   7.248   0.258 -0.4175  0.5631 -0.2619
 4168SOL     OW13987   0.095   2.106   2.974 -0.1135 -0.4685  0.4190
 4168SOL    HW113988   0.085   2.172   2.905  2.6268 -1.3262 -0.8538
 4168SOL    HW213989   0.053   2.145   3.051  3.8146  3.9835  0.4981
 4169SOL     OW13990   7.219   4.829   5.282 -0.0234 -0.2098 -0.0926
 4169SOL    HW113991   7.229   4.916   5.244  0.0216 -0.8683 -1.5891
 4169SOL    HW213992   7.308   4.803   5.305 -0.2688  1.1026  2.5774
 4170SOL     OW13993   1.098   4.013   3.756  0.0664  0.7411  0.1523
 4170SOL    HW113994   1.113   4.018   3.850 -2.2265  0.0364  0.5898
 4170SOL    HW213995   1.030   4.077   3.738 -0.2875  0.1188 -0.8421
 4171SOL     OW13996   4.179   3.295   3.877 -0.0588 -0.2586  0.0666
 4171SOL    HW113997   4.088   3.271   3.899 -0.0889 -0.5067 -0.3134
 4171SOL    HW213998   4.224   3.295   3.962 -0.0057 -1.9365  0.0680
 4172SOL     OW13999   7.321   0.063   4.058  0.1628  0.0486  0.1348
 4172SOL    HW114000   7.301   0.091   3.968 -1.3230 -3.9817 -0.9084
 4172SOL    HW214001   7.414   0.083   4.069  0.0014  2.0501 -1.6999
 4173SOL     OW14002   6.041   7.545   1.722 -0.2777  0.2761  0.1235
 4173SOL    HW114003   6.090   7.526   1.802  0.3298 -0.5026 -0.4306
 4173SOL    HW214004   6.080   7.488   1.656  0.6526  2.4271 -1.2510
 4174SOL     OW14005   3.867   3.178   3.124  0.6469  0.7958 -0.7393
 4174SOL    HW114006   3.887   3.247   3.060  0.5252 -0.0022 -1.6478
 4174SOL    HW214007   3.898   3.214   3.207 -0.9949  2.6753 -0.8991
 4175SOL     OW14008   2.041   5.107   0.473  0.1268 -0.3580 -0.4960
 4175SOL    HW114009   1.994   5.143   0.398  1.3605 -1.5127 -1.8524
 4175SOL    HW214010   2.119   5.163   0.481 -0.8345  0.7972  0.9817
 4176SOL     OW14011   1.586   4.995   0.696 -0.3310 -0.2324  0.1495
 4176SOL    HW114012   1.610   4.907   0.725  1.1443  0.3244  0.6435
 4176SOL    HW214013   1.543   5.035   0.771 -2.2428 -1.0015 -0.5216
 4177SOL     OW14014   4.897   3.454   6.804 -0.1860 -0.0481 -0.0948
 4177SOL    HW114015   4.944   3.532   6.772 -0.1150  0.0070  0.1444
 4177SOL    HW214016   4.956   3.415   6.868 -0.6607  0.2749  0.5463
 4178SOL     OW14017   4.977   4.653   7.245 -0.0490 -0.1104 -0.3039
 4178SOL    HW114018   4.922   4.616   7.175  0.2122  0.0080 -0.5731
 4178SOL    HW214019   4.915   4.675   7.314 -0.1848 -1.1917 -0.0804
 4179SOL     OW14020   1.180   7.556   8.163 -0.4026 -0.3005 -0.0662
 4179SOL    HW114021   1.119   7.494   8.204 -3.0380  0.8953 -1.9697
 4179SOL    HW214022   1.171   7.635   8.215  2.3875 -1.2114  1.8991
 4180SOL     OW14023   4.866   2.625   2.019  0.6533 -0.6613  0.6882
 4180SOL    HW114024   4.905   2.567   1.954  1.8908  0.3767  0.5060
 4180SOL    HW214025   4.774   2.631   1.993  0.8247 -1.4118 -0.1085
 4181SOL     OW14026   1.177   1.153   2.350  0.2889  0.0450  0.0473
 4181SOL    HW114027   1.153   1.181   2.262 -0.6725 -0.8566  0.0069
 4181SOL    HW214028   1.227   1.226   2.386 -1.3411  1.4192 -0.3857
 4182SOL     OW14029   3.657   3.680   2.082  0.2746 -0.1684  0.0985
 4182SOL    HW114030   3.734   3.655   2.134  0.9207 -0.9167 -1.1877
 4182SOL    HW214031   3.604   3.600   2.077  0.1424 -0.0588 -0.2584
 4183SOL     OW14032   4.172   6.294   2.619  0.0353 -0.1093 -0.2480
 4183SOL    HW114033   4.154   6.382   2.653  1.1564 -0.1715  0.5288
 4183SOL    HW214034   4.099   6.275   2.560  0.7997  2.1656 -2.0065
 4184SOL     OW14035   2.094   8.062   6.072  0.1098 -0.5927  0.4666
 4184SOL    HW114036   2.097   7.982   6.125  1.7059 -0.7356  0.1757
 4184SOL    HW214037   2.119   8.033   5.984 -1.6500 -0.1978 -0.1856
 4185SOL     OW14038   8.186   5.929   6.350  0.3117 -0.4264 -0.0183
 4185SOL    HW114039   8.179   5.908   6.443 -0.7750 -0.5798 -0.1212
 4185SOL    HW214040   8.099   5.962   6.327  0.2611 -1.3435 -1.1986
 4186SOL     OW14041   7.268   8.257   1.036  0.2290 -0.2451  0.7734
 4186SOL    HW114042   7.236   8.342   1.004  0.9273 -0.4749 -0.5554
 4186SOL    HW214043   7.196   8.196   1.020  0.4750 -0.3049 -0.1255
 4187SOL     OW14044   0.831   1.296   6.217  0.9862  0.6679 -0.5139
 4187SOL    HW114045   0.816   1.329   6.305 -0.3575  2.3063 -1.3220
 4187SOL    HW214046   0.890   1.222   6.228 -0.4662 -0.1545  1.9029
 4188SOL     OW14047   1.865   1.296   5.725  0.5795  0.1456  0.0516
 4188SOL    HW114048   1.798   1.350   5.684  0.3705 -0.6876 -0.7216
 4188SOL    HW214049   1.944   1.350   5.721  0.1562  0.7814  0.1744
 4189SOL     OW14050   6.411   0.830   0.016 -0.1174  0.1137  0.3299
 4189SOL    HW114051   6.431   0.889  -0.056  0.8441 -0.3635  0.1978
 4189SOL    HW214052   6.489   0.833   0.073  0.4904 -1.9853 -0.3416
 4190SOL     OW14053   6.070   0.685   3.889 -0.0809 -0.4511  0.2065
 4190SOL    HW114054   6.041   0.604   3.849  0.0378 -0.1394 -0.5361
 4190SOL    HW214055   6.104   0.737   3.815  1.7418 -0.5528  0.9350
 4191SOL     OW14056   8.146   2.594   2.864  0.2988 -0.0367 -0.1118
 4191SOL    HW114057   8.169   2.570   2.953 -0.3296  1.0210  0.3353
 4191SOL    HW214058   8.114   2.513   2.825  1.3036 -0.6780  0.3770
 4192SOL     OW14059   6.715   3.790   7.864  0.1290  0.2387  0.4784
 4192SOL    HW114060   6.699   3.771   7.956 -0.2493  1.7975  0.7530
 4192SOL    HW214061   6.692   3.882   7.854  1.6198  0.4937 -0.8349
 4193SOL     OW14062   1.683   4.845   5.939  0.3715  0.1781 -0.1328
 4193SOL    HW114063   1.731   4.898   6.001 -0.7485  1.9494 -0.7562
 4193SOL    HW214064   1.730   4.856   5.856 -0.4944  1.1009 -0.5119
 4194SOL     OW14065   7.445   1.237   6.425 -0.0385  0.1172 -0.2387
 4194SOL    HW114066   7.431   1.266   6.515  0.2232  0.1262 -0.2007
 4194SOL    HW214067   7.537   1.255   6.408 -0.1763  0.4689 -0.6329
 4195SOL     OW14068   6.460   4.291   8.197 -0.6550  0.0114 -0.5123
 4195SOL    HW114069   6.456   4.311   8.290 -1.2924 -0.5964 -0.4038
 4195SOL    HW214070   6.549   4.315   8.171 -0.8782  1.4257 -0.0380
 4196SOL     OW14071   3.285   2.577   1.948 -0.0824  0.6621  0.5045
 4196SOL    HW114072   3.191   2.565   1.939 -0.1207  1.0809  0.3415
 4196SOL    HW214073   3.304   2.553   2.039 -0.2916  0.2289  0.4340
 4197SOL     OW14074   2.345   0.977   7.596 -0.2647 -0.2429 -0.3209
 4197SOL    HW114075   2.295   0.898   7.617  1.1134 -1.1802 -0.4639
 4197SOL    HW214076   2.389   0.999   7.678 -1.4542  0.9821 -0.0087
 4198SOL     OW14077   3.126   0.919   2.458  0.6748  0.9279  0.1461
 4198SOL    HW114078   3.217   0.905   2.484  0.1769 -1.7776  0.5336
 4198SOL    HW214079   3.100   0.837   2.416 -1.5251  1.7467 -0.1578
 4199SOL     OW14080   0.586   0.905   5.584 -0.0652 -0.2597 -0.2706
 4199SOL    HW114081   0.644   0.930   5.512 -1.9173  0.3780 -1.5662
 4199SOL    HW214082   0.636   0.926   5.663  1.8325 -0.5880 -1.3408
 4200SOL     OW14083   6.912   8.214   1.394  0.0975 -0.2953 -0.1806
 4200SOL    HW114084   6.983   8.265   1.434 -2.1856  0.6179  2.8876
 4200SOL    HW214085   6.916   8.130   1.438 -1.9263  0.4394  1.4816
 4201SOL     OW14086   5.677   4.442   7.454 -0.5700  0.7630 -0.2890
 4201SOL    HW114087   5.599   4.390   7.435 -0.6302  0.8696 -0.3367
 4201SOL    HW214088   5.676   4.511   7.388 -1.5203  1.9535  0.9374
 4202SOL     OW14089   5.721   4.463   2.243 -1.2940 -0.9715  0.3071
 4202SOL    HW114090   5.653   4.413   2.288 -1.3031 -0.4021  0.9314
 4202SOL    HW214091   5.753   4.404   2.174 -2.0024 -1.4564  0.3950
 4203SOL     OW14092   6.540   2.858   8.121 -0.3569 -0.7460  0.2450
 4203SOL    HW114093   6.540   2.939   8.069  1.1069 -1.6617 -1.2380
 4203SOL    HW214094   6.632   2.836   8.129 -0.7981 -2.8529 -0.3080
 4204SOL     OW14095   3.919   4.185   1.588 -0.1603  0.2147 -0.8118
 4204SOL    HW114096   3.945   4.131   1.663 -0.3027  1.3819  0.0879
 4204SOL    HW214097   3.991   4.247   1.577 -1.9437  2.6879  0.9303
 4205SOL     OW14098   0.748   2.437   3.356 -0.5237  1.0791  0.1926
 4205SOL    HW114099   0.820   2.409   3.411 -0.5548  0.4464 -0.0780
 4205SOL    HW214100   0.776   2.522   3.320  0.1773  0.7348 -0.0829
 4206SOL     OW14101   6.484   1.571   4.727  0.4704 -0.5002 -0.0766
 4206SOL    HW114102   6.465   1.664   4.717 -1.2251 -0.8976 -0.7439
 4206SOL    HW214103   6.558   1.554   4.670  1.0443  0.5236  0.3612
 4207SOL     OW14104   1.238   7.748   2.409 -0.4409  0.1196 -0.2875
 4207SOL    HW114105   1.244   7.838   2.443 -0.4832  0.7342 -1.8461
 4207SOL    HW214106   1.329   7.723   2.394 -0.5640  1.2666 -3.2437
 4208SOL     OW14107   2.866   0.489   6.609  0.0154 -0.4068 -0.1889
 4208SOL    HW114108   2.917   0.470   6.687 -0.0030 -0.1589 -0.1155
 4208SOL    HW214109   2.828   0.405   6.583  1.9782 -0.9812 -1.3335
 4209SOL     OW14110   1.650   0.590   1.374 -0.1206  0.2971  0.0147
 4209SOL    HW114111   1.685   0.634   1.296  2.6798 -0.1376  0.9796
 4209SOL    HW214112   1.714   0.522   1.393 -1.1047 -0.0019  2.3600
 4210SOL     OW14113   4.765   6.186   2.696 -0.1076 -0.2946  0.2443
 4210SOL    HW114114   4.676   6.152   2.687 -0.1192 -0.2216  0.0826
 4210SOL    HW214115   4.753   6.281   2.709 -0.0700 -0.3319  0.5782
 4211SOL     OW14116   1.504   4.910   5.384 -0.2745 -0.0409  0.2147
 4211SOL    HW114117   1.517   4.866   5.468  1.2416 -1.9404 -0.9595
 4211SOL    HW214118   1.493   5.002   5.406  1.0141 -0.3876  2.4366
 4212SOL     OW14119   2.965   7.094   3.410 -0.6372  0.1579 -0.3243
 4212SOL    HW114120   3.043   7.132   3.370 -0.1163  0.1115  0.6366
 4212SOL    HW214121   2.989   7.004   3.429 -0.9443  0.1243 -0.0848
 4213SOL     OW14122   6.288   6.734   0.255  0.5215 -0.7331 -0.0695
 4213SOL    HW114123   6.375   6.739   0.216  0.4536 -2.4693 -0.4832
 4213SOL    HW214124   6.302   6.756   0.348  0.9931  1.3990 -0.6187
 4214SOL     OW14125   6.755   4.542   1.742 -0.0039 -0.9272  0.6099
 4214SOL    HW114126   6.810   4.595   1.686 -0.9072 -0.6548 -0.0375
 4214SOL    HW214127   6.799   4.457   1.746  0.7583 -0.5343  0.5788
 4215SOL     OW14128   3.297   4.414   2.182 -0.3534  0.3065 -0.4009
 4215SOL    HW114129   3.343   4.373   2.255 -0.3959 -0.0255 -0.5592
 4215SOL    HW214130   3.295   4.507   2.204  0.5496  0.3522 -0.4819
 4216SOL     OW14131   2.745   6.929   3.522 -0.2852  0.0362 -0.1816
 4216SOL    HW114132   2.814   6.887   3.472 -0.1757 -0.6348  0.5333
 4216SOL    HW214133   2.722   6.866   3.590 -0.5281  0.8886  0.5352
 4217SOL     OW14134   3.458   4.482   4.584 -0.1947  0.4167  0.1650
 4217SOL    HW114135   3.549   4.464   4.606 -0.4996 -0.3973  0.7905
 4217SOL    HW214136   3.457   4.575   4.561  1.0549  0.0952 -1.2399
 4218SOL     OW14137   3.532   4.935   3.708  0.4030  0.5465 -0.7010
 4218SOL    HW114138   3.586   4.863   3.737  0.7722  1.5101  1.0563
 4218SOL    HW214139   3.572   4.963   3.625  0.4049 -1.0605 -1.2628
 4219SOL     OW14140   1.006   0.329   2.530  0.3077 -0.1781  0.4553
 4219SOL    HW114141   0.958   0.247   2.545  0.0064  0.0132  0.5457
 4219SOL    HW214142   1.094   0.301   2.505  0.2015 -0.5308  0.4706
 4220SOL     OW14143   7.043   7.259   4.793  0.1680  0.1268 -0.2700
 4220SOL    HW114144   7.121   7.309   4.767 -1.1391  2.1852 -0.2888
 4220SOL    HW214145   7.043   7.182   4.735  3.0446 -0.7567  0.7899
 4221SOL     OW14146   0.515   1.642   2.303  0.4521  0.2566  0.2575
 4221SOL    HW114147   0.462   1.696   2.244  0.6691 -0.5219 -0.6584
 4221SOL    HW214148   0.579   1.703   2.340  0.2258  0.7767 -0.1977
 4222SOL     OW14149   8.128   5.529   1.521  0.2613  0.1304 -0.2184
 4222SOL    HW114150   8.181   5.546   1.599 -0.7050 -0.8956  0.6831
 4222SOL    HW214151   8.177   5.461   1.474  0.4872  0.2445 -0.1501
 4223SOL     OW14152   2.915   5.037   3.905 -0.3063 -0.1772  0.6894
 4223SOL    HW114153   2.902   4.944   3.890 -1.5424 -0.1349  1.4458
 4223SOL    HW214154   2.955   5.043   3.992 -0.9950  0.0396  0.9944
 4224SOL     OW14155   6.968   0.487   0.080 -0.0424 -0.1245  0.4394
 4224SOL    HW114156   6.962   0.578   0.052 -0.5929  0.0030  0.9715
 4224SOL    HW214157   7.061   0.473   0.098  0.3862 -0.3032 -1.7593
 4225SOL     OW14158   0.367   5.889   6.736  0.1748  0.6562  0.1248
 4225SOL    HW114159   0.356   5.948   6.810  0.3527  0.3682  0.3846
 4225SOL    HW214160   0.316   5.929   6.665  1.1919  1.6859 -0.0352
 4226SOL     OW14161   5.552   2.901   5.166 -0.3699  0.5680 -0.4568
 4226SOL    HW114162   5.495   2.826   5.175 -1.4446  1.3188 -0.9140
 4226SOL    HW214163   5.500   2.966   5.118  1.2903  0.8028 -1.9982
 4227SOL     OW14164   2.995   4.176   6.752 -0.2188 -0.1192  0.7506
 4227SOL    HW114165   3.081   4.181   6.710 -1.1014 -1.6815 -1.2875
 4227SOL    HW214166   2.944   4.244   6.708 -0.1796  0.5177  1.6683
 4228SOL     OW14167   8.070   1.837   5.730  0.2212  0.3148 -0.0856
 4228SOL    HW114168   8.150   1.803   5.689 -0.3636 -0.2460 -0.7688
 4228SOL    HW214169   8.080   1.814   5.823  0.2035 -1.0411 -0.3977
 4229SOL     OW14170   7.892   7.048   2.353 -0.7170  0.5651  0.7429
 4229SOL    HW114171   7.930   6.960   2.352 -1.1067  0.3808  1.4713
 4229SOL    HW214172   7.964   7.105   2.325 -0.5937 -0.0280 -0.1825
 4230SOL     OW14173   2.150   5.203   1.350  0.2300 -0.2288 -0.1596
 4230SOL    HW114174   2.153   5.209   1.445  1.5895  3.4815 -0.3468
 4230SOL    HW214175   2.242   5.198   1.323  0.0383  2.3001 -1.3893
 4231SOL     OW14176   0.484   0.446   4.455 -0.3413  0.3013  0.0410
 4231SOL    HW114177   0.472   0.486   4.541 -0.9225 -0.0661  0.1320
 4231SOL    HW214178   0.409   0.476   4.404 -2.7886 -3.5419  1.1917
 4232SOL     OW14179   1.293   0.200   3.942  0.2948 -0.0776  0.9028
 4232SOL    HW114180   1.377   0.174   3.904  0.8366  0.3536  1.7854
 4232SOL    HW214181   1.276   0.133   4.009 -1.7386 -2.1117 -1.5303
 4233SOL     OW14182   3.475   2.852   1.047 -0.6198  0.0229  0.2004
 4233SOL    HW114183   3.399   2.867   0.989 -0.0071 -2.4229 -1.3009
 4233SOL    HW214184   3.458   2.767   1.087 -0.0868  0.8261  2.1862
 4234SOL     OW14185   4.506   1.234   6.543  0.1496 -0.5111  0.1010
 4234SOL    HW114186   4.533   1.158   6.594  1.9615 -0.2181 -0.3913
 4234SOL    HW214187   4.588   1.279   6.521 -0.5955 -0.4176 -2.7166
 4235SOL     OW14188   6.804   1.779   2.578 -0.4758 -0.1499  0.2713
 4235SOL    HW114189   6.873   1.715   2.561 -1.2324 -0.9187  0.1093
 4235SOL    HW214190   6.726   1.742   2.538 -0.9174  0.8876  0.1472
 4236SOL     OW14191   5.980   7.098   2.545  0.7415 -0.1833  0.1190
 4236SOL    HW114192   5.950   7.081   2.634  0.5406  0.7376  0.2388
 4236SOL    HW214193   6.070   7.066   2.542  0.2873 -1.4836  0.2394
 4237SOL     OW14194   4.506   3.126   3.283  0.0272 -0.0981  0.6144
 4237SOL    HW114195   4.568   3.120   3.211 -1.3865 -1.2306 -0.5549
 4237SOL    HW214196   4.449   3.200   3.260 -0.9299 -0.9664  0.1308
 4238SOL     OW14197   4.837   4.561   7.792  0.1065 -0.1250 -0.2455
 4238SOL    HW114198   4.893   4.532   7.864 -0.5127 -3.1609 -0.9024
 4238SOL    HW214199   4.779   4.627   7.831  1.3077 -0.0545  1.4641
 4239SOL     OW14200   7.567   7.638   2.845 -0.2243  0.1494  0.3503
 4239SOL    HW114201   7.567   7.587   2.764  0.0563  0.2736  0.2734
 4239SOL    HW214202   7.606   7.722   2.822  2.6334 -0.8493  1.2463
 4240SOL     OW14203   4.424   7.181   1.232 -0.2992 -0.5626  0.5933
 4240SOL    HW114204   4.424   7.264   1.185 -1.8240  0.7713  2.8362
 4240SOL    HW214205   4.495   7.189   1.296 -1.5674 -0.2468  1.9933
 4241SOL     OW14206   1.792   6.034   4.342 -0.1301  0.1895  0.4090
 4241SOL    HW114207   1.768   5.971   4.274  1.0487  0.3805 -0.1942
 4241SOL    HW214208   1.856   6.092   4.300  0.3227  0.5414  1.5562
 4242SOL     OW14209   2.340   7.904   3.764  0.3954  0.4194 -0.5289
 4242SOL    HW114210   2.335   7.911   3.669  2.0227 -0.5660 -0.7033
 4242SOL    HW214211   2.323   7.811   3.783 -0.6146  0.7363  0.2095
 4243SOL     OW14212   2.221   4.706   7.814 -0.1289  0.2490  0.0451
 4243SOL    HW114213   2.266   4.623   7.796 -0.5186 -0.0641  0.4923
 4243SOL    HW214214   2.196   4.700   7.906 -2.3350 -0.1934 -0.5611
 4244SOL     OW14215   3.066   5.792   4.859  0.2694  0.3654  0.1233
 4244SOL    HW114216   3.141   5.744   4.893  0.5087  0.2805 -0.5044
 4244SOL    HW214217   2.992   5.733   4.873  0.6000 -0.2975 -0.8477
 4245SOL     OW14218   4.464   3.938   7.984 -0.7626 -0.4075  0.0722
 4245SOL    HW114219   4.428   4.013   8.032  0.2689  0.3844 -0.3765
 4245SOL    HW214220   4.390   3.905   7.932 -0.6658  1.7123 -1.4892
 4246SOL     OW14221   5.660   3.146   2.193  0.0529 -0.0991  0.5677
 4246SOL    HW114222   5.638   3.065   2.148  0.1411  0.0937  0.1815
 4246SOL    HW214223   5.754   3.141   2.207  0.1655  0.2581 -0.0789
 4247SOL     OW14224   7.828   4.406   6.303  0.8041 -0.0331 -0.2749
 4247SOL    HW114225   7.905   4.409   6.245  0.5689 -0.8802 -0.6351
 4247SOL    HW214226   7.862   4.428   6.389  1.3894 -0.0360 -0.5028
 4248SOL     OW14227   6.463   6.541   4.454 -0.5973  0.2718 -0.2738
 4248SOL    HW114228   6.439   6.501   4.371  2.5900 -0.1893 -1.0419
 4248SOL    HW214229   6.495   6.629   4.431 -0.7437  0.5576  0.5709
 4249SOL     OW14230   8.295   6.425   5.788  0.3383  0.4107 -0.0355
 4249SOL    HW114231   8.255   6.347   5.826  1.9495 -0.4506 -0.0507
 4249SOL    HW214232   8.350   6.391   5.717 -2.1119  1.9250 -2.7513
 4250SOL     OW14233   0.742   0.206   7.836  0.6333 -0.5883 -0.5000
 4250SOL    HW114234   0.719   0.175   7.748  0.2993  0.9282 -0.9574
 4250SOL    HW214235   0.811   0.146   7.864  0.0996 -1.6635 -1.4159
 4251SOL     OW14236   0.577   7.263   5.674 -0.7328 -0.3116 -0.6606
 4251SOL    HW114237   0.615   7.226   5.753 -0.1527 -0.1749 -0.8713
 4251SOL    HW214238   0.530   7.190   5.633 -1.5724 -0.2202  0.1335
 4252SOL     OW14239   4.110   1.438   3.013 -0.1471  0.3671 -0.0259
 4252SOL    HW114240   4.071   1.395   2.938  0.4480 -0.3909  0.0946
 4252SOL    HW214241   4.188   1.386   3.033  1.1189  2.0138 -0.4732
 4253SOL     OW14242   1.057   3.925   4.827 -0.4460 -0.1175  0.1770
 4253SOL    HW114243   1.063   3.875   4.746  0.3790 -0.0430  0.1878
 4253SOL    HW214244   0.966   3.914   4.855 -0.8137  0.0862 -0.8980
 4254SOL     OW14245   1.446   3.091   7.961  0.0773 -0.2601  0.2183
 4254SOL    HW114246   1.404   3.119   8.042  0.3148  0.0997  0.2186
 4254SOL    HW214247   1.500   3.016   7.986  0.1752 -0.1287  0.3991
 4255SOL     OW14248   5.075   3.682   6.872 -0.5439  0.1530 -0.1082
 4255SOL    HW114249   5.093   3.650   6.961 -2.1608  1.3577  0.6806
 4255SOL    HW214250   5.151   3.735   6.849 -0.8285  1.1320  1.1924
 4256SOL     OW14251   8.050   4.798   7.815  0.2340 -0.0479  0.1516
 4256SOL    HW114252   7.993   4.803   7.891 -0.5138 -0.9806 -0.3416
 4256SOL    HW214253   8.132   4.837   7.845 -0.4592  0.7717  1.0410
 4257SOL     OW14254   7.356   5.591   3.972 -0.8218 -0.2033 -0.3692
 4257SOL    HW114255   7.395   5.504   3.974 -0.4317 -0.0290 -0.4606
 4257SOL    HW214256   7.327   5.607   4.062 -2.6021 -1.2035 -0.7384
 4258SOL     OW14257   2.788   1.427   3.011  0.0106  0.0216  0.4671
 4258SOL    HW114258   2.864   1.375   2.985  1.6918  2.1717  0.8812
 4258SOL    HW214259   2.824   1.492   3.072 -1.5146  3.1377 -1.8048
 4259SOL     OW14260   3.378   3.332   2.011 -0.2017 -0.4034  0.1643
 4259SOL    HW114261   3.373   3.238   1.989 -0.4174 -0.5081  0.6484
 4259SOL    HW214262   3.395   3.375   1.928  1.8434 -1.0346  0.2339
 4260SOL     OW14263   4.144   4.204   6.534  0.6386 -0.5706  0.2495
 4260SOL    HW114264   4.134   4.263   6.608  0.7783 -2.8192  2.1342
 4260SOL    HW214265   4.231   4.166   6.545  0.9491 -0.3958 -1.4776
 4261SOL     OW14266   6.304   0.284   4.543 -0.4555  0.6170 -0.3632
 4261SOL    HW114267   6.319   0.346   4.615  1.5366  0.3889 -0.5541
 4261SOL    HW214268   6.314   0.337   4.464  1.8390 -0.0347 -0.5401
 4262SOL     OW14269   5.926   0.110   2.051 -0.0615 -0.3214  0.1110
 4262SOL    HW114270   5.982   0.060   1.991  0.9804 -0.1266  0.9064
 4262SOL    HW214271   5.858   0.146   1.995  0.0248 -1.4027 -0.7164
 4263SOL     OW14272   5.446   3.990   3.495 -0.2067 -0.6238 -0.2718
 4263SOL    HW114273   5.474   3.919   3.437  1.2230  0.2036 -0.6098
 4263SOL    HW214274   5.519   4.002   3.555  0.6921  2.2942 -1.8541
 4264SOL     OW14275   8.300   2.090   7.118 -0.1796 -0.9658  0.2298
 4264SOL    HW114276   8.242   2.122   7.187  0.1090 -1.3315  0.6454
 4264SOL    HW214277   8.255   2.111   7.036 -0.7124 -0.8986  0.5423
 4265SOL     OW14278   4.453   6.668   2.344 -0.7079  0.5652  0.0259
 4265SOL    HW114279   4.446   6.683   2.438  2.0928 -0.1883  0.4137
 4265SOL    HW214280   4.499   6.746   2.311  0.5202 -0.2705 -0.2883
 4266SOL     OW14281   7.176   7.385   0.019  0.1576 -0.0617  0.0011
 4266SOL    HW114282   7.271   7.379   0.011  0.1790  1.6574 -1.1547
 4266SOL    HW214283   7.143   7.348  -0.063 -0.2215 -1.6561  0.8481
 4267SOL     OW14284   4.006   8.005   3.352  0.5168 -0.4426  0.3764
 4267SOL    HW114285   4.011   8.039   3.263 -1.2294 -0.7393  0.1582
 4267SOL    HW214286   3.985   8.082   3.406 -0.6941 -0.6771  0.2385
 4268SOL     OW14287   4.854   4.009   0.341 -0.4528  0.0435  0.1868
 4268SOL    HW114288   4.947   4.029   0.329 -0.5958 -0.2646 -1.5120
 4268SOL    HW214289   4.850   3.913   0.337 -0.7940  0.0318  0.7231
 4269SOL     OW14290   4.875   1.765   5.124  0.5972 -0.0298  0.4371
 4269SOL    HW114291   4.876   1.672   5.146 -4.5069 -0.4192 -0.4042
 4269SOL    HW214292   4.866   1.809   5.209  1.1498 -0.4152  0.6981
 4270SOL     OW14293   7.229   3.440   7.787 -0.6182  0.3865  0.4753
 4270SOL    HW114294   7.299   3.414   7.728  0.1102  2.5212  0.3732
 4270SOL    HW214295   7.184   3.358   7.808  1.2131 -0.8501 -0.3230
 4271SOL     OW14296   4.012   3.169   7.788  0.2336  0.4365 -0.1984
 4271SOL    HW114297   4.011   3.264   7.798  0.0362  0.3913  0.2755
 4271SOL    HW214298   3.993   3.153   7.696 -0.0831  0.8499 -0.2048
 4272SOL     OW14299   1.415   3.079   4.603  0.3385  0.3241  0.4153
 4272SOL    HW114300   1.346   3.053   4.542 -0.3016  0.5673  1.0383
 4272SOL    HW214301   1.480   3.122   4.548 -0.1238  0.3256 -0.1334
 4273SOL     OW14302   4.706   2.234   2.146 -0.2129  0.3530  0.4299
 4273SOL    HW114303   4.669   2.293   2.079 -0.7766  0.2417  0.6377
 4273SOL    HW214304   4.775   2.186   2.100  0.2760  1.2084  0.2711
 4274SOL     OW14305   7.537   6.023   6.428 -0.3358 -0.1745  0.6375
 4274SOL    HW114306   7.613   6.057   6.473  0.0566 -0.3168  0.0924
 4274SOL    HW214307   7.565   5.938   6.393 -0.9457 -0.5286  0.9968
 4275SOL     OW14308   7.694   7.381   2.150  0.3485 -0.0546 -0.5846
 4275SOL    HW114309   7.646   7.301   2.128 -1.1594  0.7574 -0.2721
 4275SOL    HW214310   7.654   7.449   2.096 -0.6094  1.1386  1.5514
 4276SOL     OW14311   2.790   3.592   6.345 -0.0604 -0.7137 -0.0951
 4276SOL    HW114312   2.841   3.521   6.305  2.8553  0.9743  0.5130
 4276SOL    HW214313   2.746   3.634   6.271  0.9747 -0.9711 -0.8696
 4277SOL     OW14314   2.301   6.599   3.333  0.9101 -0.3332 -0.0706
 4277SOL    HW114315   2.352   6.606   3.414  1.8157 -1.4891 -0.5421
 4277SOL    HW214316   2.344   6.660   3.273 -1.4337  2.6621  1.1476
 4278SOL     OW14317   5.790   0.916   6.138  0.6225  0.6182 -0.0416
 4278SOL    HW114318   5.789   0.905   6.043  2.8493 -3.3099  0.2690
 4278SOL    HW214319   5.880   0.944   6.157  0.1955  1.3483  0.9049
 4279SOL     OW14320   5.874   7.201   0.093 -0.1829  0.4927  0.1910
 4279SOL    HW114321   5.940   7.176   0.157  0.1498  1.3224  0.1810
 4279SOL    HW214322   5.793   7.161   0.125  0.3670 -0.7377  0.0631
 4280SOL     OW14323   1.240   2.517   1.821  0.0090  0.2511  0.2146
 4280SOL    HW114324   1.177   2.480   1.758  0.6867 -2.3741  0.9993
 4280SOL    HW214325   1.202   2.601   1.847 -0.5252  1.1628 -3.3015
 4281SOL     OW14326   0.194   3.178   0.143 -0.3264 -0.0206 -0.1856
 4281SOL    HW114327   0.260   3.232   0.187  0.5812 -1.7556  0.6435
 4281SOL    HW214328   0.113   3.195   0.191 -0.3428  1.4864 -0.6896
 4282SOL     OW14329   4.482   0.452   0.845  0.0962  0.0819 -0.3616
 4282SOL    HW114330   4.423   0.422   0.913  0.6121  0.8086  0.4238
 4282SOL    HW214331   4.521   0.373   0.809 -1.0059 -0.3685 -0.5649
 4283SOL     OW14332   3.151   4.333   1.594 -0.4218 -0.5672 -0.0181
 4283SOL    HW114333   3.199   4.251   1.602  0.1134 -0.3208 -0.6591
 4283SOL    HW214334   3.063   4.307   1.565  0.1305 -0.8223 -1.4810
 4284SOL     OW14335   8.064   4.080   5.139  0.3728  0.4660 -0.0725
 4284SOL    HW114336   7.991   4.140   5.154  0.3792  0.2674  0.7562
 4284SOL    HW214337   8.033   3.995   5.170  0.1847 -0.0810 -1.6989
 4285SOL     OW14338   7.906   3.914   3.380 -0.4445 -0.1567 -0.3727
 4285SOL    HW114339   7.941   3.830   3.411  0.1609 -0.2416 -1.2756
 4285SOL    HW214340   7.813   3.896   3.365 -0.3180 -0.6641 -0.5613
 4286SOL     OW14341   1.174   8.175   4.964  0.3598  0.1721 -0.5094
 4286SOL    HW114342   1.120   8.099   4.941 -0.4738  0.2831  0.9966
 4286SOL    HW214343   1.185   8.168   5.059  1.3290  1.2544 -0.5363
 4287SOL     OW14344   7.478   3.804   6.505 -0.3639 -0.2648 -0.5516
 4287SOL    HW114345   7.510   3.878   6.557  0.1779 -0.6221 -0.3707
 4287SOL    HW214346   7.409   3.841   6.450 -0.2099  0.3394 -0.3390
 4288SOL     OW14347   2.733   6.463   4.010 -0.7473  0.3215  0.6603
 4288SOL    HW114348   2.733   6.442   3.916  1.4068  0.5790  0.5654
 4288SOL    HW214349   2.798   6.533   4.018 -0.4068 -0.1835  2.4594
 4289SOL     OW14350   2.932   7.583   0.404  0.0273 -0.0310  0.2758
 4289SOL    HW114351   2.997   7.586   0.475 -0.5623  1.1266  0.7662
 4289SOL    HW214352   2.983   7.594   0.324  0.4981  0.3011  0.6239
 4290SOL     OW14353   7.834   2.073   6.564 -0.6747 -0.0097  0.5714
 4290SOL    HW114354   7.898   2.077   6.635  0.7294 -2.0570 -0.5412
 4290SOL    HW214355   7.885   2.093   6.485 -1.4049 -1.6204 -0.3170
 4291SOL     OW14356   5.573   1.982   2.585 -0.0186  0.5208  0.0245
 4291SOL    HW114357   5.621   2.029   2.652  1.2112 -1.0689  0.2827
 4291SOL    HW214358   5.482   2.007   2.598  0.3806  1.2592  1.4117
 4292SOL     OW14359   1.554   1.538   4.983  0.4947  0.1444  0.1141
 4292SOL    HW114360   1.519   1.575   5.063 -0.4491  1.1552 -0.7563
 4292SOL    HW214361   1.547   1.608   4.918 -1.0040 -1.4115 -1.4668
 4293SOL     OW14362   8.013   7.729   2.738  0.4260  0.3058 -0.8063
 4293SOL    HW114363   8.074   7.732   2.812 -0.9055 -2.0264  0.4229
 4293SOL    HW214364   8.032   7.646   2.695 -2.7912 -1.1103  0.4144
 4294SOL     OW14365   1.778   7.771   3.092  0.2788 -0.0456  0.3978
 4294SOL    HW114366   1.814   7.855   3.120 -0.9658  0.8269 -0.5557
 4294SOL    HW214367   1.684   7.787   3.085 -0.0187 -1.6239  0.5452
 4295SOL     OW14368   7.366   1.154   4.259  0.1399 -0.7628 -0.5690
 4295SOL    HW114369   7.393   1.236   4.217  2.2349 -0.1344  1.8783
 4295SOL    HW214370   7.305   1.182   4.328  1.5747 -1.1515  0.8752
 4296SOL     OW14371   6.893   0.911   3.343 -0.6225 -0.4151 -0.3626
 4296SOL    HW114372   6.926   0.840   3.287 -0.9526  0.1305 -1.2639
 4296SOL    HW214373   6.960   0.922   3.410 -0.4794 -1.4481 -0.3377
 4297SOL     OW14374   3.289   4.378   7.277 -0.5256 -0.1392  0.1460
 4297SOL    HW114375   3.215   4.360   7.219 -0.4323  0.5692 -0.1933
 4297SOL    HW214376   3.316   4.291   7.308  0.8278 -0.7756 -2.5975
 4298SOL     OW14377   2.836   1.106   3.500 -0.3910 -0.5928 -0.0062
 4298SOL    HW114378   2.820   1.022   3.458  1.5995 -2.0665  2.0465
 4298SOL    HW214379   2.784   1.104   3.580 -0.0842 -0.0251  0.2139
 4299SOL     OW14380   4.903   1.911   5.349 -0.2752  0.0732  0.2148
 4299SOL    HW114381   4.892   2.004   5.367 -1.0919  0.2427 -1.1125
 4299SOL    HW214382   4.887   1.868   5.433 -1.8726  0.9970  0.3972
 4300SOL     OW14383   0.648   2.903   6.512  0.1611  0.0949 -0.1159
 4300SOL    HW114384   0.624   2.853   6.590 -0.1643  1.6241  0.7881
 4300SOL    HW214385   0.578   2.884   6.449  0.1863 -0.7847  0.1080
 4301SOL     OW14386   6.643   3.800   3.636 -0.0819 -0.3525  0.0603
 4301SOL    HW114387   6.687   3.804   3.722  2.6223  1.8530 -1.3435
 4301SOL    HW214388   6.576   3.868   3.641 -0.6189 -0.9330  0.7982
 4302SOL     OW14389   0.954   3.054   7.065  0.4187  0.2647  0.3407
 4302SOL    HW114390   1.017   3.058   6.992  1.5899 -0.8024  1.2673
 4302SOL    HW214391   1.005   3.019   7.138 -1.4835 -1.4790  0.8739
 4303SOL     OW14392   4.956   6.540   4.284 -0.4500  0.4797 -0.6458
 4303SOL    HW114393   4.885   6.479   4.305 -0.3311  0.7338  0.5261
 4303SOL    HW214394   5.035   6.485   4.282  0.1152  0.9671  3.2598
 4304SOL     OW14395   3.225   6.862   4.690 -0.3024 -0.2096  0.0577
 4304SOL    HW114396   3.233   6.890   4.781  1.0417 -1.0537  0.2269
 4304SOL    HW214397   3.139   6.820   4.685  1.2588 -3.8462  2.0292
 4305SOL     OW14398   0.158   7.302   7.701 -0.3942 -0.2708 -0.1067
 4305SOL    HW114399   0.186   7.322   7.612  2.6450 -0.4578  0.7773
 4305SOL    HW214400   0.092   7.369   7.721  0.1476  0.8137 -1.8868
 4306SOL     OW14401   3.091   4.316   7.067 -0.3474  0.2522 -0.3932
 4306SOL    HW114402   3.089   4.383   6.999 -1.1741  1.0574  0.4247
 4306SOL    HW214403   3.171   4.267   7.049  0.2665  1.4488 -1.0008
 4307SOL     OW14404   4.591   1.834   3.241  0.0561  0.0538  0.3805
 4307SOL    HW114405   4.611   1.919   3.281  0.5941  1.2830 -2.4454
 4307SOL    HW214406   4.495   1.833   3.234  0.0991  0.7380 -0.2698
 4308SOL     OW14407   2.843   5.444   6.994  0.0582  0.0209  0.2241
 4308SOL    HW114408   2.809   5.501   7.062  2.2431  1.4462  0.1803
 4308SOL    HW214409   2.857   5.360   7.037 -2.6736 -0.3526  0.4221
 4309SOL     OW14410   3.756   2.866   6.040 -0.2735  0.3962  0.5073
 4309SOL    HW114411   3.705   2.946   6.029 -1.0594  0.2346  2.6634
 4309SOL    HW214412   3.763   2.828   5.952 -3.5111  0.6429  0.1152
 4310SOL     OW14413   5.731   3.338   3.147  0.0099  0.2765 -0.1718
 4310SOL    HW114414   5.683   3.315   3.227 -1.0838 -1.6504 -1.3286
 4310SOL    HW214415   5.665   3.334   3.077  1.0483  1.4576 -1.2439
 4311SOL     OW14416   2.083   4.611   5.057 -0.5593  0.6061  0.1105
 4311SOL    HW114417   2.155   4.590   4.997 -0.4334  0.3017  0.3671
 4311SOL    HW214418   2.007   4.568   5.018 -0.5850  0.8531 -0.1136
 4312SOL     OW14419   0.727   3.876   6.426  0.2075  0.3626 -0.7639
 4312SOL    HW114420   0.707   3.908   6.338  0.7726  0.7332 -0.7596
 4312SOL    HW214421   0.822   3.868   6.427  0.2578  1.0110  0.0431
 4313SOL     OW14422   5.303   0.768   6.832 -0.6680 -0.3548 -0.0236
 4313SOL    HW114423   5.282   0.732   6.746  0.0658 -2.2055  0.5525
 4313SOL    HW214424   5.223   0.756   6.883 -1.1555  0.8843 -0.4508
 4314SOL     OW14425   1.306   7.605   4.428 -0.2453 -0.0826 -0.3934
 4314SOL    HW114426   1.374   7.663   4.394  0.2055  0.5169  1.4463
 4314SOL    HW214427   1.348   7.519   4.433 -0.4371 -0.2628 -1.6663
 4315SOL     OW14428   0.814   4.508   4.625 -0.2333 -0.3005  0.0602
 4315SOL    HW114429   0.855   4.561   4.556  1.0217 -2.9999 -1.3385
 4315SOL    HW214430   0.841   4.550   4.706  1.1036  0.9392 -0.9950
 4316SOL     OW14431   2.750   6.684   6.192  0.1263 -0.7474  0.4141
 4316SOL    HW114432   2.665   6.670   6.150 -0.8723  0.8600  1.8149
 4316SOL    HW214433   2.813   6.676   6.121 -1.0091 -3.9253 -0.2976
 4317SOL     OW14434   7.696   7.675   8.085 -0.3504  0.3946 -0.0923
 4317SOL    HW114435   7.687   7.594   8.035 -0.0160  0.0642  0.3798
 4317SOL    HW214436   7.753   7.652   8.159 -1.2929  0.7370  0.7501
 4318SOL     OW14437   1.990   1.257   6.420 -0.1037 -0.0115 -0.1280
 4318SOL    HW114438   2.013   1.329   6.478 -0.8002  0.0709  0.0425
 4318SOL    HW214439   1.897   1.269   6.401 -0.1984 -0.7951 -0.1911
 4319SOL     OW14440   6.525   3.165   6.446  0.1572  0.3856  0.3034
 4319SOL    HW114441   6.592   3.104   6.476  0.1462  0.0019 -0.4498
 4319SOL    HW214442   6.530   3.238   6.507 -0.0166 -0.4951  1.3895
 4320SOL     OW14443   2.172   4.311   6.455  0.4268  0.0638  0.3633
 4320SOL    HW114444   2.101   4.269   6.503  1.2496 -0.8602  0.8097
 4320SOL    HW214445   2.164   4.279   6.365  0.6434 -0.5410  0.5533
 4321SOL     OW14446   0.159   5.118   6.868 -0.1074  0.1518 -0.6752
 4321SOL    HW114447   0.076   5.080   6.840  0.0883  1.0857 -2.6124
 4321SOL    HW214448   0.205   5.138   6.787  2.5772 -1.5219  0.3649
 4322SOL     OW14449   2.038   6.593   0.779  0.3862  0.1223  0.2822
 4322SOL    HW114450   1.973   6.552   0.723  1.6819 -0.6146 -0.7176
 4322SOL    HW214451   2.088   6.650   0.719  1.2537 -0.0462  0.8344
 4323SOL     OW14452   7.916   6.021   3.351  0.3294  0.6590  0.0524
 4323SOL    HW114453   7.919   6.006   3.257  3.3307  0.9650  0.0424
 4323SOL    HW214454   7.978   6.092   3.366  0.8350 -0.2235  2.3804
 4324SOL     OW14455   6.324   1.136   1.129  0.4653  0.1041 -0.1158
 4324SOL    HW114456   6.382   1.197   1.083  0.5604 -0.3132 -0.5647
 4324SOL    HW214457   6.252   1.190   1.160  1.1051  0.6366  0.4641
 4325SOL     OW14458   0.390   2.387   6.200 -0.4758 -0.5313 -0.0422
 4325SOL    HW114459   0.382   2.372   6.106 -1.3756  0.6338 -0.1481
 4325SOL    HW214460   0.311   2.434   6.225  0.1071 -0.1639  1.1677
 4326SOL     OW14461   3.890   7.647   1.995  0.2932 -0.3731 -0.2430
 4326SOL    HW114462   3.911   7.727   1.947 -0.6177 -0.6490 -1.1078
 4326SOL    HW214463   3.965   7.589   1.978  1.4891  0.6783  1.2974
 4327SOL     OW14464   7.313   0.915   3.240  0.2638 -0.2264  0.1061
 4327SOL    HW114465   7.279   0.929   3.151 -1.1330  1.4351  0.8700
 4327SOL    HW214466   7.334   0.821   3.243  4.7906  0.5285 -3.4660
 4328SOL     OW14467   6.085   3.635   5.467  0.3372  0.4810 -0.1743
 4328SOL    HW114468   5.994   3.661   5.453  0.6515  1.2453 -0.9000
 4328SOL    HW214469   6.096   3.557   5.413 -0.5536 -1.0664  1.8360
 4329SOL     OW14470   5.547   2.157   4.462  0.1806 -0.0602 -0.5022
 4329SOL    HW114471   5.524   2.075   4.506 -0.6262  0.7045  0.5345
 4329SOL    HW214472   5.500   2.154   4.379 -0.9752 -0.0246  0.1451
 4330SOL     OW14473   6.377   8.107   6.049  0.3193  0.0561  0.1295
 4330SOL    HW114474   6.416   8.162   5.981 -0.1289  2.3107  1.6633
 4330SOL    HW214475   6.425   8.024   6.043  1.6615  0.9214 -1.5636
 4331SOL     OW14476   4.579   5.545   5.453 -0.3814 -0.2153 -0.2211
 4331SOL    HW114477   4.537   5.631   5.445 -0.2083  0.1025  2.0002
 4331SOL    HW214478   4.587   5.531   5.547  0.7964 -2.0927 -0.5780
 4332SOL     OW14479   0.035   3.453   2.519 -0.0228 -0.0137  0.2521
 4332SOL    HW114480   0.088   3.421   2.445 -0.5557  1.4138 -0.7731
 4332SOL    HW214481   0.092   3.514   2.565  0.1578 -0.5715  0.7769
 4333SOL     OW14482   3.607   0.817   7.624 -0.2153 -0.3830 -0.0039
 4333SOL    HW114483   3.635   0.908   7.622 -0.4772 -0.3163 -0.6591
 4333SOL    HW214484   3.513   0.821   7.641  0.2037 -0.6163  2.5284
 4334SOL     OW14485   6.151   4.942   5.105 -0.1586  0.4132  0.7197
 4334SOL    HW114486   6.189   4.916   5.189 -2.0219 -0.5441  1.3046
 4334SOL    HW214487   6.209   4.905   5.039  0.2460 -0.5226  1.5920
 4335SOL     OW14488   6.919   2.608   0.985 -0.3854 -0.1655  0.1409
 4335SOL    HW114489   6.990   2.549   0.960  0.3604  0.7859 -0.0503
 4335SOL    HW214490   6.839   2.561   0.963  0.1786 -1.4218  0.7290
 4336SOL     OW14491   6.275   1.944   6.002  0.2033 -0.4891 -0.3072
 4336SOL    HW114492   6.324   1.997   5.939 -0.4212  2.1394  1.3925
 4336SOL    HW214493   6.201   1.909   5.952  0.2269  0.8220 -1.2729
 4337SOL     OW14494   3.701   7.741   3.596 -0.7102  0.1258  0.0128
 4337SOL    HW114495   3.637   7.808   3.573  0.7512  1.8501  0.8500
 4337SOL    HW214496   3.785   7.786   3.594  0.4150 -1.9385 -0.3881
 4338SOL     OW14497   7.602   2.138   2.905 -0.5832  0.6931  0.1608
 4338SOL    HW114498   7.535   2.207   2.908  0.0046  1.2228  1.3760
 4338SOL    HW214499   7.660   2.164   2.833 -1.6630  0.2396 -0.8888
 4339SOL     OW14500   0.541   3.703   2.503 -0.2732 -0.2198 -0.2563
 4339SOL    HW114501   0.623   3.652   2.500 -1.1315 -1.6780  0.4024
 4339SOL    HW214502   0.566   3.786   2.542  0.9566 -0.5704 -0.2671
 4340SOL     OW14503   0.810   4.902   1.570 -0.5382  0.0040 -0.0739
 4340SOL    HW114504   0.813   4.925   1.477  0.1176  0.7867  0.1356
 4340SOL    HW214505   0.723   4.865   1.583 -1.0641  0.9906 -0.7493
 4341SOL     OW14506   2.580   0.815   6.400 -0.2230  0.5388 -0.5366
 4341SOL    HW114507   2.603   0.786   6.312  0.5650 -0.6845  0.0585
 4341SOL    HW214508   2.503   0.870   6.388 -2.1660 -2.2872 -1.6775
 4342SOL     OW14509   3.360   7.848   1.802  0.4060  0.3265  0.2714
 4342SOL    HW114510   3.295   7.889   1.859 -0.0882 -0.7979  0.5311
 4342SOL    HW214511   3.355   7.898   1.720 -0.4140  0.5810  0.4739
 4343SOL     OW14512   3.146   4.916   7.803 -0.1191 -0.1297 -0.2727
 4343SOL    HW114513   3.127   4.838   7.751  0.6946 -0.3948 -0.1911
 4343SOL    HW214514   3.086   4.912   7.877 -0.4329 -0.4043 -0.5412
 4344SOL     OW14515   3.541   5.502   5.941  0.2790  0.5118  0.5482
 4344SOL    HW114516   3.597   5.441   5.990  0.5922  1.4556  1.3829
 4344SOL    HW214517   3.603   5.554   5.889 -0.0778 -0.7285 -1.1388
 4345SOL     OW14518   2.724   8.184   5.104  0.6120  0.3512  0.2269
 4345SOL    HW114519   2.759   8.265   5.140 -0.7324  2.0457 -2.1195
 4345SOL    HW214520   2.648   8.212   5.053 -2.1573 -2.8072  2.3848
 4346SOL     OW14521   7.841   7.724   1.549 -0.4517  0.0310 -0.2617
 4346SOL    HW114522   7.897   7.677   1.487  0.0308  1.7043 -1.0961
 4346SOL    HW214523   7.903   7.767   1.608 -0.8822  1.1340 -0.6227
 4347SOL     OW14524   5.383   0.523   0.763 -0.5491  0.0600  0.0805
 4347SOL    HW114525   5.409   0.613   0.746  1.3742 -0.1849  1.6680
 4347SOL    HW214526   5.295   0.530   0.801 -0.1846  1.2841  0.6975
 4348SOL     OW14527   3.255   2.673   8.137 -0.4955  0.4328  0.1184
 4348SOL    HW114528   3.268   2.708   8.049 -1.1231 -0.9035 -0.5223
 4348SOL    HW214529   3.223   2.748   8.188  0.3421  1.3381 -0.6568
 4349SOL     OW14530   0.697   0.163   6.598 -0.4036  0.3570 -0.0644
 4349SOL    HW114531   0.640   0.110   6.541 -0.5963 -1.5504  1.8144
 4349SOL    HW214532   0.782   0.163   6.554 -0.7667 -0.3516 -0.7879
 4350SOL     OW14533   1.789   7.744   0.224 -0.2480  0.4968 -0.3612
 4350SOL    HW114534   1.850   7.670   0.215 -1.4264 -0.5535  0.0492
 4350SOL    HW214535   1.713   7.706   0.269 -0.4838  2.1898  0.7144
 4351SOL     OW14536   2.044   0.086   5.658 -0.0168 -0.4316 -0.0054
 4351SOL    HW114537   1.949   0.074   5.652 -0.0768 -0.0249  0.1449
 4351SOL    HW214538   2.079   0.029   5.589 -0.2840 -1.6723  0.8680
 4352SOL     OW14539   8.271   2.310   7.626 -0.0638 -0.0762  0.1021
 4352SOL    HW114540   8.184   2.274   7.615  0.5706 -0.9915 -2.1547
 4352SOL    HW214541   8.275   2.384   7.565  1.1159 -0.7447 -0.6474
 4353SOL     OW14542   1.078   8.037   0.513 -0.2423 -0.3249 -0.4578
 4353SOL    HW114543   1.160   8.070   0.475  0.1764  2.4465  2.6017
 4353SOL    HW214544   1.015   8.107   0.497 -1.2564 -1.1648 -0.1763
 4354SOL     OW14545   5.242   2.675   7.232 -0.3803  0.1680 -0.1386
 4354SOL    HW114546   5.200   2.745   7.282  0.9751  1.2145 -0.4381
 4354SOL    HW214547   5.183   2.658   7.159 -1.5251 -0.1734  0.8473
 4355SOL     OW14548   2.170   4.806   2.304 -0.1651 -0.1358  0.2558
 4355SOL    HW114549   2.243   4.787   2.363 -0.6456  0.1659  0.9479
 4355SOL    HW214550   2.211   4.844   2.227  0.4389 -0.2525  0.5146
 4356SOL     OW14551   2.363   3.119   7.114  0.0492  0.1883 -0.0150
 4356SOL    HW114552   2.315   3.201   7.124 -0.3436  0.1647 -1.7061
 4356SOL    HW214553   2.450   3.145   7.084 -0.1849 -0.0382 -0.8885
 4357SOL     OW14554   2.053   1.882   0.239  0.4639 -0.1453  0.0113
 4357SOL    HW114555   2.112   1.848   0.306  1.8291  1.1935 -0.4786
 4357SOL    HW214556   2.045   1.811   0.176  1.0961 -0.5418  0.3674
 4358SOL     OW14557   6.733   5.240   6.585 -0.1233  0.3605 -0.2947
 4358SOL    HW114558   6.662   5.220   6.523 -0.0998 -2.8972  0.6317
 4358SOL    HW214559   6.699   5.212   6.669  1.7798  0.0214  0.3798
 4359SOL     OW14560   7.511   7.623   3.739 -0.1820 -0.2492 -0.4290
 4359SOL    HW114561   7.417   7.630   3.751 -0.3607  0.0696 -1.9362
 4359SOL    HW214562   7.522   7.568   3.662  0.7918  1.5331 -1.6143
 4360SOL     OW14563   6.301   0.844   6.452  0.0880 -0.3827 -0.1878
 4360SOL    HW114564   6.283   0.921   6.398 -0.9526 -1.0599 -0.8245
 4360SOL    HW214565   6.266   0.866   6.538  0.7968  0.2844 -0.0674
 4361SOL     OW14566   5.034   7.564   7.951 -0.3631 -0.3984  0.1863
 4361SOL    HW114567   4.961   7.615   7.986 -1.0847 -1.8272  0.8093
 4361SOL    HW214568   4.994   7.483   7.921  0.5668 -0.0494 -2.0708
 4362SOL     OW14569   3.503   8.250   3.517  0.4101 -0.1596  0.3489
 4362SOL    HW114570   3.422   8.201   3.515 -0.1623  0.8031 -1.6238
 4362SOL    HW214571   3.527   8.255   3.610 -3.3702  2.1240  1.2957
 4363SOL     OW14572   7.233   2.822   5.030  0.3263 -0.1058 -0.4118
 4363SOL    HW114573   7.143   2.843   5.055  0.5893  0.9010 -0.2894
 4363SOL    HW214574   7.228   2.733   4.995 -0.4730 -0.6074  0.9346
 4364SOL     OW14575   3.082   8.305   6.389 -0.0386  0.0889  0.0195
 4364SOL    HW114576   3.104   8.294   6.297  2.2577  0.5522  0.4810
 4364SOL    HW214577   3.030   8.385   6.393 -0.3187 -0.0528 -0.9010
 4365SOL     OW14578   1.351   3.001   0.397  0.5747 -0.0963 -0.1442
 4365SOL    HW114579   1.410   2.930   0.424  1.9585  0.6930 -1.1266
 4365SOL    HW214580   1.273   2.955   0.365  1.6457 -1.1947 -1.2152
 4366SOL     OW14581   8.192   5.347   6.041 -0.2247  0.1560 -0.5952
 4366SOL    HW114582   8.277   5.351   5.997 -0.7382 -2.3694 -1.9157
 4366SOL    HW214583   8.199   5.273   6.101 -0.9900  0.8841  0.4080
 4367SOL     OW14584   3.546   4.999   4.959 -0.3269 -0.8847  0.2673
 4367SOL    HW114585   3.554   5.005   4.864 -1.7557 -2.0029  0.0597
 4367SOL    HW214586   3.495   4.919   4.974  0.6074 -1.1872  2.0097
 4368SOL     OW14587   3.144   1.307   3.708  0.3108  0.0315 -0.0100
 4368SOL    HW114588   3.113   1.296   3.798  0.9093  0.5344  0.2562
 4368SOL    HW214589   3.168   1.399   3.701 -0.9455  0.2964 -1.0739
 4369SOL     OW14590   0.314   6.305   1.059 -0.2556 -0.7420  0.1365
 4369SOL    HW114591   0.329   6.233   1.119 -0.2604 -0.9288 -0.0859
 4369SOL    HW214592   0.399   6.350   1.054  0.2363 -1.7621 -1.0739
 4370SOL     OW14593   4.307   2.335   6.065 -0.3636 -0.1568  0.0345
 4370SOL    HW114594   4.265   2.333   5.979  0.1304  1.2416 -0.2514
 4370SOL    HW214595   4.259   2.402   6.114 -0.5073 -0.7962  0.7912
 4371SOL     OW14596   2.580   8.245   3.342  0.1313 -0.0751  0.5019
 4371SOL    HW114597   2.656   8.275   3.292 -0.4896  1.2429  0.3086
 4371SOL    HW214598   2.604   8.158   3.372  2.0160  0.6017  1.0535
 4372SOL     OW14599   0.488   3.679   0.784  0.1091  0.3980 -0.2431
 4372SOL    HW114600   0.488   3.623   0.862 -0.4044  1.3214  0.4344
 4372SOL    HW214601   0.396   3.688   0.761  0.2032  0.7583 -0.4845
 4373SOL     OW14602   4.203   7.857   5.968  0.2033 -0.0493  0.1069
 4373SOL    HW114603   4.204   7.935   6.023 -1.4605 -0.2660  0.4756
 4373SOL    HW214604   4.173   7.888   5.882 -1.6698 -0.4574  0.5847
 4374SOL     OW14605   1.158   1.441   1.724 -0.2584 -0.2461  0.2442
 4374SOL    HW114606   1.134   1.358   1.683  0.1694 -0.2532  0.0070
 4374SOL    HW214607   1.135   1.507   1.658 -2.1787 -0.0348  1.0888
 4375SOL     OW14608   7.212   3.410   5.851 -0.0326 -0.0812 -0.3972
 4375SOL    HW114609   7.236   3.498   5.881 -1.3959 -0.2212  1.1498
 4375SOL    HW214610   7.117   3.406   5.861 -0.1940 -1.1388 -2.1113
 4376SOL     OW14611   4.940   7.470   4.701  0.5831 -0.0260  0.4998
 4376SOL    HW114612   4.879   7.543   4.713 -1.9941 -2.0843  0.4120
 4376SOL    HW214613   5.009   7.506   4.646 -1.0164  2.1304 -0.1876
 4377SOL     OW14614   1.630   6.650   4.042 -0.3417  0.0721 -0.3407
 4377SOL    HW114615   1.615   6.721   4.105 -2.4075 -0.2475 -0.4380
 4377SOL    HW214616   1.692   6.592   4.087  1.3047  1.8597 -0.2296
 4378SOL     OW14617   0.089   1.948   5.787  0.1058 -0.6787  0.3494
 4378SOL    HW114618   0.181   1.928   5.802 -0.0120  0.0613  2.2338
 4378SOL    HW214619   0.089   2.037   5.753 -0.0404  0.3453  2.9171
 4379SOL     OW14620   7.244   1.348   6.062  0.1825  0.5324  0.0718
 4379SOL    HW114621   7.249   1.254   6.077 -0.0622  0.5821  0.4572
 4379SOL    HW214622   7.180   1.380   6.126  2.2595  1.3689  1.8015
 4380SOL     OW14623   4.401   0.033   3.711  0.1110  0.4019 -0.3836
 4380SOL    HW114624   4.372   0.084   3.636 -0.0562  0.1707 -0.4766
 4380SOL    HW214625   4.359  -0.052   3.700  0.1022  0.3595 -0.0391
 4381SOL     OW14626   4.937   1.227   8.287 -0.1942 -0.3584  0.0463
 4381SOL    HW114627   4.992   1.193   8.216 -2.2362 -1.6069 -1.0113
 4381SOL    HW214628   4.867   1.275   8.242 -1.4191 -1.0145  1.2144
 4382SOL     OW14629   0.817   6.369   3.689 -0.0130 -0.1708 -0.3280
 4382SOL    HW114630   0.820   6.284   3.731  1.3070  0.4580  0.9179
 4382SOL    HW214631   0.908   6.399   3.689 -0.1646  0.3925 -2.5139
 4383SOL     OW14632   7.901   5.761   2.127  0.9182 -0.0553 -0.1316
 4383SOL    HW114633   7.836   5.827   2.102 -0.0986 -0.2056  1.9539
 4383SOL    HW214634   7.938   5.794   2.209  1.7800 -1.1270 -0.0810
 4384SOL     OW14635   4.805   3.879   0.067 -0.1625 -0.6472  0.8208
 4384SOL    HW114636   4.756   3.961   0.078 -0.4530 -0.4446 -1.6632
 4384SOL    HW214637   4.758   3.815   0.120 -2.1278 -0.0412 -0.1563
 4385SOL     OW14638   2.406   7.483   5.439 -0.0845 -0.4917  0.2275
 4385SOL    HW114639   2.497   7.505   5.417  0.4503 -0.8210  1.9749
 4385SOL    HW214640   2.391   7.399   5.396  0.2688 -0.1934 -0.4922
 4386SOL     OW14641   3.547   2.293   2.636  0.2157  0.3523 -0.3254
 4386SOL    HW114642   3.595   2.376   2.645  1.1134  0.0451 -2.0559
 4386SOL    HW214643   3.546   2.277   2.542 -4.4099  0.9867 -0.4933
 4387SOL     OW14644   2.174   2.414   1.166 -0.6431  0.4618  0.7127
 4387SOL    HW114645   2.123   2.351   1.217  0.1893 -0.5642  0.3006
 4387SOL    HW214646   2.229   2.360   1.110  0.0982  1.5663  0.3626
 4388SOL     OW14647   0.583   1.833   1.891  0.6794  0.2955  0.0037
 4388SOL    HW114648   0.624   1.917   1.871 -0.5996  0.5706 -1.5358
 4388SOL    HW214649   0.541   1.806   1.809  1.4487 -2.0635  0.3463
 4389SOL     OW14650   6.438   7.251   5.161  0.2280 -0.5907  0.0329
 4389SOL    HW114651   6.510   7.188   5.157  0.8163  0.0706  0.0534
 4389SOL    HW214652   6.377   7.214   5.224 -1.9843 -3.7516 -3.7027
 4390SOL     OW14653   3.637   7.149   5.942 -0.2200 -0.4972  0.5473
 4390SOL    HW114654   3.668   7.234   5.912 -0.5932 -1.0042 -1.3508
 4390SOL    HW214655   3.716   7.096   5.953 -0.0257 -0.0624  1.2414
 4391SOL     OW14656   1.093   3.052   1.775 -0.4767  0.3355 -0.1347
 4391SOL    HW114657   1.128   3.045   1.864 -1.0598 -0.1377  0.0654
 4391SOL    HW214658   1.148   3.116   1.732  0.0455  0.2868  0.4601
 4392SOL     OW14659   6.019   1.192   8.037  0.4332  0.6145  0.3006
 4392SOL    HW114660   5.984   1.279   8.056 -0.1613  0.3667  0.3594
 4392SOL    HW214661   5.955   1.132   8.076  1.0859  0.1588  0.6907
 4393SOL     OW14662   1.740   6.046   4.929  0.4095 -0.2803 -0.1190
 4393SOL    HW114663   1.825   6.020   4.892  1.0731 -0.1144  1.2342
 4393SOL    HW214664   1.755   6.134   4.962 -1.2169  1.0114 -2.7075
 4394SOL     OW14665   1.281   5.263   7.366  0.7527 -0.5650 -0.1361
 4394SOL    HW114666   1.259   5.348   7.328  2.4160  1.5384  3.3134
 4394SOL    HW214667   1.377   5.266   7.376  0.8574 -2.9436 -0.1021
 4395SOL     OW14668   6.694   5.715   5.558  0.4859  0.0169 -0.3989
 4395SOL    HW114669   6.758   5.650   5.589  1.0463 -0.2569 -2.0796
 4395SOL    HW214670   6.653   5.748   5.638  3.0440  0.5223  0.7861
 4396SOL     OW14671   6.158   3.428   7.452  0.1048  0.4767  0.4828
 4396SOL    HW114672   6.136   3.467   7.368 -1.3262 -1.6586 -0.1773
 4396SOL    HW214673   6.241   3.468   7.477  0.2500  1.5442 -1.6654
 4397SOL     OW14674   5.453   1.977   3.976 -0.1599  0.3190 -0.3871
 4397SOL    HW114675   5.509   1.988   3.900 -0.0401  3.6125  0.0867
 4397SOL    HW214676   5.367   2.008   3.947 -0.3214  0.7675  0.5357
 4398SOL     OW14677   0.962   6.570   0.074  0.4929  0.2790  0.2614
 4398SOL    HW114678   0.892   6.635   0.079  0.0658 -0.1780  0.2923
 4398SOL    HW214679   0.919   6.491   0.042  0.8754 -0.1798  0.8638
 4399SOL     OW14680   0.575   5.161   6.197 -0.2762  0.0540  0.0627
 4399SOL    HW114681   0.666   5.191   6.188 -0.4974  0.0659 -2.3128
 4399SOL    HW214682   0.582   5.070   6.225  0.4232  0.7050  2.1506
 4400SOL     OW14683   8.093   6.457   1.515  0.4297 -0.1611  0.4956
 4400SOL    HW114684   8.158   6.508   1.467  0.1196  0.0033  0.2520
 4400SOL    HW214685   8.052   6.519   1.575 -0.6233  0.1072 -0.4778
 4401SOL     OW14686   5.893   3.246   4.238  0.0871  0.2629  0.5717
 4401SOL    HW114687   5.937   3.284   4.161 -0.0862  0.5990  0.6364
 4401SOL    HW214688   5.910   3.152   4.231  1.6195  0.4909  1.1101
 4402SOL     OW14689   3.485   0.950   5.153  0.5469 -0.3338 -0.4776
 4402SOL    HW114690   3.443   0.895   5.087  0.4602  0.5900 -1.1878
 4402SOL    HW214691   3.564   0.982   5.111  0.7811 -0.1955  0.0643
 4403SOL     OW14692   0.853   3.524   3.627 -0.3274 -0.3855  0.1089
 4403SOL    HW114693   0.907   3.446   3.637  0.5390 -0.1043 -2.0921
 4403SOL    HW214694   0.773   3.492   3.585 -1.0865 -0.4707  1.5573
 4404SOL     OW14695   2.475   2.128   4.247 -0.4814 -0.2800  0.5181
 4404SOL    HW114696   2.499   2.166   4.162 -0.8590  0.5766  0.7889
 4404SOL    HW214697   2.557   2.091   4.281 -0.1209  0.2311  0.2148
 4405SOL     OW14698   6.015   4.705   0.863  0.2476  0.0049  0.0052
 4405SOL    HW114699   6.079   4.697   0.934  2.9670  1.0495 -2.2103
 4405SOL    HW214700   6.044   4.640   0.799 -1.3595  0.0256 -0.7353
 4406SOL     OW14701   3.336   3.175   5.600  0.1519  0.1844  0.2857
 4406SOL    HW114702   3.323   3.095   5.549 -1.7863  0.5852  0.0935
 4406SOL    HW214703   3.414   3.158   5.652  1.1074 -0.9359 -1.4761
 4407SOL     OW14704   2.507   7.422   1.823 -0.4875 -0.2128  0.5006
 4407SOL    HW114705   2.427   7.373   1.803  0.7895 -1.8602 -0.6961
 4407SOL    HW214706   2.572   7.389   1.762  1.0034  1.4698  1.1187
 4408SOL     OW14707   2.748   7.111   3.250  0.2996 -0.1494  0.0021
 4408SOL    HW114708   2.817   7.083   3.311  1.0541  0.6308 -0.4822
 4408SOL    HW214709   2.666   7.086   3.293  0.8589 -0.3876  0.9368
 4409SOL     OW14710   0.114   6.161   3.455  0.0627  0.0327  0.7930
 4409SOL    HW114711   0.205   6.148   3.480  0.4307 -0.9157 -0.9513
 4409SOL    HW214712   0.107   6.122   3.368 -2.0973 -0.2154  1.0463
 4410SOL     OW14713   3.029   6.269   2.465  0.7608  0.0700 -0.3144
 4410SOL    HW114714   2.948   6.223   2.486 -0.4226  1.6695 -1.2399
 4410SOL    HW214715   3.070   6.216   2.397 -0.0169 -0.1972 -0.5777
 4411SOL     OW14716   6.399   6.571   7.876 -0.0784  0.3436 -0.3637
 4411SOL    HW114717   6.387   6.487   7.832 -0.1152  0.5631 -0.7812
 4411SOL    HW214718   6.494   6.585   7.876 -0.0401  0.0802  0.1280
 4412SOL     OW14719   8.079   0.254   2.268 -0.1240  0.5380 -0.6485
 4412SOL    HW114720   8.008   0.204   2.307  0.5527  0.7073  0.8578
 4412SOL    HW214721   8.044   0.343   2.260 -1.0932 -0.0033 -2.7004
 4413SOL     OW14722   5.562   1.936   5.825  0.5241 -0.2152 -1.0206
 4413SOL    HW114723   5.484   1.989   5.808  0.4470 -0.7933 -2.4699
 4413SOL    HW214724   5.614   1.990   5.885 -0.6866  0.4416 -0.5306
 4414SOL     OW14725   2.629   5.344   1.281  0.4541 -0.1532 -0.0132
 4414SOL    HW114726   2.691   5.284   1.237  1.3157  0.0050  0.9597
 4414SOL    HW214727   2.675   5.372   1.360 -1.3252 -0.9259  1.3277
 4415SOL     OW14728   3.506   4.746   4.486 -0.4906 -0.2242 -0.2904
 4415SOL    HW114729   3.593   4.780   4.507 -0.8324  2.6316 -3.0941
 4415SOL    HW214730   3.446   4.813   4.516 -1.6935 -1.7424  0.7354
 4416SOL     OW14731   0.242   6.170   4.209  0.5651  0.2596 -0.0195
 4416SOL    HW114732   0.258   6.127   4.125  2.0954  1.1077 -0.1836
 4416SOL    HW214733   0.325   6.163   4.256  0.0208  0.6700  1.0314
 4417SOL     OW14734   1.609   2.264   3.326 -0.3383  0.6272  0.3049
 4417SOL    HW114735   1.695   2.225   3.347 -0.0365  0.8859 -0.4336
 4417SOL    HW214736   1.623   2.358   3.334 -0.4302  0.6906 -0.2647
 4418SOL     OW14737   6.536   2.141   2.263 -0.2551 -0.2658  0.2478
 4418SOL    HW114738   6.517   2.086   2.338 -1.7969  1.1915  0.9470
 4418SOL    HW214739   6.496   2.225   2.284  0.9296  0.7296 -1.3736
 4419SOL     OW14740   6.174   6.490   8.147  0.5467 -0.2619 -0.1091
 4419SOL    HW114741   6.255   6.502   8.098  0.3050 -0.9537 -0.6868
 4419SOL    HW214742   6.140   6.579   8.157  0.7989 -0.0699 -0.8701
 4420SOL     OW14743   3.009   5.320   6.181  0.0997 -0.0200 -0.2405
 4420SOL    HW114744   2.999   5.373   6.261 -0.1586  0.3090 -0.4882
 4420SOL    HW214745   3.097   5.340   6.150  0.4562 -0.6820  0.3461
 4421SOL     OW14746   7.290   6.318   5.822 -0.1191 -0.1557 -0.2097
 4421SOL    HW114747   7.281   6.370   5.901 -2.3149  0.9946 -1.1886
 4421SOL    HW214748   7.249   6.234   5.844  1.3190 -0.6841  0.5806
 4422SOL     OW14749   3.134   3.214   4.393 -0.1610 -0.3693 -0.2131
 4422SOL    HW114750   3.042   3.238   4.404 -0.0729  0.1543 -0.5757
 4422SOL    HW214751   3.183   3.287   4.432  0.0984 -0.8675  0.4063
 4423SOL     OW14752   1.342   8.060   6.138  0.5624  0.0661  0.2736
 4423SOL    HW114753   1.331   8.059   6.043  1.2625 -3.0482  0.1688
 4423SOL    HW214754   1.431   8.092   6.151  1.9493 -3.2885 -0.3872
 4424SOL     OW14755   4.633   5.352   1.897 -0.4833 -0.2998 -0.0920
 4424SOL    HW114756   4.620   5.445   1.875  0.2847 -0.0369  0.5143
 4424SOL    HW214757   4.729   5.342   1.896 -0.5215 -0.7893  1.0480
 4425SOL     OW14758   6.183   5.451   5.790  0.8652 -0.1111  0.4398
 4425SOL    HW114759   6.145   5.499   5.717  0.5340  0.1862  0.8069
 4425SOL    HW214760   6.240   5.386   5.749  0.6164  0.0015 -0.0840
 4426SOL     OW14761   0.131   5.594   4.872 -0.3564  0.0580  0.4186
 4426SOL    HW114762   0.056   5.629   4.825  1.2563  0.3232 -2.0189
 4426SOL    HW214763   0.112   5.501   4.882 -0.5046 -0.0923 -1.1932
 4427SOL     OW14764   1.552   4.287   3.732 -0.3770  0.3086 -0.0253
 4427SOL    HW114765   1.593   4.201   3.727 -1.7569 -0.2620 -1.8096
 4427SOL    HW214766   1.462   4.273   3.705 -0.5552  2.3626 -0.5893
 4428SOL     OW14767   3.373   5.826   1.652 -0.0795 -0.1913  0.1258
 4428SOL    HW114768   3.292   5.867   1.622 -0.9042 -0.8004  1.4377
 4428SOL    HW214769   3.354   5.732   1.650  0.3853 -0.3077  1.0067
 4429SOL     OW14770   2.190   5.301   5.904  0.3841 -0.7010  0.6702
 4429SOL    HW114771   2.113   5.273   5.855 -1.5006  1.6155  2.1759
 4429SOL    HW214772   2.206   5.230   5.966  0.1884 -1.7303 -0.4566
 4430SOL     OW14773   6.699   4.891   1.914  0.0962  0.1690  0.2254
 4430SOL    HW114774   6.619   4.886   1.861 -0.1278  0.8820  0.4960
 4430SOL    HW214775   6.762   4.835   1.867 -0.0871  0.8092 -0.8103
 4431SOL     OW14776   7.229   6.804   4.721 -0.0617 -0.4994  0.3374
 4431SOL    HW114777   7.283   6.729   4.746  0.4460 -0.0591  0.5629
 4431SOL    HW214778   7.245   6.869   4.789  0.5787  0.3423 -0.6080
 4432SOL     OW14779   8.213   7.683   6.411 -0.1272  0.6614 -0.1923
 4432SOL    HW114780   8.262   7.630   6.348 -0.5107  1.2810 -1.0208
 4432SOL    HW214781   8.240   7.773   6.392 -1.1610  0.9575 -0.2834
 4433SOL     OW14782   6.119   6.111   0.310 -0.5531  0.0038 -0.1771
 4433SOL    HW114783   6.116   6.200   0.344 -3.7561  0.5623 -1.7817
 4433SOL    HW214784   6.210   6.083   0.324 -0.0746  2.6735  2.3850
 4434SOL     OW14785   1.061   2.548   1.598  0.0328 -0.5981 -0.1862
 4434SOL    HW114786   1.040   2.500   1.518  1.2998  0.9489 -1.4563
 4434SOL    HW214787   0.978   2.587   1.625  0.0039  0.5013 -1.8355
 4435SOL     OW14788   3.309   5.114   8.032  0.2172 -0.6528  0.7090
 4435SOL    HW114789   3.358   5.196   8.040 -0.5728 -0.1532  0.5387
 4435SOL    HW214790   3.339   5.076   7.949 -0.4063  0.1459  0.1074
 4436SOL     OW14791   4.766   7.548   6.734  0.3392 -0.3094  0.3212
 4436SOL    HW114792   4.700   7.490   6.697  1.2020 -0.5478 -0.8673
 4436SOL    HW214793   4.755   7.631   6.688 -0.3357  0.2225  1.4234
 4437SOL     OW14794   1.629   6.842   6.039 -0.3708  0.3966 -0.4591
 4437SOL    HW114795   1.667   6.922   6.003 -0.2846  0.6334  0.1583
 4437SOL    HW214796   1.693   6.774   6.018  0.4662  0.8172  0.7036
 4438SOL     OW14797   7.308   7.671   7.827 -0.4732  0.0347  0.3583
 4438SOL    HW114798   7.404   7.671   7.823 -0.4726 -2.0311 -0.0296
 4438SOL    HW214799   7.286   7.611   7.899 -1.4872 -0.6864 -0.5289
 4439SOL     OW14800   2.965   0.690   6.442 -0.0069 -0.0241  0.2754
 4439SOL    HW114801   2.929   0.628   6.378  1.1010 -0.1539 -0.2287
 4439SOL    HW214802   2.956   0.646   6.526 -0.0123 -0.5187  0.0193
 4440SOL     OW14803   3.092   0.013   3.000  0.2616 -0.2679 -0.1475
 4440SOL    HW114804   3.107   0.036   2.908  0.3979 -2.2021 -0.6329
 4440SOL    HW214805   3.059  -0.077   2.997  0.6556 -0.4946  1.7233
 4441SOL     OW14806   1.370   7.981   4.389  0.2810 -0.7112 -0.1994
 4441SOL    HW114807   1.409   7.897   4.363 -0.8289 -1.0431 -0.8348
 4441SOL    HW214808   1.355   8.027   4.307 -1.7243 -1.0814 -0.0687
 4442SOL     OW14809   2.224   7.422   5.815  0.6103  0.8407 -0.0285
 4442SOL    HW114810   2.264   7.376   5.889  0.0249 -1.2984 -1.0151
 4442SOL    HW214811   2.138   7.382   5.805  1.2667 -0.0210 -2.8466
 4443SOL     OW14812   6.754   1.996   1.096  0.1835 -0.0588  0.3333
 4443SOL    HW114813   6.679   2.053   1.083  0.1916 -0.1796 -0.2294
 4443SOL    HW214814   6.800   1.997   1.012  0.1479 -0.9426  0.3000
 4444SOL     OW14815   6.703   3.441   6.632 -0.5622  0.7701  0.5213
 4444SOL    HW114816   6.729   3.350   6.619 -0.8633  0.7442  0.0782
 4444SOL    HW214817   6.772   3.479   6.686  0.0298  0.5229 -0.0574
 4445SOL     OW14818   3.933   6.101   2.757 -0.6815  0.3330  0.0844
 4445SOL    HW114819   3.900   6.166   2.819 -1.8277  1.0852 -1.2912
 4445SOL    HW214820   3.919   6.140   2.671  2.6941  0.1574 -0.6213
 4446SOL     OW14821   7.256   2.414   4.154  0.6541 -0.1682 -0.3622
 4446SOL    HW114822   7.190   2.433   4.087 -1.0560 -0.5523  1.1795
 4446SOL    HW214823   7.248   2.320   4.169  1.9141 -0.3020 -0.5311
 4447SOL     OW14824   4.816   0.519   7.420  0.4148 -0.6714 -0.0372
 4447SOL    HW114825   4.867   0.450   7.378  1.6637  0.6312 -0.7269
 4447SOL    HW214826   4.792   0.484   7.506  2.0730 -1.4916  0.0987
 4448SOL     OW14827   3.284   2.986   5.947  0.2905 -0.6058  0.2223
 4448SOL    HW114828   3.216   2.987   5.880  0.1883  0.1439  0.3337
 4448SOL    HW214829   3.327   2.901   5.937 -0.8828 -1.2334  0.3674
 4449SOL     OW14830   7.888   7.667   3.288  0.0321 -0.3169  0.7571
 4449SOL    HW114831   7.942   7.746   3.293 -3.1951  1.9243  2.2106
 4449SOL    HW214832   7.906   7.621   3.370  0.2034  0.1150  0.9656
 4450SOL     OW14833   3.072   1.979   2.601  0.3300 -0.0132 -0.3551
 4450SOL    HW114834   3.104   2.055   2.650 -1.7833  0.9748 -0.4441
 4450SOL    HW214835   3.150   1.942   2.561  1.4285  2.0061 -0.1479
 4451SOL     OW14836   0.599   3.421   7.830  0.5777  0.0573  0.4226
 4451SOL    HW114837   0.572   3.502   7.787  0.2628 -0.2798 -0.0151
 4451SOL    HW214838   0.548   3.352   7.787  0.0776 -0.2575  1.4998
 4452SOL     OW14839   4.716   3.850   6.211 -0.7381 -0.4162 -0.5080
 4452SOL    HW114840   4.707   3.901   6.292  1.1327 -0.1070 -0.4771
 4452SOL    HW214841   4.700   3.759   6.238  2.0731 -0.5960  0.6708
 4453SOL     OW14842   6.869   0.797   4.175  0.2376 -0.1707  0.5543
 4453SOL    HW114843   6.825   0.876   4.207 -2.1003 -0.9285 -0.6680
 4453SOL    HW214844   6.819   0.725   4.213 -0.7082 -1.0584 -2.2886
 4454SOL     OW14845   8.235   7.508   4.504 -0.4068 -0.2209 -0.3199
 4454SOL    HW114846   8.174   7.466   4.443 -1.0430 -1.7588  1.3068
 4454SOL    HW214847   8.189   7.587   4.533 -1.3182 -0.9643  0.3017
 4455SOL     OW14848   3.694   0.055   2.496 -0.7601 -0.0014  0.3743
 4455SOL    HW114849   3.784   0.085   2.482 -1.3254  0.9917 -1.3674
 4455SOL    HW214850   3.703  -0.030   2.538  1.0101 -0.3064 -0.5615
 4456SOL     OW14851   2.005   6.478   7.206  0.2619  0.1824 -0.5253
 4456SOL    HW114852   1.933   6.419   7.231  0.0655 -0.4252 -2.4297
 4456SOL    HW214853   2.029   6.450   7.117  1.6447  1.5540 -0.6014
 4457SOL     OW14854   4.034   5.562   5.845 -0.6512  0.3844  0.1617
 4457SOL    HW114855   4.100   5.573   5.913 -0.0356  1.5533 -0.6203
 4457SOL    HW214856   3.955   5.601   5.883 -0.9049 -0.9724  1.0775
 4458SOL     OW14857   3.599   4.131   6.255 -0.1011 -0.2699 -0.2920
 4458SOL    HW114858   3.639   4.138   6.342 -1.0083  0.5169  0.0760
 4458SOL    HW214859   3.666   4.090   6.201  0.3808 -0.9844  0.8389
 4459SOL     OW14860   6.853   6.663   1.819 -0.2338  0.4824 -0.1198
 4459SOL    HW114861   6.889   6.636   1.734  0.2230  0.0135  0.2231
 4459SOL    HW214862   6.810   6.586   1.854  2.2296 -0.2311  1.4634
 4460SOL     OW14863   4.329   3.988   2.113  0.0857  0.2557 -0.0670
 4460SOL    HW114864   4.386   4.050   2.068  0.6278 -0.5475 -0.5100
 4460SOL    HW214865   4.293   3.934   2.043 -0.6942  0.3219  0.2752
 4461SOL     OW14866   5.332   4.391   0.473 -0.3786  0.0932 -0.1976
 4461SOL    HW114867   5.417   4.434   0.459 -0.3961 -0.3140 -1.6153
 4461SOL    HW214868   5.272   4.436   0.413 -0.6223 -1.2171 -0.9534
 4462SOL     OW14869   0.958   3.187   0.228  0.0417 -0.1697 -0.5046
 4462SOL    HW114870   0.918   3.271   0.249  0.3795 -0.1556  0.0914
 4462SOL    HW214871   0.894   3.143   0.172 -0.2719  0.3514 -0.5606
 4463SOL     OW14872   5.204   6.842   5.637  0.0628 -0.0374 -0.1936
 4463SOL    HW114873   5.115   6.872   5.615  0.2262  0.3789 -0.2962
 4463SOL    HW214874   5.261   6.912   5.604  0.4263 -0.2925 -0.1020
 4464SOL     OW14875   2.523   0.940   0.436  0.3210 -0.7141 -0.2706
 4464SOL    HW114876   2.515   0.991   0.517  1.9209 -0.6975 -0.1103
 4464SOL    HW214877   2.519   0.849   0.465 -2.8059 -0.7332 -0.5846
 4465SOL     OW14878   5.544   2.729   3.764  0.3051 -0.3831 -0.8030
 4465SOL    HW114879   5.528   2.655   3.822  1.6108 -0.6236 -0.7432
 4465SOL    HW214880   5.634   2.718   3.734  0.6380  1.3570 -0.5184
 4466SOL     OW14881   4.499   3.041   6.252  0.0814 -0.1565 -0.3145
 4466SOL    HW114882   4.471   3.119   6.301  0.0013 -0.1602 -0.3533
 4466SOL    HW214883   4.441   2.971   6.285 -0.7086  0.0702 -1.1997
 4467SOL     OW14884   7.909   7.580   0.282  0.4672 -0.8263 -0.0442
 4467SOL    HW114885   7.833   7.635   0.300  0.8225  0.2753 -1.7782
 4467SOL    HW214886   7.963   7.586   0.361  0.8151  1.8661 -0.4435
 4468SOL     OW14887   1.505   3.120   1.954  0.3358  0.3926  0.8187
 4468SOL    HW114888   1.473   3.140   1.866 -0.4117  0.0695  1.0116
 4468SOL    HW214889   1.545   3.034   1.947  1.6141  0.9946  0.4718
 4469SOL     OW14890   6.245   2.890   8.238 -0.3574 -0.5601 -0.2951
 4469SOL    HW114891   6.225   2.816   8.295  1.8349  0.4772  1.8743
 4469SOL    HW214892   6.335   2.876   8.210  0.1849  1.4623  0.3910
 4470SOL     OW14893   3.245   5.744   3.343  0.3735 -0.2991 -0.2319
 4470SOL    HW114894   3.215   5.748   3.253  0.7604 -0.1475 -0.3542
 4470SOL    HW214895   3.336   5.772   3.340  1.1516 -2.6827 -0.1449
 4471SOL     OW14896   0.920   3.335   1.359  0.0557  0.1900 -0.0998
 4471SOL    HW114897   0.909   3.430   1.355 -0.9726  0.0908  0.0722
 4471SOL    HW214898   0.966   3.312   1.279  0.9535  0.9197  0.2045
 4472SOL     OW14899   2.388   7.892   5.994 -0.3260 -0.1600  0.3331
 4472SOL    HW114900   2.423   7.825   5.935  1.1285 -1.5414  2.6974
 4472SOL    HW214901   2.323   7.847   6.047 -0.3268  0.6226  1.0100
 4473SOL     OW14902   6.719   1.483   5.953 -0.0095  0.2189 -0.3459
 4473SOL    HW114903   6.761   1.539   5.887 -0.7900  0.4603 -0.6478
 4473SOL    HW214904   6.644   1.534   5.983  1.1081  0.6892  1.7316
 4474SOL     OW14905   8.121   2.036   1.028 -0.3258  0.2143  0.0943
 4474SOL    HW114906   8.116   2.054   0.934  0.8115 -0.4927 -0.1135
 4474SOL    HW214907   8.078   2.110   1.069  0.0277  1.0060 -0.9455
 4475SOL     OW14908   2.185   6.368   6.975  0.5248  0.4546 -0.2620
 4475SOL    HW114909   2.235   6.358   6.894 -0.4848 -1.9168 -0.6398
 4475SOL    HW214910   2.104   6.410   6.947  0.7739  0.9466 -0.2479
 4476SOL     OW14911   1.571   6.278   4.383  0.0082 -0.1388 -0.2211
 4476SOL    HW114912   1.546   6.331   4.459 -0.4703 -0.5252 -0.1094
 4476SOL    HW214913   1.640   6.220   4.416  0.5481  0.4278 -0.3497
 4477SOL     OW14914   6.453   7.532   4.756  0.3149  0.2525 -0.2363
 4477SOL    HW114915   6.387   7.489   4.702  0.1719 -0.0383  0.1720
 4477SOL    HW214916   6.525   7.550   4.696 -0.1289  0.5640 -0.6844
 4478SOL     OW14917   6.929   6.547   7.166  0.1283 -0.4016 -0.0452
 4478SOL    HW114918   6.989   6.522   7.236 -0.0392  0.6619  0.4889
 4478SOL    HW214919   6.929   6.643   7.168  0.1096 -0.3691 -1.4928
 4479SOL     OW14920   4.357   0.299   0.427  0.6060 -0.3163  0.0739
 4479SOL    HW114921   4.370   0.215   0.381  1.4958 -0.5841  0.7883
 4479SOL    HW214922   4.446   0.334   0.437  0.3348  0.1740  0.7794
 4480SOL     OW14923   0.942   7.736   2.644 -0.1923  0.0648 -0.2811
 4480SOL    HW114924   1.033   7.725   2.670 -0.4169  2.7726  1.9392
 4480SOL    HW214925   0.901   7.652   2.663  1.2887 -0.3269  1.3184
 4481SOL     OW14926   5.166   3.398   3.027  0.8140 -0.4320  0.4590
 4481SOL    HW114927   5.173   3.310   2.989 -2.7331 -0.4681 -0.3008
 4481SOL    HW214928   5.086   3.395   3.079 -0.1398  2.7625 -0.7566
 4482SOL     OW14929   2.355   2.956   0.653 -0.6734 -0.3636 -0.0297
 4482SOL    HW114930   2.307   2.945   0.572  1.1208  1.0011 -1.3169
 4482SOL    HW214931   2.335   3.046   0.681 -0.6409 -0.5448  0.5787
 4483SOL     OW14932   5.179   1.949   5.400 -0.0397 -0.7068 -0.0645
 4483SOL    HW114933   5.095   1.928   5.358 -0.3939  0.5495  0.0191
 4483SOL    HW214934   5.187   1.883   5.469 -0.7862 -1.0627 -0.3052
 4484SOL     OW14935   1.302   4.750   6.812 -0.0125 -0.7222  0.3845
 4484SOL    HW114936   1.279   4.840   6.834  0.8000 -0.3709 -0.1594
 4484SOL    HW214937   1.303   4.749   6.716  2.9224 -0.5435  0.3971
 4485SOL     OW14938   1.056   2.632   0.519  0.8527 -0.2197 -0.6315
 4485SOL    HW114939   1.003   2.555   0.496  0.5673  0.1415 -1.1798
 4485SOL    HW214940   1.128   2.596   0.572 -0.0410 -0.6867  0.2789
 4486SOL     OW14941   5.819   0.446   7.444 -0.0319  0.3940 -0.5097
 4486SOL    HW114942   5.773   0.470   7.364 -2.6463 -0.3770  0.7144
 4486SOL    HW214943   5.810   0.350   7.449  2.3720  0.1307 -0.6268
 4487SOL     OW14944   5.367   8.068   4.739  0.1811 -0.3808 -0.1511
 4487SOL    HW114945   5.325   8.013   4.674 -0.1925 -0.2919  0.0149
 4487SOL    HW214946   5.426   8.125   4.689 -1.2351  0.7548 -0.5783
 4488SOL     OW14947   6.484   2.590   8.052 -0.2321  0.1127  0.3112
 4488SOL    HW114948   6.576   2.595   8.025  0.1674  0.4816  1.7015
 4488SOL    HW214949   6.462   2.679   8.080 -1.3785  0.3087 -1.1337
 4489SOL     OW14950   5.799   2.130   6.686  0.1982  0.3747 -0.2315
 4489SOL    HW114951   5.884   2.088   6.699 -0.8615 -1.3188  1.4311
 4489SOL    HW214952   5.782   2.175   6.768 -0.8709  0.0633 -0.2840
 4490SOL     OW14953   4.342   3.477   1.735 -0.0425  0.2339  0.3379
 4490SOL    HW114954   4.380   3.512   1.655  0.5900  0.5684  0.7773
 4490SOL    HW214955   4.400   3.405   1.759 -1.3637 -1.1770 -0.5905
 4491SOL     OW14956   1.999   6.422   5.980  0.1178  0.0984 -0.1840
 4491SOL    HW114957   2.079   6.405   6.028 -0.1255  0.8838  0.4990
 4491SOL    HW214958   1.987   6.344   5.925  1.1319 -0.1847 -0.0097
 4492SOL     OW14959   2.564   4.611   3.963 -0.0440  0.0928 -0.1250
 4492SOL    HW114960   2.550   4.690   4.016 -1.1056  0.7570 -1.3553
 4492SOL    HW214961   2.553   4.538   4.025  0.9609  0.9012  1.0233
 4493SOL     OW14962   1.404   7.407   3.243 -0.1307 -0.2255  0.4224
 4493SOL    HW114963   1.353   7.334   3.277  0.3413  0.0764  1.7920
 4493SOL    HW214964   1.342   7.480   3.238 -0.6333 -0.7369 -1.0677
 4494SOL     OW14965   3.111   0.243   0.703 -0.2662  0.5896  0.4343
 4494SOL    HW114966   3.186   0.266   0.648 -0.2135  1.2662  0.7869
 4494SOL    HW214967   3.117   0.302   0.778 -1.1437  0.6286  0.4758
 4495SOL     OW14968   1.501   4.492   1.518  0.1565  0.2915  0.5262
 4495SOL    HW114969   1.514   4.408   1.472  2.7593  1.5315 -1.1594
 4495SOL    HW214970   1.565   4.490   1.589 -0.0480  0.6973  0.7186
 4496SOL     OW14971   1.116   6.884   0.235  0.2087 -1.0418 -0.5589
 4496SOL    HW114972   1.104   6.812   0.298 -1.1896  1.6797  2.4659
 4496SOL    HW214973   1.038   6.881   0.181 -1.0543 -0.3515  1.1635
 4497SOL     OW14974   5.212   1.828   2.382  0.1267  0.5797 -0.2395
 4497SOL    HW114975   5.302   1.854   2.363 -0.3568  1.6493 -1.0897
 4497SOL    HW214976   5.162   1.909   2.374 -0.5457  0.4935  2.6663
 4498SOL     OW14977   3.251   6.413   1.512 -0.0126 -0.2235 -0.1860
 4498SOL    HW114978   3.224   6.359   1.587  2.5251 -0.5882  0.5118
 4498SOL    HW214979   3.340   6.440   1.533 -1.2963  4.5320 -0.3822
 4499SOL     OW14980   8.101   8.311   2.933 -0.8219  0.1488 -0.2541
 4499SOL    HW114981   8.057   8.347   2.856 -0.2273 -0.7673 -1.0325
 4499SOL    HW214982   8.087   8.376   3.002 -3.1866 -0.0170 -0.5504
 4500SOL     OW14983   2.490   1.212   5.512 -0.0634 -0.4693  0.0666
 4500SOL    HW114984   2.519   1.160   5.436  0.6194  0.9624 -0.6804
 4500SOL    HW214985   2.396   1.195   5.518  0.0337 -1.2820 -0.5706
 4501SOL     OW14986   0.392   5.149   1.813 -0.0273  0.2351  0.0465
 4501SOL    HW114987   0.346   5.069   1.785 -2.2245  0.9181  1.5283
 4501SOL    HW214988   0.371   5.213   1.746  2.4520 -0.6354 -1.6003
 4502SOL     OW14989   4.901   3.279   4.704  0.4036 -0.4312 -0.1453
 4502SOL    HW114990   4.848   3.320   4.636  0.1497 -1.5880 -0.6474
 4502SOL    HW214991   4.984   3.257   4.661  0.9818  0.5921  0.4183
 4503SOL     OW14992   7.124   1.303   5.510  0.2098  0.3236 -0.2491
 4503SOL    HW114993   7.164   1.376   5.463 -0.0239 -0.0926 -1.1133
 4503SOL    HW214994   7.193   1.270   5.568  0.0813  1.6908  0.6847
 4504SOL     OW14995   1.432   5.817   4.071  0.1509 -0.2899 -0.1353
 4504SOL    HW114996   1.362   5.842   4.132  0.3594  0.3961 -0.1673
 4504SOL    HW214997   1.404   5.854   3.987  1.0820  0.9477  0.0864
 4505SOL     OW14998   0.362   3.892   2.770  0.3654  1.0495  0.0563
 4505SOL    HW114999   0.454   3.876   2.790  0.5556  1.4596 -0.4781
 4505SOL    HW215000   0.330   3.810   2.734  0.7476  1.1746 -0.5689
 4506SOL     OW15001   8.135   4.620   2.167 -0.0567 -0.6085  0.1657
 4506SOL    HW115002   8.076   4.655   2.101  0.4047 -0.3425 -0.1040
 4506SOL    HW215003   8.132   4.525   2.154 -1.6888 -0.7184  1.2246
 4507SOL     OW15004   0.118   4.546   1.302 -0.5392  0.1108  0.1715
 4507SOL    HW115005   0.061   4.477   1.337  1.0736 -0.9390  0.7590
 4507SOL    HW215006   0.125   4.526   1.209  0.3139 -0.8242  0.4258
 4508SOL     OW15007   5.865   0.376   0.514  0.2358 -0.2077  0.1383
 4508SOL    HW115008   5.905   0.401   0.430  0.1489 -1.2690 -0.2316
 4508SOL    HW215009   5.902   0.290   0.533  0.2219  0.0135  1.1775
 4509SOL     OW15010   6.738   0.465   7.811 -0.2778  0.9086  0.0161
 4509SOL    HW115011   6.662   0.480   7.756 -2.2226  0.5860  2.5422
 4509SOL    HW215012   6.782   0.551   7.815 -0.9725  1.3038 -0.7521
 4510SOL     OW15013   4.891   5.843   3.462  0.0824  0.2673 -0.2373
 4510SOL    HW115014   4.817   5.833   3.402 -2.2484  0.8651  2.4282
 4510SOL    HW215015   4.914   5.754   3.486 -0.3631  0.1135 -0.3765
 4511SOL     OW15016   1.242   1.962   8.141  0.2286 -0.3487  0.1451
 4511SOL    HW115017   1.147   1.956   8.139  0.2843 -1.2099 -1.6712
 4511SOL    HW215018   1.261   2.051   8.112 -0.0236 -0.6441 -0.9902
 4512SOL     OW15019   7.072   6.760   7.276 -0.0954 -0.6728 -0.0909
 4512SOL    HW115020   7.106   6.826   7.215  0.0815 -1.0415 -0.3918
 4512SOL    HW215021   7.138   6.755   7.345  0.0378 -0.7509 -0.2236
 4513SOL     OW15022   6.008   1.047   1.739 -0.7608  0.1192  0.2966
 4513SOL    HW115023   5.919   1.082   1.744 -0.7451  0.1347  0.4589
 4513SOL    HW215024   5.996   0.955   1.716 -0.7172  0.7994 -2.6762
 4514SOL     OW15025   3.283   8.298   3.165  0.7473  0.3410 -0.1619
 4514SOL    HW115026   3.304   8.206   3.149 -1.7074 -0.5738  1.5361
 4514SOL    HW215027   3.218   8.320   3.099 -0.5923  0.0537  1.0287
 4515SOL     OW15028   3.281   7.140   1.532 -0.2875  0.1239 -0.2073
 4515SOL    HW115029   3.263   7.225   1.572  1.2138  0.8228 -0.9819
 4515SOL    HW215030   3.375   7.126   1.547 -0.5029 -1.3503 -0.1715
 4516SOL     OW15031   3.950   1.286   4.176  0.3348  0.0659  0.3819
 4516SOL    HW115032   3.861   1.260   4.155  0.4180  0.5147 -0.5362
 4516SOL    HW215033   3.965   1.251   4.264 -0.8158  0.1845  0.6324
 4517SOL     OW15034   5.123   7.113   0.965 -0.1218 -0.6743  0.0710
 4517SOL    HW115035   5.054   7.088   1.026  0.1441  1.1531  1.1615
 4517SOL    HW215036   5.077   7.155   0.892 -0.2689 -0.7733  0.1078
 4518SOL     OW15037   1.213   3.539   5.407  0.4664 -0.5847  0.7634
 4518SOL    HW115038   1.221   3.463   5.350  0.1291  0.9860 -1.4180
 4518SOL    HW215039   1.121   3.541   5.434 -0.2013  0.6886 -1.5321
 4519SOL     OW15040   6.598   4.771   3.925 -0.0537  0.2083 -0.3128
 4519SOL    HW115041   6.558   4.692   3.889 -0.7670 -0.4570  1.8670
 4519SOL    HW215042   6.638   4.815   3.849  0.0952 -2.0725 -1.5847
 4520SOL     OW15043   1.191   6.831   4.737 -0.1928  0.0942 -0.0347
 4520SOL    HW115044   1.224   6.804   4.823 -1.5536  1.9192  1.1018
 4520SOL    HW215045   1.178   6.749   4.690 -1.0555 -1.0679  2.1271
 4521SOL     OW15046   1.145   3.163   4.193  0.2341 -0.1066 -0.3931
 4521SOL    HW115047   1.064   3.136   4.150 -0.0753  0.0833  0.0704
 4521SOL    HW215048   1.131   3.256   4.214  0.9964  0.2273 -1.3060
 4522SOL     OW15049   3.699   5.499   7.109 -0.2567 -0.4878  0.4017
 4522SOL    HW115050   3.687   5.423   7.053 -0.1865 -0.3545  0.2047
 4522SOL    HW215051   3.785   5.487   7.150 -0.3757 -0.6609  0.6003
 4523SOL     OW15052   3.354   6.995   3.429 -0.0517  0.2832  0.3870
 4523SOL    HW115053   3.288   6.940   3.472  0.4780 -1.5641 -1.0866
 4523SOL    HW215054   3.434   6.979   3.479  0.4072 -1.3436 -0.8258
 4524SOL     OW15055   5.521   5.820   7.936 -0.7392 -0.0614  0.1454
 4524SOL    HW115056   5.570   5.766   7.874  1.8393  2.5811 -0.2243
 4524SOL    HW215057   5.444   5.847   7.888 -0.0833 -0.2071 -1.0080
 4525SOL     OW15058   4.855   5.125   7.650 -0.2131 -0.1457 -0.2877
 4525SOL    HW115059   4.759   5.121   7.652 -0.2008 -1.9864 -1.5370
 4525SOL    HW215060   4.875   5.217   7.668 -2.1551  0.0480  1.1465
 4526SOL     OW15061   5.719   4.444   1.408  0.5870 -0.0293  0.5093
 4526SOL    HW115062   5.744   4.357   1.378  1.0505 -0.5910  2.5024
 4526SOL    HW215063   5.733   4.500   1.331 -1.6876 -2.0177 -1.4460
 4527SOL     OW15064   3.760   1.203   7.041 -0.0645 -0.3640 -0.1421
 4527SOL    HW115065   3.832   1.262   7.061  0.6938 -0.8993 -1.2300
 4527SOL    HW215066   3.779   1.124   7.092  0.3438 -0.6594 -0.7484
 4528SOL     OW15067   1.353   6.999   5.492  0.3377 -0.0149  0.2908
 4528SOL    HW115068   1.322   6.985   5.581  1.7900  0.4214  0.8820
 4528SOL    HW215069   1.313   7.082   5.465  1.4295  0.8397  1.2522
 4529SOL     OW15070   4.935   0.291   5.446  0.1316  0.0317  0.1570
 4529SOL    HW115071   5.029   0.309   5.442  0.3325 -0.6764  1.4950
 4529SOL    HW215072   4.911   0.308   5.537 -1.3424  1.6357 -0.4981
 4530SOL     OW15073   4.224   4.994   3.301  0.0722  0.1758 -0.1194
 4530SOL    HW115074   4.318   4.992   3.280 -0.2187 -0.6334 -1.3751
 4530SOL    HW215075   4.181   5.006   3.217 -1.0128 -0.7276  0.3051
 4531SOL     OW15076   2.789   3.065   5.586 -0.4761  0.5966 -0.3121
 4531SOL    HW115077   2.775   2.995   5.523 -3.4178  2.0802 -1.4482
 4531SOL    HW215078   2.736   3.041   5.662  0.4019  0.4331  0.2540
 4532SOL     OW15079   3.097   3.341   1.496  0.0003 -0.1157 -0.5250
 4532SOL    HW115080   3.066   3.336   1.406  0.3584  0.5062 -0.6856
 4532SOL    HW215081   3.179   3.390   1.491 -0.4460  0.7229  0.2452
 4533SOL     OW15082   4.405   4.128   0.774 -0.1917 -0.1422 -0.2757
 4533SOL    HW115083   4.404   4.082   0.858  1.1839 -0.1808 -0.2684
 4533SOL    HW215084   4.489   4.175   0.774 -0.1265 -0.2573 -1.6800
 4534SOL     OW15085   6.659   4.148   5.013 -0.2730 -0.3201  0.4298
 4534SOL    HW115086   6.636   4.174   4.924  0.0000  1.2370  0.7939
 4534SOL    HW215087   6.694   4.059   5.004  0.2571  0.0246 -1.0904
 4535SOL     OW15088   5.605   7.208   5.894  0.4603 -0.0683  0.1258
 4535SOL    HW115089   5.700   7.199   5.891  0.4208 -0.2395 -0.8609
 4535SOL    HW215090   5.590   7.292   5.938  1.0737  0.1629 -0.1015
 4536SOL     OW15091   6.417   0.916   6.794  0.1878 -0.0172 -0.0373
 4536SOL    HW115092   6.488   0.940   6.734 -0.5036  0.5845 -0.6376
 4536SOL    HW215093   6.384   1.000   6.827  1.8628 -0.3955  2.7723
 4537SOL     OW15094   5.194   3.806   7.851  0.2820  0.2612 -0.3136
 4537SOL    HW115095   5.135   3.827   7.779 -0.4295  1.5566  0.6367
 4537SOL    HW215096   5.282   3.822   7.816 -0.1484  2.8294 -0.2759
 4538SOL     OW15097   5.795   2.657   1.134 -0.1954 -0.0901  0.5593
 4538SOL    HW115098   5.836   2.699   1.058 -0.7795  0.1283  0.3635
 4538SOL    HW215099   5.788   2.565   1.111  0.2174 -0.1333  0.6067
 4539SOL     OW15100   0.827   1.711   2.168  0.2053 -0.6465  0.1458
 4539SOL    HW115101   0.767   1.716   2.243 -1.4432  1.9839 -1.2732
 4539SOL    HW215102   0.913   1.732   2.205 -0.5192  0.2423  1.3852
 4540SOL     OW15103   4.654   3.298   2.599  0.0154  0.2778  0.0934
 4540SOL    HW115104   4.665   3.300   2.504  0.3482 -0.0487  0.1234
 4540SOL    HW215105   4.658   3.390   2.626  0.4523  0.3328 -0.1496
 4541SOL     OW15106   2.154   0.378   4.896  0.0056  0.3422  0.0913
 4541SOL    HW115107   2.148   0.360   4.990  2.2492  2.4158  0.6748
 4541SOL    HW215108   2.215   0.312   4.863 -0.3982 -0.0735  0.1629
 4542SOL     OW15109   1.224   7.503   0.418  0.6218  0.0557  0.9953
 4542SOL    HW115110   1.151   7.449   0.387 -0.5764  0.8182  2.3880
 4542SOL    HW215111   1.273   7.526   0.339 -1.5855  0.8655 -0.1661
 4543SOL     OW15112   6.399   1.435   3.425  0.0476  0.1113 -0.2588
 4543SOL    HW115113   6.486   1.413   3.460  0.1658 -1.1196 -1.2819
 4543SOL    HW215114   6.417   1.507   3.364  0.0335  1.2983  1.0932
 4544SOL     OW15115   2.041   0.672   5.664  0.3634  0.4040 -0.0486
 4544SOL    HW115116   2.023   0.607   5.596 -1.1674 -0.5238  1.2122
 4544SOL    HW215117   1.958   0.682   5.710  1.4681  0.7687  1.9052
 4545SOL     OW15118   1.426   7.748   7.713 -0.3162  0.1108  0.0318
 4545SOL    HW115119   1.481   7.784   7.783 -1.3636 -1.5690  1.7334
 4545SOL    HW215120   1.487   7.697   7.660  0.6307  2.0107 -0.7706
 4546SOL     OW15121   0.364   0.437   2.529 -0.6247 -0.2483 -0.0603
 4546SOL    HW115122   0.336   0.350   2.503 -0.0791 -0.5018  0.1881
 4546SOL    HW215123   0.456   0.426   2.554 -0.0954  0.6861 -1.5191
 4547SOL     OW15124   1.735   1.284   7.861 -0.2032  0.2523  0.1974
 4547SOL    HW115125   1.679   1.225   7.809 -0.7399  0.7689  0.1797
 4547SOL    HW215126   1.768   1.346   7.797  0.6591 -0.2496  0.1528
 4548SOL     OW15127   5.266   6.508   1.780 -0.1679 -0.4233 -0.7239
 4548SOL    HW115128   5.288   6.415   1.785 -2.3336 -0.8952  0.6938
 4548SOL    HW215129   5.257   6.536   1.871 -1.3577  0.7028 -1.1741
 4549SOL     OW15130   1.844   5.855   0.228  1.2676  0.2958 -0.2611
 4549SOL    HW115131   1.843   5.946   0.198  0.3688  0.2958 -0.2380
 4549SOL    HW215132   1.935   5.828   0.220  1.4860  1.1123 -0.5381
 4550SOL     OW15133   5.112   7.202   6.853  0.0382 -0.4603  0.6246
 4550SOL    HW115134   5.130   7.109   6.839  2.1908  0.1306 -0.7422
 4550SOL    HW215135   5.069   7.205   6.938 -0.6249 -2.7645  0.4179
 4551SOL     OW15136   1.021   6.204   3.480  0.2025  0.3454 -0.6212
 4551SOL    HW115137   1.110   6.170   3.472  0.8491  2.4494 -2.9408
 4551SOL    HW215138   1.026   6.266   3.552  0.5168  0.2343 -0.5443
 4552SOL     OW15139   0.056   0.471   6.833  0.1942  0.3217 -0.1033
 4552SOL    HW115140   0.132   0.420   6.804  0.2587 -0.1751  0.9015
 4552SOL    HW215141   0.006   0.410   6.888 -1.1993  0.4849 -1.1530
 4553SOL     OW15142   7.271   0.080   0.153  0.4092 -0.1393 -0.0554
 4553SOL    HW115143   7.182   0.077   0.120 -0.0183 -2.6415  1.2748
 4553SOL    HW215144   7.326   0.081   0.074 -0.7511  1.2788 -0.8660
 4554SOL     OW15145   4.699   7.481   6.404 -0.4490 -0.8484 -0.1741
 4554SOL    HW115146   4.718   7.572   6.379  2.5424 -1.8037 -1.5901
 4554SOL    HW215147   4.663   7.441   6.325 -0.2266 -1.3287 -0.0329
 4555SOL     OW15148   2.381   4.545   3.472 -0.0603  0.3064  0.5415
 4555SOL    HW115149   2.292   4.581   3.482 -0.4118 -0.7548  1.3137
 4555SOL    HW215150   2.436   4.604   3.523 -0.4845  0.3559  0.9521
 4556SOL     OW15151   5.719   0.906   1.286 -0.0441  0.3303 -0.5745
 4556SOL    HW115152   5.705   0.832   1.345 -0.0338  1.8389  1.3695
 4556SOL    HW215153   5.746   0.866   1.203  0.4505 -1.8121  0.5852
 4557SOL     OW15154   2.508   1.362   6.540 -0.2251  0.9909 -0.0780
 4557SOL    HW115155   2.433   1.379   6.483 -1.1965  0.8218  1.1551
 4557SOL    HW215156   2.472   1.320   6.618  1.4566 -1.5854 -0.6049
 4558SOL     OW15157   1.325   5.321   5.804 -0.6687  0.4072 -0.3918
 4558SOL    HW115158   1.330   5.376   5.726  3.5073 -0.3772 -0.7910
 4558SOL    HW215159   1.362   5.376   5.874  1.6889 -1.1369 -0.3847
 4559SOL     OW15160   2.543   3.883   5.482  0.3566 -0.1253  0.0413
 4559SOL    HW115161   2.555   3.852   5.393  0.3819  2.9344 -1.0901
 4559SOL    HW215162   2.626   3.923   5.506  0.1874 -0.4632  1.2502
 4560SOL     OW15163   7.440   6.738   5.278  0.1367  0.2478 -0.1934
 4560SOL    HW115164   7.368   6.786   5.317 -0.9850 -0.4246 -1.3952
 4560SOL    HW215165   7.471   6.794   5.207  1.1303  0.7533  0.6239
 4561SOL     OW15166   6.087   1.165   5.027 -0.2522 -0.0678  0.2697
 4561SOL    HW115167   6.034   1.116   5.089 -0.4867 -2.3677 -1.6626
 4561SOL    HW215168   6.173   1.173   5.069 -0.7330 -0.5840  1.3529
 4562SOL     OW15169   2.204   7.787   0.210  0.2580 -0.5016  0.1641
 4562SOL    HW115170   2.235   7.791   0.300 -0.6094  0.5801  0.4285
 4562SOL    HW215171   2.159   7.871   0.196  0.0128 -0.8305 -1.1315
 4563SOL     OW15172   1.587   4.598   3.207 -0.3528  0.6944 -0.0859
 4563SOL    HW115173   1.580   4.625   3.116 -0.0828  2.6346  0.4591
 4563SOL    HW215174   1.513   4.639   3.251 -0.6042 -0.4019  0.5499
 4564SOL     OW15175   7.594   5.615   5.968 -0.4347  0.1938  0.7933
 4564SOL    HW115176   7.586   5.666   5.888  1.2294 -1.6539 -0.6014
 4564SOL    HW215177   7.682   5.635   6.001 -0.0549 -1.1605  0.6347
 4565SOL     OW15178   2.037   2.697   2.996 -0.2249 -0.6834 -0.0836
 4565SOL    HW115179   1.946   2.677   3.020 -0.4261  2.6585  2.3233
 4565SOL    HW215180   2.085   2.693   3.078  0.8109  2.3619 -0.4616
 4566SOL     OW15181   6.522   2.409   5.092  0.1958 -0.4437 -0.1074
 4566SOL    HW115182   6.555   2.340   5.035  0.8954 -0.2423  0.0579
 4566SOL    HW215183   6.600   2.448   5.132 -0.0436  1.7438 -1.6780
 4567SOL     OW15184   8.042   5.694   0.239  0.2206 -0.1590 -0.8573
 4567SOL    HW115185   7.996   5.676   0.321  1.7437 -1.0881 -0.1795
 4567SOL    HW215186   7.990   5.649   0.172 -0.8960  0.4075 -0.3804
 4568SOL     OW15187   4.929   4.294   0.718  0.4055 -0.7530 -0.1393
 4568SOL    HW115188   4.994   4.330   0.657  0.3022 -0.9467 -0.3650
 4568SOL    HW215189   4.874   4.369   0.742 -0.9091 -1.0863 -1.9847
 4569SOL     OW15190   6.845   7.455   2.867 -0.0839  0.0704  0.5184
 4569SOL    HW115191   6.863   7.361   2.859  0.7310  0.2766 -0.2597
 4569SOL    HW215192   6.926   7.492   2.902 -0.7986  0.3386  1.9259
 4570SOL     OW15193   7.165   5.693   1.000 -0.0623 -0.5129  0.2251
 4570SOL    HW115194   7.103   5.620   1.008  0.3640 -0.8189  0.8020
 4570SOL    HW215195   7.246   5.652   0.969 -0.3439 -0.0130 -1.1717
 4571SOL     OW15196   3.760   0.228   7.323  0.0916 -0.0522  0.3724
 4571SOL    HW115197   3.796   0.207   7.409  1.0742 -0.5688 -0.1527
 4571SOL    HW215198   3.775   0.322   7.312 -0.0397  0.0151  0.7597
 4572SOL     OW15199   2.828   5.929   0.963  0.0534  0.1428 -0.2786
 4572SOL    HW115200   2.860   5.971   1.043  0.7815 -1.5495  0.3586
 4572SOL    HW215201   2.745   5.973   0.944 -0.7531 -0.2660  2.1292
 4573SOL     OW15202   4.793   3.217   0.481 -0.1334 -0.5643  0.0758
 4573SOL    HW115203   4.810   3.281   0.411  2.1879 -2.3212 -1.0386
 4573SOL    HW215204   4.724   3.258   0.535 -0.4352  1.7676 -1.9885
 4574SOL     OW15205   2.692   0.481   1.310 -0.7685  0.1870 -0.1966
 4574SOL    HW115206   2.621   0.529   1.266 -2.6378 -1.3410  1.0762
 4574SOL    HW215207   2.714   0.410   1.250  0.6981  1.4831 -1.2302
 4575SOL     OW15208   1.825   5.796   1.857 -0.1138  0.5016  0.4664
 4575SOL    HW115209   1.784   5.868   1.905  0.8893  0.8985  0.7367
 4575SOL    HW215210   1.903   5.835   1.818 -0.5962  0.0323 -1.0000
 4576SOL     OW15211   1.672   5.020   6.280 -0.2522 -0.6138 -0.0253
 4576SOL    HW115212   1.712   4.937   6.306  3.0259  1.0350  0.5813
 4576SOL    HW215213   1.595   5.028   6.335 -0.6720 -3.2816 -0.1662
 4577SOL     OW15214   7.271   3.975   2.800  0.0430  0.6365  0.2027
 4577SOL    HW115215   7.344   3.913   2.799  0.2702  0.8886  0.8319
 4577SOL    HW215216   7.236   3.969   2.889 -1.9203 -0.8743 -0.6514
 4578SOL     OW15217   5.824   1.799   7.576 -0.0219  0.3746  0.3152
 4578SOL    HW115218   5.879   1.846   7.513  1.6978  0.4712  1.8219
 4578SOL    HW215219   5.838   1.707   7.556  1.1480  0.3787  0.9996
 4579SOL     OW15220   0.130   2.392   3.389  0.0033  0.7712  0.3807
 4579SOL    HW115221   0.173   2.337   3.455 -0.7947  0.5381  0.7050
 4579SOL    HW215222   0.080   2.456   3.439  2.6879  3.2499  0.0422
 4580SOL     OW15223   5.847   5.897   2.225 -0.0443 -0.6161 -0.4737
 4580SOL    HW115224   5.825   5.928   2.313  2.0275 -0.6619  0.0803
 4580SOL    HW215225   5.782   5.830   2.206 -1.0321 -0.0002  0.6799
 4581SOL     OW15226   1.436   5.118   5.651 -0.2124 -0.7181  0.0191
 4581SOL    HW115227   1.385   5.136   5.572  2.1785  1.5619 -1.0289
 4581SOL    HW215228   1.396   5.174   5.718  2.0054  2.4838 -1.2499
 4582SOL     OW15229   5.389   1.075   1.574  0.0014  0.5832  0.0719
 4582SOL    HW115230   5.485   1.086   1.569 -0.1122  2.5802  1.3511
 4582SOL    HW215231   5.376   1.000   1.632  0.7978 -0.4110 -1.0166
 4583SOL     OW15232   5.643   5.506   5.509 -0.4335  0.3778 -0.4709
 4583SOL    HW115233   5.700   5.431   5.527 -0.9367  0.1445  0.1906
 4583SOL    HW215234   5.698   5.583   5.524  0.3977  0.1491 -2.1902
 4584SOL     OW15235   0.380   1.941   7.013  0.7675  0.0783 -0.2106
 4584SOL    HW115236   0.356   2.033   7.029  0.0866 -0.2793  0.8536
 4584SOL    HW215237   0.297   1.898   6.993  0.8385 -0.6610  1.0353
 4585SOL     OW15238   3.455   6.210   2.995  0.3480  0.1458  0.0970
 4585SOL    HW115239   3.481   6.213   3.087  2.9030  0.3249 -0.5873
 4585SOL    HW215240   3.456   6.302   2.967 -1.0253  0.1525  0.0260
 4586SOL     OW15241   6.357   7.321   2.420  0.0430  0.3025 -0.2483
 4586SOL    HW115242   6.350   7.302   2.326 -1.5945  0.5003 -0.1916
 4586SOL    HW215243   6.286   7.383   2.437 -1.7851 -2.1906  1.7082
 4587SOL     OW15244   5.003   0.264   7.925 -0.0725 -0.3516  0.1079
 4587SOL    HW115245   5.086   0.217   7.922 -2.2100 -4.7043  2.5420
 4587SOL    HW215246   4.983   0.271   8.019 -2.6380  0.1748 -0.4372
 4588SOL     OW15247   0.300   0.846   2.777 -0.2444 -0.1997 -0.2597
 4588SOL    HW115248   0.364   0.886   2.718 -1.2760  1.9087  0.0443
 4588SOL    HW215249   0.300   0.753   2.751  2.9179 -0.2525 -0.2697
 4589SOL     OW15250   7.514   6.217   0.673 -0.7549  0.3724 -0.0875
 4589SOL    HW115251   7.559   6.245   0.593 -2.3003 -0.1155 -1.1466
 4589SOL    HW215252   7.585   6.187   0.730  0.5527  2.4166 -0.5560
 4590SOL     OW15253   5.451   6.220   4.019 -0.2267 -0.3930  0.7952
 4590SOL    HW115254   5.368   6.188   4.054  0.7152 -0.7525  2.7579
 4590SOL    HW215255   5.494   6.142   3.985 -1.8452  0.1786 -2.8174
 4591SOL     OW15256   6.216   7.713   0.730 -0.2268  0.6373 -0.5897
 4591SOL    HW115257   6.189   7.799   0.764 -0.6453 -0.3265  1.6152
 4591SOL    HW215258   6.262   7.733   0.648 -1.7999  2.8213 -0.9887
 4592SOL     OW15259   1.306   0.981   1.278  0.3473 -0.1166 -0.5001
 4592SOL    HW115260   1.267   0.894   1.288  1.0410 -0.5159 -1.2188
 4592SOL    HW215261   1.323   0.989   1.185  1.1532  0.4113 -0.3138
 4593SOL     OW15262   7.810   7.793   0.923  0.2267  0.4788 -0.4160
 4593SOL    HW115263   7.720   7.805   0.954 -0.1290 -1.0692 -0.8229
 4593SOL    HW215264   7.864   7.806   1.000 -0.2628  2.3973 -0.3588
 4594SOL     OW15265   5.093   8.313   3.509 -0.3041 -0.1087  0.6546
 4594SOL    HW115266   5.026   8.338   3.446 -0.1196 -0.3783  0.3488
 4594SOL    HW215267   5.153   8.257   3.459  0.5653  0.7416  0.7170
 4595SOL     OW15268   4.442   0.091   2.649 -0.0158 -0.0787 -0.2173
 4595SOL    HW115269   4.478   0.039   2.721 -2.7874 -1.5202  0.1811
 4595SOL    HW215270   4.519   0.125   2.603  1.8574 -3.7842  0.0474
 4596SOL     OW15271   0.566   3.381   6.284  0.0796 -0.3932  0.3279
 4596SOL    HW115272   0.489   3.328   6.306 -0.0640 -0.3241  0.0008
 4596SOL    HW215273   0.533   3.471   6.282  0.1791 -0.3594  0.2232
 4597SOL     OW15274   4.024   6.478   3.805 -0.3338 -0.1147 -0.3615
 4597SOL    HW115275   3.938   6.439   3.817  0.6652 -2.2250  0.2902
 4597SOL    HW215276   4.039   6.529   3.885  0.5721 -2.8843  1.3053
 4598SOL     OW15277   7.253   0.395   1.701 -0.2899  0.4668 -0.2144
 4598SOL    HW115278   7.265   0.342   1.780 -0.3981  0.6750 -0.0576
 4598SOL    HW215279   7.322   0.461   1.706 -0.9425  1.1235  0.2390
 4599SOL     OW15280   3.818   0.307   6.470  0.1113  0.9169 -0.5552
 4599SOL    HW115281   3.860   0.230   6.431 -1.2986  0.5293 -1.3638
 4599SOL    HW215282   3.807   0.368   6.398 -1.4956  0.6509 -0.5591
 4600SOL     OW15283   5.524   0.924   6.226 -0.5727  0.1254  0.4062
 4600SOL    HW115284   5.619   0.932   6.231 -0.5553  0.6435 -0.8346
 4600SOL    HW215285   5.491   0.998   6.277 -0.3241 -0.0162  0.7805
 4601SOL     OW15286   4.185   6.959   5.037 -0.1973  0.2069  0.4593
 4601SOL    HW115287   4.245   6.894   5.074 -0.5452  0.1244  0.8808
 4601SOL    HW215288   4.242   7.021   4.990  0.0718 -0.8212 -0.5969
 4602SOL     OW15289   3.750   4.431   5.044  0.4130 -0.3096  0.0488
 4602SOL    HW115290   3.683   4.381   4.998  0.5526 -1.0502  0.6429
 4602SOL    HW215291   3.831   4.381   5.032  0.5119 -0.3459  0.8383
 4603SOL     OW15292   0.768   5.035   7.606 -0.4501  0.5888  0.4697
 4603SOL    HW115293   0.840   5.024   7.667  0.7606 -0.9196 -1.1748
 4603SOL    HW215294   0.689   5.018   7.658  0.4761  0.5847  1.8832
 4604SOL     OW15295   6.668   0.291   1.060  0.5963  0.5279  0.1638
 4604SOL    HW115296   6.599   0.334   1.010  0.5966 -0.0395 -0.3283
 4604SOL    HW215297   6.714   0.363   1.104 -0.0608  0.9392  0.1859
 4605SOL     OW15298   6.788   0.745   0.368 -0.0060  0.0977  0.2637
 4605SOL    HW115299   6.738   0.703   0.438  1.3431 -0.6992  0.7835
 4605SOL    HW215300   6.828   0.822   0.409 -0.7794  0.7227 -0.1439
 4606SOL     OW15301   1.480   8.170   5.522  0.0125  0.9220  0.8136
 4606SOL    HW115302   1.409   8.107   5.532 -0.2417  1.0107 -0.3929
 4606SOL    HW215303   1.503   8.166   5.430  0.1259  2.4394  0.7609
 4607SOL     OW15304   3.962   4.849   8.128  0.2293  0.5899 -0.3987
 4607SOL    HW115305   4.004   4.789   8.189  1.6369 -0.4020 -2.2974
 4607SOL    HW215306   3.972   4.935   8.169 -2.2528 -0.4464  2.5831
 4608SOL     OW15307   1.186   7.195   6.796  0.2473 -0.2336 -0.3180
 4608SOL    HW115308   1.235   7.277   6.805  1.4203 -0.8334 -1.0001
 4608SOL    HW215309   1.182   7.160   6.885 -0.2900  0.5806 -0.0189
 4609SOL     OW15310   2.510   5.440   5.533 -0.0005  0.5512  0.1886
 4609SOL    HW115311   2.591   5.397   5.507  0.8630  2.1338  0.1602
 4609SOL    HW215312   2.535   5.531   5.547 -1.4912  0.7733  1.5719
 4610SOL     OW15313   4.520   0.474   6.290 -0.4926  0.0964 -0.3081
 4610SOL    HW115314   4.475   0.403   6.336 -0.8382  0.4853 -0.0532
 4610SOL    HW215315   4.580   0.428   6.230  2.0040 -0.4125  2.4860
 4611SOL     OW15316   7.880   5.489   2.213  0.0151 -0.1816  0.9739
 4611SOL    HW115317   7.837   5.473   2.129 -1.3310  0.4634  1.5297
 4611SOL    HW215318   7.909   5.580   2.207  1.4715 -0.6550  0.5433
 4612SOL     OW15319   5.972   5.734   1.438  0.1607  0.3028  0.1089
 4612SOL    HW115320   5.906   5.701   1.500  0.2073 -0.2305 -0.1167
 4612SOL    HW215321   5.966   5.673   1.364 -0.1772  1.1659 -0.5832
 4613SOL     OW15322   4.060   4.272   5.257  0.3092 -0.5619 -0.3912
 4613SOL    HW115323   4.110   4.352   5.267  1.4569 -1.3302  0.1640
 4613SOL    HW215324   4.124   4.202   5.268 -0.6001 -1.5549 -1.2666
 4614SOL     OW15325   4.691   1.731   4.944 -0.4385 -0.5526 -0.3430
 4614SOL    HW115326   4.642   1.657   4.980 -0.1342 -0.7936 -0.4197
 4614SOL    HW215327   4.761   1.747   5.007 -0.1191 -0.7444 -0.6457
 4615SOL     OW15328   5.621   3.225   7.480 -0.0075  0.0483 -0.5612
 4615SOL    HW115329   5.592   3.137   7.502  0.1264  0.3507  0.8580
 4615SOL    HW215330   5.540   3.272   7.457 -0.2366 -0.0581  0.0299
 4616SOL     OW15331   2.895   1.269   7.038  0.0256 -0.0112  0.0640
 4616SOL    HW115332   2.971   1.226   7.078 -0.5036 -0.9880  0.0237
 4616SOL    HW215333   2.932   1.341   6.987  0.9250 -0.4820  0.0526
 4617SOL     OW15334   5.585   2.847   3.112 -0.0306 -0.2442 -0.0893
 4617SOL    HW115335   5.560   2.755   3.103  0.8247 -0.7220  2.3123
 4617SOL    HW215336   5.620   2.855   3.200  1.4391  2.0486 -0.8334
 4618SOL     OW15337   3.484   1.821   7.877 -0.3568 -0.3712  0.0281
 4618SOL    HW115338   3.437   1.740   7.855  2.8094 -2.2893 -0.0549
 4618SOL    HW215339   3.477   1.875   7.799 -1.1940 -1.2298 -0.5021
 4619SOL     OW15340   5.835   4.187   6.011 -0.6149  0.3179  0.1769
 4619SOL    HW115341   5.874   4.164   6.095  0.2580 -1.6108 -0.7225
 4619SOL    HW215342   5.906   4.226   5.961 -1.0475  1.1453  0.1971
 4620SOL     OW15343   0.570   5.026   5.881  0.4810  0.6710 -0.0405
 4620SOL    HW115344   0.602   4.943   5.917 -0.0138  0.7271  0.5363
 4620SOL    HW215345   0.511   5.001   5.811  1.2318  0.5552 -0.6419
 4621SOL     OW15346   0.736   5.911   5.198  0.1004 -0.2684 -0.2356
 4621SOL    HW115347   0.671   5.860   5.248 -0.0264 -0.0747 -0.2047
 4621SOL    HW215348   0.687   5.949   5.126  0.4715 -1.3494 -1.0873
 4622SOL     OW15349   3.425   6.083   3.414 -0.0042 -0.5663 -0.1687
 4622SOL    HW115350   3.361   6.062   3.483  0.2933 -0.5418  0.1117
 4622SOL    HW215351   3.447   5.998   3.376 -1.7782 -0.3922 -1.6652
 4623SOL     OW15352   3.881   2.591   0.976  0.3342  0.3655  0.2496
 4623SOL    HW115353   3.810   2.546   1.022  1.1632 -1.5490 -0.2676
 4623SOL    HW215354   3.836   2.652   0.917 -0.8399  0.0708  0.8150
 4624SOL     OW15355   6.637   3.162   2.013  0.6075  0.6136 -0.1469
 4624SOL    HW115356   6.704   3.096   2.029  0.3976  0.4743  0.1727
 4624SOL    HW215357   6.569   3.143   2.078  1.4508  2.3681  1.2982
 4625SOL     OW15358   1.265   1.748   6.620 -0.0066 -0.3298  0.1082
 4625SOL    HW115359   1.289   1.837   6.593 -0.2041  0.0414  1.1411
 4625SOL    HW215360   1.259   1.699   6.538 -3.2939  1.4374 -0.8273
 4626SOL     OW15361   4.186   0.652   1.061 -0.5073 -0.0027 -0.1995
 4626SOL    HW115362   4.244   0.660   1.137  1.0939 -0.3131 -1.3668
 4626SOL    HW215363   4.129   0.578   1.082  1.1570 -1.2864 -0.0805
 4627SOL     OW15364   8.290   3.233   3.789 -0.5120 -0.0684  0.0987
 4627SOL    HW115365   8.286   3.143   3.756  0.6549  0.4636 -1.5748
 4627SOL    HW215366   8.314   3.285   3.712  0.1141  1.5023  1.3461
 4628SOL     OW15367   5.781   8.055   8.093  0.0337  1.0086  0.0641
 4628SOL    HW115368   5.746   8.127   8.146  1.5930  0.6847  1.6000
 4628SOL    HW215369   5.736   7.977   8.127  1.0836  0.7925  0.9889
 4629SOL     OW15370   1.344   3.758   6.140  0.0880  0.2748  0.1244
 4629SOL    HW115371   1.277   3.826   6.144 -0.1700 -0.0190  1.0892
 4629SOL    HW215372   1.426   3.805   6.130 -0.1651  0.6913 -0.0101
 4630SOL     OW15373   6.530   7.095   0.879 -0.3462 -0.3311 -0.2610
 4630SOL    HW115374   6.620   7.067   0.897  0.5058  1.9400 -0.8575
 4630SOL    HW215375   6.526   7.184   0.913 -2.3392 -0.3518 -0.4028
 4631SOL     OW15376   0.519   8.150   1.871 -0.5277  0.1143  0.2388
 4631SOL    HW115377   0.565   8.212   1.814 -0.2769 -0.4809 -0.2072
 4631SOL    HW215378   0.426   8.168   1.855 -0.4560  0.3958  0.1307
 4632SOL     OW15379   6.091   6.648   1.881  0.0105 -0.3483  0.4733
 4632SOL    HW115380   6.024   6.587   1.851  0.1313 -1.0500  1.5891
 4632SOL    HW215381   6.136   6.677   1.802 -1.9771  0.5624 -0.3547
 4633SOL     OW15382   8.032   7.568   6.112  0.7322 -0.0617  0.8384
 4633SOL    HW115383   8.087   7.492   6.132 -0.1066 -0.4160  1.8936
 4633SOL    HW215384   7.983   7.584   6.193 -0.6773  0.2670 -0.0545
 4634SOL     OW15385   2.554   8.281   5.356 -0.1720  0.0036  0.1271
 4634SOL    HW115386   2.649   8.295   5.352 -0.0996 -0.2250  0.9608
 4634SOL    HW215387   2.540   8.200   5.306  0.0371  0.1821 -0.2246
 4635SOL     OW15388   7.991   3.874   5.618 -0.1191  0.6901 -0.0066
 4635SOL    HW115389   7.958   3.793   5.580 -1.9674  0.4070  2.0806
 4635SOL    HW215390   8.076   3.887   5.577  0.6348 -2.8192  0.2898
 4636SOL     OW15391   2.306   2.624   4.943 -0.0860  0.4323 -0.1772
 4636SOL    HW115392   2.237   2.687   4.920 -0.9102 -0.7841 -1.1177
 4636SOL    HW215393   2.270   2.573   5.015  1.5401  2.6095  2.2450
 4637SOL     OW15394   4.164   7.411   2.812 -0.0437  0.0354  0.3168
 4637SOL    HW115395   4.129   7.322   2.811 -0.0991  0.0724 -0.9842
 4637SOL    HW215396   4.242   7.407   2.757  0.4151  0.6082  0.9147
 4638SOL     OW15397   3.900   0.751   3.074  0.0569  0.0402 -0.5023
 4638SOL    HW115398   3.940   0.671   3.040 -1.8494 -0.3537 -1.8743
 4638SOL    HW215399   3.940   0.822   3.024 -0.3734 -0.2942 -1.3328
 4639SOL     OW15400   4.271   7.076   2.385  0.3429  0.3553  0.0698
 4639SOL    HW115401   4.190   7.084   2.335  0.2290  0.9565  0.3437
 4639SOL    HW215402   4.339   7.103   2.325  0.4066 -0.7103 -0.3466
 4640SOL     OW15403   7.575   2.051   6.543 -0.4451 -0.8444  0.3173
 4640SOL    HW115404   7.670   2.064   6.542 -0.4908 -0.5081  0.6607
 4640SOL    HW215405   7.541   2.120   6.486 -0.3819 -1.7777 -0.8900
 4641SOL     OW15406   7.131   5.227   3.890 -0.2198 -0.8662 -0.2341
 4641SOL    HW115407   7.222   5.227   3.859 -1.1458 -0.0177 -3.0678
 4641SOL    HW215408   7.127   5.154   3.951  2.0039 -1.8643 -1.2178
 4642SOL     OW15409   7.880   1.951   4.186 -0.5345 -0.0167  0.3308
 4642SOL    HW115410   7.972   1.940   4.164 -0.4069  2.1430 -0.3206
 4642SOL    HW215411   7.866   2.046   4.186 -3.5118 -0.3540 -2.8465
 4643SOL     OW15412   6.702   7.944   0.258  0.2155  1.1612  0.1060
 4643SOL    HW115413   6.700   7.976   0.348 -0.7813  2.7009 -0.4585
 4643SOL    HW215414   6.794   7.917   0.244  0.0899 -0.3243  1.9812
 4644SOL     OW15415   8.057   6.038   3.995 -0.0102  0.3059 -0.0279
 4644SOL    HW115416   8.057   5.945   3.976 -0.2577  0.2714  0.1343
 4644SOL    HW215417   8.149   6.060   4.008 -0.1117 -0.3751  2.0730
 4645SOL     OW15418   2.133   0.618   3.112  0.4451  1.0075 -0.3625
 4645SOL    HW115419   2.137   0.534   3.066  0.2933  0.0820  1.2891
 4645SOL    HW215420   2.212   0.665   3.083 -0.4119  1.0936 -2.7344
 4646SOL     OW15421   0.708   2.932   7.993 -0.3216 -0.1450  0.7592
 4646SOL    HW115422   0.760   2.867   7.946 -1.5695 -0.7643  0.2202
 4646SOL    HW215423   0.728   3.015   7.950 -0.5557 -0.5332 -0.1092
 4647SOL     OW15424   2.394   2.467   0.336  0.1736  0.2294 -0.0993
 4647SOL    HW115425   2.386   2.441   0.428 -0.2916  1.5174  0.2370
 4647SOL    HW215426   2.404   2.385   0.289 -0.0699 -0.4785  1.0540
 4648SOL     OW15427   2.037   7.274   3.888  0.5998  0.6264  0.5665
 4648SOL    HW115428   2.008   7.365   3.885  0.5422  0.6497  1.6258
 4648SOL    HW215429   2.124   7.277   3.928  0.0728  0.1120  1.8076
 4649SOL     OW15430   3.940   5.504   3.170 -0.6500 -0.1890 -0.1618
 4649SOL    HW115431   3.918   5.576   3.230 -2.5697 -0.7646 -0.1264
 4649SOL    HW215432   4.023   5.470   3.202 -0.0868  1.5428  0.2705
 4650SOL     OW15433   4.724   7.498   3.481 -0.2002  0.0392 -0.0545
 4650SOL    HW115434   4.689   7.425   3.532 -1.7847  0.5554 -0.3621
 4650SOL    HW215435   4.790   7.537   3.538  1.3731 -2.2103 -0.2839
 4651SOL     OW15436   3.337   5.723   2.312  0.1609 -0.2113  0.3291
 4651SOL    HW115437   3.362   5.810   2.281  0.9469 -1.5028 -2.7743
 4651SOL    HW215438   3.241   5.727   2.318  0.2780  1.3001  1.6740
 4652SOL     OW15439   1.780   7.751   3.988  0.0664  0.5817 -0.0425
 4652SOL    HW115440   1.712   7.690   4.015  0.6406  0.0216  0.1566
 4652SOL    HW215441   1.811   7.790   4.070  0.4034  0.3806 -0.0709
 4653SOL     OW15442   2.460   0.143   4.119  0.7490 -0.4437 -0.5660
 4653SOL    HW115443   2.473   0.214   4.056 -1.6274 -0.4377 -1.0984
 4653SOL    HW215444   2.482   0.063   4.071  0.0962 -0.3400 -1.0442
 4654SOL     OW15445   0.985   7.692   0.401 -0.7171  0.5242 -0.0066
 4654SOL    HW115446   1.031   7.611   0.421  1.2391  1.0436 -2.1416
 4654SOL    HW215447   0.961   7.729   0.486  2.2313 -0.1095  1.1456
 4655SOL     OW15448   7.479   2.775   5.673 -0.0372 -0.3373 -0.5874
 4655SOL    HW115449   7.405   2.716   5.656 -2.1184  2.4018 -1.4789
 4655SOL    HW215450   7.513   2.795   5.586  0.9629 -0.5480 -0.2522
 4656SOL     OW15451   0.055   1.373   0.492  0.0404  0.2528 -0.1704
 4656SOL    HW115452   0.016   1.290   0.519  0.2650  0.4203  0.7079
 4656SOL    HW215453  -0.004   1.407   0.425 -2.0273  1.0531  1.9527
 4657SOL     OW15454   2.193   3.994   0.570  0.2593  0.1584 -0.3087
 4657SOL    HW115455   2.153   3.998   0.483  1.3047 -0.1158 -0.8182
 4657SOL    HW215456   2.124   3.960   0.627 -0.1893 -0.4548 -1.1988
 4658SOL     OW15457   0.611   7.320   3.887 -0.2285 -0.5153 -0.4597
 4658SOL    HW115458   0.635   7.363   3.806  1.4265 -1.0569 -0.2623
 4658SOL    HW215459   0.516   7.306   3.880  0.1845 -2.2473 -3.1081
 4659SOL     OW15460   5.029   1.724   0.314  0.4025  0.0548  0.0222
 4659SOL    HW115461   5.083   1.729   0.235 -0.8891 -3.2564 -1.1849
 4659SOL    HW215462   5.074   1.660   0.369 -1.2435 -1.3224 -0.1963
 4660SOL     OW15463   5.718   2.385   1.046 -0.3801 -0.3264  0.6841
 4660SOL    HW115464   5.747   2.303   1.085 -2.8686 -2.0705 -1.0300
 4660SOL    HW215465   5.697   2.363   0.956 -4.1227  1.4526  1.0331
 4661SOL     OW15466   0.198   5.643   1.035 -0.5087 -0.2706  0.0765
 4661SOL    HW115467   0.242   5.607   0.958  0.5549 -2.0581  1.5147
 4661SOL    HW215468   0.115   5.677   1.000  0.0623 -0.8165 -1.9015
 4662SOL     OW15469   6.466   3.652   0.297 -0.5998  0.0100  0.0751
 4662SOL    HW115470   6.448   3.717   0.229  1.2595  3.0586  2.3818
 4662SOL    HW215471   6.561   3.655   0.308 -0.7358 -1.4517  1.8619
 4663SOL     OW15472   1.404   7.186   0.237  0.1799  0.1862 -0.4400
 4663SOL    HW115473   1.428   7.109   0.186  0.5603  0.1143 -0.1493
 4663SOL    HW215474   1.318   7.211   0.202 -0.3962 -0.9470  0.1290
 4664SOL     OW15475   1.464   5.119   3.184 -0.3132 -0.6251 -0.4182
 4664SOL    HW115476   1.555   5.119   3.156 -0.6747  1.7711 -1.7389
 4664SOL    HW215477   1.458   5.191   3.247 -1.6854  0.5258 -1.8254
 4665SOL     OW15478   5.924   0.784   1.703 -0.1419  0.0722 -0.5128
 4665SOL    HW115479   5.855   0.795   1.638  0.0065 -1.3772 -0.9483
 4665SOL    HW215480   5.878   0.765   1.784 -0.2805 -4.1401 -1.4498
 4666SOL     OW15481   7.887   3.098   7.455  0.4239 -0.3730 -0.1425
 4666SOL    HW115482   7.933   3.139   7.382  3.6328  1.2511  2.6548
 4666SOL    HW215483   7.941   3.022   7.478  0.2861  0.0256  1.5253
 4667SOL     OW15484   4.617   7.671   7.200  0.0665 -0.2774 -0.3102
 4667SOL    HW115485   4.687   7.724   7.161 -1.9722  1.4578 -1.7946
 4667SOL    HW215486   4.589   7.612   7.129 -0.4834 -0.3991  0.0038
 4668SOL     OW15487   6.559   0.114   5.453  0.2086  0.3595 -0.0654
 4668SOL    HW115488   6.575   0.175   5.526  0.3424 -0.2964  0.4579
 4668SOL    HW215489   6.644   0.103   5.412  0.1248  0.7635 -0.3555
 4669SOL     OW15490   3.768   3.756   1.233  0.4233  0.3682 -0.5844
 4669SOL    HW115491   3.719   3.744   1.152 -0.9290  0.8461  0.1538
 4669SOL    HW215492   3.724   3.827   1.278  1.7056  0.7024  0.1733
 4670SOL     OW15493   7.378   5.096   7.290 -0.3982  0.0285 -0.5447
 4670SOL    HW115494   7.385   5.086   7.195 -1.2245 -0.7094 -0.5301
 4670SOL    HW215495   7.355   5.009   7.322  1.1817 -0.0314  0.4703
 4671SOL     OW15496   5.889   2.737   6.504 -0.0201 -0.1329 -0.2936
 4671SOL    HW115497   5.866   2.715   6.414  1.7676  0.8475 -1.0260
 4671SOL    HW215498   5.805   2.747   6.549 -0.9340 -0.5649 -1.8661
 4672SOL     OW15499   6.305   1.718   4.024 -0.1915  0.1707  0.1571
 4672SOL    HW115500   6.231   1.779   4.014  0.2360  0.9847  1.8777
 4672SOL    HW215501   6.328   1.723   4.116  1.0973 -1.1799 -0.0797
 4673SOL     OW15502   5.650   3.255   0.706 -0.4965  0.0878 -0.3384
 4673SOL    HW115503   5.677   3.341   0.740  0.1654  0.4642 -1.7872
 4673SOL    HW215504   5.655   3.264   0.611 -0.4091 -1.5651 -0.5027
 4674SOL     OW15505   8.081   8.271   3.912  0.1270  0.1020 -0.0650
 4674SOL    HW115506   8.064   8.273   4.007 -2.3809  1.0262 -0.5018
 4674SOL    HW215507   8.104   8.362   3.891 -1.8888  0.4707 -0.7607
 4675SOL     OW15508   7.690   1.232   7.191 -0.1263  0.2423 -0.1546
 4675SOL    HW115509   7.643   1.314   7.206 -2.3107 -0.4988 -2.4486
 4675SOL    HW215510   7.723   1.240   7.101  0.1739 -1.1355 -0.1789
 4676SOL     OW15511   0.007   1.437   7.103 -0.0144  0.2125  0.3114
 4676SOL    HW115512   0.020   1.436   7.198 -1.8756  0.1440  0.5807
 4676SOL    HW215513  -0.006   1.345   7.080 -0.6614  0.3352  0.1637
 4677SOL     OW15514   1.626   6.154   1.919  0.5174  0.4539  0.3200
 4677SOL    HW115515   1.632   6.248   1.904  0.9749  0.2365 -0.9304
 4677SOL    HW215516   1.532   6.137   1.929  0.5535  1.2799  2.2555
 4678SOL     OW15517   0.163   0.848   0.458  0.8276 -0.2063  0.4388
 4678SOL    HW115518   0.076   0.831   0.494  0.9355 -0.4970  0.5608
 4678SOL    HW215519   0.173   0.784   0.388  0.4081  0.6899 -0.4715
 4679SOL     OW15520   1.038   0.868   4.738  0.1919  0.6337 -0.9479
 4679SOL    HW115521   1.039   0.935   4.807 -1.2126  0.4315 -0.7102
 4679SOL    HW215522   0.952   0.878   4.697 -0.2896 -1.4038 -0.5112
 4680SOL     OW15523   1.711   4.219   6.996  0.4208  0.5073 -0.4199
 4680SOL    HW115524   1.650   4.238   7.067  1.0336  1.5551 -0.1678
 4680SOL    HW215525   1.671   4.146   6.949 -1.8077  2.1278 -1.1592
 4681SOL     OW15526   3.562   1.600   0.029 -0.0269 -0.1606 -0.2930
 4681SOL    HW115527   3.479   1.643   0.010 -0.2311 -0.6081 -0.4187
 4681SOL    HW215528   3.543   1.543   0.104 -0.2367 -1.4784 -1.3314
 4682SOL     OW15529   3.861   3.834   1.924 -0.3690  0.1715 -0.1321
 4682SOL    HW115530   3.824   3.768   1.865 -1.9098  1.4217 -0.5845
 4682SOL    HW215531   3.818   3.817   2.008  0.4277 -0.4062  0.1665
 4683SOL     OW15532   0.443   7.097   5.243  0.6426 -0.1678  0.1246
 4683SOL    HW115533   0.480   7.170   5.193  1.9925 -0.4560  0.6596
 4683SOL    HW215534   0.384   7.053   5.183 -1.0731  2.0506  0.1419
 4684SOL     OW15535   0.109   5.247   3.879 -1.2207  0.4828  0.1037
 4684SOL    HW115536   0.025   5.283   3.907  0.1446  1.9163  2.5975
 4684SOL    HW215537   0.139   5.308   3.811 -1.4963  0.8251  0.2862
 4685SOL     OW15538   1.593   3.642   5.336  0.4410 -0.3484 -0.0339
 4685SOL    HW115539   1.614   3.549   5.320  2.0370  0.0445 -0.3480
 4685SOL    HW215540   1.673   3.678   5.375 -0.0405  0.9747 -0.2447
 4686SOL     OW15541   6.152   7.073   1.038 -0.4107  0.4568  0.0180
 4686SOL    HW115542   6.184   7.025   0.962  1.3634 -0.8841  1.5475
 4686SOL    HW215543   6.072   7.027   1.064  0.9909 -1.4535  1.1515
 4687SOL     OW15544   7.885   4.605   5.838  1.0563 -0.5990 -0.5678
 4687SOL    HW115545   7.835   4.532   5.875  0.3053 -0.1109 -0.6024
 4687SOL    HW215546   7.838   4.683   5.868  2.5561 -0.0735  0.5125
 4688SOL     OW15547   2.051   2.408   3.406 -0.0453  0.4998  0.4624
 4688SOL    HW115548   2.064   2.407   3.501  0.4499  1.2490  0.4076
 4688SOL    HW215549   1.963   2.373   3.393 -0.5762  1.4932  1.2757
 4689SOL     OW15550   6.086   4.930   6.069 -0.2392 -0.8277 -0.1120
 4689SOL    HW115551   6.091   4.965   5.980  0.4278 -0.9095 -0.1082
 4689SOL    HW215552   6.011   4.975   6.108 -0.2329 -0.4265 -0.5541
 4690SOL     OW15553   6.460   6.637   3.767  0.0997 -0.7862 -0.3308
 4690SOL    HW115554   6.392   6.573   3.789 -0.9117  0.3290 -0.1614
 4690SOL    HW215555   6.419   6.694   3.702  1.8632 -1.8867 -2.4735
 4691SOL     OW15556   3.648   2.655   3.359  0.3031 -0.4434  0.1426
 4691SOL    HW115557   3.566   2.692   3.326  0.5010 -2.7854 -3.3405
 4691SOL    HW215558   3.715   2.688   3.299  0.6834 -4.8167 -2.1162
 4692SOL     OW15559   1.908   2.136   1.702  0.5205 -1.1030 -0.0583
 4692SOL    HW115560   1.945   2.066   1.756 -0.7116 -1.2893  0.5687
 4692SOL    HW215561   1.968   2.209   1.713 -0.1964 -0.8229  2.3229
 4693SOL     OW15562   4.116   0.591   2.025  1.0676 -0.2886 -0.4838
 4693SOL    HW115563   4.115   0.619   2.116 -0.7286  1.0046 -0.8694
 4693SOL    HW215564   4.042   0.637   1.985  0.7660 -2.1787 -2.1816
 4694SOL     OW15565   2.692   0.983   8.015 -0.1220 -0.3790  0.3241
 4694SOL    HW115566   2.715   1.062   8.063 -1.3979 -0.0717  0.4468
 4694SOL    HW215567   2.701   0.912   8.078 -0.2571 -0.1675  0.5792
 4695SOL     OW15568   6.397   5.498   8.235  0.2138 -0.5428  0.3028
 4695SOL    HW115569   6.403   5.431   8.303  1.6217 -0.0853  0.6629
 4695SOL    HW215570   6.428   5.455   8.156  0.3617 -0.5453  0.3616
 4696SOL     OW15571   4.185   0.161   3.312  0.1251 -0.0849 -0.0065
 4696SOL    HW115572   4.130   0.106   3.368  0.8938  0.1965  1.0441
 4696SOL    HW215573   4.266   0.171   3.362  0.6125  0.6241 -0.9396
 4697SOL     OW15574   7.109   2.009   6.563 -0.2782  0.0748  0.8019
 4697SOL    HW115575   7.180   2.074   6.559 -0.4505  0.3728  2.2064
 4697SOL    HW215576   7.043   2.042   6.502  0.8296 -0.2570 -0.5898
 4698SOL     OW15577   0.943   6.474   2.722  0.1778  0.2307 -0.5640
 4698SOL    HW115578   0.981   6.467   2.809  0.4357 -0.5208 -0.7362
 4698SOL    HW215579   0.871   6.410   2.722 -1.0531  1.5762 -0.2668
 4699SOL     OW15580   6.358   7.543   0.238  0.2167 -0.1039 -0.5393
 4699SOL    HW115581   6.393   7.555   0.326 -1.9715  1.4719  0.1391
 4699SOL    HW215582   6.434   7.555   0.180  1.2342  1.0243  1.0044
 4700SOL     OW15583   5.104   2.517   1.352 -0.3971 -0.1479 -0.5197
 4700SOL    HW115584   5.096   2.599   1.401  0.7506 -0.4574  0.2070
 4700SOL    HW215585   5.180   2.530   1.296  0.5975 -1.2046  0.5754
 4701SOL     OW15586   0.664   2.226   0.109  0.1582  0.1453 -0.0908
 4701SOL    HW115587   0.586   2.281   0.098  0.4352  0.6659  0.4763
 4701SOL    HW215588   0.719   2.275   0.170 -1.4582 -2.7178  3.8685
 4702SOL     OW15589   2.891   8.170   2.343 -0.0826 -0.4258  0.2311
 4702SOL    HW115590   2.839   8.245   2.313  1.9666  1.5619  1.4868
 4702SOL    HW215591   2.982   8.199   2.336  0.7844 -3.0234  0.2115
 4703SOL     OW15592   2.775   4.924   4.753 -0.3354  0.0836  0.1360
 4703SOL    HW115593   2.788   5.007   4.707 -1.7255 -0.8384 -2.0298
 4703SOL    HW215594   2.699   4.884   4.709  0.8824 -2.7652  0.5069
 4704SOL     OW15595   1.308   0.863   7.572 -0.1862  0.5211 -0.0215
 4704SOL    HW115596   1.274   0.914   7.645  1.0522  0.8527  0.3300
 4704SOL    HW215597   1.242   0.796   7.557 -0.0427 -0.0855  1.9681
 4705SOL     OW15598   4.369   2.083   5.099 -0.1120 -0.2970  0.3601
 4705SOL    HW115599   4.321   2.141   5.157 -3.3010 -1.4098 -1.0906
 4705SOL    HW215600   4.389   2.136   5.022 -0.6311 -0.3415  0.1931
 4706SOL     OW15601   4.847   3.360   4.414  0.6909  0.3402  0.2413
 4706SOL    HW115602   4.766   3.314   4.435  1.6298  0.3140  4.2111
 4706SOL    HW215603   4.896   3.299   4.359 -2.0607  0.5092 -2.5182
 4707SOL     OW15604   0.782   0.932   7.051  0.2097 -0.3983  0.0148
 4707SOL    HW115605   0.699   0.952   7.096 -0.2583 -1.5361 -0.2991
 4707SOL    HW215606   0.775   0.976   6.967  0.1711  0.0057  0.2314
 4708SOL     OW15607   7.255   6.490   1.022  0.2346  0.4154  0.5799
 4708SOL    HW115608   7.220   6.420   1.076  0.2948 -0.1324 -0.0891
 4708SOL    HW215609   7.265   6.564   1.082  0.5140 -0.2530  1.3518
 4709SOL     OW15610   0.788   5.951   1.040 -0.4650 -0.2624 -0.1847
 4709SOL    HW115611   0.852   6.017   1.016 -0.6938 -0.4012 -1.1980
 4709SOL    HW215612   0.822   5.869   1.004  0.3333 -0.8970  1.9435
 4710SOL     OW15613   4.773   7.965   5.161  0.2907  0.2150  0.3774
 4710SOL    HW115614   4.742   7.912   5.234 -1.4171  1.6191  0.7051
 4710SOL    HW215615   4.714   8.041   5.160  1.8447  1.4304 -0.9088
 4711SOL     OW15616   0.240   0.872   5.576 -0.0989  0.0091  0.1871
 4711SOL    HW115617   0.236   0.817   5.654 -1.5147  3.1974  2.4840
 4711SOL    HW215618   0.287   0.951   5.604 -0.0720  0.9647 -2.3740
 4712SOL     OW15619   1.817   8.242   2.351 -0.1280 -0.0325  0.2716
 4712SOL    HW115620   1.762   8.164   2.347  1.9359 -1.6581  1.8424
 4712SOL    HW215621   1.873   8.237   2.274  1.0803 -0.9975  1.1837
 4713SOL     OW15622   3.463   4.456   6.783 -0.5666  0.5018  0.9677
 4713SOL    HW115623   3.432   4.461   6.873 -0.1640 -2.3683  1.2981
 4713SOL    HW215624   3.440   4.368   6.754  4.3827 -0.7075  0.2175
 4714SOL     OW15625   7.212   7.132   4.292  0.4410 -0.1575 -0.4863
 4714SOL    HW115626   7.150   7.111   4.223  0.3907 -0.2236 -0.4222
 4714SOL    HW215627   7.208   7.057   4.351 -3.2250  2.0423  2.2799
 4715SOL     OW15628   2.412   7.846   4.165  0.5476 -0.0666  0.2163
 4715SOL    HW115629   2.338   7.786   4.168  1.0583 -0.6265  2.1353
 4715SOL    HW215630   2.373   7.934   4.169  0.0151 -0.3723  2.0361
 4716SOL     OW15631   0.346   3.617   1.978  0.1983 -0.4654  0.1336
 4716SOL    HW115632   0.380   3.636   2.065 -0.6898  2.5788 -0.1006
 4716SOL    HW215633   0.254   3.643   1.983 -0.8281 -3.7204 -0.7024
 4717SOL     OW15634   5.498   5.270   0.789  0.1020 -0.4017  0.1909
 4717SOL    HW115635   5.490   5.175   0.794  1.3113 -0.4196  2.5097
 4717SOL    HW215636   5.409   5.301   0.773 -0.5519 -1.8575  0.9339
 4718SOL     OW15637   4.610   7.183   7.406  0.6579 -0.7215 -0.4362
 4718SOL    HW115638   4.690   7.216   7.447 -0.4441  1.0921  0.3365
 4718SOL    HW215639   4.547   7.255   7.415 -1.7248 -2.8577  0.8229
 4719SOL     OW15640   7.413   7.480   1.824 -0.1579 -0.2233 -0.0231
 4719SOL    HW115641   7.408   7.553   1.886  0.1141  1.1000 -1.5132
 4719SOL    HW215642   7.480   7.508   1.761 -0.6182 -1.4312 -1.0547
 4720SOL     OW15643   7.454   2.903   0.560  0.3799  0.2063 -1.3525
 4720SOL    HW115644   7.520   2.871   0.499  3.4525  0.1412  1.8623
 4720SOL    HW215645   7.451   2.836   0.629 -0.8039  1.7449  0.1230
 4721SOL     OW15646   5.072   0.288   2.481  0.0297 -0.0284  0.3484
 4721SOL    HW115647   5.107   0.336   2.556  0.1140 -0.0608  0.3309
 4721SOL    HW215648   5.123   0.207   2.479 -1.3250 -0.9357  1.4583
 4722SOL     OW15649   7.631   7.744   4.809 -0.5496  0.4189 -0.0068
 4722SOL    HW115650   7.547   7.700   4.823 -0.2209  0.3427  1.8989
 4722SOL    HW215651   7.655   7.723   4.719 -2.0048 -0.5311 -0.1871
 4723SOL     OW15652   8.256   2.188   2.373  0.4868  0.4784  0.1309
 4723SOL    HW115653   8.274   2.252   2.441  0.4490  0.7634 -0.1246
 4723SOL    HW215654   8.333   2.132   2.370 -0.3187 -0.7460  1.7556
 4724SOL     OW15655   7.263   1.193   4.523  1.0453  0.0333 -1.3055
 4724SOL    HW115656   7.269   1.269   4.581  0.2151 -0.9968  0.1742
 4724SOL    HW215657   7.321   1.128   4.563 -0.0455 -0.9138 -1.2337
 4725SOL     OW15658   6.552   2.087   4.499  0.1686  0.0705  0.4404
 4725SOL    HW115659   6.583   2.025   4.433 -0.0993 -0.4319  0.7769
 4725SOL    HW215660   6.631   2.121   4.540  0.2918 -0.8011  0.9316
 4726SOL     OW15661   2.962   2.506   0.684  0.0803  0.8131 -0.6176
 4726SOL    HW115662   2.937   2.523   0.775 -1.7129  0.3370 -0.9870
 4726SOL    HW215663   3.040   2.559   0.669 -0.1427  1.5842  0.9309
 4727SOL     OW15664   7.974   1.305   5.564 -0.0521  0.2546 -0.2597
 4727SOL    HW115665   8.003   1.221   5.528  0.6873  1.2369 -2.0150
 4727SOL    HW215666   7.908   1.336   5.501  0.7504  1.6756 -0.4159
 4728SOL     OW15667   4.247   2.799   2.637 -0.4293 -0.3865 -0.1429
 4728SOL    HW115668   4.283   2.752   2.713 -1.8017 -2.7073 -0.8843
 4728SOL    HW215669   4.181   2.856   2.675  0.1298 -0.2102  0.5991
 4729SOL     OW15670   0.298   0.972   5.312  0.2430  0.3834  0.1227
 4729SOL    HW115671   0.373   0.983   5.254  1.8740 -0.0805  2.0952
 4729SOL    HW215672   0.306   1.043   5.375 -1.8146  1.2117 -0.5179
 4730SOL     OW15673   5.262   4.070   0.775 -0.4453 -0.0077  0.0055
 4730SOL    HW115674   5.241   4.034   0.689  1.3824  0.3065 -0.5817
 4730SOL    HW215675   5.273   4.164   0.760  2.7877 -0.3276 -0.0278
 4731SOL     OW15676   4.690   0.590   3.801 -0.1259  0.1423  0.5171
 4731SOL    HW115677   4.654   0.675   3.828 -0.8444  0.1118 -0.3234
 4731SOL    HW215678   4.637   0.525   3.847 -0.0600  0.1313  0.5780
 4732SOL     OW15679   5.811   1.582   7.169 -0.0963 -0.8082 -0.8957
 4732SOL    HW115680   5.818   1.487   7.181  0.1261 -0.8836 -1.5942
 4732SOL    HW215681   5.824   1.595   7.075  1.1848  0.0400 -0.6169
 4733SOL     OW15682   2.735   3.370   0.071 -0.3441 -0.3603 -0.0716
 4733SOL    HW115683   2.820   3.411   0.088 -0.9083  0.5040  0.7578
 4733SOL    HW215684   2.748   3.318  -0.008  0.3562  1.5424 -1.2453
 4734SOL     OW15685   6.266   4.837   4.880 -0.2176  0.2426  0.1050
 4734SOL    HW115686   6.232   4.899   4.815  0.6014 -0.9920 -1.5048
 4734SOL    HW215687   6.250   4.751   4.842  0.4671 -0.4884  1.4534
 4735SOL     OW15688   2.191   5.142   5.503 -0.1076  0.3168  0.3655
 4735SOL    HW115689   2.178   5.227   5.462  0.4045  0.2371  0.0291
 4735SOL    HW215690   2.285   5.126   5.496 -0.4035 -0.9713 -0.9997
 4736SOL     OW15691   4.678   2.218   6.932  0.0543 -0.0275 -0.5471
 4736SOL    HW115692   4.697   2.208   7.026  1.3031  0.2088 -0.7600
 4736SOL    HW215693   4.746   2.277   6.901  0.4535 -1.1662 -1.8745
 4737SOL     OW15694   0.311   7.528   0.230 -0.1798  0.0322 -0.0479
 4737SOL    HW115695   0.255   7.604   0.244 -1.1059 -0.4425 -1.1020
 4737SOL    HW215696   0.343   7.537   0.140  0.7834 -0.1326  0.2661
 4738SOL     OW15697   0.409   1.084   6.754 -0.3410 -0.3492 -0.0808
 4738SOL    HW115698   0.467   1.148   6.713  0.3210  0.0227  1.4005
 4738SOL    HW215699   0.468   1.014   6.782 -0.6160 -0.0590  1.2658
 4739SOL     OW15700   1.104   5.394   2.550  0.0104  0.0648  0.3244
 4739SOL    HW115701   1.184   5.346   2.530  0.2842  1.0269 -0.9367
 4739SOL    HW215702   1.130   5.457   2.617  0.3564  0.5322 -0.2523
 4740SOL     OW15703   7.026   4.100   4.541  0.0265 -0.5157 -0.0959
 4740SOL    HW115704   6.955   4.160   4.564 -0.0382 -1.3564  1.9751
 4740SOL    HW215705   7.076   4.146   4.474 -1.2261  0.9619 -0.0375
 4741SOL     OW15706   0.695   6.423   5.052  0.0308  0.1802 -0.3705
 4741SOL    HW115707   0.608   6.420   5.091  0.4150  1.0199  0.5730
 4741SOL    HW215708   0.755   6.406   5.124  0.6664 -0.0211 -0.9349
 4742SOL     OW15709   3.732   5.026   2.846 -0.3295  0.5409  0.3540
 4742SOL    HW115710   3.722   5.039   2.751 -0.5317  0.6306  0.3863
 4742SOL    HW215711   3.788   4.949   2.854  2.1527  2.2755  0.1382
 4743SOL     OW15712   3.700   4.505   0.975 -0.5962 -0.1359  0.4816
 4743SOL    HW115713   3.757   4.507   1.052 -0.2323 -0.0135  0.2141
 4743SOL    HW215714   3.650   4.423   0.984 -0.8112  0.0514  1.0237
 4744SOL     OW15715   2.630   7.286   0.426 -0.2101 -0.3669 -0.2399
 4744SOL    HW115716   2.556   7.317   0.374  2.0701  0.0236 -3.3977
 4744SOL    HW215717   2.655   7.361   0.480 -1.1662 -0.0247 -0.2688
 4745SOL     OW15718   8.278   7.129   1.089 -0.0101 -0.0618  0.2861
 4745SOL    HW115719   8.201   7.180   1.115 -0.2581 -0.4443  0.3144
 4745SOL    HW215720   8.245   7.067   1.025 -0.0269 -1.1865  1.3538
 4746SOL     OW15721   1.564   7.387   6.288 -0.3805  0.1707  0.5289
 4746SOL    HW115722   1.573   7.339   6.205 -1.2343 -0.1895  0.6456
 4746SOL    HW215723   1.472   7.377   6.312 -0.2036  0.5259  1.3738
 4747SOL     OW15724   5.682   3.389   7.989  0.0893  0.5463  0.6001
 4747SOL    HW115725   5.695   3.330   7.915 -1.2873 -1.6764  2.0627
 4747SOL    HW215726   5.588   3.390   8.003  0.4136  0.0240  3.0158
 4748SOL     OW15727   7.623   0.520   7.919 -0.3886 -0.3991  0.4537
 4748SOL    HW115728   7.684   0.454   7.952 -1.1843 -1.2734  0.2185
 4748SOL    HW215729   7.578   0.476   7.847 -0.1039  0.8075 -0.4630
 4749SOL     OW15730   2.178   1.391   0.353  1.0104  0.2045 -0.0421
 4749SOL    HW115731   2.156   1.312   0.403  1.3145 -0.4970 -0.9989
 4749SOL    HW215732   2.099   1.409   0.302  0.9017  0.5836  0.2610
 4750SOL     OW15733   4.161   0.854   0.190 -0.1456 -0.4856 -0.5450
 4750SOL    HW115734   4.179   0.849   0.096 -0.8813 -0.9282 -0.6713
 4750SOL    HW215735   4.172   0.764   0.221 -0.4255 -0.4395 -0.3110
 4751SOL     OW15736   0.357   7.703   2.135 -0.7701 -0.1046 -0.4842
 4751SOL    HW115737   0.416   7.642   2.091  1.2759  1.5342 -0.0918
 4751SOL    HW215738   0.359   7.676   2.227 -1.6972 -0.8644 -0.6745
 4752SOL     OW15739   2.676   3.111   6.229 -0.5688 -0.1624 -0.5808
 4752SOL    HW115740   2.655   3.201   6.202 -0.6760 -0.0928 -0.2768
 4752SOL    HW215741   2.693   3.064   6.147 -1.9399 -0.2235 -0.8551
 4753SOL     OW15742   7.880   3.438   3.311 -0.0468 -0.4021  0.1372
 4753SOL    HW115743   7.823   3.428   3.387  0.9101 -0.0495  0.9014
 4753SOL    HW215744   7.830   3.494   3.251  0.0595  1.0568  1.3819
 4754SOL     OW15745   4.424   4.569   0.143 -0.1623 -0.1565  0.1692
 4754SOL    HW115746   4.478   4.573   0.222  0.6909  0.5525 -0.4356
 4754SOL    HW215747   4.360   4.501   0.161  0.8736 -0.9375  0.9458
 4755SOL     OW15748   8.311   5.148   7.779  0.2564 -0.0260  0.5818
 4755SOL    HW115749   8.263   5.151   7.862  0.1384  2.9478  0.4499
 4755SOL    HW215750   8.377   5.217   7.786  0.4906  0.0223 -1.6493
 4756SOL     OW15751   2.572   3.855   5.812  0.1945 -0.0634  0.0563
 4756SOL    HW115752   2.548   3.781   5.868  0.8353  1.1829  2.0079
 4756SOL    HW215753   2.667   3.853   5.808  0.1346 -0.3895 -1.3420
 4757SOL     OW15754   3.471   6.410   5.297  0.3786  0.1077 -0.4936
 4757SOL    HW115755   3.407   6.440   5.232 -0.1743 -1.5970 -0.7646
 4757SOL    HW215756   3.534   6.358   5.246  0.9117  0.2104  0.0638
 4758SOL     OW15757   6.666   8.313   2.813 -0.0491  0.2161 -0.3932
 4758SOL    HW115758   6.658   8.408   2.818 -0.2206  0.1168  1.8887
 4758SOL    HW215759   6.603   8.287   2.746 -1.6032  1.5519  0.5176
 4759SOL     OW15760   4.071   5.311   8.009 -0.2143 -0.0899  0.0873
 4759SOL    HW115761   4.154   5.266   8.027 -1.5117 -1.6360  2.5929
 4759SOL    HW215762   4.068   5.382   8.072 -0.2908  0.6564 -0.7530
 4760SOL     OW15763   2.638   7.407   6.421  0.2931  0.6302  0.0622
 4760SOL    HW115764   2.581   7.482   6.442 -0.3061  0.2252 -0.1281
 4760SOL    HW215765   2.691   7.395   6.501 -0.4642  0.4772  0.5410
 4761SOL     OW15766   0.576   7.778   4.246  0.0716  0.2555  0.1377
 4761SOL    HW115767   0.572   7.714   4.175  1.9534 -0.2781  0.4824
 4761SOL    HW215768   0.596   7.861   4.202 -0.6124  0.2784 -0.1319
 4762SOL     OW15769   1.788   7.526   3.192  0.1957 -0.3272 -0.5345
 4762SOL    HW115770   1.711   7.542   3.247  0.8469  0.6642  0.1043
 4762SOL    HW215771   1.802   7.609   3.146  0.2384 -0.8458 -1.4573
 4763SOL     OW15772   4.940   2.772   1.030  0.5243 -0.0419 -0.2689
 4763SOL    HW115773   5.014   2.798   1.084 -0.0529  0.8735  0.0973
 4763SOL    HW215774   4.920   2.682   1.057  1.8616 -0.5000 -0.7903
 4764SOL     OW15775   7.392   1.255   2.099 -0.1477  0.4881  0.2006
 4764SOL    HW115776   7.317   1.252   2.040  0.9648  0.5753 -1.2426
 4764SOL    HW215777   7.468   1.262   2.041  0.9294  1.1254  1.6604
 4765SOL     OW15778   5.343   1.503   1.682 -0.4065  0.0924 -0.1260
 4765SOL    HW115779   5.328   1.436   1.749 -0.1195  1.1996  1.0812
 4765SOL    HW215780   5.258   1.516   1.642  0.5475 -4.9402 -4.2678
 4766SOL     OW15781   6.635   3.850   7.335  0.3714  0.4038  0.2703
 4766SOL    HW115782   6.547   3.817   7.350  1.0666 -0.8436  1.7133
 4766SOL    HW215783   6.682   3.777   7.295 -0.2936  2.3274 -4.4156
 4767SOL     OW15784   7.525   8.242   2.276 -0.5166  0.4144 -0.1429
 4767SOL    HW115785   7.513   8.321   2.328 -2.1129  0.8881 -1.1940
 4767SOL    HW215786   7.494   8.266   2.188  2.4047 -0.2683 -1.4113
 4768SOL     OW15787   0.202   2.261   7.826 -0.2481 -0.3623  0.1253
 4768SOL    HW115788   0.256   2.340   7.815 -0.5548 -0.3480 -1.3709
 4768SOL    HW215789   0.120   2.282   7.781 -1.4874 -0.4117  2.3319
 4769SOL     OW15790   3.433   3.082   2.217  0.1679 -0.1079 -0.0205
 4769SOL    HW115791   3.506   3.131   2.179 -0.3206 -0.2472 -1.1541
 4769SOL    HW215792   3.455   3.074   2.310  2.1363 -1.1044 -0.5549
 4770SOL     OW15793   2.636   1.004   4.247  0.6703 -0.2555  0.3766
 4770SOL    HW115794   2.662   0.919   4.211  0.2132  0.4575 -1.6592
 4770SOL    HW215795   2.574   0.982   4.317  1.8819 -1.6673  1.0418
 4771SOL     OW15796   2.285   2.734   6.514 -0.4415  0.4713  0.0228
 4771SOL    HW115797   2.212   2.691   6.559 -0.7908  1.0457  0.0093
 4771SOL    HW215798   2.250   2.755   6.428  0.0403 -0.0899 -0.3155
 4772SOL     OW15799   7.492   2.685   8.291 -0.1943  0.0283  0.4578
 4772SOL    HW115800   7.561   2.739   8.253 -0.3829 -0.1338 -0.1205
 4772SOL    HW215801   7.416   2.702   8.236 -0.0768 -1.3412 -0.1530
 4773SOL     OW15802   7.333   8.262   0.646 -0.0048 -0.0772 -0.5535
 4773SOL    HW115803   7.395   8.247   0.575  0.3263 -1.8166  0.0944
 4773SOL    HW215804   7.375   8.224   0.723 -1.3825 -0.2659  0.1152
 4774SOL     OW15805   6.396   3.076   6.185  0.3466 -0.1131  0.2769
 4774SOL    HW115806   6.357   2.996   6.221 -0.4244  0.3030  0.3722
 4774SOL    HW215807   6.460   3.103   6.250  1.2424 -1.1457 -0.1696
 4775SOL     OW15808   4.714   0.680   4.583  0.4886  0.1088  0.7306
 4775SOL    HW115809   4.696   0.679   4.489 -0.4779  0.0935  0.9080
 4775SOL    HW215810   4.805   0.708   4.590  1.4762 -2.7366 -0.3361
 4776SOL     OW15811   6.400   5.369   6.495  0.3752  0.2196  0.1068
 4776SOL    HW115812   6.471   5.427   6.469  0.9928 -0.1880  0.8504
 4776SOL    HW215813   6.431   5.281   6.474 -0.2348  0.1017 -0.2968
 4777SOL     OW15814   2.272   1.421   4.590 -0.8262  0.0956  0.0560
 4777SOL    HW115815   2.337   1.443   4.657 -0.9994  0.4501  0.1132
 4777SOL    HW215816   2.188   1.436   4.633 -0.9804 -1.8657  0.4901
 4778SOL     OW15817   7.161   0.355   6.966  0.0673  0.2128  0.0306
 4778SOL    HW115818   7.206   0.349   7.050 -0.4202  0.8664  0.3450
 4778SOL    HW215819   7.086   0.413   6.983 -1.3754 -1.5248 -0.2671
 4779SOL     OW15820   5.132   5.237   2.204 -0.4047 -0.2897  0.4807
 4779SOL    HW115821   5.170   5.150   2.199 -0.0228 -0.0641 -0.8303
 4779SOL    HW215822   5.078   5.236   2.283 -1.6609 -2.2139 -0.3608
 4780SOL     OW15823   0.976   1.455   2.012 -0.0583 -0.2139  0.0792
 4780SOL    HW115824   1.048   1.484   1.956  0.2836 -1.5314 -0.1900
 4780SOL    HW215825   1.002   1.481   2.100  1.0144 -1.1329  0.0552
 4781SOL     OW15826   4.739   4.720   7.388  0.1645  0.1175 -0.2387
 4781SOL    HW115827   4.672   4.786   7.404 -1.1131 -1.5444  1.4445
 4781SOL    HW215828   4.787   4.713   7.471  2.1675  0.9587 -1.2782
 4782SOL     OW15829   0.411   0.494   4.743  0.3068  0.0175  0.1866
 4782SOL    HW115830   0.358   0.541   4.807 -0.6138  0.3083 -0.7858
 4782SOL    HW215831   0.388   0.402   4.755  0.6919 -0.0003  0.7859
 4783SOL     OW15832   4.177   1.755   6.858  0.1157  0.0216 -0.5796
 4783SOL    HW115833   4.271   1.768   6.867  0.2451 -0.6788 -0.8068
 4783SOL    HW215834   4.170   1.668   6.817 -0.6532 -0.4231  0.4716
 4784SOL     OW15835   2.362   6.776   6.954  0.4516  0.2344  0.2038
 4784SOL    HW115836   2.424   6.749   6.886 -0.8593 -0.4548 -0.7503
 4784SOL    HW215837   2.366   6.872   6.954  0.6248  0.2311 -0.7018
 4785SOL     OW15838   5.550   5.259   5.832 -0.1531  0.2651  0.1417
 4785SOL    HW115839   5.519   5.314   5.760  0.0471  0.7220  0.3984
 4785SOL    HW215840   5.560   5.172   5.794 -1.0372  0.2750 -0.1250
 4786SOL     OW15841   6.837   4.507   5.034 -0.1434  0.6406 -0.1009
 4786SOL    HW115842   6.747   4.527   5.059  0.1672  0.3358  1.3416
 4786SOL    HW215843   6.889   4.578   5.073  0.1709  1.2711 -1.6223
 4787SOL     OW15844   7.874   3.614   0.906 -0.0802  0.2844  0.4373
 4787SOL    HW115845   7.846   3.568   0.827  0.1040  0.4609  0.2673
 4787SOL    HW215846   7.857   3.552   0.977  1.0992 -0.4474  0.1023
 4788SOL     OW15847   0.038   2.497   6.978  0.2400  0.6627 -0.5046
 4788SOL    HW115848   0.069   2.443   7.051  1.4352  0.1460 -1.3820
 4788SOL    HW215849  -0.057   2.486   6.978  0.4143 -0.8906 -0.2372
 4789SOL     OW15850   6.122   3.344   8.075  0.2416  0.4369 -0.0402
 4789SOL    HW115851   6.104   3.404   8.002  1.6905 -0.5067 -1.2073
 4789SOL    HW215852   6.052   3.279   8.072 -0.5452  1.2602  0.3562
 4790SOL     OW15853   3.896   6.530   1.929 -0.6866 -0.9954  0.4684
 4790SOL    HW115854   3.916   6.455   1.872 -0.3409 -1.4064  1.1309
 4790SOL    HW215855   3.867   6.598   1.868  3.6293 -0.0404 -0.7344
 4791SOL     OW15856   0.492   2.872   3.062  0.6769  0.9357 -0.7439
 4791SOL    HW115857   0.398   2.891   3.064  0.4199 -0.2878 -0.8700
 4791SOL    HW215858   0.499   2.791   3.011  1.7430  0.7389 -0.2956
 4792SOL     OW15859   2.285   1.710   0.103  0.1399  0.1760  0.1927
 4792SOL    HW115860   2.206   1.692   0.053 -0.0879  1.2560  0.1434
 4792SOL    HW215861   2.311   1.798   0.076 -1.8955  2.2404  4.4163
 4793SOL     OW15862   5.071   0.819   0.396  0.1074  0.0835 -0.1252
 4793SOL    HW115863   4.992   0.773   0.367  0.4204 -0.2164 -0.5133
 4793SOL    HW215864   5.041   0.907   0.417 -0.0522  0.4760 -1.8866
 4794SOL     OW15865   2.403   1.378   3.529 -0.3399 -0.9574 -0.1657
 4794SOL    HW115866   2.372   1.346   3.613 -0.4759  0.3147  0.2769
 4794SOL    HW215867   2.488   1.419   3.549 -1.3433  1.2441 -0.2514
 4795SOL     OW15868   4.241   6.133   2.013  0.6225 -0.0266 -0.6138
 4795SOL    HW115869   4.231   6.219   2.054 -1.8727 -0.7553  0.3793
 4795SOL    HW215870   4.208   6.071   2.078  1.4497 -1.6614 -1.7107
 4796SOL     OW15871   6.512   2.476   6.815  0.3374 -0.1647 -0.1858
 4796SOL    HW115872   6.582   2.425   6.773  1.2270  1.2622 -0.4376
 4796SOL    HW215873   6.484   2.539   6.749  0.9672  1.3525  0.9630
 4797SOL     OW15874   6.293   6.850   2.130 -0.0891  0.2983  0.6452
 4797SOL    HW115875   6.251   6.881   2.050  1.3875  0.9358  0.0955
 4797SOL    HW215876   6.285   6.755   2.127 -2.3046  0.4585  1.0154
 4798SOL     OW15877   6.854   0.846   5.539  0.2949 -0.0605 -0.8018
 4798SOL    HW115878   6.864   0.931   5.497  2.1281  0.0972 -0.0830
 4798SOL    HW215879   6.789   0.861   5.608  2.7432  1.5216  1.2450
 4799SOL     OW15880   3.870   5.968   6.740 -0.5521 -0.9731  0.1526
 4799SOL    HW115881   3.839   5.930   6.822  2.4293  0.1972  1.8893
 4799SOL    HW215882   3.944   5.914   6.714 -2.3256 -2.2167 -2.6210
 4800SOL     OW15883   6.435   4.804   7.884  0.2773  0.2651 -0.2451
 4800SOL    HW115884   6.426   4.758   7.801 -1.2576  0.4054 -0.1620
 4800SOL    HW215885   6.472   4.889   7.860 -0.4998  0.4419 -0.8314
 4801SOL     OW15886   2.500   5.587   5.028  0.2150 -0.1202 -0.2970
 4801SOL    HW115887   2.405   5.585   5.033  0.1630  0.1986 -0.9888
 4801SOL    HW215888   2.521   5.537   4.949  0.5860  0.2773 -0.4542
 4802SOL     OW15889   7.070   2.512   2.523  0.4636  0.2646  0.9270
 4802SOL    HW115890   7.114   2.568   2.459  0.4923 -0.6071  0.1685
 4802SOL    HW215891   7.141   2.475   2.575  0.5267 -0.0300  0.6297
 4803SOL     OW15892   2.558   7.876   7.734  0.7022  0.0199 -0.1007
 4803SOL    HW115893   2.590   7.806   7.677  0.3553 -0.0397 -0.2212
 4803SOL    HW215894   2.593   7.854   7.820 -1.4347 -1.6634  0.3846
 4804SOL     OW15895   3.009   3.248   2.858 -0.3161  0.0503  0.0395
 4804SOL    HW115896   3.071   3.321   2.862 -0.6428  0.3868 -1.0212
 4804SOL    HW215897   3.064   3.170   2.862  0.1977  0.3454 -1.0798
 4805SOL     OW15898   7.080   7.010   6.867  0.3304 -0.1565  0.2784
 4805SOL    HW115899   7.029   7.074   6.917  3.7434  2.5616  0.4452
 4805SOL    HW215900   7.026   6.992   6.790 -1.0243  2.4247  0.5754
 4806SOL     OW15901   1.666   4.181   1.054 -0.0873  0.5158 -0.0350
 4806SOL    HW115902   1.680   4.099   1.006  0.2576  1.3962 -1.4814
 4806SOL    HW215903   1.576   4.176   1.086  0.2916 -0.9018  0.8304
 4807SOL     OW15904   1.621   5.664   5.389 -0.2162  0.4087  0.3203
 4807SOL    HW115905   1.617   5.607   5.465 -0.8429  1.7027  1.2698
 4807SOL    HW215906   1.620   5.752   5.424 -1.3746  1.0435 -1.2128
 4808SOL     OW15907   5.423   2.025   3.514  0.1424 -0.2856  0.0580
 4808SOL    HW115908   5.329   2.024   3.535 -0.2604 -0.1443 -1.6704
 4808SOL    HW215909   5.441   2.115   3.487  0.4499 -0.6617 -1.0179
 4809SOL     OW15910   3.484   2.047   2.371 -0.0918 -0.0429 -0.0121
 4809SOL    HW115911   3.550   2.115   2.381  1.1613 -1.0762 -1.0472
 4809SOL    HW215912   3.424   2.082   2.305 -1.5034  1.5714  2.0693
 4810SOL     OW15913   0.461   2.950   2.580  0.2483  0.4245 -0.4664
 4810SOL    HW115914   0.516   2.911   2.512  0.8215  1.3951 -0.5771
 4810SOL    HW215915   0.523   2.996   2.637 -0.2834  0.0967  0.3917
 4811SOL     OW15916   6.297   1.041   3.750  0.2602  0.6377  0.5766
 4811SOL    HW115917   6.366   1.042   3.684 -0.1077 -0.1432  0.1851
 4811SOL    HW215918   6.343   1.058   3.832  0.8358  0.7294  0.2381
 4812SOL     OW15919   3.602   1.106   6.131 -0.1490  0.0505 -0.0932
 4812SOL    HW115920   3.526   1.082   6.185 -0.0847  0.1187  0.0289
 4812SOL    HW215921   3.670   1.127   6.195 -0.4662  1.4043 -0.1800
 4813SOL     OW15922   2.214   2.722   3.775 -0.0095 -0.5298 -0.1465
 4813SOL    HW115923   2.163   2.800   3.753 -0.5929 -0.7567  0.3915
 4813SOL    HW215924   2.227   2.727   3.869  1.8053  0.0254 -0.3972
 4814SOL     OW15925   7.613   7.571   3.264  0.0476 -0.2430  0.1290
 4814SOL    HW115926   7.707   7.588   3.249 -0.1314 -0.6157 -1.5038
 4814SOL    HW215927   7.586   7.520   3.188 -1.2685 -0.9904  1.0925
 4815SOL     OW15928   3.858   7.803   3.257  0.0576 -0.5433 -0.2051
 4815SOL    HW115929   3.913   7.847   3.321 -1.2233 -1.0355  1.2865
 4815SOL    HW215930   3.913   7.792   3.180  1.4177  0.6607  0.5876
 4816SOL     OW15931   1.091   3.902   0.353  0.4312 -0.0147 -0.1255
 4816SOL    HW115932   1.090   3.983   0.303 -1.5739 -0.3173 -0.5915
 4816SOL    HW215933   1.037   3.920   0.430  0.2648 -0.8069 -0.0533
 4817SOL     OW15934   8.162   5.071   0.150  0.0308 -0.2391  0.4928
 4817SOL    HW115935   8.200   5.102   0.069  2.7184  0.1788  1.8449
 4817SOL    HW215936   8.156   4.976   0.139 -0.7126 -0.0685 -0.6126
 4818SOL     OW15937   5.359   2.974   5.911 -0.3150 -0.4622 -0.1773
 4818SOL    HW115938   5.409   3.054   5.899 -1.3117  0.2155  0.0932
 4818SOL    HW215939   5.368   2.953   6.004 -0.1825 -0.5771 -0.2163
 4819SOL     OW15940   7.817   2.608   6.401 -0.5954 -0.0067 -0.3258
 4819SOL    HW115941   7.789   2.525   6.363  0.4271 -0.0947 -0.9030
 4819SOL    HW215942   7.749   2.670   6.374 -1.2347 -0.6064 -0.0958
 4820SOL     OW15943   1.515   4.156   1.949  0.8288 -0.3431 -0.2256
 4820SOL    HW115944   1.518   4.211   2.028  1.1287  0.3162 -0.6884
 4820SOL    HW215945   1.508   4.067   1.982 -1.1183  0.0758  0.5186
 4821SOL     OW15946   7.898   6.816   3.310  0.1682  0.2109 -0.1274
 4821SOL    HW115947   7.849   6.789   3.387 -0.8832  0.6224 -0.6341
 4821SOL    HW215948   7.853   6.773   3.237  0.5464  0.6139 -0.6030
 4822SOL     OW15949   0.265   1.548   1.134 -0.1643  0.6024  0.3200
 4822SOL    HW115950   0.197   1.533   1.200 -1.5870  3.4466 -0.4046
 4822SOL    HW215951   0.333   1.597   1.180 -0.9975  2.2773 -0.1786
 4823SOL     OW15952   5.346   5.919   4.664 -0.2463 -0.2866  0.3600
 4823SOL    HW115953   5.306   5.969   4.735 -0.5098 -0.7862  0.5637
 4823SOL    HW215954   5.420   5.973   4.635 -2.0906  1.4740 -1.1885
 4824SOL     OW15955   1.087   5.896   5.762 -0.2276  0.1724  0.3965
 4824SOL    HW115956   1.058   5.805   5.760 -2.3330  0.8443 -0.4681
 4824SOL    HW215957   1.066   5.925   5.851  1.3274 -0.4319  0.9883
 4825SOL     OW15958   6.302   6.410   4.924 -0.2902  0.7427  0.2448
 4825SOL    HW115959   6.224   6.360   4.946  0.2183 -0.1994 -0.0559
 4825SOL    HW215960   6.305   6.408   4.828  1.0639 -0.7677  0.2827
 4826SOL     OW15961   1.164   3.582   7.863  0.1400 -0.1287  0.4774
 4826SOL    HW115962   1.127   3.538   7.787 -0.4879  2.1843 -0.6174
 4826SOL    HW215963   1.258   3.563   7.859 -0.3849 -3.0146  1.2083
 4827SOL     OW15964   0.635   4.897   2.479  0.2307 -0.2035  0.3090
 4827SOL    HW115965   0.592   4.822   2.521  2.0230 -1.4888 -0.1265
 4827SOL    HW215966   0.718   4.862   2.446  0.0996  1.4313 -1.8805
 4828SOL     OW15967   3.205   6.747   0.825  0.5140 -0.0924  0.3395
 4828SOL    HW115968   3.161   6.764   0.909  0.2796  1.0748 -0.0170
 4828SOL    HW215969   3.296   6.769   0.841  0.5434 -0.2563  0.4002
 4829SOL     OW15970   2.221   7.459   4.488 -0.0046 -0.2407  0.1431
 4829SOL    HW115971   2.259   7.374   4.467  0.3849 -0.2278  0.7875
 4829SOL    HW215972   2.135   7.438   4.525 -0.9601 -0.2334 -2.0150
 4830SOL     OW15973   2.750   1.944   2.662  0.5903 -0.4457 -0.3371
 4830SOL    HW115974   2.782   1.889   2.733 -1.4403 -0.6945  0.4230
 4830SOL    HW215975   2.818   2.010   2.649  1.1702 -0.6583  1.5524
 4831SOL     OW15976   7.535   3.540   4.244 -0.0733  0.2152 -0.3056
 4831SOL    HW115977   7.555   3.472   4.180 -0.2171  2.0397 -2.3249
 4831SOL    HW215978   7.439   3.542   4.248 -0.2372  3.1897 -3.5167
 4832SOL     OW15979   2.242   5.884   0.775  0.4048 -0.1625 -0.2704
 4832SOL    HW115980   2.202   5.857   0.858 -1.2539  0.3218 -0.8917
 4832SOL    HW215981   2.323   5.834   0.770 -0.2908 -1.4247  0.8593
 4833SOL     OW15982   0.097   3.894   0.544  0.3327  0.1428  0.2489
 4833SOL    HW115983   0.022   3.851   0.584  1.0092 -1.2624  0.0127
 4833SOL    HW215984   0.071   3.910   0.453 -0.4623  1.5678  0.7108
 4834SOL     OW15985   1.859   2.463   3.767 -0.2468 -0.8022  0.1986
 4834SOL    HW115986   1.780   2.474   3.821 -0.7980  0.1386 -0.7771
 4834SOL    HW215987   1.845   2.522   3.693  0.7997 -1.5924 -0.6367
 4835SOL     OW15988   4.813   0.300   1.122 -0.1103 -0.2534  0.0809
 4835SOL    HW115989   4.789   0.345   1.041  2.0957 -2.3785 -1.8442
 4835SOL    HW215990   4.731   0.265   1.156 -1.2830  1.9754 -0.4069
 4836SOL     OW15991   1.513   0.116   0.160 -0.1489  0.0244  0.1630
 4836SOL    HW115992   1.462   0.149   0.085  0.1867 -0.8375 -0.4535
 4836SOL    HW215993   1.447   0.090   0.224 -0.4632  0.1166 -0.1187
 4837SOL     OW15994   7.767   1.245   6.942  0.2575 -0.0627 -0.2634
 4837SOL    HW115995   7.861   1.227   6.941 -0.1006 -2.1451  1.0009
 4837SOL    HW215996   7.739   1.235   6.851  1.2938  0.9216 -0.7053
 4838SOL     OW15997   0.603   7.580   2.925 -0.2103 -0.8778 -0.2906
 4838SOL    HW115998   0.523   7.547   2.883 -0.1018 -0.8716 -0.5003
 4838SOL    HW215999   0.597   7.549   3.015 -1.3733  0.6836  0.1997
 4839SOL     OW16000   6.956   5.643   0.523  0.2312 -0.0342 -0.2836
 4839SOL    HW116001   6.936   5.687   0.440  1.4881  1.3401  0.0981
 4839SOL    HW216002   6.992   5.558   0.498  1.5263  0.7624 -1.2117
 4840SOL     OW16003   0.055   5.175   2.304 -0.3562 -0.9373 -0.0598
 4840SOL    HW116004  -0.025   5.206   2.263 -0.1484  0.3789  0.5153
 4840SOL    HW216005   0.045   5.197   2.396 -0.2287 -2.6504  0.3793
 4841SOL     OW16006   6.061   6.459   7.505  1.0950  0.0094  0.3785
 4841SOL    HW116007   6.097   6.406   7.434  2.9549 -0.4158  1.5929
 4841SOL    HW216008   6.133   6.516   7.531 -0.0486  1.2563  0.8815
 4842SOL     OW16009   3.472   0.147   3.343  0.2041 -0.1894  0.2960
 4842SOL    HW116010   3.506   0.084   3.407  0.2306  0.0947  0.5573
 4842SOL    HW216011   3.394   0.103   3.307  1.3719 -1.2424 -0.9844
 4843SOL     OW16012   4.413   1.515   5.338 -0.4105  0.0782  0.4007
 4843SOL    HW116013   4.438   1.532   5.247 -0.4109  0.4008  0.4599
 4843SOL    HW216014   4.317   1.512   5.336 -0.3883 -0.4948  0.2882
 4844SOL     OW16015   7.175   5.021   0.995 -0.4336 -0.0261 -0.3081
 4844SOL    HW116016   7.168   5.114   0.973 -3.4645 -0.6227 -2.1474
 4844SOL    HW216017   7.269   5.005   0.999  0.1533  3.0812 -0.0884
 4845SOL     OW16018   2.136   0.983   6.716  0.3018 -0.1483  0.0680
 4845SOL    HW116019   2.169   0.910   6.665 -0.0314 -0.1492 -0.1436
 4845SOL    HW216020   2.195   0.988   6.791 -0.5171 -1.5340  0.8305
 4846SOL     OW16021   8.144   6.363   7.007 -0.5336  0.1501  0.0059
 4846SOL    HW116022   8.131   6.299   6.937  1.4160 -0.3060  0.0094
 4846SOL    HW216023   8.191   6.435   6.965  1.0473 -0.3249  0.9140
 4847SOL     OW16024   5.056   6.860   7.389  0.3332  0.5461 -0.0271
 4847SOL    HW116025   5.007   6.942   7.386 -1.8955 -0.6518  1.6762
 4847SOL    HW216026   5.091   6.857   7.478  0.1246 -0.4985  0.0200
 4848SOL     OW16027   7.425   6.838   2.671  0.1822  0.3027  0.1026
 4848SOL    HW116028   7.519   6.855   2.681  0.0617  0.3588  1.1213
 4848SOL    HW216029   7.408   6.855   2.578  1.0907  0.7497  0.0116
 4849SOL     OW16030   1.002   2.925   0.873  0.2135 -0.3717 -0.0561
 4849SOL    HW116031   1.049   2.841   0.865 -1.1578 -1.3028  1.5929
 4849SOL    HW216032   1.052   2.984   0.816  2.7384 -1.6226  0.7538
 4850SOL     OW16033   2.106   7.026   4.167 -0.0487 -0.0569  0.4623
 4850SOL    HW116034   2.173   6.963   4.143  0.7367  0.7565  0.4871
 4850SOL    HW216035   2.148   7.111   4.156 -1.1694  0.4750  0.1875
 4851SOL     OW16036   1.452   1.577   7.154  0.0234  0.6658 -0.0308
 4851SOL    HW116037   1.409   1.641   7.097 -2.0798 -1.7380 -1.2221
 4851SOL    HW216038   1.521   1.539   7.100 -0.9106 -0.4499 -0.4474
 4852SOL     OW16039   2.848   4.987   6.915  0.1716  0.4657  0.2859
 4852SOL    HW116040   2.935   5.007   6.883 -0.2308 -1.0107 -1.8154
 4852SOL    HW216041   2.798   4.962   6.837 -2.0397  0.9755  1.4850
 4853SOL     OW16042   0.518   2.276   3.849 -0.0202  0.6816 -0.0121
 4853SOL    HW116043   0.614   2.284   3.849  0.0573 -0.1924 -1.6205
 4853SOL    HW216044   0.499   2.217   3.922  0.7293  0.0761 -0.3046
 4854SOL     OW16045   7.391   2.847   4.756 -0.1292 -0.5434  0.7571
 4854SOL    HW116046   7.452   2.842   4.683 -0.6712  1.5581  0.1137
 4854SOL    HW216047   7.328   2.777   4.740  0.8325 -1.3031  0.2442
 4855SOL     OW16048   2.600   0.823   1.233 -0.1222  0.0032  0.3046
 4855SOL    HW116049   2.563   0.847   1.318 -0.6538 -1.8411  0.6122
 4855SOL    HW216050   2.534   0.767   1.193 -0.0848  1.2220 -1.5544
 4856SOL     OW16051   6.117   5.523   5.535 -0.1982 -0.3701  0.1219
 4856SOL    HW116052   6.061   5.466   5.482 -1.8312 -1.2266  2.6544
 4856SOL    HW216053   6.063   5.600   5.553  1.0155  0.7696 -0.9831
 4857SOL     OW16054   3.205   4.730   0.535  0.0983  0.3967 -0.1696
 4857SOL    HW116055   3.272   4.782   0.491 -0.6331  0.4472 -1.2362
 4857SOL    HW216056   3.232   4.729   0.627  1.4456  0.5844 -0.5574
 4858SOL     OW16057   4.907   1.762   7.261 -0.0920 -0.2254  0.1348
 4858SOL    HW116058   4.830   1.800   7.219 -0.1053 -0.7680 -0.3292
 4858SOL    HW216059   4.915   1.810   7.344 -0.2998  0.5696 -0.2957
 4859SOL     OW16060   0.522   2.208   5.829  0.4866  0.5624  0.4395
 4859SOL    HW116061   0.596   2.219   5.770  1.4035  0.1800  1.4884
 4859SOL    HW216062   0.562   2.205   5.916 -0.8907  1.8558  1.1418
 4860SOL     OW16063   0.039   4.990   4.483 -0.4640  0.0278  0.2189
 4860SOL    HW116064   0.081   5.019   4.402 -0.1872  0.0820  0.3795
 4860SOL    HW216065   0.047   4.895   4.481 -0.0220  0.0592  0.4136
 4861SOL     OW16066   5.231   0.564   5.220  0.1051  0.3935 -0.1161
 4861SOL    HW116067   5.207   0.543   5.310  0.9418 -2.2926 -0.4725
 4861SOL    HW216068   5.148   0.588   5.178 -0.2624  1.7851  1.3780
 4862SOL     OW16069   6.526   7.834   3.782 -0.1570 -0.5656 -0.5667
 4862SOL    HW116070   6.447   7.782   3.794  0.3113 -0.7312  2.3068
 4862SOL    HW216071   6.596   7.780   3.819  0.4464  1.6717  1.7582
 4863SOL     OW16072   7.907   1.198   5.794 -0.0011  0.4401  0.3320
 4863SOL    HW116073   7.914   1.237   5.882 -1.8791  0.6973  0.3989
 4863SOL    HW216074   7.927   1.270   5.735  0.3257  0.5220  0.5410
 4864SOL     OW16075   3.908   5.153   0.937 -0.3897 -0.7702  0.2737
 4864SOL    HW116076   3.844   5.220   0.960 -1.8799 -1.4485 -1.7733
 4864SOL    HW216077   3.939   5.178   0.850  0.5910 -1.5893  0.3736
 4865SOL     OW16078   4.438   1.463   6.084 -0.7203  0.2234 -0.1002
 4865SOL    HW116079   4.456   1.478   6.177 -0.3397 -2.4900  0.3089
 4865SOL    HW216080   4.345   1.484   6.074 -0.8536  0.1516  0.9602
 4866SOL     OW16081   2.872   6.628   0.239  0.9875  0.0941  0.7360
 4866SOL    HW116082   2.871   6.672   0.324 -1.4069  1.0963  0.2307
 4866SOL    HW216083   2.885   6.699   0.176 -1.0830 -0.1327  0.0285
 4867SOL     OW16084   1.000   4.063   7.893 -0.1035 -0.0924  0.6164
 4867SOL    HW116085   0.993   3.969   7.910 -0.8669  0.0307  1.0153
 4867SOL    HW216086   1.052   4.097   7.967  0.4290 -0.2404  0.3149
 4868SOL     OW16087   6.964   2.063   6.784 -0.6260  0.1970 -0.1579
 4868SOL    HW116088   7.014   2.031   6.860  0.4607  0.1870 -0.8715
 4868SOL    HW216089   7.020   2.046   6.709 -1.9375 -0.2854 -1.0436
 4869SOL     OW16090   5.453   0.666   0.297 -0.1872 -0.0528 -0.5388
 4869SOL    HW116091   5.533   0.681   0.247  0.9234 -2.8027  0.3175
 4869SOL    HW216092   5.478   0.604   0.366 -2.6965  0.2177  0.7019
 4870SOL     OW16093   5.232   6.396   2.930 -0.0318  0.1439  0.2489
 4870SOL    HW116094   5.262   6.310   2.960 -0.4284  0.2387  0.9370
 4870SOL    HW216095   5.223   6.386   2.836 -0.8081 -0.8073  0.4101
 4871SOL     OW16096   5.198   7.738   2.887  0.2171  0.1840  0.4187
 4871SOL    HW116097   5.122   7.690   2.917  0.3466  0.7216  1.6680
 4871SOL    HW216098   5.163   7.807   2.830 -0.1705  0.0430  0.4904
 4872SOL     OW16099   2.489   4.632   1.481  0.2044  0.1901  0.3536
 4872SOL    HW116100   2.450   4.687   1.550 -1.6313  0.1307 -0.6094
 4872SOL    HW216101   2.581   4.659   1.479 -0.3789  2.3435  0.7634
 4873SOL     OW16102   0.138   6.372   7.101 -0.0926 -0.3145  0.1609
 4873SOL    HW116103   0.091   6.454   7.089  2.5980  1.5814  1.9339
 4873SOL    HW216104   0.186   6.359   7.019 -0.0116  0.2448  0.1181
 4874SOL     OW16105   5.393   5.780   7.095 -0.3079 -0.1018 -0.0757
 4874SOL    HW116106   5.486   5.800   7.106 -0.4934  1.6016 -1.3324
 4874SOL    HW216107   5.349   5.851   7.143 -0.9717 -1.0136  0.6808
 4875SOL     OW16108   0.024   0.677   1.444  0.4706 -0.3070 -0.0727
 4875SOL    HW116109   0.080   0.695   1.369 -1.5105  1.6571 -1.1330
 4875SOL    HW216110  -0.008   0.588   1.430  2.1268 -0.8912 -0.2105
 4876SOL     OW16111   1.348   5.045   7.616 -0.0147 -0.0343  0.0829
 4876SOL    HW116112   1.294   5.007   7.547 -1.1062  2.6890 -0.6165
 4876SOL    HW216113   1.320   4.999   7.696 -0.7737 -1.1892 -0.8224
 4877SOL     OW16114   0.510   6.560   4.089  0.4618 -0.1244 -0.1742
 4877SOL    HW116115   0.432   6.585   4.138 -0.0503  0.0987 -1.0928
 4877SOL    HW216116   0.496   6.469   4.065  0.5470 -0.1285 -0.2136
 4878SOL     OW16117   3.381   8.218   1.948 -0.0491 -0.0304  0.5260
 4878SOL    HW116118   3.320   8.292   1.953 -1.0983 -0.5641 -2.7795
 4878SOL    HW216119   3.327   8.142   1.970  0.5895 -0.0435  2.1244
 4879SOL     OW16120   0.767   5.990   5.972 -0.3765 -0.0223 -0.0649
 4879SOL    HW116121   0.852   5.999   6.015  0.3914  4.1692 -2.1938
 4879SOL    HW216122   0.706   6.032   6.031  0.1293  2.6439 -1.3566
 4880SOL     OW16123   4.834   6.934   3.117  0.3196  0.5136 -0.5183
 4880SOL    HW116124   4.816   6.864   3.054  1.1767 -0.5345  0.3803
 4880SOL    HW216125   4.839   7.013   3.064 -0.6946 -0.1032 -1.5503
 4881SOL     OW16126   7.665   1.226   1.615  0.6250 -0.3143  0.1383
 4881SOL    HW116127   7.723   1.269   1.678  0.1086  0.5479  0.0228
 4881SOL    HW216128   7.667   1.283   1.538  0.9178 -1.1429 -0.4736
 4882SOL     OW16129   4.524   2.026   0.004 -0.0499  0.2939 -0.3430
 4882SOL    HW116130   4.557   2.065  -0.077  0.3544  0.3012 -0.1790
 4882SOL    HW216131   4.514   1.933  -0.016  0.7566  0.1637 -0.1896
 4883SOL     OW16132   3.239   6.627   7.964 -0.0692 -0.0741 -0.4254
 4883SOL    HW116133   3.257   6.578   8.044 -3.1912 -0.5126  0.0597
 4883SOL    HW216134   3.272   6.569   7.894 -0.2282 -1.1270  0.3493
 4884SOL     OW16135   5.692   1.199   6.337 -0.0544 -0.2034  0.4022
 4884SOL    HW116136   5.785   1.214   6.318 -0.2104  0.6639  0.3174
 4884SOL    HW216137   5.692   1.131   6.405  0.6556  0.1550  0.7616
 4885SOL     OW16138   6.811   8.312   3.225 -0.2451  0.5126  0.1170
 4885SOL    HW116139   6.854   8.230   3.252 -1.7813 -0.9021 -1.5872
 4885SOL    HW216140   6.741   8.324   3.289 -1.8559 -1.1177 -1.2740
 4886SOL     OW16141   1.788   4.221   2.751 -0.3479 -0.3885 -0.0955
 4886SOL    HW116142   1.729   4.162   2.704  0.1628 -1.1005  0.1449
 4886SOL    HW216143   1.851   4.249   2.686 -0.1425 -0.7055 -0.0328
 4887SOL     OW16144   1.409   6.725   1.878  0.0136  0.3008  0.0120
 4887SOL    HW116145   1.388   6.799   1.936 -0.7703 -1.0532  1.4805
 4887SOL    HW216146   1.325   6.702   1.838  0.3080  0.3419 -0.6389
 4888SOL     OW16147   0.202   8.291   1.889 -0.0573 -0.5655  0.5442
 4888SOL    HW116148   0.222   8.376   1.851  2.9953 -1.0662  0.9316
 4888SOL    HW216149   0.166   8.311   1.976 -0.7645  0.3442  0.0520
 4889SOL     OW16150   2.045   4.844   5.879 -0.0829  0.5174  0.0475
 4889SOL    HW116151   2.006   4.848   5.967  0.1044 -2.1676  0.2874
 4889SOL    HW216152   2.138   4.861   5.894  0.1788 -1.3059  0.5701
 4890SOL     OW16153   5.696   0.524   1.737  0.5654 -0.1825  0.5605
 4890SOL    HW116154   5.621   0.466   1.750  0.7765 -0.5730  0.0375
 4890SOL    HW216155   5.656   0.612   1.731  0.3028 -0.1983  1.8975
 4891SOL     OW16156   7.512   4.533   4.748 -0.1376  0.0548  0.3051
 4891SOL    HW116157   7.558   4.475   4.687  0.2188  2.7590 -2.1049
 4891SOL    HW216158   7.495   4.613   4.698 -2.0791  1.4400  3.0125
 4892SOL     OW16159   3.602   6.112   4.941  0.4545  0.2448 -0.7276
 4892SOL    HW116160   3.581   6.019   4.929  0.2066  0.2286 -0.1780
 4892SOL    HW216161   3.518   6.156   4.941  0.5953  0.5188 -1.3623
 4893SOL     OW16162   1.140   6.038   5.219 -0.4563  0.0567 -0.5239
 4893SOL    HW116163   1.215   6.027   5.276 -0.1648  0.8617 -0.7483
 4893SOL    HW216164   1.068   5.994   5.265 -0.3512  1.1303  0.7136
 4894SOL     OW16165   4.329   4.643   7.423  0.0823 -0.0848 -0.1925
 4894SOL    HW116166   4.255   4.644   7.362  0.4587  1.9008 -0.6632
 4894SOL    HW216167   4.406   4.650   7.367  0.6296 -1.8682  0.3192
 4895SOL     OW16168   7.126   3.279   6.575 -0.0811  0.4729 -0.8945
 4895SOL    HW116169   7.058   3.282   6.508  0.5499  1.1689 -1.5110
 4895SOL    HW216170   7.146   3.371   6.593 -0.6956  0.2996  0.7056
 4896SOL     OW16171   3.197   0.783   0.901  1.0707  0.9385 -0.3868
 4896SOL    HW116172   3.212   0.872   0.867 -2.5093  1.7653 -0.0241
 4896SOL    HW216173   3.110   0.787   0.940  1.2251 -2.5265  0.4459
 4897SOL     OW16174   0.277   2.799   2.768  0.2882 -0.1905  0.2915
 4897SOL    HW116175   0.308   2.844   2.689 -2.4648 -0.3309 -0.9342
 4897SOL    HW216176   0.318   2.846   2.840  1.6127  0.9528 -1.1705
 4898SOL     OW16177   1.201   1.974   1.157 -0.2341  0.7716  0.4016
 4898SOL    HW116178   1.290   2.005   1.141 -0.0128 -0.3965 -0.7212
 4898SOL    HW216179   1.210   1.879   1.167 -1.5101  0.4635 -1.0489
 4899SOL     OW16180   2.661   5.780   7.584 -0.3212 -0.6004  0.1006
 4899SOL    HW116181   2.614   5.803   7.664  0.8126  0.8727  0.3589
 4899SOL    HW216182   2.740   5.736   7.614  2.9808  4.8972  0.1830
 4900SOL     OW16183   7.020   4.940   5.423 -0.3137 -0.1616 -0.3954
 4900SOL    HW116184   7.046   5.028   5.450  0.2489 -0.7013  0.8665
 4900SOL    HW216185   7.085   4.914   5.358  0.6078 -0.3476  0.5826
 4901SOL     OW16186   0.784   7.258   0.390 -0.5445  0.0818  0.0765
 4901SOL    HW116187   0.719   7.309   0.438 -0.7303  0.1509 -0.2558
 4901SOL    HW216188   0.735   7.185   0.353 -0.1676 -0.7030  1.0903
 4902SOL     OW16189   4.496   5.078   3.240  0.0811 -0.0900 -0.5683
 4902SOL    HW116190   4.561   5.138   3.203 -1.7452  0.8978 -2.2831
 4902SOL    HW216191   4.523   5.067   3.331  2.9919 -0.1993 -1.3909
 4903SOL     OW16192   4.954   2.776   2.683 -0.1455  0.1177  0.4887
 4903SOL    HW116193   4.967   2.789   2.777  1.9566 -0.0129  0.2325
 4903SOL    HW216194   4.967   2.863   2.645  0.8800 -0.1856  0.1332
 4904SOL     OW16195   8.022   5.173   5.727  0.2175  0.2552 -0.3770
 4904SOL    HW116196   8.112   5.167   5.695  0.0246 -2.6227 -0.5609
 4904SOL    HW216197   8.026   5.140   5.816 -0.6201  0.2402 -0.3382
 4905SOL     OW16198   6.199   7.532   2.468 -0.1128  0.0018  0.0176
 4905SOL    HW116199   6.154   7.551   2.385 -0.6285 -1.0737  0.0407
 4905SOL    HW216200   6.173   7.604   2.525  1.4107  1.5387 -1.1740
 4906SOL     OW16201   7.188   2.441   1.428  0.3749  0.5172  0.0668
 4906SOL    HW116202   7.187   2.426   1.333 -0.6464  0.1733  0.1234
 4906SOL    HW216203   7.178   2.536   1.437  0.9937  0.6062 -0.1789
 4907SOL     OW16204   5.756   0.361   5.234 -0.8263  0.1307 -0.1979
 4907SOL    HW116205   5.838   0.400   5.262  0.2250  0.1316 -3.1095
 4907SOL    HW216206   5.697   0.435   5.221 -1.3950  0.1173  2.0744
 4908SOL     OW16207   5.788   8.196   4.479 -0.1744 -0.2205 -0.5368
 4908SOL    HW116208   5.760   8.145   4.403  0.3667  1.1268 -1.6640
 4908SOL    HW216209   5.883   8.195   4.475 -0.1537  0.8365 -0.5607
 4909SOL     OW16210   2.058   3.442   2.622 -0.0067  0.2423  0.2686
 4909SOL    HW116211   2.069   3.427   2.528 -0.1608  0.1466  0.2669
 4909SOL    HW216212   2.096   3.365   2.664 -1.1088 -0.3100  0.2491
 4910SOL     OW16213   6.137   1.079   7.636  0.0433  0.0788 -0.0633
 4910SOL    HW116214   6.159   1.172   7.630  0.7235  0.0016  1.1830
 4910SOL    HW216215   6.214   1.033   7.603 -0.1837 -0.0522 -0.4152
 4911SOL     OW16216   6.105   5.482   6.828  0.5353  0.0248 -0.2692
 4911SOL    HW116217   6.145   5.567   6.814  0.3018 -0.0791 -1.6163
 4911SOL    HW216218   6.051   5.493   6.907  1.7015  0.6826  0.4464
 4912SOL     OW16219   1.944   4.194   2.292 -0.1292 -0.1804 -0.6362
 4912SOL    HW116220   1.976   4.260   2.232 -0.5899  0.3389 -0.3146
 4912SOL    HW216221   1.868   4.155   2.247 -0.1585 -0.1497 -0.6128
 4913SOL     OW16222   1.465   5.278   0.173 -0.5920  0.0236 -0.6305
 4913SOL    HW116223   1.462   5.312   0.262 -0.4652 -0.7726 -0.3121
 4913SOL    HW216224   1.537   5.326   0.131  0.2992 -0.6338  0.1436
 4914SOL     OW16225   0.991   5.727   1.582 -0.2819  0.1476  0.1298
 4914SOL    HW116226   1.065   5.760   1.633 -0.1483  0.1180 -0.0443
 4914SOL    HW216227   0.936   5.682   1.646  0.1348 -0.3161  0.1648
 4915SOL     OW16228   1.166   3.404   8.082  0.1611  0.4324  0.2617
 4915SOL    HW116229   1.144   3.475   8.022  0.9264 -0.1606 -0.7251
 4915SOL    HW216230   1.089   3.396   8.138 -1.0590  0.2138 -1.3954
 4916SOL     OW16231   3.983   0.429   2.278 -0.1660 -0.2659 -0.0975
 4916SOL    HW116232   4.050   0.477   2.327 -1.1891  1.1321 -0.0239
 4916SOL    HW216233   3.917   0.495   2.258 -1.5350 -1.6204 -0.1333
 4917SOL     OW16234   0.330   5.480   0.448 -0.0831 -0.1356  0.3430
 4917SOL    HW116235   0.395   5.537   0.490 -0.1365 -0.5824  1.0382
 4917SOL    HW216236   0.253   5.535   0.437  0.1014  0.1300  0.3570
 4918SOL     OW16237   5.176   6.903   4.830  0.3347  0.4531  0.2336
 4918SOL    HW116238   5.240   6.973   4.838  1.6213 -0.7938  1.1542
 4918SOL    HW216239   5.225   6.823   4.851 -0.8873 -0.8220 -1.5966
 4919SOL     OW16240   1.894   0.399   0.102 -0.0622 -0.2756 -0.0313
 4919SOL    HW116241   1.933   0.360   0.024 -1.2086  0.0226 -0.7705
 4919SOL    HW216242   1.799   0.393   0.086 -0.3089 -0.5116  1.4816
 4920SOL     OW16243   2.274   1.311   5.016  1.0245  0.0801  0.4490
 4920SOL    HW116244   2.192   1.313   5.065  1.4761  0.4321  1.1994
 4920SOL    HW216245   2.342   1.319   5.083  1.6362  1.0865 -0.2728
 4921SOL     OW16246   3.764   2.743   7.313  0.3230  1.1565  0.0476
 4921SOL    HW116247   3.803   2.819   7.357 -0.5660  1.0681  1.0003
 4921SOL    HW216248   3.696   2.780   7.257  0.4486  1.1298 -0.1247
 4922SOL     OW16249   7.903   1.146   7.696  0.1814  0.2054  0.1791
 4922SOL    HW116250   7.894   1.241   7.697 -0.8995  0.1206  2.7661
 4922SOL    HW216251   7.819   1.114   7.664 -0.5361  0.0802  2.0957
 4923SOL     OW16252   3.230   3.927   1.429  0.3329 -0.2550  0.3915
 4923SOL    HW116253   3.279   3.845   1.423  0.2291 -0.3390  0.6981
 4923SOL    HW216254   3.139   3.899   1.442  0.2033 -0.1003 -0.1665
 4924SOL     OW16255   3.490   2.454   3.490  0.7228 -0.1447 -0.0112
 4924SOL    HW116256   3.535   2.468   3.574  2.4534 -2.3632 -0.5125
 4924SOL    HW216257   3.536   2.511   3.429  0.3017  0.5137  0.2854
 4925SOL     OW16258   5.441   3.198   4.506  0.0569  0.6648 -0.1986
 4925SOL    HW116259   5.517   3.174   4.455  0.4902 -0.8237  1.0993
 4925SOL    HW216260   5.406   3.115   4.538 -2.6613  1.2368 -1.5104
 4926SOL     OW16261   6.041   7.607   5.416 -0.4076  0.0963 -0.4739
 4926SOL    HW116262   6.117   7.567   5.373  1.6768  2.7842  0.5163
 4926SOL    HW216263   5.995   7.653   5.346 -0.7095 -0.9491 -0.9623
 4927SOL     OW16264   5.697   1.594   5.512  0.2063 -0.2241 -0.1724
 4927SOL    HW116265   5.770   1.568   5.568  0.2309  2.2978  1.0255
 4927SOL    HW216266   5.624   1.607   5.572 -0.6564 -0.6125 -1.1129
 4928SOL     OW16267   1.400   2.912   0.008 -0.1816  0.0238  0.1719
 4928SOL    HW116268   1.377   2.865  -0.072 -1.2929 -0.0360  0.5267
 4928SOL    HW216269   1.316   2.935   0.048  0.3322 -1.3403  2.1523
 4929SOL     OW16270   6.399   2.417   7.097 -0.9691 -0.0432 -0.0362
 4929SOL    HW116271   6.418   2.454   7.011  1.6913 -2.6105 -0.6056
 4929SOL    HW216272   6.337   2.347   7.079 -0.7392 -0.3057  0.2063
 4930SOL     OW16273   3.648   2.192   6.918 -0.1092 -0.5618 -0.3129
 4930SOL    HW116274   3.638   2.099   6.900 -2.1215 -0.4755  0.2342
 4930SOL    HW216275   3.658   2.198   7.013  0.9539 -0.2821 -0.4352
 4931SOL     OW16276   1.468   4.673   7.057  0.0742  0.5718  0.1042
 4931SOL    HW116277   1.553   4.654   7.015 -0.2229 -1.0054  0.1745
 4931SOL    HW216278   1.420   4.723   6.991  0.8502  0.9557 -0.1732
 4932SOL     OW16279   7.639   8.149   5.688  0.0638  0.2308 -0.2261
 4932SOL    HW116280   7.706   8.093   5.726 -0.0766  0.6629  0.6686
 4932SOL    HW216281   7.557   8.101   5.701 -0.2731  1.3134  1.9665
 4933SOL     OW16282   6.324   6.606   1.431 -0.2234  0.4194  0.1784
 4933SOL    HW116283   6.381   6.636   1.502  0.8878 -3.4197  1.0338
 4933SOL    HW216284   6.238   6.597   1.473  0.1463 -0.5968  0.7449
 4934SOL     OW16285   6.380   8.084   4.298  0.3091  0.3942 -0.1710
 4934SOL    HW116286   6.459   8.037   4.270 -0.8155 -0.9544 -1.1861
 4934SOL    HW216287   6.348   8.126   4.219 -1.3733 -1.1761 -0.3667
 4935SOL     OW16288   2.718   4.572   1.164 -0.0222 -0.0241  0.5259
 4935SOL    HW116289   2.735   4.479   1.179 -0.1283 -0.2989 -1.0709
 4935SOL    HW216290   2.738   4.586   1.072  1.6265  1.8941  1.1298
 4936SOL     OW16291   2.581   2.182   4.012  0.6270  0.2790 -0.2554
 4936SOL    HW116292   2.523   2.230   3.952  1.3769  1.1605 -0.2827
 4936SOL    HW216293   2.669   2.202   3.981  1.0053  0.3553  0.8529
 4937SOL     OW16294   5.957   3.916   3.635 -0.3077 -0.5060  0.3634
 4937SOL    HW116295   5.918   3.966   3.564 -0.5032 -0.1343  0.7365
 4937SOL    HW216296   5.883   3.880   3.683 -0.1849 -0.2163  0.7705
 4938SOL     OW16297   7.240   3.824   7.621 -0.1201  0.0363  0.1588
 4938SOL    HW116298   7.207   3.735   7.612 -1.6848  0.6748 -0.8762
 4938SOL    HW216299   7.306   3.820   7.689 -0.6955 -1.7737  0.6180
 4939SOL     OW16300   1.634   4.271   1.461 -0.9822  0.1328 -0.3733
 4939SOL    HW116301   1.576   4.211   1.414  0.2368 -1.8300  0.5714
 4939SOL    HW216302   1.640   4.236   1.549  1.1471  0.6239 -0.2808
 4940SOL     OW16303   6.396   4.943   3.733  0.2058  0.2600 -0.2780
 4940SOL    HW116304   6.310   4.915   3.700 -1.0520  1.0494  2.2048
 4940SOL    HW216305   6.377   5.018   3.789  2.7166  1.3603 -0.8309
 4941SOL     OW16306   4.504   0.842   3.882  0.3323 -0.1948 -0.7302
 4941SOL    HW116307   4.472   0.840   3.791  0.6456 -1.4463 -0.8106
 4941SOL    HW216308   4.430   0.811   3.934 -0.2302  1.5810 -0.4313
 4942SOL     OW16309   0.495   6.415   1.364  0.0811 -0.6269  0.3010
 4942SOL    HW116310   0.435   6.357   1.410  0.2021  0.1010  1.4099
 4942SOL    HW216311   0.561   6.437   1.429  0.7271 -0.2413 -0.4740
 4943SOL     OW16312   5.075   6.940   6.736 -0.2118 -0.6319  0.5022
 4943SOL    HW116313   5.126   6.862   6.756  0.0787 -1.0063 -1.5986
 4943SOL    HW216314   4.988   6.907   6.713 -0.4193 -0.2435  0.7148
 4944SOL     OW16315   3.747   2.792   8.237 -0.2307 -0.7978 -0.1612
 4944SOL    HW116316   3.684   2.725   8.213 -0.6572 -0.3364 -0.3414
 4944SOL    HW216317   3.711   2.832   8.316  0.0256 -0.7892 -0.0493
 4945SOL     OW16318   6.363   6.826   2.704 -0.0184  0.2893  0.1478
 4945SOL    HW116319   6.343   6.868   2.620 -1.1205 -3.4981 -1.5808
 4945SOL    HW216320   6.431   6.762   2.684  0.1964 -0.1975  2.2861
 4946SOL     OW16321   4.744   4.152   4.274 -0.1150 -0.4662  0.2753
 4946SOL    HW116322   4.672   4.137   4.212 -0.2354  1.9125 -0.2002
 4946SOL    HW216323   4.705   4.136   4.360 -0.7238 -0.9972 -0.0924
 4947SOL     OW16324   7.933   1.412   4.387 -0.3109  0.3418 -0.2762
 4947SOL    HW116325   7.908   1.415   4.480  1.8233  0.4067  0.3236
 4947SOL    HW216326   7.936   1.319   4.365 -0.3190  0.3060 -0.1243
 4948SOL     OW16327   4.773   7.496   1.407 -0.1939 -0.6008 -0.0073
 4948SOL    HW116328   4.765   7.570   1.468  0.9207  0.0075 -0.5785
 4948SOL    HW216329   4.694   7.500   1.354  0.1317  0.5471 -0.4226
 4949SOL     OW16330   6.272   6.600   7.200 -0.9968 -0.5072 -0.0830
 4949SOL    HW116331   6.310   6.637   7.280  0.0378  3.7576 -2.4142
 4949SOL    HW216332   6.181   6.630   7.201 -0.3765  1.5919 -1.5532
 4950SOL     OW16333   3.621   3.452   4.675  0.4607  0.3508  0.1221
 4950SOL    HW116334   3.659   3.372   4.638  0.3414  0.1779  0.3687
 4950SOL    HW216335   3.566   3.420   4.747  1.2947  0.7380  0.9395
 4951SOL     OW16336   6.204   2.674   2.424 -0.8448  0.2107  0.0465
 4951SOL    HW116337   6.190   2.585   2.391 -2.5949  0.7009 -0.5471
 4951SOL    HW216338   6.138   2.685   2.492 -0.1491  0.8129  0.6344
 4952SOL     OW16339   1.033   7.908   8.065  0.1129  0.1453  0.2162
 4952SOL    HW116340   1.088   7.861   8.003  2.5904  2.0156  0.9219
 4952SOL    HW216341   1.053   7.870   8.150 -0.6441 -0.0141  0.3294
 4953SOL     OW16342   1.228   2.766   8.087  0.8994  0.0434 -0.4846
 4953SOL    HW116343   1.158   2.725   8.139  1.2141  0.5605  0.3594
 4953SOL    HW216344   1.305   2.712   8.103  1.4077  1.1588  0.9312
 4954SOL     OW16345   5.305   7.381   1.505 -0.3871 -0.4642  0.2908
 4954SOL    HW116346   5.257   7.316   1.453  0.2616 -0.7238  0.0192
 4954SOL    HW216347   5.291   7.354   1.596  0.5875 -1.4715  0.1427
 4955SOL     OW16348   1.645   0.413   0.817 -0.7626  0.1168  0.1581
 4955SOL    HW116349   1.550   0.415   0.827 -0.7332  1.0518  0.2196
 4955SOL    HW216350   1.673   0.503   0.829 -0.2609  0.5233 -3.5116
 4956SOL     OW16351   6.609   2.171   7.297 -0.6772 -0.0978  0.1616
 4956SOL    HW116352   6.519   2.169   7.267 -0.0043 -0.9006 -1.8506
 4956SOL    HW216353   6.611   2.239   7.364 -2.7636 -0.0891  0.2216
 4957SOL     OW16354   0.714   4.406   0.255 -0.2077  0.0090  0.1942
 4957SOL    HW116355   0.763   4.324   0.250  3.0143  1.7741  1.3648
 4957SOL    HW216356   0.755   4.462   0.189 -0.3115  1.6687  1.5109
 4958SOL     OW16357   3.341   3.069   3.121 -0.0473 -0.1881 -0.4720
 4958SOL    HW116358   3.373   3.156   3.095 -0.4244  0.0915  0.0064
 4958SOL    HW216359   3.390   3.048   3.201 -0.1073 -0.3280 -0.4716
 4959SOL     OW16360   5.523   0.202   7.605 -1.2199 -0.2935  0.4544
 4959SOL    HW116361   5.501   0.120   7.649 -0.5954 -0.4073  0.5563
 4959SOL    HW216362   5.502   0.186   7.513 -1.2915 -0.4955  0.5064
 4960SOL     OW16363   1.270   3.133   7.678 -0.2587 -0.0803  0.0207
 4960SOL    HW116364   1.301   3.088   7.757  0.3119  0.7479  0.2843
 4960SOL    HW216365   1.211   3.201   7.711 -0.4841 -0.1154 -0.3117
 4961SOL     OW16366   7.748   5.041   4.859  0.1840 -0.3001  0.0620
 4961SOL    HW116367   7.708   5.061   4.774  2.3789 -0.0265 -0.9550
 4961SOL    HW216368   7.688   5.079   4.923 -1.6086 -0.6759 -1.3426
 4962SOL     OW16369   0.790   2.227   6.668 -0.1482  0.1586  0.1402
 4962SOL    HW116370   0.812   2.139   6.700  1.1046  0.0877 -0.8444
 4962SOL    HW216371   0.767   2.276   6.746 -0.1506 -0.8495  0.7862
 4963SOL     OW16372   5.722   8.202   0.602 -0.4669 -0.3083 -0.5125
 4963SOL    HW116373   5.646   8.168   0.649 -0.2870  1.3338  1.0193
 4963SOL    HW216374   5.797   8.159   0.644 -0.4572 -0.7804 -1.0112
 4964SOL     OW16375   0.083   1.688   7.084  0.2461  0.3559  0.3771
 4964SOL    HW116376   0.066   1.594   7.091 -0.3067  0.4389  0.1542
 4964SOL    HW216377   0.082   1.705   6.990 -1.6112  0.9369  0.4868
 4965SOL     OW16378   5.501   5.457   4.692  0.4792  0.0250  0.1595
 4965SOL    HW116379   5.472   5.528   4.635 -1.2365 -0.6050  0.2300
 4965SOL    HW216380   5.544   5.395   4.634  1.1129  0.6520 -0.0457
 4966SOL     OW16381   6.978   5.409   7.702  0.9986 -0.4932  0.2958
 4966SOL    HW116382   7.073   5.416   7.695  1.2995 -2.1102  2.3904
 4966SOL    HW216383   6.963   5.356   7.780 -1.6418  0.1139  0.2599
 4967SOL     OW16384   2.901   6.419   0.959 -0.8685 -0.0738  0.4114
 4967SOL    HW116385   2.940   6.500   0.926  0.5318 -0.5667  0.8260
 4967SOL    HW216386   2.931   6.413   1.049  0.1579 -1.7280 -0.0241
 4968SOL     OW16387   3.037   7.480   2.735  0.2307 -0.3150  0.0391
 4968SOL    HW116388   3.124   7.516   2.755  0.5316 -0.0793 -1.6529
 4968SOL    HW216389   3.023   7.414   2.803  1.6778 -0.2561  0.4171
 4969SOL     OW16390   2.455   6.003   5.573 -0.0492  0.3101  0.8691
 4969SOL    HW116391   2.523   6.063   5.603 -0.3126  0.0388  2.0424
 4969SOL    HW216392   2.502   5.923   5.549  0.4086  1.2859 -1.6087
 4970SOL     OW16393   3.414   2.918   0.659 -0.3947 -0.0735 -0.2198
 4970SOL    HW116394   3.460   2.890   0.580  0.1640 -0.2457  0.1584
 4970SOL    HW216395   3.423   3.013   0.660  0.5912 -0.1653  0.2302
 4971SOL     OW16396   4.329   2.811   4.509  0.2804 -0.1806 -0.0343
 4971SOL    HW116397   4.397   2.746   4.527 -0.1304 -0.7509 -0.4913
 4971SOL    HW216398   4.299   2.839   4.595  3.2011  2.3453  0.2338
 4972SOL     OW16399   1.806   8.139   6.431  0.0818 -0.0810  0.1971
 4972SOL    HW116400   1.897   8.123   6.458  0.6455  2.9516  0.2598
 4972SOL    HW216401   1.754   8.081   6.487  1.8301 -0.4815  1.4715
 4973SOL     OW16402   1.204   0.149   0.346  0.4453  0.2000  0.2912
 4973SOL    HW116403   1.161   0.168   0.262  0.0932  0.7254  0.5951
 4973SOL    HW216404   1.240   0.232   0.375  0.2619  0.0896  0.8409
 4974SOL     OW16405   5.243   4.698   5.214 -0.2491 -0.3123 -0.1508
 4974SOL    HW116406   5.281   4.662   5.294 -0.5435  0.7920  0.4958
 4974SOL    HW216407   5.211   4.785   5.240  1.5486  0.9359 -1.9494
 4975SOL     OW16408   5.803   0.349   0.048 -0.4258 -0.0917 -0.2875
 4975SOL    HW116409   5.840   0.430   0.012  1.6789 -0.6827  0.4423
 4975SOL    HW216410   5.865   0.324   0.118 -2.2749 -1.0900  1.0282
 4976SOL     OW16411   1.003   2.834   6.720  0.2605 -0.6531 -0.1640
 4976SOL    HW116412   1.073   2.849   6.783  1.9931 -1.7361 -1.7790
 4976SOL    HW216413   0.979   2.742   6.732 -1.8069  0.0555  1.2793
 4977SOL     OW16414   4.878   2.410   6.910  0.1088  0.1045  0.1910
 4977SOL    HW116415   4.879   2.502   6.886  0.5529 -0.0329 -0.3352
 4977SOL    HW216416   4.939   2.369   6.849  0.1163 -0.4934  0.5973
 4978SOL     OW16417   0.593   1.109   1.273  0.1208 -0.1427 -0.2931
 4978SOL    HW116418   0.519   1.160   1.306  0.0839 -0.1168 -0.4160
 4978SOL    HW216419   0.587   1.116   1.178  1.6996  1.8927 -0.2665
 4979SOL     OW16420   0.584   0.000   2.348 -1.3690 -0.1860 -0.1938
 4979SOL    HW116421   0.535   0.056   2.288 -0.5124 -0.1470 -0.8838
 4979SOL    HW216422   0.557  -0.089   2.326  0.5975 -0.3292 -2.2176
 4980SOL     OW16423   0.623   3.652   6.628  0.7690  0.3135 -0.3005
 4980SOL    HW116424   0.631   3.636   6.722 -1.1990  0.2012 -0.1210
 4980SOL    HW216425   0.671   3.733   6.613 -2.4041  2.6409  1.5660
 4981SOL     OW16426   3.741   2.397   1.851 -0.2707 -0.0243 -0.7104
 4981SOL    HW116427   3.801   2.323   1.858 -1.8449 -1.3016 -0.4265
 4981SOL    HW216428   3.784   2.457   1.789  1.5910 -0.5892  0.0181
 4982SOL     OW16429   0.468   7.257   7.027  0.6637  0.5392  0.4787
 4982SOL    HW116430   0.536   7.286   6.967 -0.4563  0.8325 -0.6724
 4982SOL    HW216431   0.393   7.237   6.971 -0.6929  1.6513  1.8478
 4983SOL     OW16432   7.216   1.963   5.747 -0.3323  0.0548 -0.2223
 4983SOL    HW116433   7.151   2.015   5.701 -0.4896  0.0156 -0.0463
 4983SOL    HW216434   7.165   1.906   5.805 -0.1778 -0.5536 -0.6809
 4984SOL     OW16435   8.001   2.572   1.468 -0.1250  0.2253  0.5372
 4984SOL    HW116436   7.923   2.519   1.486 -0.1093  1.0007  3.0729
 4984SOL    HW216437   7.992   2.648   1.525  2.2139  0.6265  0.4131
 4985SOL     OW16438   7.856   2.718   3.782 -0.1264 -0.4145  0.4176
 4985SOL    HW116439   7.934   2.768   3.805 -0.1010  0.1622 -0.8872
 4985SOL    HW216440   7.889   2.635   3.749 -0.1053 -0.5830  0.8600
 4986SOL     OW16441   4.504   3.787   5.665  0.1780  0.5789  0.0003
 4986SOL    HW116442   4.436   3.853   5.676 -0.6421 -0.4137  0.9904
 4986SOL    HW216443   4.562   3.800   5.739  0.3968  0.6334 -0.1808
 4987SOL     OW16444   5.550   1.102   6.718 -0.6580 -0.7883  0.1224
 4987SOL    HW116445   5.534   1.188   6.756 -1.8409 -0.3426 -1.3262
 4987SOL    HW216446   5.470   1.081   6.671  0.1998 -1.9841 -0.8521
 4988SOL     OW16447   1.852   2.955   8.221 -0.3611  0.3756 -0.4544
 4988SOL    HW116448   1.789   2.887   8.242  1.2427 -0.3035  2.4642
 4988SOL    HW216449   1.834   3.025   8.283  1.0420  0.5940 -0.2616
 4989SOL     OW16450   4.402   7.658   5.978 -0.4461  0.0410 -0.0698
 4989SOL    HW116451   4.455   7.672   6.056 -0.4633  0.6191 -0.1541
 4989SOL    HW216452   4.323   7.711   5.994 -1.2609 -1.2549  0.3098
 4990SOL     OW16453   5.623   5.695   3.380  0.1986 -0.2922  0.1474
 4990SOL    HW116454   5.572   5.775   3.394  2.2491  1.1971 -0.6692
 4990SOL    HW216455   5.586   5.632   3.442 -1.0169  1.4942  1.2876
 4991SOL     OW16456   6.652   1.232   7.665 -0.3681 -0.0726 -0.0355
 4991SOL    HW116457   6.655   1.327   7.669 -1.2580 -0.0776  0.8814
 4991SOL    HW216458   6.634   1.213   7.572  0.0242  0.6357 -0.2604
 4992SOL     OW16459   4.232   1.231   0.474 -0.2113 -0.2658 -0.1592
 4992SOL    HW116460   4.252   1.243   0.381 -1.1142 -0.3554 -0.3728
 4992SOL    HW216461   4.150   1.181   0.474  0.0738 -0.7485  0.6875
 4993SOL     OW16462   3.683   2.758   5.148 -0.0622 -0.0121 -0.1005
 4993SOL    HW116463   3.598   2.727   5.115  0.5523 -1.2882 -0.5246
 4993SOL    HW216464   3.737   2.679   5.151  1.3047  0.9053 -0.4222
 4994SOL     OW16465   3.650   3.999   1.350 -0.4063  0.6284  0.1291
 4994SOL    HW116466   3.633   4.092   1.366 -0.0721  0.9277 -1.2026
 4994SOL    HW216467   3.604   3.954   1.421 -1.0205  1.7830  0.4796
 4995SOL     OW16468   1.115   6.615   5.421  0.1993 -0.1490  0.2602
 4995SOL    HW116469   1.066   6.675   5.477 -0.9752  0.3614 -1.2603
 4995SOL    HW216470   1.053   6.544   5.403  1.1023 -1.1040  0.8855
 4996SOL     OW16471   7.768   5.221   0.890  0.5705 -0.6686  0.0486
 4996SOL    HW116472   7.847   5.254   0.847 -0.2361 -0.9588 -1.6845
 4996SOL    HW216473   7.776   5.126   0.887  0.0990 -0.7015 -0.2403
 4997SOL     OW16474   3.170   5.834   2.663  0.8679  0.2620  0.6258
 4997SOL    HW116475   3.216   5.918   2.671  0.3201  0.4665  1.6441
 4997SOL    HW216476   3.102   5.851   2.597 -0.7008  1.2925  2.4400
 4998SOL     OW16477   4.824   4.497   2.689  0.0105 -0.1780  0.9502
 4998SOL    HW116478   4.729   4.490   2.695  0.0249 -1.1844  0.1940
 4998SOL    HW216479   4.857   4.420   2.735  0.5572  1.6142  3.6873
 4999SOL     OW16480   7.890   6.085   1.744  0.0858  0.6332  0.3079
 4999SOL    HW116481   7.889   6.180   1.748 -0.5478  0.6431  0.0391
 4999SOL    HW216482   7.964   6.063   1.688 -0.6082  1.0156 -0.7604
 5000SOL     OW16483   0.339   7.900   6.936 -1.2018  0.1452  0.0814
 5000SOL    HW116484   0.386   7.894   6.853 -0.4212  0.3089  0.5085
 5000SOL    HW216485   0.299   7.814   6.948 -0.4101 -0.2272  0.0663
 5001SOL     OW16486   6.931   0.665   3.229  0.1863 -0.1914 -0.0599
 5001SOL    HW116487   6.854   0.608   3.230  1.3016 -1.7451  2.0313
 5001SOL    HW216488   6.982   0.636   3.154  0.1127 -1.0548  0.2265
 5002SOL     OW16489   1.513   0.822   6.032  0.3702  0.0595 -0.2627
 5002SOL    HW116490   1.575   0.761   5.993 -0.1094 -0.7036  0.1610
 5002SOL    HW216491   1.527   0.814   6.126 -0.3242 -0.0631 -0.1698
 5003SOL     OW16492   1.446   0.966   1.043  0.1512 -0.1382  0.7589
 5003SOL    HW116493   1.480   0.882   1.014  1.0348 -0.6552  3.1943
 5003SOL    HW216494   1.523   1.021   1.055 -0.4180  1.0365 -0.7877
 5004SOL     OW16495   1.863   4.501   3.820 -0.2650  0.0598  0.1533
 5004SOL    HW116496   1.908   4.430   3.773 -0.0827  0.0017  0.4144
 5004SOL    HW216497   1.854   4.468   3.910  1.3863  1.0637  0.7096
 5005SOL     OW16498   2.708   2.089   1.760 -0.1049  0.3184  0.5435
 5005SOL    HW116499   2.640   2.037   1.802  0.2943 -1.3180 -0.7531
 5005SOL    HW216500   2.777   2.095   1.826 -0.9080  0.7538  1.3510
 5006SOL     OW16501   0.422   7.024   6.331  0.6460  0.3858  0.1097
 5006SOL    HW116502   0.439   7.004   6.239 -2.2202  3.0960 -1.0614
 5006SOL    HW216503   0.342   6.976   6.352  1.3044 -0.2496  1.2361
 5007SOL     OW16504   8.175   5.089   5.407  0.0983  0.1133  0.4036
 5007SOL    HW116505   8.184   5.102   5.502 -2.7793 -1.4050  0.9407
 5007SOL    HW216506   8.142   5.173   5.375 -0.3261  0.1645  0.9687
 5008SOL     OW16507   8.235   0.854   3.230  0.6875 -0.2209  0.0608
 5008SOL    HW116508   8.156   0.869   3.281  0.2607 -0.5191 -0.5012
 5008SOL    HW216509   8.275   0.775   3.268  1.6237  0.8830  1.4321
 5009SOL     OW16510   4.918   0.273   7.304  0.4887  0.9346 -0.1364
 5009SOL    HW116511   4.962   0.199   7.344 -0.1895  0.9108  0.5813
 5009SOL    HW216512   4.861   0.234   7.237 -1.5945  0.5657  1.7732
 5010SOL     OW16513   6.536   4.025   2.743  0.7909 -0.0587  0.5641
 5010SOL    HW116514   6.546   3.967   2.668  0.1627 -0.5144  0.8208
 5010SOL    HW216515   6.625   4.048   2.769  1.0130 -0.1803 -0.1037
 5011SOL     OW16516   3.986   0.200   0.668  0.0343 -0.5141  0.1781
 5011SOL    HW116517   4.067   0.175   0.714  0.7588  1.0925 -0.2043
 5011SOL    HW216518   3.999   0.167   0.579  0.6898  0.6007 -0.1419
 5012SOL     OW16519   3.985   5.630   8.261  0.3382  0.1934  0.1755
 5012SOL    HW116520   4.065   5.655   8.217 -0.7087 -0.1481 -1.9674
 5012SOL    HW216521   3.926   5.602   8.191 -1.4183 -0.2079  1.7622
 5013SOL     OW16522   3.714   3.990   2.321  0.5052  0.0650 -0.4451
 5013SOL    HW116523   3.763   4.010   2.241  0.9075  0.2813 -0.1506
 5013SOL    HW216524   3.737   3.899   2.341  3.0510  1.0065  1.2455
 5014SOL     OW16525   4.011   4.633   2.766 -0.1001 -0.0096 -0.1609
 5014SOL    HW116526   4.007   4.648   2.671 -1.1808 -0.0455 -0.1257
 5014SOL    HW216527   4.104   4.619   2.784 -0.1132 -2.1399 -1.5648
 5015SOL     OW16528   3.955   0.832   7.876 -0.2360 -0.9783 -0.1872
 5015SOL    HW116529   3.918   0.825   7.964 -0.4665 -0.1751 -0.2204
 5015SOL    HW216530   4.026   0.768   7.875  1.6045  0.9643  1.5214
 5016SOL     OW16531   0.026   1.543   3.753 -0.6467  0.0583 -0.5378
 5016SOL    HW116532   0.063   1.628   3.727 -1.9683  0.5524 -0.8284
 5016SOL    HW216533   0.100   1.496   3.792  0.1049  1.3425 -0.3726
 5017SOL     OW16534   7.687   5.802   6.312  0.4906  0.3642  0.1834
 5017SOL    HW116535   7.655   5.718   6.346  0.7460  0.1689 -0.0630
 5017SOL    HW216536   7.746   5.778   6.241  0.8562  0.7416  0.3603
 5018SOL     OW16537   2.313   6.596   0.126  0.2490 -0.8690 -0.3395
 5018SOL    HW116538   2.277   6.530   0.185 -0.7306 -1.8516 -2.0073
 5018SOL    HW216539   2.363   6.654   0.183 -1.9764 -0.8665  1.7129
 5019SOL     OW16540   4.856   4.549   3.757  0.4284  0.1770 -0.1724
 5019SOL    HW116541   4.766   4.525   3.777 -0.1885  2.0940 -0.5849
 5019SOL    HW216542   4.875   4.505   3.674  0.0018 -0.5254  0.0975
 5020SOL     OW16543   2.066   0.307   7.058  0.4071 -0.1037 -0.5124
 5020SOL    HW116544   2.056   0.393   7.100 -1.0459 -0.8562  0.7298
 5020SOL    HW216545   1.980   0.290   7.018  0.1567 -1.6935  0.6474
 5021SOL     OW16546   7.054   4.764   7.034 -0.4848 -0.2896  1.0068
 5021SOL    HW116547   7.053   4.772   7.130 -2.6992  3.5648  0.7336
 5021SOL    HW216548   7.091   4.846   7.003 -0.0270 -1.3999 -1.5192
 5022SOL     OW16549   2.808   2.004   6.569  0.1248  0.0065 -0.3500
 5022SOL    HW116550   2.750   2.078   6.547 -0.6153 -0.3024  0.5363
 5022SOL    HW216551   2.890   2.045   6.594  0.3077  0.4528 -1.6058
 5023SOL     OW16552   1.046   1.715   4.357  0.5478  0.3598 -0.6701
 5023SOL    HW116553   0.968   1.769   4.346  0.8259  0.4666 -2.2772
 5023SOL    HW216554   1.013   1.625   4.355  0.4624  0.4018 -1.4928
 5024SOL     OW16555   2.534   2.259   0.007 -0.1146  0.5738 -0.0798
 5024SOL    HW116556   2.597   2.317  -0.036  2.2451 -0.2944  2.0849
 5024SOL    HW216557   2.512   2.194  -0.059  1.4775  0.7459 -0.7930
 5025SOL     OW16558   5.968   1.279   6.286 -0.3504  0.0448  0.0924
 5025SOL    HW116559   5.968   1.325   6.202 -1.0371  0.2819  0.2153
 5025SOL    HW216560   5.992   1.189   6.265 -2.4066 -0.3611 -0.6235
 5026SOL     OW16561   0.296   0.702   7.751  0.7499 -0.2566  0.4616
 5026SOL    HW116562   0.352   0.627   7.733 -0.8965 -1.2768 -0.5188
 5026SOL    HW216563   0.228   0.698   7.684 -1.5545 -0.1120  2.7329
 5027SOL     OW16564   8.051   5.259   2.287  0.8732 -0.1151  0.4694
 5027SOL    HW116565   8.039   5.275   2.381  0.8922  0.1724  0.4233
 5027SOL    HW216566   7.977   5.304   2.245  0.8130 -0.3242  0.3533
 5028SOL     OW16567   1.100   2.899   6.160  0.4646  0.2079 -0.0788
 5028SOL    HW116568   1.071   2.820   6.205 -0.1507  0.4551 -0.0490
 5028SOL    HW216569   1.158   2.867   6.090 -0.3947 -0.3245 -0.5561
 5029SOL     OW16570   0.060   7.144   2.828  0.2527  0.2320  0.6128
 5029SOL    HW116571   0.036   7.077   2.892 -1.8587  1.3774  1.0688
 5029SOL    HW216572  -0.003   7.135   2.758  1.7505 -0.1407 -0.7150
 5030SOL     OW16573   5.313   5.212   6.575  0.5279  0.2890  0.0828
 5030SOL    HW116574   5.279   5.269   6.506 -0.5055  0.3990  0.6752
 5030SOL    HW216575   5.244   5.147   6.590  0.4293  0.6943  1.5102
 5031SOL     OW16576   3.027   5.461   2.407  0.1049 -0.2939  0.0876
 5031SOL    HW116577   2.946   5.494   2.446  0.1328 -2.8993  2.5311
 5031SOL    HW216578   3.091   5.463   2.478  1.5312 -0.5514 -1.1563
 5032SOL     OW16579   1.505   3.859   3.214 -0.0003  0.1306 -0.3801
 5032SOL    HW116580   1.574   3.919   3.183 -0.3970  1.0560  0.4989
 5032SOL    HW216581   1.505   3.871   3.309 -0.4997 -0.8287 -0.2654
 5033SOL     OW16582   3.695   4.253   5.570  0.6807  0.3873  0.1798
 5033SOL    HW116583   3.771   4.296   5.533  2.1146 -1.2153  1.2010
 5033SOL    HW216584   3.709   4.256   5.665 -1.0979  1.0980  0.4507
 5034SOL     OW16585   4.494   4.333   6.549  0.3990 -0.2335  0.1554
 5034SOL    HW116586   4.417   4.276   6.557 -0.3840  0.8578  0.5269
 5034SOL    HW216587   4.479   4.383   6.469  1.0133 -0.4371 -0.0887
 5035SOL     OW16588   6.545   7.475   7.389 -0.3344  0.5028  0.4095
 5035SOL    HW116589   6.459   7.451   7.354  0.5937 -0.7284 -1.0525
 5035SOL    HW216590   6.537   7.568   7.409 -2.1930  0.2797  0.8566
 5036SOL     OW16591   3.535   1.513   6.993 -0.1954 -0.1158  0.1696
 5036SOL    HW116592   3.469   1.581   6.987 -0.2066 -0.0513  1.0101
 5036SOL    HW216593   3.618   1.560   7.000 -0.1670 -0.1952  0.3588
 5037SOL     OW16594   6.486   6.601   3.376 -0.0503  0.1104 -0.2944
 5037SOL    HW116595   6.551   6.576   3.310 -0.2351 -0.6545 -0.1874
 5037SOL    HW216596   6.444   6.678   3.339  0.0547 -0.1362 -0.9381
 5038SOL     OW16597   6.360   0.327   7.457  0.0456  0.0259 -0.3698
 5038SOL    HW116598   6.328   0.302   7.370  0.5663  1.4831 -0.9922
 5038SOL    HW216599   6.288   0.376   7.496  0.4200  0.7696 -0.6134
 5039SOL     OW16600   6.007   6.349   3.522  0.6178 -0.3269 -0.2790
 5039SOL    HW116601   6.089   6.389   3.552  0.8250 -1.3873  0.5731
 5039SOL    HW216602   6.007   6.262   3.560 -1.5647  0.1413  0.9069
 5040SOL     OW16603   0.804   5.591   3.611 -0.4487  0.7193  0.2073
 5040SOL    HW116604   0.740   5.563   3.676  1.5333 -2.4130  0.9001
 5040SOL    HW216605   0.864   5.647   3.658  0.2710 -0.5530  0.8425
 5041SOL     OW16606   8.179   4.619   5.474  0.1980  0.1117  0.5451
 5041SOL    HW116607   8.104   4.665   5.512 -2.2285 -2.8535 -0.4494
 5041SOL    HW216608   8.218   4.571   5.547 -0.2733 -0.1179  0.6499
 5042SOL     OW16609   5.046   3.428   7.374 -0.4687 -0.0181  0.0016
 5042SOL    HW116610   5.072   3.516   7.349  0.0194 -0.4416 -1.0295
 5042SOL    HW216611   5.119   3.393   7.424 -0.1790 -0.2322 -0.5609
 5043SOL     OW16612   2.768   4.892   5.787  0.0248  0.1145 -0.5076
 5043SOL    HW116613   2.819   4.909   5.707  0.9718 -1.0842 -0.1802
 5043SOL    HW216614   2.757   4.978   5.827  0.8455  0.5374 -1.1666
 5044SOL     OW16615   0.830   2.643   6.528  0.0665  0.3160  0.5052
 5044SOL    HW116616   0.842   2.658   6.622 -1.3819 -1.0174  0.9221
 5044SOL    HW216617   0.736   2.639   6.516  0.2537 -0.1658 -0.9124
 5045SOL     OW16618   2.691   3.514   5.721 -0.5370 -0.1806 -0.0087
 5045SOL    HW116619   2.689   3.554   5.808 -1.2441  2.3920 -1.1609
 5045SOL    HW216620   2.635   3.436   5.730 -1.2540  0.4882  1.6257
 5046SOL     OW16621   1.896   5.932   3.496  0.1951 -0.5109 -0.2399
 5046SOL    HW116622   1.810   5.930   3.536 -0.0732 -1.0676 -0.8392
 5046SOL    HW216623   1.880   5.954   3.404  0.8682  1.5519  0.1115
 5047SOL     OW16624   4.025   1.780   6.221  0.6286  0.0256  0.2826
 5047SOL    HW116625   3.953   1.842   6.203  1.4441  0.4955 -1.4587
 5047SOL    HW216626   3.985   1.694   6.211  0.0941  0.2833  0.1737
 5048SOL     OW16627   6.855   6.947   3.146  0.0271  0.4152  0.8002
 5048SOL    HW116628   6.789   6.933   3.078  1.7897  0.6399 -0.9953
 5048SOL    HW216629   6.895   6.861   3.158  0.2855  0.5541  0.9438
 5049SOL     OW16630   3.600   2.232   7.210 -0.3229 -0.0957 -0.3335
 5049SOL    HW116631   3.642   2.307   7.250  0.5738 -1.0447  0.5216
 5049SOL    HW216632   3.639   2.156   7.253  3.1616 -1.3089 -5.2543
 5050SOL     OW16633   1.311   0.152   2.939 -0.0789 -0.0923 -0.7630
 5050SOL    HW116634   1.221   0.173   2.963  0.1573 -0.6831  0.7682
 5050SOL    HW216635   1.318   0.058   2.956  1.9658  0.6668  3.1468
 5051SOL     OW16636   3.602   1.569   5.794  0.7857 -0.2102 -0.7029
 5051SOL    HW116637   3.644   1.627   5.731  1.3908 -0.7544 -0.8106
 5051SOL    HW216638   3.508   1.589   5.787  1.0217  1.0028 -0.4688
 5052SOL     OW16639   2.799   7.928   2.422 -0.2630  0.0790  1.0298
 5052SOL    HW116640   2.804   7.940   2.517  2.8326  0.2947  0.8906
 5052SOL    HW216641   2.843   8.005   2.386  1.0979 -1.3472 -0.4663
 5053SOL     OW16642   5.707   5.361   4.516 -0.1397 -0.0082  0.0989
 5053SOL    HW116643   5.763   5.395   4.587 -1.5123 -0.4836  1.4271
 5053SOL    HW216644   5.713   5.428   4.448  2.7681 -0.4788 -0.1648
 5054SOL     OW16645   5.611   1.053   3.964  0.1153 -0.0879  0.0176
 5054SOL    HW116646   5.652   1.027   3.882 -0.3740 -0.8011 -0.0066
 5054SOL    HW216647   5.677   1.105   4.009  0.8241 -0.7067 -0.2977
 5055SOL     OW16648   2.182   8.115   3.825  0.0661  0.2316  0.4721
 5055SOL    HW116649   2.165   8.152   3.738 -2.0274 -1.1879  0.2387
 5055SOL    HW216650   2.231   8.034   3.807 -1.2404 -0.5821  0.5327
 5056SOL     OW16651   0.760   6.195   1.240  0.3119  0.6699  0.1673
 5056SOL    HW116652   0.667   6.203   1.217  0.5741 -0.0787 -1.2264
 5056SOL    HW216653   0.765   6.114   1.291 -0.0600  1.6259  1.7565
 5057SOL     OW16654   5.755   0.802   6.905  0.3954 -0.0549  0.1663
 5057SOL    HW116655   5.716   0.797   6.818  0.9828 -0.0650 -0.0929
 5057SOL    HW216656   5.680   0.797   6.965  0.1172 -1.5436 -0.2967
 5058SOL     OW16657   2.172   1.675   4.513 -0.5516  0.2305  0.9030
 5058SOL    HW116658   2.114   1.738   4.557 -1.3075  0.1755 -0.0177
 5058SOL    HW216659   2.251   1.676   4.567 -0.3954  2.2677  0.6964
 5059SOL     OW16660   4.952   3.907   6.065 -0.6135 -0.0198  0.3900
 5059SOL    HW116661   4.878   3.882   6.120 -0.9041  0.7220  0.3376
 5059SOL    HW216662   4.960   4.002   6.075  0.5161 -0.1259  0.6213
 5060SOL     OW16663   0.292   1.253   4.910  0.0780  0.7371 -0.1440
 5060SOL    HW116664   0.213   1.221   4.955 -0.0044  1.2346  0.0678
 5060SOL    HW216665   0.266   1.338   4.875  0.4742  0.8274 -0.2135
 5061SOL     OW16666   0.508   7.217   0.678 -0.3148  0.1901  0.4557
 5061SOL    HW116667   0.520   7.294   0.734  0.0774 -0.0140  0.6612
 5061SOL    HW216668   0.477   7.251   0.595 -0.9120  0.4983  0.8011
 5062SOL     OW16669   1.689   0.804   1.698  0.5863 -0.2276 -0.3126
 5062SOL    HW116670   1.718   0.875   1.640 -0.4672  0.8852  0.4868
 5062SOL    HW216671   1.722   0.829   1.784 -0.2942 -0.4107  0.0821
 5063SOL     OW16672   8.274   0.120   8.279 -0.3718  0.2438 -0.7306
 5063SOL    HW116673   8.227   0.192   8.236 -1.0067 -0.6595 -1.5821
 5063SOL    HW216674   8.361   0.156   8.298 -1.0031  1.5427 -0.2500
 5064SOL     OW16675   6.618   3.299   3.825 -0.2617  0.0095 -0.5847
 5064SOL    HW116676   6.708   3.317   3.851 -0.3620  2.7011 -1.9812
 5064SOL    HW216677   6.624   3.269   3.735 -0.7942  0.7401 -0.8725
 5065SOL     OW16678   1.244   5.194   0.490  0.2567  0.2414 -0.3519
 5065SOL    HW116679   1.304   5.243   0.434  1.3210 -0.1178  0.4620
 5065SOL    HW216680   1.161   5.195   0.442  0.2783  2.7331 -0.4233
 5066SOL     OW16681   6.771   8.182   6.634 -0.6127  0.3713  0.2547
 5066SOL    HW116682   6.782   8.148   6.546 -0.7010 -0.3298  0.5135
 5066SOL    HW216683   6.724   8.265   6.622  1.7447  1.6360 -0.5733
 5067SOL     OW16684   7.400   4.045   5.487  0.0902  0.0987  0.2587
 5067SOL    HW116685   7.442   4.121   5.527  0.9928  0.7350 -1.7988
 5067SOL    HW216686   7.458   3.972   5.507  1.4685  0.7130 -1.2833
 5068SOL     OW16687   5.506   2.982   3.659  0.2383 -0.4014  0.5335
 5068SOL    HW116688   5.513   2.894   3.696  3.0793  0.4631  2.2748
 5068SOL    HW216689   5.417   3.010   3.679 -0.6834 -2.8457 -0.0150
 5069SOL     OW16690   8.077   6.849   7.337 -0.7730 -0.2441 -0.9713
 5069SOL    HW116691   8.094   6.819   7.247 -2.7493 -1.1512 -1.0689
 5069SOL    HW216692   8.041   6.937   7.327 -2.1213 -0.7961 -1.1798
 5070SOL     OW16693   8.083   2.457   6.956 -0.0325 -0.3092 -0.4423
 5070SOL    HW116694   8.024   2.516   6.910 -0.1914  0.4650  0.7338
 5070SOL    HW216695   8.029   2.417   7.024  0.6052 -0.2013  0.1308
 5071SOL     OW16696   1.888   8.306   6.783 -0.3917 -0.3470  0.0358
 5071SOL    HW116697   1.945   8.238   6.747  0.4554 -0.4220  1.4553
 5071SOL    HW216698   1.805   8.261   6.800  0.5277 -1.3352  2.0473
 5072SOL     OW16699   0.650   3.968   8.077 -0.2779 -0.0784  0.8776
 5072SOL    HW116700   0.682   3.925   7.998 -0.8131  0.5819  0.2935
 5072SOL    HW216701   0.569   3.923   8.099 -0.1996 -0.1733  0.9736
 5073SOL     OW16702   5.648   2.787   7.971 -0.5968 -0.0857 -0.1271
 5073SOL    HW116703   5.731   2.807   7.929 -0.9475 -0.4582 -1.0231
 5073SOL    HW216704   5.593   2.752   7.900 -0.7047 -2.1781  0.9413
 5074SOL     OW16705   4.190   4.385   6.727 -0.0387 -0.3398 -0.3041
 5074SOL    HW116706   4.153   4.337   6.801 -1.1174 -2.0054 -1.8781
 5074SOL    HW216707   4.128   4.456   6.712  0.2421  0.0695  0.4748
 5075SOL     OW16708   5.185   3.179   4.243 -0.3102 -0.4650 -0.6007
 5075SOL    HW116709   5.110   3.224   4.281 -0.5879 -3.0781  2.0984
 5075SOL    HW216710   5.194   3.099   4.294  1.7353 -2.2748 -3.6088
 5076SOL     OW16711   7.720   6.747   3.544 -0.2827 -0.0035  0.4731
 5076SOL    HW116712   7.625   6.730   3.543 -0.1678 -0.6696 -0.4287
 5076SOL    HW216713   7.753   6.695   3.617 -0.4497 -0.7130  0.0444
 5077SOL     OW16714   6.454   4.260   3.390  0.3658 -0.3321 -0.7898
 5077SOL    HW116715   6.444   4.352   3.412  1.7975 -0.0994 -1.0882
 5077SOL    HW216716   6.411   4.250   3.305 -0.9798 -0.2354 -0.1374
 5078SOL     OW16717   5.963   4.501   4.562 -0.1822  0.2448  0.0736
 5078SOL    HW116718   5.955   4.588   4.601  1.5254  0.6536 -0.4502
 5078SOL    HW216719   5.949   4.441   4.636  0.6484  0.9940  0.8615
 5079SOL     OW16720   1.051   5.336   3.635  0.3842  0.2735  0.4065
 5079SOL    HW116721   1.039   5.292   3.719  1.3466 -0.0355  0.3928
 5079SOL    HW216722   1.060   5.429   3.657 -2.6121  0.6215  0.3551
 5080SOL     OW16723   4.524   5.995   7.057 -0.3500  0.1258 -0.0315
 5080SOL    HW116724   4.499   6.083   7.028 -0.6763  0.1940  0.4442
 5080SOL    HW216725   4.514   5.998   7.153 -3.0546 -1.2624 -0.2302
 5081SOL     OW16726   0.527   5.759   6.560 -0.0836  0.5796  0.1060
 5081SOL    HW116727   0.608   5.802   6.588 -0.5863  1.1690  0.6775
 5081SOL    HW216728   0.468   5.768   6.635 -0.8425  0.5950 -0.4830
 5082SOL     OW16729   8.303   1.208   3.282  0.2705 -0.3701 -0.1223
 5082SOL    HW116730   8.344   1.169   3.359 -0.5802 -0.6722  0.1807
 5082SOL    HW216731   8.221   1.160   3.271  0.3674 -0.3104 -1.1985
 5083SOL     OW16732   2.103   5.601   5.210 -0.0943 -0.1255  0.3042
 5083SOL    HW116733   2.141   5.530   5.157 -0.0001 -0.1001  0.3386
 5083SOL    HW216734   2.179   5.645   5.248 -0.1282  0.3706 -0.2047
 5084SOL     OW16735   5.863   1.713   6.073  0.4441 -0.0314  0.0761
 5084SOL    HW116736   5.901   1.763   6.144  0.6386 -0.1621  0.0654
 5084SOL    HW216737   5.861   1.774   5.999 -0.5981  0.3870  0.4318
 5085SOL     OW16738   5.033   4.501   0.546 -0.3991 -0.3825  0.3852
 5085SOL    HW116739   4.952   4.467   0.509 -1.2931  0.3297  1.6497
 5085SOL    HW216740   5.070   4.556   0.476 -0.9642 -0.7640 -0.2170
 5086SOL     OW16741   2.536   3.824   5.182 -0.0533  0.1782  0.1419
 5086SOL    HW116742   2.546   3.834   5.088  2.1505  0.5139  0.3848
 5086SOL    HW216743   2.599   3.755   5.206 -1.3079 -0.6215  1.2206
 5087SOL     OW16744   7.897   2.625   2.326 -0.0035  0.2445 -0.0915
 5087SOL    HW116745   7.840   2.552   2.300 -3.3669  2.4361  0.7168
 5087SOL    HW216746   7.934   2.597   2.410  1.3024 -1.7990 -1.2938
 5088SOL     OW16747   5.062   4.040   5.108 -0.0036  0.1647  0.0614
 5088SOL    HW116748   5.087   3.957   5.147 -0.4112 -0.6156 -1.3042
 5088SOL    HW216749   5.135   4.063   5.050 -0.0661  0.5616  0.1355
 5089SOL     OW16750   8.026   3.088   0.246  0.0290  0.2384  0.3936
 5089SOL    HW116751   7.971   3.166   0.261 -0.9668 -0.4734  0.5123
 5089SOL    HW216752   8.048   3.057   0.334 -0.8895 -0.5191  0.3645
 5090SOL     OW16753   0.626   0.387   2.592 -0.0779  0.5500 -0.2521
 5090SOL    HW116754   0.704   0.337   2.615 -0.3071  0.1748 -0.2969
 5090SOL    HW216755   0.653   0.479   2.603  0.4752  0.4363 -0.6120
 5091SOL     OW16756   5.535   0.853   2.495 -0.6278 -0.3501  0.1244
 5091SOL    HW116757   5.459   0.903   2.466  0.6979  2.0691  0.7136
 5091SOL    HW216758   5.541   0.871   2.588 -0.0589 -1.5762  0.3356
 5092SOL     OW16759   5.261   1.983   1.836  0.6148 -0.6511 -0.2207
 5092SOL    HW116760   5.290   1.988   1.745  2.1193 -1.6082  0.1880
 5092SOL    HW216761   5.342   1.977   1.887 -0.1563  1.1355  1.2924
 5093SOL     OW16762   1.630   5.711   8.024 -0.2857  0.6660 -0.4961
 5093SOL    HW116763   1.560   5.763   7.985 -1.1771 -0.3491 -0.2768
 5093SOL    HW216764   1.639   5.747   8.113 -1.0284  0.3462 -0.2795
 5094SOL     OW16765   3.353   0.601   6.518  0.0370 -0.1614 -0.3079
 5094SOL    HW116766   3.337   0.629   6.427  1.0001  0.5600 -0.2639
 5094SOL    HW216767   3.294   0.655   6.570  0.5772  0.5042 -0.3798
 5095SOL     OW16768   4.834   0.840   5.933 -0.3418  0.1158 -0.1812
 5095SOL    HW116769   4.880   0.757   5.940 -3.4954 -1.5952  1.4668
 5095SOL    HW216770   4.879   0.898   5.994  0.2371 -1.2140  0.6802
 5096SOL     OW16771   5.395   5.715   2.804 -0.0801  0.2920  0.1445
 5096SOL    HW116772   5.336   5.640   2.793  0.9356 -0.4545 -0.2314
 5096SOL    HW216773   5.336   5.790   2.816 -1.1128 -0.4220 -0.3871
 5097SOL     OW16774   7.740   4.922   7.025 -0.5647 -0.0246  0.3220
 5097SOL    HW116775   7.785   4.881   6.952  0.2268  0.1637  0.6997
 5097SOL    HW216776   7.695   4.850   7.070  0.0723 -0.3377  0.4537
 5098SOL     OW16777   8.292   2.683   6.067  0.6793 -0.1185 -0.1466
 5098SOL    HW116778   8.311   2.693   5.974  0.1211 -1.4405 -0.4126
 5098SOL    HW216779   8.236   2.758   6.089 -0.4948 -0.6606 -1.2503
 5099SOL     OW16780   6.824   4.909   5.957 -0.1164  0.0762 -0.2714
 5099SOL    HW116781   6.754   4.954   6.004 -0.2548  1.6154 -1.8848
 5099SOL    HW216782   6.904   4.935   6.002 -0.3314  0.7065 -0.2509
 5100SOL     OW16783   2.949   1.863   3.157  0.7719 -0.2371 -0.4071
 5100SOL    HW116784   2.992   1.891   3.238  0.7226  0.2469 -0.5434
 5100SOL    HW216785   3.020   1.854   3.094  0.6540  0.8809 -0.7220
 5101SOL     OW16786   6.602   3.877   6.293  0.3731  0.0574 -0.1180
 5101SOL    HW116787   6.583   3.817   6.366 -0.1441 -0.6427 -0.8215
 5101SOL    HW216788   6.676   3.837   6.248  0.2856  0.1607 -0.3496
 5102SOL     OW16789   2.325   7.047   0.951 -0.1597  0.4106 -0.0528
 5102SOL    HW116790   2.264   7.016   0.885 -0.8195  2.4560 -0.4304
 5102SOL    HW216791   2.382   7.108   0.905  0.9697 -0.0531  0.7153
 5103SOL     OW16792   6.993   7.891   0.278  0.5524 -0.4126 -0.3408
 5103SOL    HW116793   7.021   7.804   0.251  1.3045 -0.4110  0.3994
 5103SOL    HW216794   7.034   7.950   0.215 -0.0645 -0.5958 -0.9213
 5104SOL     OW16795   5.492   6.870   7.423  0.2304 -0.4382  0.1643
 5104SOL    HW116796   5.522   6.805   7.359 -0.2505 -0.7953  0.2996
 5104SOL    HW216797   5.422   6.826   7.471 -2.6102  1.3844 -2.1517
 5105SOL     OW16798   6.194   5.556   1.996  0.3496  0.4010 -0.1379
 5105SOL    HW116799   6.226   5.600   2.075  1.6128 -1.6323  0.4920
 5105SOL    HW216800   6.271   5.513   1.958 -0.2728  1.1783 -2.3951
 5106SOL     OW16801   1.545   1.484   0.557  0.2629 -0.3038  0.8388
 5106SOL    HW116802   1.630   1.442   0.568  0.6847  0.6667  1.3355
 5106SOL    HW216803   1.487   1.414   0.527  1.2472 -0.9573  0.4452
 5107SOL     OW16804   8.302   4.408   2.457 -0.7961  0.0302  0.2098
 5107SOL    HW116805   8.309   4.347   2.531  1.6074  0.0165 -0.0149
 5107SOL    HW216806   8.390   4.441   2.444 -1.3864  0.8117 -2.0349
 5108SOL     OW16807   3.942   4.594   6.737  0.2625  0.5326 -0.1187
 5108SOL    HW116808   3.932   4.688   6.751  0.6215  0.8397 -1.7846
 5108SOL    HW216809   3.855   4.565   6.707 -0.6752 -0.2287  3.1580
 5109SOL     OW16810   1.496   1.976   1.127 -0.0265  0.0099  0.2469
 5109SOL    HW116811   1.579   1.991   1.081 -0.9675 -2.4983 -2.4205
 5109SOL    HW216812   1.522   1.960   1.218  2.3687  0.0151 -0.4010
 5110SOL     OW16813   3.361   0.429   6.784  0.2179  0.3450  0.0465
 5110SOL    HW116814   3.359   0.422   6.689  1.0971 -0.9170  0.1093
 5110SOL    HW216815   3.440   0.480   6.803  0.2555  0.2536  0.1314
 5111SOL     OW16816   0.815   1.756   5.806  0.0529  0.0438 -0.0850
 5111SOL    HW116817   0.780   1.842   5.832  0.4900  0.1222  0.2421
 5111SOL    HW216818   0.869   1.729   5.880 -1.2766 -1.1970  0.4703
 5112SOL     OW16819   5.596   4.837   0.587  0.6322  0.0164  0.5423
 5112SOL    HW116820   5.599   4.753   0.541  0.7162  0.2062  0.1932
 5112SOL    HW216821   5.687   4.855   0.611  0.7808  0.5306 -0.3609
 5113SOL     OW16822   0.386   4.901   1.631  0.1716  0.5312 -0.2549
 5113SOL    HW116823   0.345   4.877   1.714 -2.2651  1.2103 -1.2122
 5113SOL    HW216824   0.363   4.830   1.571  0.0086  1.1399 -0.9226
 5114SOL     OW16825   1.109   7.635   5.785 -0.3090  0.4102 -0.1252
 5114SOL    HW116826   1.189   7.629   5.837 -1.2769 -0.7796  1.2692
 5114SOL    HW216827   1.065   7.713   5.819  0.1788  0.9814 -0.7924
 5115SOL     OW16828   2.719   5.939   6.166  0.2900  0.6490 -0.4870
 5115SOL    HW116829   2.701   5.935   6.260  1.1840  0.4629 -0.3190
 5115SOL    HW216830   2.637   5.913   6.124 -0.7388  2.6431  0.2083
 5116SOL     OW16831   5.242   0.835   0.896 -0.3669 -0.0005  0.1714
 5116SOL    HW116832   5.248   0.823   0.802 -0.1667 -1.2420  0.3351
 5116SOL    HW216833   5.331   0.856   0.924 -0.3779  0.1114  0.1231
 5117SOL     OW16834   7.034   7.239   1.768 -0.5825  0.3694 -0.1889
 5117SOL    HW116835   6.985   7.308   1.723 -0.0964  0.5409 -0.4518
 5117SOL    HW216836   7.022   7.259   1.861 -2.5633 -0.6610 -0.1892
 5118SOL     OW16837   1.809   7.379   2.648  0.1023 -0.4194 -0.5866
 5118SOL    HW116838   1.858   7.323   2.588  0.6586 -1.4691  0.8311
 5118SOL    HW216839   1.769   7.319   2.710  0.1948  0.7037  0.5890
 5119SOL     OW16840   6.995   3.467   5.699 -0.5652  0.6154 -0.4460
 5119SOL    HW116841   7.016   3.411   5.623  0.2641  0.4106 -0.0638
 5119SOL    HW216842   6.937   3.534   5.663 -1.5134 -0.4328 -0.9369
 5120SOL     OW16843   3.063   3.698   2.821 -0.1074 -0.3385  0.4620
 5120SOL    HW116844   3.005   3.763   2.860 -0.4846  1.2329 -2.5751
 5120SOL    HW216845   3.138   3.748   2.790  1.5483 -1.9591  1.7821
 5121SOL     OW16846   1.432   6.523   5.011  0.2924 -0.5437  0.1693
 5121SOL    HW116847   1.461   6.574   5.086 -1.3935  0.4579  0.1728
 5121SOL    HW216848   1.398   6.589   4.949 -0.0340 -1.4995 -0.6850
 5122SOL     OW16849   2.510   5.192   5.782  0.6737  0.4350  0.1699
 5122SOL    HW116850   2.605   5.180   5.769  0.7642  0.3475  0.9176
 5122SOL    HW216851   2.503   5.270   5.838  0.3175  0.2209  0.4249
 5123SOL     OW16852   1.795   5.034   7.655 -0.4637  0.4019 -0.3178
 5123SOL    HW116853   1.855   4.969   7.691  1.3166  1.3548 -1.5375
 5123SOL    HW216854   1.771   4.998   7.569  0.0285  1.0492 -0.7274
 5124SOL     OW16855   7.457   5.655   4.887  0.1431 -0.1937 -0.3624
 5124SOL    HW116856   7.470   5.750   4.893  0.7565 -0.3724  1.2600
 5124SOL    HW216857   7.510   5.628   4.812  2.7271  0.2655  1.2548
 5125SOL     OW16858   3.185   5.923   5.298  0.3717 -0.0601  0.3314
 5125SOL    HW116859   3.187   5.939   5.393 -1.3890  0.1671  0.3371
 5125SOL    HW216860   3.277   5.926   5.272  0.8442  0.2887  1.9677
 5126SOL     OW16861   8.012   6.293   4.498  0.2489  0.8846 -0.0987
 5126SOL    HW116862   8.012   6.326   4.587 -0.1899  0.5204  0.0361
 5126SOL    HW216863   7.934   6.331   4.457 -1.0111 -1.0230  0.4519
 5127SOL     OW16864   0.333   0.303   3.864  0.1451  0.0608 -0.0810
 5127SOL    HW116865   0.305   0.363   3.933  0.0230  1.1438 -1.0616
 5127SOL    HW216866   0.421   0.332   3.841  0.5416 -0.8717  0.2577
 5128SOL     OW16867   5.898   4.475   0.474 -0.3481 -0.4684 -0.5937
 5128SOL    HW116868   5.955   4.400   0.460  1.2014 -0.2231  3.7421
 5128SOL    HW216869   5.957   4.551   0.478 -1.6050  0.6295 -1.9692
 5129SOL     OW16870   0.521   6.124   5.346 -0.0480 -0.5584  0.5752
 5129SOL    HW116871   0.495   6.129   5.438  0.4358 -2.0536  0.8140
 5129SOL    HW216872   0.478   6.044   5.314  0.5811 -0.5743 -0.2451
 5130SOL     OW16873   0.772   4.827   3.886 -0.9158 -0.4896  0.1851
 5130SOL    HW116874   0.707   4.866   3.828 -0.6710  0.5026  0.5620
 5130SOL    HW216875   0.823   4.768   3.830 -0.1373  1.0841 -0.7959
 5131SOL     OW16876   3.953   2.998   4.341 -0.2762  0.1471 -0.2286
 5131SOL    HW116877   3.986   2.941   4.410  1.1204  0.5793 -0.5121
 5131SOL    HW216878   3.867   2.962   4.318  0.9682 -2.4281 -1.0715
 5132SOL     OW16879   7.785   3.431   8.203  0.1514 -0.1366 -0.9446
 5132SOL    HW116880   7.879   3.410   8.208  0.3476  0.9772  0.1122
 5132SOL    HW216881   7.782   3.515   8.157 -0.3331 -0.2080 -1.0390
 5133SOL     OW16882   1.496   0.159   4.176 -0.4097  0.0032  0.6894
 5133SOL    HW116883   1.431   0.090   4.164 -1.1976  0.4139  2.4740
 5133SOL    HW216884   1.567   0.117   4.225  1.2605 -0.7524 -2.1934
 5134SOL     OW16885   0.769   2.153   2.106  0.7664  0.1468 -0.4284
 5134SOL    HW116886   0.831   2.081   2.111 -0.8912 -1.2868 -0.2486
 5134SOL    HW216887   0.822   2.228   2.079  2.4956 -1.1295 -0.6621
 5135SOL     OW16888   2.456   6.618   7.161  0.4075 -0.1316  0.3443
 5135SOL    HW116889   2.423   6.669   7.087  0.7751  0.4314  0.5728
 5135SOL    HW216890   2.386   6.555   7.178 -0.8162  1.4180  1.1807
 5136SOL     OW16891   0.194   0.983   1.274 -0.4308 -0.4368  0.3876
 5136SOL    HW116892   0.106   0.984   1.313 -0.1750 -1.1607  1.0027
 5136SOL    HW216893   0.252   0.964   1.348  0.2085 -0.2815 -0.0794
 5137SOL     OW16894   4.461   1.603   5.596 -0.1586  0.1319  0.3790
 5137SOL    HW116895   4.451   1.594   5.502 -1.4103 -1.0542  0.6031
 5137SOL    HW216896   4.485   1.695   5.609 -0.4738  0.4276 -1.0455
 5138SOL     OW16897   2.031   4.272   4.347  0.1410  0.1723 -0.4680
 5138SOL    HW116898   2.109   4.317   4.378 -0.9516  1.3933  0.5789
 5138SOL    HW216899   1.960   4.309   4.399 -1.0775 -1.2354 -1.0978
 5139SOL     OW16900   2.538   6.726   1.535 -0.0500  0.5641  0.6962
 5139SOL    HW116901   2.595   6.665   1.489  0.6703  2.3627 -0.8873
 5139SOL    HW216902   2.509   6.787   1.467 -3.1860  0.2151  1.6193
 5140SOL     OW16903   4.582   4.065   8.241 -0.7239 -0.5086 -0.5073
 5140SOL    HW116904   4.506   4.049   8.295  0.1181 -2.4173  0.1367
 5140SOL    HW216905   4.642   4.114   8.297 -1.1348  0.2926 -0.7570
 5141SOL     OW16906   1.624   5.563   0.605 -0.4913  0.2276  0.0138
 5141SOL    HW116907   1.685   5.610   0.548  0.7892 -0.9830  0.3540
 5141SOL    HW216908   1.628   5.611   0.688  0.9894 -0.5442  0.4314
 5142SOL     OW16909   5.552   5.215   3.536  0.1992 -0.0075  0.0933
 5142SOL    HW116910   5.499   5.151   3.489 -1.3940 -1.4551  3.6198
 5142SOL    HW216911   5.631   5.166   3.562  0.9360  0.6899 -0.8044
 5143SOL     OW16912   7.054   2.843   4.037 -0.2508 -0.6070  0.7564
 5143SOL    HW116913   7.087   2.879   4.119  1.0427 -0.0734  0.0050
 5143SOL    HW216914   7.058   2.748   4.049  2.7240 -0.5702  0.2277
 5144SOL     OW16915   8.182   8.262   7.887 -0.4600  0.0371  1.0264
 5144SOL    HW116916   8.201   8.311   7.807  0.6537 -1.4844  0.3352
 5144SOL    HW216917   8.151   8.328   7.949  0.6249  1.5486 -0.0111
 5145SOL     OW16918   6.292   1.326   3.988 -0.2227  0.6785 -0.1972
 5145SOL    HW116919   6.362   1.310   3.924  1.6402 -0.0617  1.9711
 5145SOL    HW216920   6.256   1.239   4.006 -0.1313  0.7668  0.4231
 5146SOL     OW16921   6.169   5.686   7.240 -0.1366  0.5295 -0.6293
 5146SOL    HW116922   6.239   5.657   7.299 -1.4515 -0.3617  0.5340
 5146SOL    HW216923   6.209   5.689   7.154  1.6207  1.0743  0.1933
 5147SOL     OW16924   3.918   4.350   7.877  0.0791  0.5092  0.0252
 5147SOL    HW116925   3.829   4.383   7.872 -0.6274 -1.0501  1.7276
 5147SOL    HW216926   3.938   4.347   7.971  0.7885 -2.0520 -0.1726
 5148SOL     OW16927   6.678   1.865   4.362 -0.9159  0.2676  0.2803
 5148SOL    HW116928   6.746   1.816   4.407 -0.2799  1.5364  0.7434
 5148SOL    HW216929   6.603   1.806   4.359  0.1104 -1.0265  0.0296
 5149SOL     OW16930   2.594   7.707   6.192 -0.5621 -0.4165  0.3992
 5149SOL    HW116931   2.618   7.676   6.105 -0.0428 -1.9203  1.0629
 5149SOL    HW216932   2.675   7.745   6.227 -0.9289  0.7503 -0.0071
 5150SOL     OW16933   1.963   6.126   5.454 -0.2391  0.2464  0.1605
 5150SOL    HW116934   2.017   6.130   5.376 -0.4977 -0.6898 -0.0726
 5150SOL    HW216935   1.873   6.124   5.420 -0.3212 -1.0347  0.4528
 5151SOL     OW16936   4.012   4.587   5.511  0.1009 -0.3527  0.2656
 5151SOL    HW116937   4.066   4.559   5.585  0.3084  0.4261  0.4135
 5151SOL    HW216938   3.959   4.659   5.545  0.5661  0.3485 -0.4821
 5152SOL     OW16939   3.292   7.595   2.958  0.6360 -0.4865 -0.4753
 5152SOL    HW116940   3.382   7.614   2.933  0.4334  4.0496  1.8093
 5152SOL    HW216941   3.300   7.533   3.031  1.7655 -1.5575 -1.4876
 5153SOL     OW16942   4.729   1.748   4.390  0.0484 -0.1305 -0.1071
 5153SOL    HW116943   4.808   1.715   4.347  0.1875  1.6413 -1.2536
 5153SOL    HW216944   4.756   1.832   4.427 -0.6006 -0.7400  1.8190
 5154SOL     OW16945   4.104   1.005   2.105 -0.1107 -0.3129 -0.2986
 5154SOL    HW116946   4.022   0.956   2.099 -0.6154  0.6575 -1.8151
 5154SOL    HW216947   4.110   1.030   2.197 -0.9135 -1.4220  0.0626
 5155SOL     OW16948   8.053   5.449   4.147  0.1058  0.3970  0.0574
 5155SOL    HW116949   8.002   5.528   4.163  0.0113  0.4688 -0.5700
 5155SOL    HW216950   8.096   5.431   4.230 -0.2047  0.8683  0.3245
 5156SOL     OW16951   6.970   6.335   4.314  0.0503 -0.1127  0.3050
 5156SOL    HW116952   6.924   6.336   4.231 -0.1527  4.2509  0.3866
 5156SOL    HW216953   6.906   6.301   4.376 -1.1134  0.3450 -0.6329
 5157SOL     OW16954   6.031   7.882   8.256  0.0901  0.6192 -0.1239
 5157SOL    HW116955   6.044   7.854   8.166  2.3879 -1.5827  0.8320
 5157SOL    HW216956   6.069   7.970   8.259 -0.6337  0.9934 -1.4429
 5158SOL     OW16957   6.950   4.437   0.933 -0.1171 -0.2938 -0.5004
 5158SOL    HW116958   6.925   4.365   0.992 -1.0984 -0.1231 -0.6999
 5158SOL    HW216959   6.904   4.418   0.851  0.6271 -0.1082 -0.9620
 5159SOL     OW16960   5.135   0.662   4.960  0.7219 -0.5647  0.6102
 5159SOL    HW116961   5.184   0.683   5.040  0.8907  2.6976 -0.2618
 5159SOL    HW216962   5.179   0.713   4.892 -0.7962 -1.5499 -1.1471
 5160SOL     OW16963   2.192   4.432   2.468  0.1977 -0.5087  0.5662
 5160SOL    HW116964   2.191   4.337   2.474  1.8898 -0.5978 -0.4921
 5160SOL    HW216965   2.143   4.452   2.388 -0.2150 -0.4690  0.8233
 5161SOL     OW16966   3.200   1.507   0.698 -0.3498  0.4973  0.0226
 5161SOL    HW116967   3.183   1.543   0.785  0.5168 -1.8309  1.1998
 5161SOL    HW216968   3.260   1.570   0.657  3.4364 -0.8863  3.0976
 5162SOL     OW16969   2.167   0.056   4.100 -0.1100  0.1408 -0.6568
 5162SOL    HW116970   2.247   0.108   4.105  0.2000 -0.2461 -1.4542
 5162SOL    HW216971   2.144   0.037   4.191  1.1379 -0.4091 -0.4510
 5163SOL     OW16972   4.362   4.615   3.701 -0.0420 -0.2983 -0.0405
 5163SOL    HW116973   4.285   4.600   3.756 -0.1515 -0.7866 -0.3255
 5163SOL    HW216974   4.374   4.532   3.654  0.2767 -0.0091 -0.4657
 5164SOL     OW16975   1.096   4.181   7.151 -0.1767 -0.1709 -0.1518
 5164SOL    HW116976   1.049   4.230   7.084 -0.5452 -0.2479  0.0512
 5164SOL    HW216977   1.099   4.240   7.226 -1.5953 -0.8717  0.4728
 5165SOL     OW16978   5.316   5.236   1.432  0.2719  0.3385  0.1188
 5165SOL    HW116979   5.410   5.252   1.417  0.3814  1.5148  1.9105
 5165SOL    HW216980   5.279   5.323   1.448 -0.8245 -0.2924  1.0560
 5166SOL     OW16981   7.691   3.721   2.351 -0.5960 -0.1125 -0.1010
 5166SOL    HW116982   7.687   3.721   2.446  0.6319  1.9559 -0.0167
 5166SOL    HW216983   7.604   3.751   2.324 -0.7865 -0.2102  0.3991
 5167SOL     OW16984   5.376   8.024   5.199  0.1649  0.0015  0.4229
 5167SOL    HW116985   5.380   8.094   5.135 -0.3924  0.4588  0.8842
 5167SOL    HW216986   5.436   8.051   5.269  0.4191 -0.2738  0.3130
 5168SOL     OW16987   6.978   7.912   6.308  0.6782 -0.0932  0.2061
 5168SOL    HW116988   6.912   7.976   6.282  2.2514  0.7007 -2.0112
 5168SOL    HW216989   7.007   7.940   6.394  0.0599  1.1299  0.0176
 5169SOL     OW16990   4.402   7.648   0.617 -0.4396  0.5991 -0.0647
 5169SOL    HW116991   4.336   7.659   0.549 -0.0263 -1.4076 -0.8359
 5169SOL    HW216992   4.481   7.621   0.569  0.1619  0.2391  1.1041
 5170SOL     OW16993   4.408   7.630   6.368 -0.3329  0.4335  0.3056
 5170SOL    HW116994   4.477   7.609   6.431  0.6411  0.6703 -0.6613
 5170SOL    HW216995   4.455   7.653   6.288 -1.5587 -0.5129 -0.7162
 5171SOL     OW16996   2.741   6.383   1.776  0.0675 -0.5562 -0.0600
 5171SOL    HW116997   2.835   6.400   1.767  0.0575 -0.2359  0.4407
 5171SOL    HW216998   2.717   6.423   1.859 -0.6775  0.0410 -0.5605
 5172SOL     OW16999   4.802   6.176   1.779  0.1224  1.0184 -0.2382
 5172SOL    HW117000   4.841   6.093   1.751 -1.0193  0.5092 -0.3750
 5172SOL    HW217001   4.782   6.222   1.698 -0.4938  0.8219 -0.2054
 5173SOL     OW17002   5.300   0.097   8.223  0.4541 -0.8075  0.5388
 5173SOL    HW117003   5.229   0.050   8.179  1.2465  0.5736 -2.3624
 5173SOL    HW217004   5.340   0.032   8.280 -1.2450 -2.4199 -0.0646
 5174SOL     OW17005   0.004   2.839   7.808  0.9847  0.4776  0.2451
 5174SOL    HW117006  -0.004   2.745   7.794 -0.0019  0.5351  0.3984
 5174SOL    HW217007   0.031   2.873   7.722  3.0104 -0.1268  0.6183
 5175SOL     OW17008   7.454   7.949   5.686 -0.0297 -0.4216  0.0572
 5175SOL    HW117009   7.414   7.867   5.656  0.3587 -0.5658 -0.0765
 5175SOL    HW217010   7.389   7.987   5.745 -0.0868 -0.9815  0.3627
 5176SOL     OW17011   5.573   7.135   6.282  0.2424 -0.7330  0.2150
 5176SOL    HW117012   5.555   7.190   6.359  2.5037 -1.5003  1.3541
 5176SOL    HW217013   5.583   7.197   6.210  0.4018  0.1833  1.0171
 5177SOL     OW17014   4.537   5.328   8.086  0.2360  0.7973 -0.3322
 5177SOL    HW117015   4.514   5.245   8.127  1.0241  0.9269  0.3944
 5177SOL    HW217016   4.552   5.387   8.159  3.2814  0.5965 -0.7389
 5178SOL     OW17017   8.238   1.873   7.555  0.2211 -0.0380 -0.0419
 5178SOL    HW117018   8.177   1.801   7.539 -0.7036  0.9405 -1.0174
 5178SOL    HW217019   8.303   1.836   7.615 -1.6166 -0.9527  1.4496
 5179SOL     OW17020   5.355   0.198   7.279  0.0643  0.2934  0.1227
 5179SOL    HW117021   5.405   0.117   7.282  0.5751  0.6297  0.7064
 5179SOL    HW217022   5.264   0.170   7.270  0.1000 -0.3758  1.7392
 5180SOL     OW17023   7.578   1.091   5.183  0.2020 -0.4362 -0.5305
 5180SOL    HW117024   7.565   1.134   5.098  0.3365 -0.5241 -0.5950
 5180SOL    HW217025   7.496   1.044   5.199 -0.6460  1.2898  0.3711
 5181SOL     OW17026   5.080   1.955   1.146 -0.2529 -0.2633 -0.1816
 5181SOL    HW117027   5.154   1.986   1.197 -0.1540  0.8617 -0.9855
 5181SOL    HW217028   5.008   2.015   1.169 -0.7484 -0.9669  0.1274
 5182SOL     OW17029   1.840   8.204   1.662 -0.0033 -0.6952  0.4142
 5182SOL    HW117030   1.855   8.272   1.728  0.5687 -0.7582  0.3481
 5182SOL    HW217031   1.830   8.253   1.580  1.1098 -0.7231  0.2494
 5183SOL     OW17032   5.800   3.345   5.690  0.7898  0.2540 -0.6963
 5183SOL    HW117033   5.872   3.359   5.629  1.7336 -1.7521 -0.0778
 5183SOL    HW217034   5.809   3.253   5.718 -1.6102  0.1554 -0.1267
 5184SOL     OW17035   1.746   6.672   3.023 -0.6334 -0.2260 -0.1134
 5184SOL    HW117036   1.654   6.689   3.043 -0.2623  0.1442  1.3195
 5184SOL    HW217037   1.756   6.577   3.028 -1.1062 -0.3355 -1.0737
 5185SOL     OW17038   8.215   6.742   1.995 -0.3375  0.4271  0.2712
 5185SOL    HW117039   8.212   6.748   2.090 -1.0701  0.4404  0.2511
 5185SOL    HW217040   8.195   6.830   1.964  0.2376  0.5017  0.1078
 5186SOL     OW17041   3.349   5.771   5.628 -0.0851  0.3792  0.0238
 5186SOL    HW117042   3.300   5.853   5.624 -0.2441  0.2122 -1.9385
 5186SOL    HW217043   3.296   5.709   5.579  1.8963  0.1111 -1.8856
 5187SOL     OW17044   7.612   7.364   4.390  0.0527 -0.6963  0.5809
 5187SOL    HW117045   7.590   7.449   4.352 -0.8438 -1.8571 -1.5936
 5187SOL    HW217046   7.528   7.331   4.424 -0.1034 -1.8092 -0.8626
 5188SOL     OW17047   5.240   3.243   4.984  0.3581 -0.2531  0.2752
 5188SOL    HW117048   5.146   3.260   4.980  0.3325 -0.6042 -1.1351
 5188SOL    HW217049   5.252   3.192   5.064 -0.3751  1.3454  1.4453
 5189SOL     OW17050   0.953   2.347   3.527 -0.1934  0.0125  0.0184
 5189SOL    HW117051   1.033   2.397   3.514 -0.5479  1.0460  1.6719
 5189SOL    HW217052   0.982   2.256   3.529  0.6443  0.2223 -1.5710
 5190SOL     OW17053   5.614   4.556   6.558 -0.0190  0.2191  0.1812
 5190SOL    HW117054   5.604   4.637   6.507  0.3516 -0.4196 -0.9231
 5190SOL    HW217055   5.526   4.540   6.593 -0.0171  1.2950  0.7174
 5191SOL     OW17056   0.134   2.048   4.013 -0.4363 -0.3215 -0.1169
 5191SOL    HW117057   0.088   2.128   4.039 -1.2612 -0.9116  0.2630
 5191SOL    HW217058   0.073   1.978   4.034  0.3282 -1.0604 -0.3534
 5192SOL     OW17059   4.441   0.019   3.203 -0.0869 -0.0187  0.3923
 5192SOL    HW117060   4.445   0.077   3.279 -1.1519 -0.9864  1.2119
 5192SOL    HW217061   4.397  -0.060   3.235  0.2691 -0.8094 -1.0001
 5193SOL     OW17062   5.418   7.645   1.267  0.0739 -0.3722  0.1363
 5193SOL    HW117063   5.487   7.613   1.327  0.0891 -2.5197 -0.9700
 5193SOL    HW217064   5.465   7.667   1.187 -0.3406 -0.4662 -0.1302
 5194SOL     OW17065   4.953   8.110   2.110 -0.3480  1.0089 -0.1279
 5194SOL    HW117066   5.036   8.098   2.065 -0.9005 -1.3697 -0.6046
 5194SOL    HW217067   4.976   8.148   2.195  1.2999 -0.2919  0.0242
 5195SOL     OW17068   4.002   2.451   0.383 -0.1139 -0.1151  0.4572
 5195SOL    HW117069   3.966   2.442   0.471  0.9874 -1.8093  0.7568
 5195SOL    HW217070   4.070   2.384   0.378  0.5165  0.6342 -1.3408
 5196SOL     OW17071   6.079   0.971   4.826 -0.1440 -0.7960 -0.4293
 5196SOL    HW117072   6.125   0.904   4.877 -1.2802 -1.4386 -0.2228
 5196SOL    HW217073   6.062   1.041   4.889  1.6377 -0.0127 -0.8061
 5197SOL     OW17074   1.634   1.502   5.358 -0.2694 -0.1553  0.5092
 5197SOL    HW117075   1.705   1.530   5.300  1.7546 -0.3648  2.7954
 5197SOL    HW217076   1.558   1.552   5.329  1.1183  1.0437 -1.1848
 5198SOL     OW17077   6.974   6.444   6.505  0.5261  0.6878  0.4203
 5198SOL    HW117078   7.017   6.363   6.476  1.8921  0.7687  2.1668
 5198SOL    HW217079   6.882   6.421   6.512  0.5557 -0.0724 -1.3646
 5199SOL     OW17080   4.710   2.355   6.219  0.1241  0.2146  0.3498
 5199SOL    HW117081   4.695   2.320   6.307 -1.5540 -0.2847 -0.1084
 5199SOL    HW217082   4.634   2.411   6.203  0.4265  0.3003 -0.7765
 5200SOL     OW17083   7.072   0.870   7.479 -0.0446  0.0420  0.5162
 5200SOL    HW117084   7.012   0.798   7.500  0.0145  0.8372  3.6459
 5200SOL    HW217085   7.015   0.945   7.462 -0.0467 -0.2922 -1.0358
 5201SOL     OW17086   3.985   5.442   6.387  0.2690 -0.1848  0.2460
 5201SOL    HW117087   3.982   5.349   6.409 -0.3945  0.0468  1.1430
 5201SOL    HW217088   3.977   5.487   6.471  3.7469  0.6830  0.1951
 5202SOL     OW17089   6.202   0.447   7.221 -0.3171  0.1544 -0.2775
 5202SOL    HW117090   6.144   0.394   7.166  0.2602  1.0044 -1.7282
 5202SOL    HW217091   6.145   0.481   7.290 -1.7181  1.5570 -2.0773
 5203SOL     OW17092   7.483   7.224   0.944 -0.1426  0.2496  0.3460
 5203SOL    HW117093   7.569   7.261   0.920  0.3961 -0.1800  1.6147
 5203SOL    HW217094   7.421   7.295   0.924  0.8657  1.8263  2.6318
 5204SOL     OW17095   7.705   4.677   1.379 -0.3048 -0.8676 -0.2472
 5204SOL    HW117096   7.735   4.597   1.337  1.0860 -0.0081 -0.9414
 5204SOL    HW217097   7.693   4.653   1.471 -0.6132 -2.0429 -0.5818
 5205SOL     OW17098   4.825   4.305   6.706 -0.0688  0.0900  0.0077
 5205SOL    HW117099   4.862   4.289   6.793 -1.5401 -0.2800  0.5874
 5205SOL    HW217100   4.798   4.397   6.709  2.1424  0.7873 -0.9343
 5206SOL     OW17101   1.443   3.364   0.027  0.3137  0.6360  0.2972
 5206SOL    HW117102   1.450   3.324  -0.060 -0.9883  0.4788  0.2437
 5206SOL    HW217103   1.352   3.348   0.053  0.4884  1.3286  1.3743
 5207SOL     OW17104   6.198   3.183   4.979 -0.4748 -0.4154 -0.5111
 5207SOL    HW117105   6.113   3.141   4.996 -0.2035 -1.4910 -1.7559
 5207SOL    HW217106   6.211   3.241   5.054 -0.9963 -2.3578  1.1410
 5208SOL     OW17107   2.529   0.394   7.321  0.2211 -0.2860  0.0089
 5208SOL    HW117108   2.456   0.392   7.259  0.2880 -0.6397 -0.0578
 5208SOL    HW217109   2.488   0.377   7.406  0.1929 -0.2332  0.0062
 5209SOL     OW17110   6.447   5.769   0.029 -0.1196  0.4398  0.2124
 5209SOL    HW117111   6.396   5.824  -0.029  0.4801  0.3397 -0.4236
 5209SOL    HW217112   6.415   5.680   0.013 -0.3981  0.4876  0.5056
 5210SOL     OW17113   7.717   5.088   7.254 -0.3456 -0.3828 -0.0051
 5210SOL    HW117114   7.622   5.079   7.250 -0.2703 -1.0462 -0.4462
 5210SOL    HW217115   7.749   5.036   7.180  0.5110 -2.5851  1.8475
 5211SOL     OW17116   6.245   6.129   5.083  0.2438  0.3051  0.0272
 5211SOL    HW117117   6.246   6.207   5.139 -1.1083 -0.2908  0.9170
 5211SOL    HW217118   6.232   6.056   5.144 -1.7994 -0.3144 -1.0965
 5212SOL     OW17119   2.073   0.554   7.191  0.2732 -0.2616  0.2425
 5212SOL    HW117120   1.993   0.606   7.195  0.1534 -0.5573  1.9815
 5212SOL    HW217121   2.144   0.618   7.196  0.1297 -0.2358  2.0050
 5213SOL     OW17122   2.791   7.833   6.295 -0.3742 -0.4054 -0.1577
 5213SOL    HW117123   2.851   7.900   6.261  0.4297 -1.5624 -1.0509
 5213SOL    HW217124   2.787   7.851   6.389  1.8148 -0.6227  0.0128
 5214SOL     OW17125   3.674   6.705   5.509  0.3154  0.2395  0.2808
 5214SOL    HW117126   3.769   6.702   5.498  0.4655 -1.6755  1.9234
 5214SOL    HW217127   3.655   6.798   5.525  1.9504  0.5710  0.3808
 5215SOL     OW17128   6.213   2.626   6.339  0.5446  0.2955 -0.6031
 5215SOL    HW117129   6.132   2.676   6.341  1.8317  2.4185  0.6455
 5215SOL    HW217130   6.281   2.692   6.325  2.2198 -1.2037  0.2642
 5216SOL     OW17131   0.427   8.016   0.936 -0.0857 -0.6623 -0.2728
 5216SOL    HW117132   0.343   7.995   0.978 -0.9659 -0.4028 -1.8744
 5216SOL    HW217133   0.452   8.100   0.974 -0.8926 -0.4081 -0.2821
 5217SOL     OW17134   2.650   6.906   7.504  0.2635 -0.1478 -0.3681
 5217SOL    HW117135   2.666   6.812   7.495  0.2690 -0.2266  0.3898
 5217SOL    HW217136   2.605   6.930   7.423 -2.4873 -1.4258  0.6955
 5218SOL     OW17137   3.186   8.164   0.264 -0.4796  0.1402  0.5649
 5218SOL    HW117138   3.209   8.238   0.320  1.2891 -0.8411  1.1377
 5218SOL    HW217139   3.118   8.118   0.313 -1.2751  1.1034  0.4056
 5219SOL     OW17140   4.427   8.196   1.194 -0.6639  0.0718  0.2789
 5219SOL    HW117141   4.372   8.190   1.116  0.3165 -1.3648 -0.3279
 5219SOL    HW217142   4.365   8.196   1.267 -1.5406  0.0294 -0.4518
 5220SOL     OW17143   0.969   3.468   2.548  0.1903  0.0996  0.1561
 5220SOL    HW117144   0.989   3.435   2.635 -0.5420  1.0238  0.6872
 5220SOL    HW217145   1.046   3.448   2.496  0.7776 -0.1311  1.1050
 5221SOL     OW17146   7.413   7.343   2.347  0.5062 -0.4351 -0.5404
 5221SOL    HW117147   7.383   7.408   2.284  0.2723  1.7438  1.7445
 5221SOL    HW217148   7.424   7.263   2.295 -0.4039  1.0717 -3.1703
 5222SOL     OW17149   0.225   3.460   5.346  0.2636  0.5742 -0.5114
 5222SOL    HW117150   0.174   3.428   5.420 -0.1011 -0.2924 -1.1310
 5222SOL    HW217151   0.231   3.554   5.360 -1.2093  0.6371 -0.2611
 5223SOL     OW17152   1.230   4.214   4.297 -0.0930 -0.2595 -0.5810
 5223SOL    HW117153   1.195   4.128   4.320 -1.7943  0.4345 -0.4597
 5223SOL    HW217154   1.307   4.195   4.243  1.1823 -1.8591  1.7075
 5224SOL     OW17155   7.476   6.438   7.117  0.4683  0.3138 -0.6089
 5224SOL    HW117156   7.481   6.390   7.200 -1.0763 -1.0653 -1.2795
 5224SOL    HW217157   7.567   6.453   7.092  0.9524 -0.3863  0.7006
 5225SOL     OW17158   7.443   6.547   3.796 -0.2375  0.5990 -0.4269
 5225SOL    HW117159   7.450   6.642   3.796  1.0891  0.5016  0.4065
 5225SOL    HW217160   7.440   6.522   3.889  1.1884 -0.2919 -0.6007
 5226SOL     OW17161   1.145   2.958   0.120  0.0446  0.6474  0.3563
 5226SOL    HW117162   1.106   3.042   0.143 -0.4969  0.8553 -1.2789
 5226SOL    HW217163   1.125   2.901   0.194  1.1925  2.1824  1.8976
 5227SOL     OW17164   0.689   5.561   1.298  0.3922 -0.1321 -0.5373
 5227SOL    HW117165   0.742   5.630   1.338 -0.9501 -0.7863  2.5337
 5227SOL    HW217166   0.750   5.488   1.286  0.5831 -0.3231  1.4555
 5228SOL     OW17167   2.076   2.119   7.585  0.1549  0.3098 -0.2903
 5228SOL    HW117168   2.068   2.066   7.506 -0.0908  0.9575 -0.7075
 5228SOL    HW217169   2.077   2.056   7.656  3.3097 -0.5073 -0.9577
 5229SOL     OW17170   5.105   2.967   1.225  0.2511  0.2974 -0.2613
 5229SOL    HW117171   5.093   3.034   1.157  1.4877  0.4558 -0.3422
 5229SOL    HW217172   5.079   3.010   1.306 -0.2031  0.4593 -0.4917
 5230SOL     OW17173   3.966   7.568   2.990  0.2001 -0.1524 -0.0810
 5230SOL    HW117174   4.027   7.553   2.919  1.8947 -1.3237  1.5784
 5230SOL    HW217175   4.014   7.622   3.053  0.6309 -3.4597  2.5924
 5231SOL     OW17176   0.793   3.012   5.535  0.0269 -0.5949  0.6365
 5231SOL    HW117177   0.869   3.066   5.513  0.1435 -1.3953 -1.0479
 5231SOL    HW217178   0.718   3.066   5.510  0.0040  0.4106  2.8031
 5232SOL     OW17179   3.293   0.855   2.872  0.0471 -0.3024 -0.4492
 5232SOL    HW117180   3.365   0.916   2.851 -0.2110 -0.0796 -0.6815
 5232SOL    HW217181   3.265   0.821   2.788 -1.8219  1.5357 -0.6084
 5233SOL     OW17182   7.458   0.128   2.463  0.3768  0.3456 -0.6530
 5233SOL    HW117183   7.404   0.207   2.469 -0.5749 -0.3279 -0.2812
 5233SOL    HW217184   7.524   0.139   2.531 -2.2489 -1.0711  2.2214
 5234SOL     OW17185   7.037   6.891   5.233  0.1431 -0.0346 -0.7336
 5234SOL    HW117186   7.071   6.843   5.157 -0.5195 -2.2253  0.2957
 5234SOL    HW217187   7.100   6.872   5.303  0.3912  1.4100 -0.5689
 5235SOL     OW17188   3.450   6.925   3.179  0.3481 -0.1371 -0.4770
 5235SOL    HW117189   3.375   6.896   3.127 -0.5788 -0.8929  1.2179
 5235SOL    HW217190   3.412   6.948   3.264  2.3286 -3.1164  1.3300
 5236SOL     OW17191   2.355   6.405   0.989  0.1605  0.1043  0.6644
 5236SOL    HW117192   2.267   6.405   1.028  0.1853  0.5406  0.7257
 5236SOL    HW217193   2.414   6.387   1.062  0.0898 -0.6058  0.5460
 5237SOL     OW17194   5.334   0.194   3.285 -0.5320  0.2032 -0.2021
 5237SOL    HW117195   5.267   0.260   3.305 -0.3599  0.6394 -1.0316
 5237SOL    HW217196   5.391   0.237   3.222  1.6091  0.5045  1.8444
 5238SOL     OW17197   2.513   8.267   4.909 -0.2542  0.0543  0.3923
 5238SOL    HW117198   2.546   8.293   4.823  1.9250 -1.7655  0.6420
 5238SOL    HW217199   2.488   8.175   4.898  1.2667 -0.5736  2.0472
 5239SOL     OW17200   7.181   6.060   5.943  0.2053  0.5637 -0.0833
 5239SOL    HW117201   7.089   6.068   5.967 -0.5514 -0.5125 -2.4463
 5239SOL    HW217202   7.220   6.008   6.014 -1.2173  0.1638  0.4232
 5240SOL     OW17203   8.247   2.448   3.093 -0.1904 -0.1358  0.0284
 5240SOL    HW117204   8.213   2.510   3.159  2.4041  0.3339  0.9668
 5240SOL    HW217205   8.328   2.488   3.062 -0.2453 -1.4400 -1.8612
 5241SOL     OW17206   7.278   1.859   7.459  0.1180 -0.1517  0.1566
 5241SOL    HW117207   7.243   1.879   7.546  1.6912  2.1229  0.2936
 5241SOL    HW217208   7.227   1.913   7.399 -1.3625 -2.1528 -0.4392
 5242SOL     OW17209   4.004   1.693   5.714 -0.5337  0.0598 -0.1419
 5242SOL    HW117210   4.059   1.732   5.782 -1.1670 -0.1318  0.4796
 5242SOL    HW217211   4.060   1.626   5.673 -0.1625  0.1622  0.1934
 5243SOL     OW17212   1.309   1.675   4.508 -0.6086  0.0491  0.3245
 5243SOL    HW117213   1.288   1.583   4.524 -0.4765  0.0318  0.3965
 5243SOL    HW217214   1.235   1.708   4.457 -0.5288 -0.1647  0.0740
 5244SOL     OW17215   5.729   4.739   2.259 -0.3823  0.1740 -0.0502
 5244SOL    HW117216   5.802   4.752   2.319 -0.3551 -0.4466  0.0573
 5244SOL    HW217217   5.718   4.644   2.255 -2.1001  0.3218  1.0111
 5245SOL     OW17218   5.887   4.858   0.596 -0.5196 -0.1777  0.2445
 5245SOL    HW117219   5.947   4.850   0.671  0.7606 -0.8974 -0.8170
 5245SOL    HW217220   5.930   4.807   0.526 -1.8628  0.1832 -0.8629
 5246SOL     OW17221   0.854   7.390   3.297  0.7911 -0.8093 -0.0515
 5246SOL    HW117222   0.876   7.307   3.339 -0.7824 -0.9443  0.5050
 5246SOL    HW217223   0.897   7.457   3.351 -1.6747 -0.9386  2.1069
 5247SOL     OW17224   1.277   6.584   5.818 -0.8445  0.5562  0.3283
 5247SOL    HW117225   1.314   6.639   5.888  0.6883 -0.3473  0.2509
 5247SOL    HW217226   1.308   6.624   5.737  0.0467 -0.2468  0.2647
 5248SOL     OW17227   6.623   4.899   6.492  0.8597 -0.2332  0.0603
 5248SOL    HW117228   6.648   4.864   6.578 -0.9938  1.3712  1.2733
 5248SOL    HW217229   6.547   4.847   6.466  0.6515  0.1277 -0.0466
 5249SOL     OW17230   7.916   2.064   5.101 -0.0966 -0.1244  0.1754
 5249SOL    HW117231   7.981   2.041   5.168 -1.6064 -0.5867  1.5203
 5249SOL    HW217232   7.935   2.155   5.078  0.9502 -0.2249  0.6208
 5250SOL     OW17233   1.971   3.621   3.878  0.5272  0.1482 -0.1812
 5250SOL    HW117234   2.038   3.686   3.855  2.4584 -2.1020 -1.0564
 5250SOL    HW217235   2.009   3.571   3.950 -0.2025 -1.1710 -0.6944
 5251SOL     OW17236   1.351   6.623   8.017  0.1934  0.5544 -0.1238
 5251SOL    HW117237   1.383   6.669   8.095 -0.9973  1.4452 -0.1406
 5251SOL    HW217238   1.326   6.694   7.957  0.0162 -0.1320 -0.8651
 5252SOL     OW17239   5.512   5.828   6.532 -0.2384  0.2525  0.1575
 5252SOL    HW117240   5.481   5.805   6.444 -0.9795 -2.2311  1.0276
 5252SOL    HW217241   5.502   5.923   6.536 -0.1581  0.4206 -2.4504
 5253SOL     OW17242   3.446   4.154   4.650  0.5653 -0.1587 -0.2555
 5253SOL    HW117243   3.458   4.113   4.735  1.4017 -1.1158 -0.8246
 5253SOL    HW217244   3.359   4.126   4.621  0.6441 -0.5565 -0.1099
 5254SOL     OW17245   3.675   5.436   8.203  0.1337 -0.0855 -0.2223
 5254SOL    HW117246   3.674   5.348   8.167 -0.5737 -0.0500 -0.3056
 5254SOL    HW217247   3.713   5.490   8.134 -1.0712 -0.0418 -0.8577
 5255SOL     OW17248   3.233   2.323   3.446  0.5128  0.1695 -0.1805
 5255SOL    HW117249   3.252   2.235   3.413  1.6890  0.6810 -0.9269
 5255SOL    HW217250   3.316   2.369   3.436  0.5846  0.6634  2.4993
 5256SOL     OW17251   4.005   0.415   5.987  0.5524 -0.1865  0.1925
 5256SOL    HW117252   3.992   0.378   5.899 -0.3840  2.0427 -0.6270
 5256SOL    HW217253   3.993   0.509   5.976  2.2520  0.3277  2.3770
 5257SOL     OW17254   5.674   5.525   1.917  0.5465 -0.1191  0.1889
 5257SOL    HW117255   5.685   5.445   1.865  3.2003 -0.5359  1.3463
 5257SOL    HW217256   5.676   5.494   2.008  1.8339  1.2972  0.6498
 5258SOL     OW17257   2.497   1.211   6.261 -0.0559 -0.0821 -0.3635
 5258SOL    HW117258   2.543   1.289   6.292  1.3115 -0.8934 -0.3025
 5258SOL    HW217259   2.477   1.229   6.170 -0.9882  0.9086  0.0336
 5259SOL     OW17260   4.662   6.442   2.768  0.3708 -0.2463  0.1926
 5259SOL    HW117261   4.695   6.531   2.779 -0.8217  0.2346  0.0272
 5259SOL    HW217262   4.589   6.452   2.707 -0.1863 -1.2393  0.6918
 5260SOL     OW17263   4.140   0.471   4.880 -0.0419  0.2766  0.2144
 5260SOL    HW117264   4.230   0.445   4.900 -0.2136  0.1899  0.8767
 5260SOL    HW217265   4.125   0.438   4.791 -0.1165 -1.5746  0.8820
 5261SOL     OW17266   1.732   2.217   0.496 -0.1461 -0.3494  0.4062
 5261SOL    HW117267   1.691   2.280   0.437 -0.2438  0.1488  1.0094
 5261SOL    HW217268   1.811   2.261   0.528  1.5000 -1.7131 -1.6218
 5262SOL     OW17269   7.091   4.150   0.833 -0.1518 -1.2529  0.1561
 5262SOL    HW117270   7.058   4.122   0.748 -0.5320 -1.3559  0.3361
 5262SOL    HW217271   7.024   4.123   0.895 -0.1726 -0.6175  0.4160
 5263SOL     OW17272   8.041   1.673   7.468  0.4618 -0.5426  0.1307
 5263SOL    HW117273   7.952   1.644   7.445  0.2370 -0.3210  0.7106
 5263SOL    HW217274   8.095   1.595   7.457  0.1748 -0.7108 -0.1011
 5264SOL     OW17275   4.361   1.574   2.114  0.4707 -0.5225 -0.3136
 5264SOL    HW117276   4.295   1.573   2.183  1.7745 -0.1950  0.9655
 5264SOL    HW217277   4.444   1.582   2.161  1.6377 -3.5444 -1.7332
 5265SOL     OW17278   6.775   4.146   1.288 -0.0084 -0.5153  0.5504
 5265SOL    HW117279   6.696   4.107   1.251  0.0120  0.4588 -0.5405
 5265SOL    HW217280   6.769   4.127   1.382 -2.0269  0.3838  0.6421
 5266SOL     OW17281   2.796   6.344   2.739  0.2660 -0.2080 -0.2455
 5266SOL    HW117282   2.891   6.331   2.739  0.5299  1.5488  0.1564
 5266SOL    HW217283   2.778   6.385   2.824 -0.5041  1.7056 -1.2988
 5267SOL     OW17284   2.197   2.374   4.623  0.5374 -0.0179  0.0942
 5267SOL    HW117285   2.146   2.321   4.685 -0.7325 -0.6286 -1.4428
 5267SOL    HW217286   2.133   2.403   4.558  1.9187  0.3520 -1.1273
 5268SOL     OW17287   0.531   3.735   0.250  0.2766 -0.7000 -0.3864
 5268SOL    HW117288   0.561   3.709   0.337  2.0800  1.7653 -0.2259
 5268SOL    HW217289   0.608   3.776   0.210 -1.0674 -0.1368 -2.4394
 5269SOL     OW17290   2.875   1.515   0.969  0.4642  0.0259 -0.5273
 5269SOL    HW117291   2.812   1.505   0.898  1.4462  0.2983 -1.4504
 5269SOL    HW217292   2.916   1.429   0.978  0.9525  0.2159 -0.8864
 5270SOL     OW17293   7.135   3.856   4.514 -0.1930 -0.1357 -0.3041
 5270SOL    HW117294   7.116   3.948   4.535  1.7626  1.4213 -4.7792
 5270SOL    HW217295   7.208   3.833   4.572 -0.8819  1.0228  1.0458
 5271SOL     OW17296   6.764   2.285   2.966  0.4091 -0.3208 -0.3499
 5271SOL    HW117297   6.808   2.363   2.999 -0.1675  0.1678 -0.7204
 5271SOL    HW217298   6.793   2.277   2.875  1.0864 -1.0006 -0.0856
 5272SOL     OW17299   1.229   1.440   2.538  0.6414  0.0398  0.3107
 5272SOL    HW117300   1.144   1.408   2.567  0.7333 -1.6359 -1.1818
 5272SOL    HW217301   1.292   1.382   2.581  0.9617  0.4458  0.3861
 5273SOL     OW17302   7.981   7.071   7.676  0.2177  0.1281 -0.4008
 5273SOL    HW117303   7.956   6.979   7.685  1.6364 -0.1386  1.2762
 5273SOL    HW217304   8.024   7.091   7.760 -2.2271  3.0022  0.2318
 5274SOL     OW17305   4.365   8.150   6.131 -0.5893 -0.3789  0.1962
 5274SOL    HW117306   4.272   8.133   6.141 -0.7066  0.6349  0.9789
 5274SOL    HW217307   4.371   8.245   6.121  0.2433 -0.5760 -1.2795
 5275SOL     OW17308   7.499   5.767   0.754  0.1343  0.5785  0.3269
 5275SOL    HW117309   7.455   5.852   0.753 -0.1715  0.4420  1.5523
 5275SOL    HW217310   7.543   5.764   0.839 -1.0853 -1.1085  0.9111
 5276SOL     OW17311   3.969   2.587   2.968  0.0105 -0.2830  0.6752
 5276SOL    HW117312   3.954   2.595   3.063 -0.8291  2.1869  0.3682
 5276SOL    HW217313   3.885   2.613   2.929  0.1345 -1.9857 -0.7392
 5277SOL     OW17314   0.914   0.104   0.710  0.5589  0.2677 -0.4747
 5277SOL    HW117315   0.930   0.068   0.623  1.2189  0.6257 -0.5003
 5277SOL    HW217316   0.839   0.162   0.698  0.2960 -0.1072 -0.6861
 5278SOL     OW17317   8.202   6.342   1.843  0.0358 -0.3327 -0.1266
 5278SOL    HW117318   8.246   6.329   1.759  0.0028  1.0313 -0.3624
 5278SOL    HW217319   8.270   6.374   1.901 -0.2740  0.1805 -0.0442
 5279SOL     OW17320   2.218   7.419   8.026  0.3489  0.2972 -0.2988
 5279SOL    HW117321   2.298   7.393   8.072 -0.4565  0.9314  1.5206
 5279SOL    HW217322   2.193   7.342   7.975  0.4797 -0.9505  1.4687
 5280SOL     OW17323   1.641   2.970   6.777  0.2305 -0.2745  0.1546
 5280SOL    HW117324   1.600   2.884   6.777  0.1579 -0.2451 -0.4955
 5280SOL    HW217325   1.681   2.978   6.690  0.6443  0.1542  0.3794
 5281SOL     OW17326   5.571   4.275   0.505  0.8794  0.5283 -0.3133
 5281SOL    HW117327   5.475   4.272   0.505  0.8023  2.1310 -1.1193
 5281SOL    HW217328   5.598   4.187   0.480 -0.3675 -0.1076  0.5268
 5282SOL     OW17329   5.947   5.110   4.977  0.3040  0.8298  0.2165
 5282SOL    HW117330   6.011   5.042   4.999  0.9105  1.6157  0.9011
 5282SOL    HW217331   5.911   5.083   4.892 -0.8762 -1.3595  1.3941
 5283SOL     OW17332   5.821   3.997   3.411 -0.6644  0.2681  0.7393
 5283SOL    HW117333   5.818   3.915   3.362  0.5224 -0.6219  2.1292
 5283SOL    HW217334   5.776   4.060   3.355 -0.6624 -1.0830 -0.8083
 5284SOL     OW17335   2.340   4.700   4.439  0.1094  0.2990 -0.0663
 5284SOL    HW117336   2.305   4.740   4.359  0.3308  0.7475  0.0609
 5284SOL    HW217337   2.267   4.701   4.501  0.2469  0.9288  0.0890
 5285SOL     OW17338   5.138   7.610   5.150  0.5178 -0.7372 -0.3680
 5285SOL    HW117339   5.162   7.672   5.219  0.7552 -0.2316 -0.9031
 5285SOL    HW217340   5.045   7.625   5.136  0.7069 -0.0579 -0.9345
 5286SOL     OW17341   3.069   2.826   2.104  0.1872 -0.2124 -0.2215
 5286SOL    HW117342   3.025   2.741   2.114  0.9844 -0.8176 -1.6841
 5286SOL    HW217343   3.161   2.807   2.123 -0.0602  0.9433  2.3097
 5287SOL     OW17344   0.443   6.910   2.105 -0.0347  0.1917 -0.0784
 5287SOL    HW117345   0.374   6.877   2.048 -1.5608  2.6977  0.2930
 5287SOL    HW217346   0.436   6.856   2.184 -0.6161 -0.5215 -0.6091
 5288SOL     OW17347   1.738   4.237   0.231  0.0686 -0.4743 -0.1703
 5288SOL    HW117348   1.646   4.236   0.256  0.2531  1.5653  0.7077
 5288SOL    HW217349   1.783   4.271   0.309  1.5022 -0.9327 -0.7793
 5289SOL     OW17350   1.030   3.337   1.889  1.0230  0.1722  0.0712
 5289SOL    HW117351   1.003   3.404   1.827 -1.6334 -0.1342  0.8363
 5289SOL    HW217352   0.960   3.272   1.888  1.9867 -0.9631  1.7384
 5290SOL     OW17353   6.603   0.833   4.484  0.3987  0.1625 -0.2790
 5290SOL    HW117354   6.512   0.824   4.511  0.7825 -1.5268  0.5711
 5290SOL    HW217355   6.634   0.912   4.528 -0.2787 -0.0356  0.5826
 5291SOL     OW17356   0.477   5.253   4.405 -0.0625  0.0028  0.2210
 5291SOL    HW117357   0.497   5.261   4.312  1.5519 -0.9872  0.4595
 5291SOL    HW217358   0.392   5.210   4.408 -1.1142  1.9496 -0.8062
 5292SOL     OW17359   3.420   6.202   0.900  0.1573  0.2579  0.1471
 5292SOL    HW117360   3.496   6.241   0.856 -0.4248  0.5590 -0.6106
 5292SOL    HW217361   3.410   6.116   0.859 -0.3452  0.5118 -0.2768
 5293SOL     OW17362   3.353   2.328   7.278 -0.0922 -0.1095 -0.0137
 5293SOL    HW117363   3.430   2.275   7.256  0.9086  1.1736  0.3976
 5293SOL    HW217364   3.357   2.402   7.218 -0.0547  0.8704  1.1951
 5294SOL     OW17365   2.864   2.413   6.971  0.2556  0.0648  0.0839
 5294SOL    HW117366   2.889   2.437   6.882 -1.0478  0.1196 -0.2709
 5294SOL    HW217367   2.773   2.443   6.980  0.2143 -0.3786  1.2613
 5295SOL     OW17368   5.814   7.938   0.207 -0.4909 -0.5467  0.2225
 5295SOL    HW117369   5.859   7.883   0.272 -0.5070 -0.7495  0.0648
 5295SOL    HW217370   5.877   8.006   0.185 -0.8286  0.0808  1.1544
 5296SOL     OW17371   7.686   4.869   3.047  0.1731  0.7120  0.4526
 5296SOL    HW117372   7.645   4.786   3.024  1.2477  0.0500  0.9130
 5296SOL    HW217373   7.668   4.880   3.140 -2.2717  2.3221 -0.1529
 5297SOL     OW17374   4.794   3.079   7.579  0.6042  0.6790  0.6459
 5297SOL    HW117375   4.870   3.097   7.523  1.8079 -1.3627  1.5841
 5297SOL    HW217376   4.832   3.053   7.663 -1.1531 -0.0747  1.2212
 5298SOL     OW17377   3.343   0.807   5.988 -0.3369 -0.0610  0.0611
 5298SOL    HW117378   3.415   0.797   5.926  0.1939 -0.9646  0.8084
 5298SOL    HW217379   3.265   0.813   5.933  0.1686 -0.3884 -0.7027
 5299SOL     OW17380   6.570   6.982   4.361  0.0237  0.3085 -0.3164
 5299SOL    HW117381   6.497   6.922   4.377 -1.4902  1.9666 -0.8200
 5299SOL    HW217382   6.625   6.973   4.439  1.2854 -3.6753 -1.5120
 5300SOL     OW17383   4.984   5.852   7.782  0.0094  0.1202  0.1865
 5300SOL    HW117384   4.891   5.834   7.793  0.0790 -1.0620 -1.1701
 5300SOL    HW217385   4.996   5.865   7.688  1.2060  0.3179  0.3522
 5301SOL     OW17386   8.108   5.145   4.454  0.6066 -0.2848 -0.1033
 5301SOL    HW117387   8.187   5.115   4.498 -0.1514  0.0598  1.5484
 5301SOL    HW217388   8.095   5.235   4.486  0.4061  0.2233 -1.5666
 5302SOL     OW17389   4.980   4.188   4.148  0.4762 -0.3784 -1.1775
 5302SOL    HW117390   5.049   4.140   4.194  0.4274  0.8198  0.1822
 5302SOL    HW217391   4.898   4.154   4.184  0.4409  0.6778 -0.2395
 5303SOL     OW17392   1.874   2.085   6.902  0.2824  0.0449 -0.8578
 5303SOL    HW117393   1.929   2.121   6.971 -1.6066 -1.5907  1.5863
 5303SOL    HW217394   1.822   2.159   6.871  1.0740  0.7612 -0.4804
 5304SOL     OW17395   2.256   4.800   2.899 -0.5866  0.7723 -0.3953
 5304SOL    HW117396   2.307   4.723   2.871 -2.1901 -0.7301  0.7649
 5304SOL    HW217397   2.222   4.837   2.817 -1.6605 -1.0846 -0.8119
 5305SOL     OW17398   2.757   1.721   1.241  0.4249 -0.3867  0.4047
 5305SOL    HW117399   2.717   1.805   1.221  1.0219  0.2149  1.6632
 5305SOL    HW217400   2.781   1.727   1.334  1.3228 -1.5951  0.2684
 5306SOL     OW17401   5.821   3.618   7.931  0.3042 -0.4061  0.0752
 5306SOL    HW117402   5.785   3.542   7.976 -0.5200 -0.1951 -0.2227
 5306SOL    HW217403   5.906   3.633   7.973 -0.0855 -0.7293  0.9867
 5307SOL     OW17404   1.634   5.420   5.552 -0.1722 -0.6336  0.3311
 5307SOL    HW117405   1.664   5.330   5.569  1.0321 -0.7795 -2.1946
 5307SOL    HW217406   1.539   5.412   5.542 -0.2088 -1.4287  1.2138
 5308SOL     OW17407   3.982   3.857   5.688  0.2705 -0.4495 -0.0692
 5308SOL    HW117408   3.952   3.945   5.709  1.4470 -0.0323 -0.0915
 5308SOL    HW217409   4.077   3.861   5.699  0.5087 -1.2723 -1.6539
 5309SOL     OW17410   5.820   4.715   1.495  0.1927 -0.3722  0.5143
 5309SOL    HW117411   5.906   4.674   1.503  0.3728 -0.3245 -1.0418
 5309SOL    HW217412   5.797   4.742   1.584  1.3448 -1.2769  1.0876
 5310SOL     OW17413   2.676   7.016   6.411  0.2304 -0.4211 -0.4079
 5310SOL    HW117414   2.664   6.962   6.489 -0.3170 -0.5616 -0.5819
 5310SOL    HW217415   2.764   7.052   6.419 -0.4865  1.1088  1.2624
 5311SOL     OW17416   5.855   5.210   2.539 -0.0148  0.0402  0.3122
 5311SOL    HW117417   5.770   5.178   2.507  0.2779 -0.8232  0.3919
 5311SOL    HW217418   5.843   5.219   2.633  0.1006 -0.4601  0.3764
 5312SOL     OW17419   2.945   5.192   0.965 -0.2320 -0.6369  0.2656
 5312SOL    HW117420   2.881   5.171   1.033 -0.8441 -1.7429 -0.6323
 5312SOL    HW217421   2.892   5.199   0.885  0.7016 -1.0983 -0.3989
 5313SOL     OW17422   6.305   4.253   5.298  0.1610  0.0500  0.6173
 5313SOL    HW117423   6.320   4.160   5.316 -1.0629 -0.4543 -0.8027
 5313SOL    HW217424   6.220   4.255   5.254 -0.4985  2.0100  1.9169
 5314SOL     OW17425   4.149   5.643   1.470 -0.3534  0.2933  0.1560
 5314SOL    HW117426   4.148   5.720   1.528  0.6481  1.7164 -1.6303
 5314SOL    HW217427   4.240   5.612   1.475 -0.0587  0.8965 -1.2035
 5315SOL     OW17428   4.987   0.496   5.691 -0.3724  0.2397 -0.3997
 5315SOL    HW117429   5.032   0.550   5.755  0.5768  0.5685 -1.3326
 5315SOL    HW217430   4.916   0.453   5.740  2.6415 -2.5095  1.7389
 5316SOL     OW17431   6.321   7.048   4.108  0.2967 -0.5696  0.1215
 5316SOL    HW117432   6.312   6.962   4.066 -1.8746 -0.5345  0.4640
 5316SOL    HW217433   6.233   7.069   4.139  0.9207  1.5351  0.5510
 5317SOL     OW17434   8.032   4.716   3.228 -0.3712  0.2003 -0.4176
 5317SOL    HW117435   8.101   4.729   3.163 -1.4068  1.7135 -1.2506
 5317SOL    HW217436   8.021   4.621   3.234  2.9193 -0.1691  0.9816
 5318SOL     OW17437   0.806   2.726   1.547 -0.4410  0.4882 -0.0097
 5318SOL    HW117438   0.747   2.784   1.499 -0.2055  0.8569  0.1430
 5318SOL    HW217439   0.749   2.679   1.608 -0.5887  0.7947  0.0892
 5319SOL     OW17440   4.635   1.489   1.203 -0.3199  0.1044 -0.4912
 5319SOL    HW117441   4.659   1.546   1.276 -1.1726 -1.4910  1.0645
 5319SOL    HW217442   4.706   1.425   1.199 -1.4646 -1.2671  0.5332
 5320SOL     OW17443   4.746   0.019   3.163 -0.7739  0.4250 -0.6046
 5320SOL    HW117444   4.731  -0.062   3.114 -0.2107  0.3429 -0.6439
 5320SOL    HW217445   4.669   0.073   3.144 -1.9717 -0.7673  0.7820
 5321SOL     OW17446   6.945   5.258   1.107  0.2774 -0.7544 -0.2109
 5321SOL    HW117447   6.886   5.280   1.035  2.7306  2.0852 -1.4705
 5321SOL    HW217448   7.032   5.284   1.075  1.8022 -2.0229  2.7354
 5322SOL     OW17449   4.238   3.177   3.632 -0.5303  0.6438  0.3440
 5322SOL    HW117450   4.171   3.113   3.609 -0.3250 -0.0641  1.6466
 5322SOL    HW217451   4.203   3.224   3.707  0.4860  0.1604  1.1347
 5323SOL     OW17452   5.968   6.945   3.518 -0.5639  0.0587 -0.3145
 5323SOL    HW117453   6.000   6.964   3.606 -0.8633  0.6860 -0.3415
 5323SOL    HW217454   5.894   7.005   3.505 -0.8888 -0.4310 -0.7687
 5324SOL     OW17455   3.843   5.381   4.092  0.1549 -0.2359  0.3312
 5324SOL    HW117456   3.818   5.349   4.005 -1.1625  0.6376  0.3900
 5324SOL    HW217457   3.939   5.375   4.092  0.1692 -0.2465 -1.1852
 5325SOL     OW17458   1.461   5.937   4.418 -0.7014 -0.3270 -0.4175
 5325SOL    HW117459   1.399   5.987   4.471  1.2573  0.4278  1.2279
 5325SOL    HW217460   1.464   5.983   4.334 -0.4787  1.0983  0.3604
 5326SOL     OW17461   2.752   4.319   1.179 -0.1719  0.5569  0.2157
 5326SOL    HW117462   2.778   4.284   1.094  1.6677  2.5804 -0.0905
 5326SOL    HW217463   2.763   4.246   1.239 -1.8810 -1.0197 -1.3154
 5327SOL     OW17464   4.117   1.371   0.122 -0.4968  0.1246 -0.2169
 5327SOL    HW117465   4.128   1.427   0.046 -0.0096 -0.0783 -0.2962
 5327SOL    HW217466   4.197   1.318   0.126 -0.1245  0.7472  0.9401
 5328SOL     OW17467   4.079   6.290   1.808  0.3690 -0.1346 -0.4558
 5328SOL    HW117468   4.132   6.246   1.875  0.5234  1.3060  0.4015
 5328SOL    HW217469   4.139   6.354   1.769 -0.1656  0.1096 -0.8848
 5329SOL     OW17470   0.065   1.369   5.517  0.0425  0.2584  0.0999
 5329SOL    HW117471   0.018   1.311   5.458 -0.9333  1.3657 -0.2423
 5329SOL    HW217472   0.095   1.313   5.588 -0.3654 -0.7526 -0.5188
 5330SOL     OW17473   0.093   8.297   7.481  0.7354  0.2258 -0.0683
 5330SOL    HW117474   0.119   8.338   7.399 -0.4413 -0.2163 -0.6661
 5330SOL    HW217475  -0.001   8.314   7.488  1.1266  1.7779  2.0539
 5331SOL     OW17476   1.540   3.761   3.496  0.2844  0.5444 -0.1585
 5331SOL    HW117477   1.597   3.690   3.525 -0.1030  0.2435 -0.1120
 5331SOL    HW217478   1.599   3.830   3.468  0.7260 -0.6642 -2.3858
 5332SOL     OW17479   3.532   6.291   3.250  0.1443 -0.3493  0.5336
 5332SOL    HW117480   3.474   6.230   3.296 -3.4799  1.6764 -1.1166
 5332SOL    HW217481   3.554   6.357   3.316 -1.4745  0.1713  0.5843
 5333SOL     OW17482   6.452   3.928   3.002 -0.2875 -0.4266  0.1453
 5333SOL    HW117483   6.372   3.981   3.003 -0.0264 -0.0361  0.2954
 5333SOL    HW217484   6.490   3.944   2.915  0.5859  0.8284  0.7380
 5334SOL     OW17485   7.666   5.872   3.351 -0.2076 -0.1467 -0.4092
 5334SOL    HW117486   7.754   5.906   3.362 -0.7952  1.1129  0.4257
 5334SOL    HW217487   7.636   5.909   3.268 -0.5537  0.7710  0.1150
 5335SOL     OW17488   3.455   0.405   0.357 -0.1812 -0.2057 -0.2882
 5335SOL    HW117489   3.428   0.367   0.441  2.2123 -1.3858  0.0008
 5335SOL    HW217490   3.433   0.498   0.364 -0.6238 -0.4307  1.3975
 5336SOL     OW17491   7.448   0.486   7.038  0.4074  0.1021  0.5457
 5336SOL    HW117492   7.363   0.471   7.080 -0.4477  0.2816 -1.0875
 5336SOL    HW217493   7.503   0.415   7.069 -0.4210 -0.1914  1.3756
 5337SOL     OW17494   6.546   8.012   1.356 -0.2396  0.2786  0.1378
 5337SOL    HW117495   6.451   8.000   1.356 -0.0475 -1.3734 -0.4406
 5337SOL    HW217496   6.573   7.996   1.266  0.4356  2.2032 -0.0229
 5338SOL     OW17497   6.325   5.682   4.399 -0.4547  0.0577 -0.5204
 5338SOL    HW117498   6.315   5.751   4.334 -1.5634 -1.0204 -1.5035
 5338SOL    HW217499   6.363   5.609   4.350 -1.1504 -0.7033  0.0769
 5339SOL     OW17500   1.223   0.369   7.080 -0.2386  0.5327  0.3584
 5339SOL    HW117501   1.313   0.358   7.111 -0.7522  1.1656  2.1024
 5339SOL    HW217502   1.184   0.282   7.089 -0.0436  0.4442  0.3544
 5340SOL     OW17503   2.521   0.275   4.609 -0.3219  0.3021  0.3135
 5340SOL    HW117504   2.435   0.246   4.640 -0.1555 -0.5026  0.0311
 5340SOL    HW217505   2.516   0.268   4.514  0.9653 -2.3661  0.4056
 5341SOL     OW17506   1.319   7.655   6.846  0.5774 -0.3004  0.5431
 5341SOL    HW117507   1.254   7.618   6.906 -0.5829 -1.1741 -1.1893
 5341SOL    HW217508   1.347   7.737   6.888  0.2686 -1.2043  2.5486
 5342SOL     OW17509   8.182   7.338   2.166 -0.2512  0.1194  0.3491
 5342SOL    HW117510   8.170   7.410   2.228  0.4598  1.7910 -1.4253
 5342SOL    HW217511   8.192   7.261   2.222  0.3185  1.5754  2.3289
 5343SOL     OW17512   2.461   2.396   7.833  0.1188 -0.2814 -0.2803
 5343SOL    HW117513   2.396   2.465   7.819 -0.2486 -0.3570  0.9857
 5343SOL    HW217514   2.521   2.433   7.898  0.5508 -0.7495 -0.4081
 5344SOL     OW17515   0.629   6.421   5.818 -0.3066  0.0560  0.5987
 5344SOL    HW117516   0.640   6.510   5.785  0.0272 -1.0456 -2.3802
 5344SOL    HW217517   0.712   6.378   5.799 -1.4889 -1.7072 -0.7326
 5345SOL     OW17518   5.999   6.544   6.146  0.7983 -0.2573 -0.4060
 5345SOL    HW117519   6.035   6.457   6.129 -0.7876 -1.0159  0.0363
 5345SOL    HW217520   5.954   6.536   6.230 -0.0321  0.7700 -0.7386
 5346SOL     OW17521   1.372   0.245   7.842  0.7869 -0.6726 -0.0767
 5346SOL    HW117522   1.308   0.260   7.773  1.0670 -1.2553 -0.4601
 5346SOL    HW217523   1.456   0.270   7.803  0.9495 -1.0223  0.0528
 5347SOL     OW17524   1.132   4.201   0.501 -0.0634  0.6183  0.0654
 5347SOL    HW117525   1.041   4.205   0.472 -0.6040  0.2753  1.6194
 5347SOL    HW217526   1.131   4.245   0.587  0.8138 -1.2537  1.0654
 5348SOL     OW17527   4.777   6.321   4.633  0.0855 -0.3422 -0.1416
 5348SOL    HW117528   4.815   6.240   4.599 -0.9278 -1.0871  0.4852
 5348SOL    HW217529   4.848   6.385   4.627  0.2619 -0.7266 -2.6206
 5349SOL     OW17530   6.614   2.686   6.959 -0.8454 -0.1802  0.0324
 5349SOL    HW117531   6.531   2.711   6.998 -0.2600  0.2219  1.0498
 5349SOL    HW217532   6.593   2.611   6.904 -1.5979 -1.1288  1.5708
 5350SOL     OW17533   7.036   0.007   7.271  0.2419  0.1131 -0.3700
 5350SOL    HW117534   7.046   0.102   7.285  1.8029 -0.0944  0.0730
 5350SOL    HW217535   6.953  -0.002   7.224 -0.6208  1.5818  0.8369
 5351SOL     OW17536   8.118   3.101   6.905 -0.5749  0.5279  0.6002
 5351SOL    HW117537   8.174   3.032   6.942 -0.8527 -0.0024  0.0404
 5351SOL    HW217538   8.034   3.058   6.890 -0.8740  1.1009  0.6328
 5352SOL     OW17539   6.146   0.595   1.569 -0.0891 -0.4679  0.0107
 5352SOL    HW117540   6.135   0.686   1.595 -0.0209 -0.0565 -1.3721
 5352SOL    HW217541   6.220   0.564   1.622 -0.2718  0.2037  0.6660
 5353SOL     OW17542   0.485   7.900   1.786 -0.4440 -0.0177 -0.6479
 5353SOL    HW117543   0.513   7.989   1.804 -0.6962  0.1142 -0.9080
 5353SOL    HW217544   0.565   7.848   1.792 -0.2164  0.2940 -0.9598
 5354SOL     OW17545   2.781   1.164   6.045 -0.2869 -0.1242 -0.0763
 5354SOL    HW117546   2.710   1.219   6.011  0.5994  1.4664  0.5971
 5354SOL    HW217547   2.857   1.222   6.049  0.5044 -1.2117  1.2934
 5355SOL     OW17548   3.859   2.636   1.375 -0.0369  0.1443 -0.5113
 5355SOL    HW117549   3.847   2.730   1.387 -0.3771  0.3883 -2.5862
 5355SOL    HW217550   3.945   2.618   1.411  0.4159  1.4168 -0.9255
 5356SOL     OW17551   1.816   1.230   2.457 -0.4098  0.1042 -0.0961
 5356SOL    HW117552   1.892   1.223   2.399  0.5795 -1.2975  1.2946
 5356SOL    HW217553   1.769   1.307   2.427  0.8580  0.2258 -1.8299
 5357SOL     OW17554   6.812   4.367   2.581  0.1143 -0.1488 -0.2560
 5357SOL    HW117555   6.854   4.326   2.506  0.8230 -0.4265  0.2875
 5357SOL    HW217556   6.752   4.431   2.543  1.7197  0.9360 -1.0116
 5358SOL     OW17557   2.364   5.179   3.794  0.2440  0.2666 -0.6046
 5358SOL    HW117558   2.345   5.202   3.703 -0.1486  0.7334 -0.4062
 5358SOL    HW217559   2.408   5.255   3.830 -1.9017  1.1170  0.3189
 5359SOL     OW17560   3.154   7.529   7.199 -0.2828  0.2738 -0.1600
 5359SOL    HW117561   3.181   7.503   7.287  1.0885 -0.2798 -0.7448
 5359SOL    HW217562   3.115   7.616   7.212  0.8624  0.6531  0.8417
 5360SOL     OW17563   0.129   2.648   3.022 -0.0808  0.2958 -0.1866
 5360SOL    HW117564   0.212   2.631   2.976  0.6586  1.4165  0.7156
 5360SOL    HW217565   0.145   2.729   3.071 -0.9580 -0.6842  1.7707
 5361SOL     OW17566   7.783   5.811   1.693  0.0345  0.1390  0.5478
 5361SOL    HW117567   7.833   5.881   1.736  2.4010 -0.7774 -0.5852
 5361SOL    HW217568   7.739   5.854   1.620 -0.3197  0.8448  1.1691
 5362SOL     OW17569   3.921   8.293   0.868  0.2102  0.0211 -0.0459
 5362SOL    HW117570   3.856   8.359   0.841  0.6371  1.3962  2.1781
 5362SOL    HW217571   4.005   8.331   0.841  0.4537  0.3734  1.1986
 5363SOL     OW17572   6.456   4.077   8.038 -0.6016  0.3034 -0.2906
 5363SOL    HW117573   6.464   4.154   8.094  0.3334 -0.2337  0.3399
 5363SOL    HW217574   6.424   4.008   8.096 -0.3702 -0.0587 -0.5875
 5364SOL     OW17575   3.462   7.933   5.903  0.1855  0.2190 -0.4571
 5364SOL    HW117576   3.489   8.016   5.864  1.8110 -0.4695 -0.8748
 5364SOL    HW217577   3.527   7.870   5.872  1.4308 -0.4164  3.1337
 5365SOL     OW17578   1.660   3.564   8.053  0.2932 -0.0238 -0.3225
 5365SOL    HW117579   1.707   3.646   8.039 -1.0524  0.5784 -1.4665
 5365SOL    HW217580   1.578   3.590   8.096  1.3730 -1.1625  2.5306
 5366SOL     OW17581   4.427   8.185   4.038 -0.6212  0.4069 -0.4356
 5366SOL    HW117582   4.397   8.203   4.127 -2.1101  0.7723 -0.9992
 5366SOL    HW217583   4.356   8.135   3.998 -0.3818  1.0670 -1.7148
 5367SOL     OW17584   2.228   1.591   6.870  0.4278  0.1655  0.3063
 5367SOL    HW117585   2.252   1.641   6.791  2.6954  0.5883  1.2431
 5367SOL    HW217586   2.228   1.656   6.940  1.5114 -0.7819  1.2023
 5368SOL     OW17587   7.219   5.103   3.038  0.6720  0.4739  0.1079
 5368SOL    HW117588   7.218   5.008   3.046  0.5725  0.4923  0.3372
 5368SOL    HW217589   7.312   5.127   3.042  0.6396  0.4700  1.1288
 5369SOL     OW17590   5.193   3.976   2.259  0.2075 -0.8561 -0.3698
 5369SOL    HW117591   5.204   3.902   2.318 -0.0197 -1.1544 -0.6996
 5369SOL    HW217592   5.239   3.950   2.179 -2.9617 -2.2043 -1.8435
 5370SOL     OW17593   2.198   5.836   5.550  0.5988  0.1531 -0.5838
 5370SOL    HW117594   2.218   5.860   5.460 -0.1806 -0.1938 -0.8483
 5370SOL    HW217595   2.233   5.909   5.602  1.1674  0.2895 -1.1474
 5371SOL     OW17596   2.407   1.071   6.609  0.1090 -0.0684  0.0711
 5371SOL    HW117597   2.342   1.061   6.540  0.8726 -1.4100 -0.4493
 5371SOL    HW217598   2.422   0.983   6.642  0.5956  0.4156  1.1771
 5372SOL     OW17599   2.692   5.967   6.474  0.7031 -0.5488  0.1918
 5372SOL    HW117600   2.705   5.995   6.565  2.5966 -0.9357  0.0614
 5372SOL    HW217601   2.641   6.037   6.435  1.5484  0.5654  1.0515
 5373SOL     OW17602   2.352   4.986   5.216  0.0975 -0.0995 -0.2407
 5373SOL    HW117603   2.369   4.951   5.303  0.2404  1.2606  0.2882
 5373SOL    HW217604   2.372   4.914   5.157  0.9669 -0.7175  0.7909
 5374SOL     OW17605   6.053   0.003   6.851 -0.5541 -0.4243  0.6282
 5374SOL    HW117606   6.069  -0.008   6.757 -1.0725 -2.4457  0.7581
 5374SOL    HW217607   6.134  -0.026   6.893 -0.7185 -0.5581  0.8526
 5375SOL     OW17608   4.900   5.749   2.511 -0.8718 -0.2323 -0.0888
 5375SOL    HW117609   4.850   5.760   2.430  0.1173 -0.2787 -0.7116
 5375SOL    HW217610   4.924   5.837   2.537 -1.9819 -0.1506  0.6564
 5376SOL     OW17611   7.947   5.444   6.349  0.6675 -0.2972 -0.4973
 5376SOL    HW117612   7.886   5.418   6.279 -0.4573 -2.0886  1.1210
 5376SOL    HW217613   7.918   5.532   6.374  0.7369  0.1429 -1.8682
 5377SOL     OW17614   6.365   3.882   1.215  0.2529 -0.6274  0.2368
 5377SOL    HW117615   6.381   3.811   1.154  2.4610 -0.3678  0.4825
 5377SOL    HW217616   6.320   3.841   1.289 -2.1343 -0.9963 -1.3814
 5378SOL     OW17617   7.703   1.338   4.761  0.3070 -0.5953 -0.1759
 5378SOL    HW117618   7.646   1.368   4.833  0.5239 -0.2575 -0.1395
 5378SOL    HW217619   7.775   1.401   4.762  0.2911 -0.5714 -0.7159
 5379SOL     OW17620   3.844   5.035   3.717  0.4231  0.2285  0.6103
 5379SOL    HW117621   3.885   5.078   3.642 -1.4070  0.4480 -0.2942
 5379SOL    HW217622   3.815   5.107   3.773  1.9201  0.0627  1.6346
 5380SOL     OW17623   6.961   1.967   0.910  0.4595 -0.0556  0.4000
 5380SOL    HW117624   7.010   1.931   0.984 -0.1340  0.4295  1.0254
 5380SOL    HW217625   6.945   1.891   0.854  0.4104 -0.5247  1.0449
 5381SOL     OW17626   1.321   3.877   3.429  0.2288 -0.4548  0.0591
 5381SOL    HW117627   1.308   3.842   3.341  0.4642 -2.7617  0.9029
 5381SOL    HW217628   1.391   3.822   3.466 -0.7354 -0.3323  2.1128
 5382SOL     OW17629   6.498   3.475   5.087  0.0059 -0.2655  0.1976
 5382SOL    HW117630   6.525   3.410   5.022 -2.7098 -0.6650 -0.5901
 5382SOL    HW217631   6.440   3.534   5.039  0.2448  1.1170  1.5850
 5383SOL     OW17632   8.176   7.169   2.652  0.3301  0.2027 -0.7684
 5383SOL    HW117633   8.084   7.193   2.667  0.8391  2.4190 -0.9050
 5383SOL    HW217634   8.176   7.127   2.566 -0.5069  0.4977 -0.9237
 5384SOL     OW17635   3.316   4.930   4.548  0.4988  0.0609  0.1685
 5384SOL    HW117636   3.378   4.947   4.619  0.6523  0.7654 -0.1350
 5384SOL    HW217637   3.242   4.988   4.565  1.0033  1.0194 -0.8385
 5385SOL     OW17638   3.664   6.002   2.275  0.4790  0.4567  0.4927
 5385SOL    HW117639   3.724   5.998   2.200 -0.7746 -0.1790 -0.5137
 5385SOL    HW217640   3.698   6.072   2.330  1.3176  1.0623 -0.7745
 5386SOL     OW17641   5.801   4.206   3.623 -0.3456 -0.5123 -0.3079
 5386SOL    HW117642   5.774   4.150   3.551  0.8448 -2.7426  0.9276
 5386SOL    HW217643   5.896   4.214   3.614 -0.2876 -0.1504  0.5627
 5387SOL     OW17644   1.718   2.469   2.748  0.0975  0.6572 -0.5668
 5387SOL    HW117645   1.657   2.523   2.798 -0.5120  0.4027 -1.0416
 5387SOL    HW217646   1.699   2.488   2.656  2.0612  2.0682 -0.7022
 5388SOL     OW17647   0.659   7.048   1.142 -0.2244 -0.0780 -0.5292
 5388SOL    HW117648   0.612   7.064   1.224 -0.2529 -0.2923 -0.5039
 5388SOL    HW217649   0.750   7.035   1.168 -0.3933 -1.1334 -0.4288
 5389SOL     OW17650   1.996   5.433   3.318 -0.0403 -0.2017 -0.5580
 5389SOL    HW117651   1.928   5.367   3.304  0.9641 -1.3900  0.1204
 5389SOL    HW217652   1.956   5.496   3.378 -0.8369 -0.4423 -0.8300
 5390SOL     OW17653   5.037   2.139   4.418  0.5543 -0.2080 -0.0159
 5390SOL    HW117654   5.104   2.177   4.362 -0.0761  1.9598  0.6612
 5390SOL    HW217655   5.080   2.128   4.503 -0.0637  1.7517  0.5897
 5391SOL     OW17656   6.153   2.715   1.256  0.1452  0.3067 -0.0932
 5391SOL    HW117657   6.062   2.702   1.229 -0.4408  1.8739  1.0615
 5391SOL    HW217658   6.205   2.675   1.186 -1.4289 -2.5015  0.2707
 5392SOL     OW17659   6.541   4.722   3.109  0.2169  0.2902 -0.0136
 5392SOL    HW117660   6.635   4.734   3.120  0.2318  0.0548  0.0938
 5392SOL    HW217661   6.517   4.788   3.043  0.6287 -0.3265 -0.7853
 5393SOL     OW17662   0.480   0.130   0.223  0.1270 -0.4574  0.1007
 5393SOL    HW117663   0.442   0.112   0.138  1.1147  1.0624 -0.6894
 5393SOL    HW217664   0.571   0.101   0.216 -0.0861 -1.3589  1.0041
 5394SOL     OW17665   5.737   6.725   1.865  0.0497  0.0649  0.3338
 5394SOL    HW117666   5.651   6.710   1.904  0.0629 -0.0719  0.3103
 5394SOL    HW217667   5.791   6.760   1.936  0.2872 -0.8960  0.6300
 5395SOL     OW17668   3.559   7.425   5.654 -0.3496  0.2615  0.1280
 5395SOL    HW117669   3.622   7.376   5.707 -1.0246 -0.8313 -0.0443
 5395SOL    HW217670   3.585   7.516   5.662  0.5739 -0.0718  0.9655
 5396SOL     OW17671   0.453   3.652   3.516  0.1078 -0.6796 -1.2074
 5396SOL    HW117672   0.509   3.641   3.593 -1.8256  1.5524  0.6013
 5396SOL    HW217673   0.398   3.574   3.514 -3.0810  1.3024  2.5542
 5397SOL     OW17674   0.669   0.543   0.854  0.0983  0.3839  0.4052
 5397SOL    HW117675   0.738   0.606   0.831  0.2977 -0.0897 -0.3452
 5397SOL    HW217676   0.588   0.593   0.849  0.2885  0.6746  0.1732
 5398SOL     OW17677   4.063   8.182   5.912  0.0688  0.0803 -0.1766
 5398SOL    HW117678   4.147   8.139   5.898 -0.7754 -2.2569  1.5810
 5398SOL    HW217679   4.083   8.276   5.911  2.5550 -0.4316 -0.5845
 5399SOL     OW17680   5.524   3.353   6.146 -0.2055 -0.6678  0.0992
 5399SOL    HW117681   5.493   3.436   6.111 -0.5019 -1.2536 -1.0752
 5399SOL    HW217682   5.446   3.314   6.187  0.5654  0.8671  3.1953
 5400SOL     OW17683   6.062   3.584   4.273  0.6598  0.4750  0.3125
 5400SOL    HW117684   6.081   3.518   4.339 -0.7522  0.5385  0.7985
 5400SOL    HW217685   6.098   3.548   4.192 -0.8249 -1.2838  0.4081
 5401SOL     OW17686   0.162   7.170   3.228 -0.2400 -0.9879 -0.5332
 5401SOL    HW117687   0.084   7.221   3.203  0.2624 -0.6709 -1.4956
 5401SOL    HW217688   0.126   7.091   3.269 -1.0444 -0.3134  0.0767
 5402SOL     OW17689   6.315   7.183   6.223 -0.4285  0.5365  0.5410
 5402SOL    HW117690   6.278   7.225   6.301  0.6620  1.6546  0.4654
 5402SOL    HW217691   6.287   7.239   6.150  0.5002  0.7806  0.3715
 5403SOL     OW17692   5.168   4.607   2.318  0.3145 -0.6519 -0.5022
 5403SOL    HW117693   5.096   4.559   2.357  0.6592 -0.9618 -0.2406
 5403SOL    HW217694   5.210   4.544   2.259 -0.5353 -0.0316 -1.8072
 5404SOL     OW17695   2.587   2.652   5.985  0.3765 -0.1407 -0.3752
 5404SOL    HW117696   2.585   2.668   6.079  0.7283  0.8495 -0.5232
 5404SOL    HW217697   2.608   2.737   5.947 -2.8481  0.1920 -1.5526
 5405SOL     OW17698   1.356   3.493   4.161 -0.8606  0.5297  0.4576
 5405SOL    HW117699   1.402   3.439   4.227 -1.9881  0.6964  1.3928
 5405SOL    HW217700   1.263   3.476   4.177 -1.1384 -0.4196 -1.9452
 5406SOL     OW17701   3.950   5.798   2.184  0.1812 -0.0154 -0.2878
 5406SOL    HW117702   4.009   5.739   2.231  0.5077  1.0615  0.6558
 5406SOL    HW217703   4.007   5.867   2.150 -0.5910  1.2715  1.0089
 5407SOL     OW17704   0.203   1.097   4.596  0.2036 -0.3866  0.3610
 5407SOL    HW117705   0.209   1.170   4.534  0.4782 -1.3046 -0.7206
 5407SOL    HW217706   0.294   1.078   4.619  0.1390 -0.4655  0.5542
 5408SOL     OW17707   6.181   7.320   3.502  0.1588  0.2675  1.1626
 5408SOL    HW117708   6.099   7.360   3.472 -0.6629 -0.1301  2.8116
 5408SOL    HW217709   6.240   7.393   3.514  0.6664  0.4127 -1.7805
 5409SOL     OW17710   3.641   4.629   1.415 -0.3961 -0.1842 -0.4283
 5409SOL    HW117711   3.562   4.614   1.467 -1.0419  0.4409 -1.2136
 5409SOL    HW217712   3.714   4.610   1.475 -1.1393 -1.7299  0.0049
 5410SOL     OW17713   7.601   6.093   6.738  1.0554 -0.1897 -0.3163
 5410SOL    HW117714   7.665   6.128   6.800  1.5834 -0.8296 -0.5014
 5410SOL    HW217715   7.634   6.121   6.652 -0.6069  2.2302 -0.2251
 5411SOL     OW17716   4.945   4.826   2.522 -0.0358  0.1232  0.0620
 5411SOL    HW117717   4.889   4.748   2.528  0.8302 -0.4695  0.5867
 5411SOL    HW217718   5.016   4.810   2.585  0.1854  1.3106  0.1323
 5412SOL     OW17719   3.304   5.528   2.540  0.1622  0.7258 -0.3146
 5412SOL    HW117720   3.337   5.580   2.467  0.7744  2.1346  0.9235
 5412SOL    HW217721   3.310   5.587   2.616  2.2393 -1.5625  1.4112
 5413SOL     OW17722   0.786   0.923   1.835 -0.3248 -0.0436  0.1598
 5413SOL    HW117723   0.745   1.000   1.795  0.8791  0.2564 -0.4917
 5413SOL    HW217724   0.867   0.910   1.787  0.2306 -0.8094  1.2747
 5414SOL     OW17725   5.023   2.372   2.662  0.4773  0.2468 -0.7151
 5414SOL    HW117726   4.935   2.392   2.695  1.4802  0.5929  1.8887
 5414SOL    HW217727   5.019   2.392   2.569 -1.6243  2.2520 -0.2355
 5415SOL     OW17728   0.577   0.760   5.245 -0.0383  0.5186  0.5284
 5415SOL    HW117729   0.546   0.849   5.226  1.8578  1.2232  0.6817
 5415SOL    HW217730   0.542   0.740   5.331 -1.1673  0.7916  0.1389
 5416SOL     OW17731   4.062   1.043   0.366  0.5487 -0.1205 -0.0234
 5416SOL    HW117732   3.988   1.083   0.320  0.4893 -1.1501 -0.8369
 5416SOL    HW217733   4.086   0.968   0.313 -0.0557 -1.8504  2.0577
 5417SOL     OW17734   0.249   0.350   1.453 -0.1555 -0.1721  0.0281
 5417SOL    HW117735   0.164   0.379   1.486  0.2455  0.7758  0.2494
 5417SOL    HW217736   0.237   0.344   1.358 -0.5964 -0.4796  0.0992
 5418SOL     OW17737   5.353   1.219   3.617 -0.0766 -0.2540  0.2297
 5418SOL    HW117738   5.291   1.292   3.609 -1.6852 -1.4635  1.1757
 5418SOL    HW217739   5.305   1.144   3.580  1.7764 -0.7154 -1.2877
 5419SOL     OW17740   3.427   1.048   6.654 -0.2867 -0.0159  0.0925
 5419SOL    HW117741   3.346   1.005   6.681 -0.0651 -0.2280  0.4345
 5419SOL    HW217742   3.428   1.130   6.704  0.4968 -0.7595  1.3381
 5420SOL     OW17743   1.603   6.514   5.911 -0.2147 -0.2072 -0.6120
 5420SOL    HW117744   1.650   6.449   5.859 -0.7687  0.4889 -2.0114
 5420SOL    HW217745   1.513   6.483   5.913  0.0913 -1.0802  1.3380
 5421SOL     OW17746   6.069   4.114   4.115 -0.1488  0.7759  0.1121
 5421SOL    HW117747   5.998   4.160   4.070  0.6521  1.7530 -0.1810
 5421SOL    HW217748   6.148   4.163   4.092  0.8155 -1.0802 -0.6255
 5422SOL     OW17749   3.960   8.301   2.160  0.0933 -0.0375  0.1051
 5422SOL    HW117750   3.945   8.234   2.226 -0.6350  1.4200  1.4545
 5422SOL    HW217751   3.918   8.380   2.195 -0.8460  0.6231 -2.3651
 5423SOL     OW17752   3.783   5.756   3.779 -0.0794  0.5011  0.2489
 5423SOL    HW117753   3.755   5.846   3.769 -0.6377  0.2251 -0.7284
 5423SOL    HW217754   3.784   5.741   3.874 -1.1283  1.1733  0.3676
 5424SOL     OW17755   0.635   1.687   5.025 -0.3164  0.2962  0.4814
 5424SOL    HW117756   0.626   1.650   4.938  2.4935 -0.2872  0.4092
 5424SOL    HW217757   0.620   1.613   5.084  2.1238 -0.2931  0.3936
 5425SOL     OW17758   2.419   4.262   0.413  0.2303 -0.0842 -0.4668
 5425SOL    HW117759   2.387   4.229   0.330 -0.2019  1.2903 -0.8631
 5425SOL    HW217760   2.380   4.349   0.421 -0.5011 -0.5707  1.6195
 5426SOL     OW17761   5.001   8.037   0.680 -0.5822 -0.5652 -0.5107
 5426SOL    HW117762   5.023   7.944   0.674  0.5658 -0.2512 -1.4470
 5426SOL    HW217763   5.078   8.076   0.722  0.3316  0.4260 -2.9989
 5427SOL     OW17764   1.550   0.899   6.542 -0.3389  0.5536 -0.1046
 5427SOL    HW117765   1.636   0.935   6.521 -0.6938  1.8818  0.6403
 5427SOL    HW217766   1.556   0.874   6.635 -0.9759  1.3815  0.1724
 5428SOL     OW17767   5.659   6.353   4.978 -0.2917  0.4813  0.2307
 5428SOL    HW117768   5.570   6.351   4.942 -1.3018 -0.2422  2.6514
 5428SOL    HW217769   5.682   6.261   4.990  0.2474  0.6978  0.8719
 5429SOL     OW17770   7.520   7.285   3.785 -0.0864 -0.0407 -0.9017
 5429SOL    HW117771   7.562   7.363   3.748 -0.6769  0.3048 -0.8515
 5429SOL    HW217772   7.503   7.230   3.709  1.4388 -0.6612 -0.8018
 5430SOL     OW17773   5.909   3.793   0.757  0.3567 -0.5404 -0.0516
 5430SOL    HW117774   5.902   3.836   0.843 -0.4826  0.9219 -0.8170
 5430SOL    HW217775   5.997   3.755   0.756  1.0286  0.9415  0.7885
 5431SOL     OW17776   0.993   0.725   5.932 -0.4197  0.1594 -0.1723
 5431SOL    HW117777   1.081   0.687   5.929 -0.2654  0.4778  0.3040
 5431SOL    HW217778   0.973   0.733   6.025 -0.6947  0.6930 -0.2741
 5432SOL     OW17779   0.041   2.979   2.669  0.3594 -0.4617 -0.2454
 5432SOL    HW117780   0.025   2.888   2.696  1.6357 -1.0401 -1.4071
 5432SOL    HW217781  -0.046   3.020   2.674  0.0072 -1.3342  1.7196
 5433SOL     OW17782   4.761   1.795   0.385  0.1612 -0.8646  0.7020
 5433SOL    HW117783   4.795   1.846   0.311 -0.6078  1.5356  1.9245
 5433SOL    HW217784   4.800   1.708   0.375  1.3195 -0.1194 -1.6243
 5434SOL     OW17785   5.513   1.961   2.049 -0.0361  0.3441 -0.5092
 5434SOL    HW117786   5.572   1.898   2.007  0.3024  0.6792 -0.5371
 5434SOL    HW217787   5.495   1.923   2.135 -0.4921 -0.1961 -0.8400
 5435SOL     OW17788   1.068   4.279   1.673 -0.0359 -0.7883  0.5236
 5435SOL    HW117789   1.032   4.197   1.707 -0.0550 -1.1381 -0.3296
 5435SOL    HW217790   1.081   4.263   1.580  1.0901 -0.2155  0.5741
 5436SOL     OW17791   4.253   5.627   4.566  0.3155  0.4594  0.0707
 5436SOL    HW117792   4.207   5.589   4.492 -0.3863  0.0559  0.7091
 5436SOL    HW217793   4.198   5.700   4.594  0.1713  0.1181  0.6919
 5437SOL     OW17794   5.526   5.893   3.544 -0.0822  0.2793 -0.5593
 5437SOL    HW117795   5.530   5.837   3.621  2.0516  0.7211 -0.3236
 5437SOL    HW217796   5.454   5.954   3.563 -1.5439 -1.5013 -0.2580
 5438SOL     OW17797   0.641   0.705   4.988 -0.0063  0.1559  0.4592
 5438SOL    HW117798   0.595   0.767   4.931  0.4114  1.4120  1.4670
 5438SOL    HW217799   0.615   0.730   5.076 -0.8153 -1.9188  0.8356
 5439SOL     OW17800   4.376   0.572   0.376  0.6471  0.2639  0.1994
 5439SOL    HW117801   4.340   0.486   0.355  1.8493 -0.2404  0.1849
 5439SOL    HW217802   4.312   0.611   0.436 -0.8961  0.1746 -1.3686
 5440SOL     OW17803   7.587   4.313   2.987  0.5296 -0.4874  0.8063
 5440SOL    HW117804   7.541   4.272   2.913  0.1962  0.4536  0.4882
 5440SOL    HW217805   7.668   4.263   2.995  1.2123  0.2389 -1.0859
 5441SOL     OW17806   8.197   0.813   0.532  0.8537 -0.1992  0.2422
 5441SOL    HW117807   8.204   0.797   0.626 -0.2196 -1.7642  0.0606
 5441SOL    HW217808   8.104   0.800   0.512  1.0442  0.2850 -1.0078
 5442SOL     OW17809   7.309   6.128   4.770 -0.3953 -0.0424 -0.6858
 5442SOL    HW117810   7.263   6.050   4.736 -0.8887  0.6596 -1.6633
 5442SOL    HW217811   7.357   6.162   4.694  0.6311  0.0324 -0.0042
 5443SOL     OW17812   2.265   0.759   0.512  0.1374  0.1050  0.0341
 5443SOL    HW117813   2.307   0.799   0.436  1.8647 -0.9121  0.4188
 5443SOL    HW217814   2.246   0.670   0.486 -0.7961  0.2409  0.2400
 5444SOL     OW17815   1.663   5.512   1.979 -0.2188 -0.2121  0.3563
 5444SOL    HW117816   1.729   5.576   2.006 -0.6866  0.5934 -0.4259
 5444SOL    HW217817   1.661   5.518   1.883  0.0574 -1.7139  0.2274
 5445SOL     OW17818   1.698   0.475   1.654  0.6249  0.3216 -0.0354
 5445SOL    HW117819   1.767   0.455   1.591 -0.5133 -0.4918 -1.0283
 5445SOL    HW217820   1.727   0.431   1.735  1.0429 -0.4145 -0.5773
 5446SOL     OW17821   3.558   8.153   6.281 -0.1901  0.6463  0.0057
 5446SOL    HW117822   3.578   8.137   6.373  0.4206  0.3540 -0.1751
 5446SOL    HW217823   3.630   8.208   6.250 -0.2935  0.5844 -0.3494
 5447SOL     OW17824   7.814   0.705   3.769 -0.1858 -0.1033  0.7159
 5447SOL    HW117825   7.721   0.689   3.757  0.0551  1.7334 -4.3828
 5447SOL    HW217826   7.826   0.799   3.754  2.6205 -0.4322  0.4973
 5448SOL     OW17827   5.927   2.810   0.511  0.2648 -0.4430  0.6597
 5448SOL    HW117828   5.997   2.859   0.468  0.1696 -1.5759 -0.8225
 5448SOL    HW217829   5.897   2.868   0.581 -0.1991  1.8737 -1.3634
 5449SOL     OW17830   1.144   2.789   2.773 -0.4013 -0.4486  0.2748
 5449SOL    HW117831   1.051   2.808   2.783 -0.5927 -0.7560 -0.8408
 5449SOL    HW217832   1.149   2.693   2.778 -0.3937 -0.5614 -1.5037
 5450SOL     OW17833   4.485   1.600   3.344  0.7033  0.5703 -0.2257
 5450SOL    HW117834   4.530   1.515   3.353  0.6545  0.4088 -1.4515
 5450SOL    HW217835   4.553   1.659   3.311  1.0418  1.3012  1.7496
 5451SOL     OW17836   2.027   1.268   5.125 -0.3081  0.2913  0.4617
 5451SOL    HW117837   1.982   1.287   5.043 -1.3737 -0.0916  0.9526
 5451SOL    HW217838   1.998   1.180   5.149 -1.5116  1.1563  2.2420
 5452SOL     OW17839   0.535   7.362   2.524  0.2483 -0.2301  0.1689
 5452SOL    HW117840   0.460   7.334   2.472 -0.4465  1.5950  0.1530
 5452SOL    HW217841   0.591   7.409   2.462  0.5832 -0.1258  0.5484
 5453SOL     OW17842   1.605   6.411   0.275  0.1266  0.2588  0.0596
 5453SOL    HW117843   1.535   6.475   0.262 -1.5292 -1.7506 -1.2431
 5453SOL    HW217844   1.605   6.393   0.369 -1.0286  0.3899  0.0874
 5454SOL     OW17845   3.229   3.895   3.497  0.6558 -0.1170  0.1869
 5454SOL    HW117846   3.275   3.823   3.454 -0.4838 -0.5762 -0.2917
 5454SOL    HW217847   3.158   3.852   3.546  0.7855  0.5694  0.9823
 5455SOL     OW17848   2.788   7.979   1.669 -0.0380  0.0792 -0.1252
 5455SOL    HW117849   2.875   7.998   1.704 -0.3236  2.6672 -0.6883
 5455SOL    HW217850   2.746   7.925   1.736  0.5629  2.2456  2.0716
 5456SOL     OW17851   3.178   1.975   1.415 -0.1401 -0.0283  0.6459
 5456SOL    HW117852   3.126   2.033   1.470 -0.0479 -1.5270  2.3688
 5456SOL    HW217853   3.113   1.925   1.365 -0.2586  0.4164  0.3515
 5457SOL     OW17854   7.030   2.808   7.115 -0.1599  1.0324 -0.3184
 5457SOL    HW117855   7.043   2.714   7.127  0.9171  0.8657 -2.4465
 5457SOL    HW217856   7.051   2.846   7.200 -0.2553 -0.6141  0.4656
 5458SOL     OW17857   2.092   6.880   0.318  0.2875 -0.0104 -0.4074
 5458SOL    HW117858   2.130   6.965   0.299 -2.3729  1.3925  0.2978
 5458SOL    HW217859   2.075   6.881   0.413  0.5403 -1.4436 -0.3282
 5459SOL     OW17860   1.863   3.531   0.969 -0.3286 -0.5462 -0.7129
 5459SOL    HW117861   1.810   3.521   1.048  0.4596  1.7032  0.1269
 5459SOL    HW217862   1.818   3.597   0.918  0.7923  0.2385 -0.7119
 5460SOL     OW17863   5.040   2.817   7.399  0.0326 -0.3638  0.1480
 5460SOL    HW117864   4.984   2.761   7.452 -1.2529  0.0142 -0.7824
 5460SOL    HW217865   5.025   2.905   7.434 -2.6300  0.2178 -2.3281
 5461SOL     OW17866   2.676   7.822   4.176 -0.6349  0.2004 -0.1197
 5461SOL    HW117867   2.705   7.861   4.259 -0.7869 -1.0958  0.5611
 5461SOL    HW217868   2.582   7.838   4.174 -0.7475 -0.4340  0.3130
 5462SOL     OW17869   4.876   1.343   1.156 -0.4813  0.3723  0.0675
 5462SOL    HW117870   4.884   1.280   1.085 -0.3567  0.7580 -0.2653
 5462SOL    HW217871   4.966   1.358   1.186 -0.7097 -1.5159  1.8519
 5463SOL     OW17872   7.019   3.983   3.178  0.0793 -0.1758 -0.5118
 5463SOL    HW117873   6.985   3.974   3.089  0.1695 -2.0613 -0.3822
 5463SOL    HW217874   7.074   4.061   3.176 -2.5341  1.6694 -1.2600
 5464SOL     OW17875   5.472   2.633   2.383  0.1306  0.2104  0.3251
 5464SOL    HW117876   5.552   2.604   2.428  0.1237  0.4016  0.4639
 5464SOL    HW217877   5.467   2.579   2.305  0.0039 -0.3052  0.6888
 5465SOL     OW17878   2.240   2.551   1.407 -0.6282  0.4204  0.1926
 5465SOL    HW117879   2.213   2.496   1.333  0.5330  0.6723 -0.4386
 5465SOL    HW217880   2.289   2.623   1.366 -0.2290  0.7150  1.1829
 5466SOL     OW17881   6.165   5.830   1.978 -0.4416  0.2893  0.3688
 5466SOL    HW117882   6.212   5.852   1.898 -1.0187  2.5912  0.6298
 5466SOL    HW217883   6.144   5.738   1.969 -0.2210  0.4528 -1.9822
 5467SOL     OW17884   1.551   3.914   0.670  0.1703 -0.3100  0.2229
 5467SOL    HW117885   1.524   3.959   0.590 -0.4166 -2.7108 -0.9689
 5467SOL    HW217886   1.634   3.872   0.647 -0.1268 -1.2214  0.7988
 5468SOL     OW17887   1.279   7.215   1.239 -0.4232 -0.6891 -0.3055
 5468SOL    HW117888   1.226   7.146   1.200 -0.9053  0.7944 -2.3267
 5468SOL    HW217889   1.218   7.261   1.298  0.2457 -2.7797  2.0813
 5469SOL     OW17890   7.889   5.690   7.464  0.2214  0.3034  0.5491
 5469SOL    HW117891   7.870   5.597   7.481 -0.6628  0.7405  2.0308
 5469SOL    HW217892   7.981   5.699   7.487  1.0481 -0.7814 -2.1555
 5470SOL     OW17893   6.129   3.940   5.085 -0.0391  0.2208  0.2266
 5470SOL    HW117894   6.090   3.862   5.124 -0.1623  0.9848  1.6613
 5470SOL    HW217895   6.206   3.907   5.038 -0.9865 -0.9600 -0.5104
 5471SOL     OW17896   2.381   4.172   7.141 -0.5042  0.0890  0.4185
 5471SOL    HW117897   2.419   4.227   7.072  0.1606 -0.2294  0.5276
 5471SOL    HW217898   2.297   4.143   7.105  0.6778 -1.6083 -1.0266
 5472SOL     OW17899   1.694   0.082   4.415 -0.0148  0.2872  0.1197
 5472SOL    HW117900   1.613   0.033   4.430 -1.0840  1.0532 -2.7006
 5472SOL    HW217901   1.685   0.160   4.471 -0.2785 -0.6110  1.3460
 5473SOL     OW17902   0.871   8.277   4.874  0.2116  0.3280  0.6277
 5473SOL    HW117903   0.792   8.226   4.888  1.2541 -1.6333 -0.3883
 5473SOL    HW217904   0.908   8.289   4.962  0.0703 -0.8773  0.8554
 5474SOL     OW17905   3.943   0.456   5.274 -0.7320 -0.1746 -0.0351
 5474SOL    HW117906   3.921   0.368   5.243 -1.0882  0.3857 -1.4153
 5474SOL    HW217907   3.943   0.510   5.195 -0.6979  1.1107  0.8277
 5475SOL     OW17908   6.339   2.551   4.039 -0.0752 -0.5200 -0.1449
 5475SOL    HW117909   6.329   2.463   4.003 -2.4154  0.4029 -1.8434
 5475SOL    HW217910   6.392   2.597   3.973 -1.4597  0.1982 -0.7719
 5476SOL     OW17911   4.002   7.700   6.095 -0.4512 -0.1086  0.1857
 5476SOL    HW117912   4.006   7.622   6.040 -1.9546  0.1045 -0.2589
 5476SOL    HW217913   4.032   7.771   6.039  1.1638 -0.3932  0.6690
 5477SOL     OW17914   0.484   2.931   7.649 -0.1444 -0.9014 -0.0648
 5477SOL    HW117915   0.499   3.001   7.585 -0.5550  0.4284  1.2802
 5477SOL    HW217916   0.568   2.885   7.654  1.0385  1.3241  1.2218
 5478SOL     OW17917   0.280   2.020   1.796 -0.4367 -0.3929  0.7103
 5478SOL    HW117918   0.299   1.971   1.876  0.2748  1.8132  1.9233
 5478SOL    HW217919   0.354   2.080   1.786  0.5633 -2.0439 -2.7979
 5479SOL     OW17920   1.029   4.817   0.793 -0.2691 -0.2869  0.6136
 5479SOL    HW117921   0.990   4.901   0.816  0.3038 -0.0323  0.6684
 5479SOL    HW217922   0.969   4.779   0.728  0.4526  1.0272 -0.8503
 5480SOL     OW17923   6.612   3.351   6.972  0.0305  0.3799 -0.5450
 5480SOL    HW117924   6.635   3.442   6.953 -1.7832  1.1588  0.8625
 5480SOL    HW217925   6.669   3.326   7.045  0.0017  0.6384 -0.4347
 5481SOL     OW17926   7.748   5.003   5.641  0.4670  0.2636  0.1708
 5481SOL    HW117927   7.723   5.094   5.657 -0.9467  0.2134 -1.6087
 5481SOL    HW217928   7.844   5.003   5.644  0.4175  1.3026  2.7723
 5482SOL     OW17929   2.275   4.154   1.644 -0.0692 -0.4601 -0.1582
 5482SOL    HW117930   2.213   4.145   1.571  0.9434 -2.2681 -0.8489
 5482SOL    HW217931   2.300   4.246   1.643 -0.0888 -0.4522 -2.1059
 5483SOL     OW17932   1.442   0.138   8.110  0.0539 -0.0215  0.2348
 5483SOL    HW117933   1.403   0.203   8.052  0.9369 -1.4465 -2.0255
 5483SOL    HW217934   1.403   0.055   8.082  0.0769 -0.6674  2.0706
 5484SOL     OW17935   7.800   3.948   4.688 -0.4257  0.0524  0.5898
 5484SOL    HW117936   7.811   4.010   4.760  1.3000 -0.1421  0.5150
 5484SOL    HW217937   7.843   3.868   4.718 -1.7845 -0.8155  0.2922
 5485SOL     OW17938   2.674   7.266   4.482  0.1169  0.0853 -0.3726
 5485SOL    HW117939   2.612   7.210   4.435 -1.4101  0.2018  1.4511
 5485SOL    HW217940   2.754   7.214   4.488 -0.2858 -0.6652 -1.4150
 5486SOL     OW17941   6.448   6.277   1.622 -0.8359  0.0802  0.1186
 5486SOL    HW117942   6.377   6.286   1.560 -1.3595  2.6540  1.0257
 5486SOL    HW217943   6.428   6.198   1.672 -0.8384 -1.5242 -2.3797
 5487SOL     OW17944   1.061   5.076   5.442 -0.1628  0.2411 -0.4563
 5487SOL    HW117945   1.051   5.168   5.466 -1.1094  0.0446 -0.1028
 5487SOL    HW217946   1.018   5.069   5.357  0.8145  0.3439 -0.9688
 5488SOL     OW17947   4.069   6.416   5.369  0.4400 -0.2410 -0.0146
 5488SOL    HW117948   4.137   6.443   5.430 -0.1850  0.8338  0.2151
 5488SOL    HW217949   4.061   6.322   5.383 -0.1869  0.0925  2.0690
 5489SOL     OW17950   1.138   7.742   6.135 -0.5360  0.0362 -0.0891
 5489SOL    HW117951   1.074   7.754   6.066 -1.4597  0.0110  0.7528
 5489SOL    HW217952   1.222   7.765   6.095 -1.0123 -0.3208 -1.3111
 5490SOL     OW17953   0.939   3.576   5.486  0.0323  0.2691  0.3186
 5490SOL    HW117954   0.898   3.635   5.550  0.1939  0.2412  0.4479
 5490SOL    HW217955   0.898   3.599   5.403 -0.0066  0.4698  0.3928
 5491SOL     OW17956   5.387   5.505   7.074 -0.6948  0.0131  0.4343
 5491SOL    HW117957   5.454   5.476   7.135 -0.4477 -0.0336  0.1401
 5491SOL    HW217958   5.384   5.600   7.085 -0.0042  0.1007 -0.1418
 5492SOL     OW17959   6.972   1.103   6.404 -0.6840  0.5809  0.1405
 5492SOL    HW117960   6.998   1.102   6.497  0.3066  0.6191 -0.1286
 5492SOL    HW217961   7.009   1.023   6.368 -1.5274  0.2967 -0.1113
 5493SOL     OW17962   7.226   4.037   1.477 -0.2024  0.2847 -0.1121
 5493SOL    HW117963   7.195   3.948   1.490  0.6674  0.0053  0.0658
 5493SOL    HW217964   7.164   4.074   1.413 -1.0242 -0.1850  0.3991
 5494SOL     OW17965   0.831   5.671   5.569  0.3652 -0.9638  0.0285
 5494SOL    HW117966   0.851   5.678   5.662  0.4522  2.5206 -0.1886
 5494SOL    HW217967   0.735   5.662   5.566  0.3914 -1.4042  0.4524
 5495SOL     OW17968   4.522   1.619   0.931 -0.0376  0.0219 -0.0321
 5495SOL    HW117969   4.535   1.569   1.011 -0.5294  0.3333  0.2471
 5495SOL    HW217970   4.567   1.569   0.863  1.0420  0.1673  0.5784
 5496SOL     OW17971   3.209   4.573   1.941  0.2364  0.3610  0.0741
 5496SOL    HW117972   3.300   4.563   1.913 -0.2047 -2.0116 -0.6170
 5496SOL    HW217973   3.204   4.525   2.023 -0.7252 -0.7526 -0.6263
 5497SOL     OW17974   7.582   7.423   3.041 -0.1889  0.1183 -0.2165
 5497SOL    HW117975   7.569   7.334   3.007 -0.5312  0.6303 -1.4570
 5497SOL    HW217976   7.594   7.477   2.963  0.8453  1.0410  0.5581
 5498SOL     OW17977   2.679   8.213   4.295 -0.2334 -0.1567  0.2025
 5498SOL    HW117978   2.743   8.249   4.356 -1.8013 -0.6678  2.1798
 5498SOL    HW217979   2.604   8.272   4.301 -1.7219 -2.1142  1.3678
 5499SOL     OW17980   3.454   2.302   6.668  0.8959  0.0437 -0.4011
 5499SOL    HW117981   3.504   2.224   6.643  1.4378 -0.1496  1.2527
 5499SOL    HW217982   3.503   2.375   6.629  3.2241 -0.0331  2.2207
 5500SOL     OW17983   4.488   1.374   3.689 -0.3428 -0.1334  0.2054
 5500SOL    HW117984   4.429   1.329   3.750 -3.3595  0.2759 -2.2900
 5500SOL    HW217985   4.480   1.466   3.714  0.1489 -0.1951  0.5992
 5501SOL     OW17986   4.015   2.639   6.505  0.1648  0.4423 -0.1797
 5501SOL    HW117987   3.965   2.679   6.433  1.3497  3.0707  0.3951
 5501SOL    HW217988   4.104   2.673   6.493  1.3016 -2.3439  0.1675
 5502SOL     OW17989   0.695   0.465   7.881 -0.0148  0.3548  0.1827
 5502SOL    HW117990   0.629   0.473   7.812 -0.2415 -0.3319  0.3142
 5502SOL    HW217991   0.725   0.374   7.876  2.2883  1.1606 -1.0990
 5503SOL     OW17992   4.661   8.063   1.534  0.3068 -0.3651 -0.1340
 5503SOL    HW117993   4.628   8.153   1.537  1.9869  0.2663 -0.1094
 5503SOL    HW217994   4.599   8.013   1.587 -0.0904  0.9546  0.6668
 5504SOL     OW17995   5.238   5.645   4.929 -0.0710  0.3469  0.3185
 5504SOL    HW117996   5.203   5.625   5.016  1.6380  0.3025  1.0131
 5504SOL    HW217997   5.166   5.688   4.883 -1.3022 -0.5201  1.4192
 5505SOL     OW17998   4.924   3.804   1.397 -0.5343 -0.5322 -0.0508
 5505SOL    HW117999   4.858   3.859   1.355  1.1914 -0.1234 -2.3597
 5505SOL    HW218000   4.941   3.846   1.481 -2.1381  0.1582 -0.0586
 5506SOL     OW18001   6.346   0.880   4.550 -0.4971  0.0582  0.2004
 5506SOL    HW118002   6.324   0.954   4.607  1.4906  0.3616  0.6249
 5506SOL    HW218003   6.311   0.804   4.596  1.4935  0.2522  2.1106
 5507SOL     OW18004   3.244   2.818   1.322  0.2400 -0.3014  0.2573
 5507SOL    HW118005   3.269   2.791   1.411  0.4668  1.7973  0.8425
 5507SOL    HW218006   3.282   2.750   1.266  1.2723 -0.9177  1.6530
 5508SOL     OW18007   1.370   7.721   0.247  0.7281  0.2968 -0.0518
 5508SOL    HW118008   1.310   7.676   0.187  3.1841 -0.0608 -2.3126
 5508SOL    HW218009   1.361   7.814   0.225 -0.9265  0.5488  1.4824
 5509SOL     OW18010   5.721   5.882   0.925  0.2971 -0.4466 -0.0958
 5509SOL    HW118011   5.670   5.948   0.972  0.0399 -1.8284  1.5807
 5509SOL    HW218012   5.667   5.803   0.928  1.4678 -1.2751 -0.4126
 5510SOL     OW18013   4.822   0.447   1.764 -0.3926  0.1224 -0.2839
 5510SOL    HW118014   4.797   0.526   1.717 -0.8176 -0.4775 -1.0734
 5510SOL    HW218015   4.905   0.420   1.724 -0.5188 -0.1337 -0.3671
 5511SOL     OW18016   6.098   1.120   6.979 -0.2800  1.1626 -0.3286
 5511SOL    HW118017   6.135   1.180   6.915 -0.1425  2.4608  0.9485
 5511SOL    HW218018   6.119   1.159   7.064  0.4379 -1.0388  0.5547
 5512SOL     OW18019   6.894   5.541   3.790 -0.1960 -0.5110 -0.6243
 5512SOL    HW118020   6.833   5.605   3.828  1.4326  1.5764 -1.4046
 5512SOL    HW218021   6.980   5.569   3.820  0.6726 -1.6204 -1.9961
 5513SOL     OW18022   4.772   3.246   3.379  0.4513  0.0281  0.2528
 5513SOL    HW118023   4.703   3.195   3.423  1.1503 -0.1586  1.1433
 5513SOL    HW218024   4.760   3.227   3.286  0.2470 -1.1952  0.5180
 5514SOL     OW18025   3.713   1.002   5.900  0.3433 -0.1073  0.3938
 5514SOL    HW118026   3.684   1.070   5.961  3.5607  1.5987  0.1307
 5514SOL    HW218027   3.718   0.922   5.952 -1.3224  0.3181  1.2401
 5515SOL     OW18028   7.290   2.238   4.573 -0.1904 -0.2481  0.0395
 5515SOL    HW118029   7.298   2.186   4.653 -0.0486 -0.2380  0.0308
 5515SOL    HW218030   7.199   2.268   4.573  0.0396  0.4622  0.6305
 5516SOL     OW18031   7.284   0.361   3.088  0.7566 -0.5408 -0.1793
 5516SOL    HW118032   7.254   0.321   3.007  2.4128 -1.1528 -0.5115
 5516SOL    HW218033   7.355   0.305   3.118  0.9400  0.3297  1.0925
 5517SOL     OW18034   3.164   6.797   2.029 -0.3493  0.2079 -0.6539
 5517SOL    HW118035   3.168   6.773   1.936  0.7868  0.9406 -0.8027
 5517SOL    HW218036   3.222   6.872   2.037 -1.0825  0.6681  0.5001
 5518SOL     OW18037   4.577   6.614   5.620 -0.4335 -0.4397  0.0366
 5518SOL    HW118038   4.661   6.576   5.596  0.2301  0.5661  0.7291
 5518SOL    HW218039   4.538   6.551   5.680  0.0749 -0.6459  0.1494
 5519SOL     OW18040   4.523   0.468   1.908  0.7080 -0.2705  0.1265
 5519SOL    HW118041   4.580   0.501   1.839  0.0694 -0.8582 -0.6944
 5519SOL    HW218042   4.550   0.377   1.921  1.2292  0.0197  1.0747
 5520SOL     OW18043   7.565   7.124   3.521 -0.0919  0.1466 -0.3959
 5520SOL    HW118044   7.641   7.105   3.467 -0.3950  0.0857 -0.8022
 5520SOL    HW218045   7.586   7.085   3.606 -0.4561 -1.5063 -1.0472
 5521SOL     OW18046   1.964   5.116   8.142 -0.2588  0.3322  0.2149
 5521SOL    HW118047   1.915   5.197   8.135  0.7746  0.8422 -1.5495
 5521SOL    HW218048   1.997   5.115   8.231 -1.8658  0.8972  0.8362
 5522SOL     OW18049   1.972   0.833   1.002 -0.3547  0.0031 -0.2426
 5522SOL    HW118050   2.037   0.824   0.932  0.3446 -0.5787  0.4594
 5522SOL    HW218051   2.024   0.838   1.082 -1.2108 -2.6918  0.5385
 5523SOL     OW18052   1.700   5.566   2.881  0.0733 -0.0795 -0.3809
 5523SOL    HW118053   1.726   5.578   2.973 -0.2334 -0.8017 -0.1928
 5523SOL    HW218054   1.769   5.511   2.844 -1.0797 -1.8964  0.0881
 5524SOL     OW18055   6.675   2.466   5.603 -0.5055  0.3308 -0.5801
 5524SOL    HW118056   6.724   2.433   5.679 -0.5379 -0.6674 -0.9786
 5524SOL    HW218057   6.583   2.454   5.627 -0.5262  0.5801 -0.5346
 5525SOL     OW18058   4.786   2.613   0.557  0.3065 -0.6963  0.1609
 5525SOL    HW118059   4.856   2.592   0.495  0.2115  1.4396 -0.7198
 5525SOL    HW218060   4.729   2.674   0.509 -2.2334 -2.4608  0.8182
 5526SOL     OW18061   5.420   6.346   4.855  0.1775  0.5356  0.3640
 5526SOL    HW118062   5.361   6.349   4.931 -0.8526  0.7769 -0.4367
 5526SOL    HW218063   5.400   6.425   4.806 -1.3299 -1.1053 -1.7531
 5527SOL     OW18064   4.182   2.479   5.022  0.1306  0.0824 -0.1969
 5527SOL    HW118065   4.133   2.402   5.051 -0.5157  0.6738  0.2986
 5527SOL    HW218066   4.189   2.534   5.100 -0.4674  1.0847 -0.8273
 5528SOL     OW18067   3.893   0.474   7.371 -0.2354  0.0117  0.0786
 5528SOL    HW118068   3.978   0.498   7.409 -0.5037  0.2071  0.5631
 5528SOL    HW218069   3.829   0.515   7.429 -0.6649 -0.3713 -0.1271
 5529SOL     OW18070   2.974   5.965   2.893  0.2358 -0.2624  0.0407
 5529SOL    HW118071   2.975   5.946   2.799  1.3733 -0.2201  0.0374
 5529SOL    HW218072   3.050   6.021   2.908  0.7819 -1.2543  1.1754
 5530SOL     OW18073   6.777   6.407   0.804  0.4048 -0.4875  0.5474
 5530SOL    HW118074   6.744   6.418   0.715 -1.7852 -0.8839  1.2793
 5530SOL    HW218075   6.833   6.329   0.799 -0.2652 -0.9293 -0.3418
 5531SOL     OW18076   3.465   4.605   1.634 -0.6987 -0.0243 -0.6058
 5531SOL    HW118077   3.486   4.619   1.726  0.9358  1.4311 -1.1672
 5531SOL    HW218078   3.451   4.511   1.626 -0.4349 -0.2081  1.0375
 5532SOL     OW18079   8.279   2.694   1.749  0.7234 -0.1015  0.1510
 5532SOL    HW118080   8.288   2.625   1.815  1.7901 -0.1693 -0.0526
 5532SOL    HW218081   8.185   2.709   1.742  0.5328 -0.9988  0.7573
 5533SOL     OW18082   4.849   8.180   1.749  0.2571  0.1442 -0.2049
 5533SOL    HW118083   4.886   8.153   1.665  0.7025 -1.3967  0.4508
 5533SOL    HW218084   4.887   8.266   1.767  0.3653  0.3533 -1.4528
 5534SOL     OW18085   3.480   0.083   5.276 -0.3448  0.1011  0.2072
 5534SOL    HW118086   3.409   0.040   5.324  0.0350 -0.0141  0.6718
 5534SOL    HW218087   3.472   0.176   5.299 -1.1191  0.2762 -0.7387
 5535SOL     OW18088   4.632   4.054   5.237  0.2648  0.4421  0.0556
 5535SOL    HW118089   4.615   4.039   5.330  0.1261  0.7555  0.0773
 5535SOL    HW218090   4.546   4.053   5.196  0.2961  0.6965 -0.0164
 5536SOL     OW18091   1.658   3.341   0.467  1.0316 -0.7173  0.2520
 5536SOL    HW118092   1.704   3.412   0.511  1.7045 -1.2692  0.4510
 5536SOL    HW218093   1.617   3.382   0.391  0.0091  0.2176  1.2834
 5537SOL     OW18094   3.137   1.324   8.085 -0.0788 -0.1915 -0.5984
 5537SOL    HW118095   3.070   1.307   8.152  0.2682 -0.0689 -0.2171
 5537SOL    HW218096   3.196   1.249   8.090  0.7494  0.4927  0.2216
 5538SOL     OW18097   7.150   4.393   3.309  0.1594  0.1809 -0.4871
 5538SOL    HW118098   7.146   4.397   3.405 -0.6609  0.0839 -0.5110
 5538SOL    HW218099   7.243   4.395   3.289  0.3365  0.2748  0.3123
 5539SOL     OW18100   2.562   0.845   5.511  0.2398 -0.3106  0.3266
 5539SOL    HW118101   2.471   0.832   5.484  0.2127 -1.4017  0.9100
 5539SOL    HW218102   2.614   0.807   5.441  0.3069  2.0009 -0.9204
 5540SOL     OW18103   1.837   6.445   1.241  0.1897  0.5932  0.4369
 5540SOL    HW118104   1.841   6.356   1.274 -0.3531 -0.2202 -1.6373
 5540SOL    HW218105   1.841   6.500   1.319  2.1237 -1.1969  1.6383
 5541SOL     OW18106   1.884   5.809   5.435 -0.8212 -0.1667  0.1974
 5541SOL    HW118107   1.834   5.855   5.501  0.5110  0.7463  0.5963
 5541SOL    HW218108   1.966   5.785   5.479 -1.0453 -1.9582 -0.3224
 5542SOL     OW18109   0.437   0.317   7.150 -0.6925 -0.8037  0.7359
 5542SOL    HW118110   0.449   0.253   7.079  0.5115  0.3149 -0.0919
 5542SOL    HW218111   0.521   0.317   7.196 -0.5278  0.4998  0.4465
 5543SOL     OW18112   7.210   3.568   7.069 -0.8179 -0.1763  0.1533
 5543SOL    HW118113   7.214   3.582   6.975  0.8183  0.3531  0.3003
 5543SOL    HW218114   7.166   3.646   7.104  1.4416  1.1100  0.1604
 5544SOL     OW18115   5.979   7.299   5.355 -0.5359  0.4114 -0.2246
 5544SOL    HW118116   5.978   7.337   5.267 -0.0346  0.7702 -0.0763
 5544SOL    HW218117   5.891   7.316   5.389 -0.4606  1.0257 -0.3357
 5545SOL     OW18118   7.414   2.351   2.860 -0.6215  0.0533  0.2903
 5545SOL    HW118119   7.372   2.391   2.785  0.8388  1.8379  0.3944
 5545SOL    HW218120   7.357   2.371   2.934 -0.1250  1.6271  0.2691
 5546SOL     OW18121   3.671   5.567   5.096  0.3767 -0.5940  0.0408
 5546SOL    HW118122   3.725   5.534   5.168  1.3326 -1.2100 -0.9467
 5546SOL    HW218123   3.637   5.489   5.054 -1.0532 -0.2067  0.4713
 5547SOL     OW18124   0.233   4.564   7.413  0.5875  0.2260 -0.2741
 5547SOL    HW118125   0.258   4.475   7.438  0.3789 -0.0967 -1.1699
 5547SOL    HW218126   0.139   4.568   7.431  0.5975  0.2589 -0.2311
 5548SOL     OW18127   3.242   0.243   2.298 -0.0513  0.1882 -0.1430
 5548SOL    HW118128   3.154   0.262   2.328 -0.8318 -1.2602 -1.4440
 5548SOL    HW218129   3.291   0.221   2.378 -1.4504 -1.1988  0.3666
 5549SOL     OW18130   2.082   4.569   6.463 -0.1016 -0.2073 -0.0887
 5549SOL    HW118131   2.098   4.475   6.472 -0.4094 -0.2668 -0.1527
 5549SOL    HW218132   2.119   4.592   6.378  1.4701  0.0601  0.6538
 5550SOL     OW18133   3.112   0.972   8.099  0.3432 -1.2934 -0.4441
 5550SOL    HW118134   3.048   0.958   8.029  0.1941 -0.2151 -0.5387
 5550SOL    HW218135   3.191   0.929   8.068  0.3219 -0.6997 -1.3569
 5551SOL     OW18136   6.131   0.487   6.834  0.0170  0.1112 -0.4642
 5551SOL    HW118137   6.191   0.559   6.854 -1.5990  0.8625  1.7769
 5551SOL    HW218138   6.180   0.408   6.858  0.7024  0.6175 -0.1793
 5552SOL     OW18139   1.156   3.690   3.751 -0.3438 -0.0487  0.2752
 5552SOL    HW118140   1.130   3.781   3.758 -0.6013 -0.1814  1.0555
 5552SOL    HW218141   1.102   3.655   3.680 -0.9157  0.1689  0.6006
 5553SOL     OW18142   1.052   1.758   7.294 -0.3593  0.0533 -0.2337
 5553SOL    HW118143   1.090   1.786   7.211  2.6074  0.2782  1.1198
 5553SOL    HW218144   1.026   1.839   7.337  0.3446  0.1387  0.0493
 5554SOL     OW18145   3.574   2.506   5.342  0.2736 -0.1604 -0.0322
 5554SOL    HW118146   3.577   2.411   5.339 -0.6332 -0.1789 -1.0464
 5554SOL    HW218147   3.649   2.535   5.290 -0.4585 -0.3402 -1.1991
 5555SOL     OW18148   5.910   3.361   2.115 -0.2161  0.1559  0.3302
 5555SOL    HW118149   5.983   3.357   2.177 -1.2804  0.4059  1.6250
 5555SOL    HW218150   5.833   3.340   2.168 -1.1047 -0.0001 -0.9979
 5556SOL     OW18151   6.288   4.655   3.954 -0.6224 -0.5411  0.4720
 5556SOL    HW118152   6.217   4.707   3.917 -0.9199 -0.2484  1.4244
 5556SOL    HW218153   6.334   4.716   4.012  1.3553 -0.2998 -1.3096
 5557SOL     OW18154   0.328   7.361   4.850 -0.4070 -0.2407 -0.4481
 5557SOL    HW118155   0.390   7.432   4.867 -0.6223 -0.1957  0.1676
 5557SOL    HW218156   0.289   7.383   4.765 -0.1705  0.1569 -0.4551
 5558SOL     OW18157   6.616   3.411   1.423 -0.2423  0.6103 -0.0868
 5558SOL    HW118158   6.532   3.366   1.433  0.2167 -0.1324  0.5743
 5558SOL    HW218159   6.638   3.401   1.330 -1.2712  1.5397 -0.4448
 5559SOL     OW18160   4.124   1.461   5.587  0.8009  0.3504  0.3362
 5559SOL    HW118161   4.046   1.419   5.553  1.1755 -0.5541  0.5844
 5559SOL    HW218162   4.178   1.478   5.510  0.7314  0.2113  0.2581
 5560SOL     OW18163   8.173   7.728   7.221  0.2205  0.1362 -0.0185
 5560SOL    HW118164   8.261   7.690   7.226 -0.2794 -0.8412  2.0057
 5560SOL    HW218165   8.145   7.735   7.312 -1.5706  0.9917 -0.6189
 5561SOL     OW18166   7.603   3.977   6.684 -0.3251  0.5596 -0.4243
 5561SOL    HW118167   7.588   4.069   6.661 -0.8941  0.6959  0.4639
 5561SOL    HW218168   7.647   3.981   6.769 -0.5268  0.0066 -0.2956
 5562SOL     OW18169   0.121   0.902   4.757 -0.0084  0.5844  0.4672
 5562SOL    HW118170   0.026   0.891   4.758  0.0492  0.0533  1.6616
 5562SOL    HW218171   0.138   0.968   4.690 -1.1681  0.2021 -0.2022
 5563SOL     OW18172   3.433   6.039   4.122  0.4456 -0.1384  0.3520
 5563SOL    HW118173   3.441   5.955   4.168  0.2190 -0.4653 -0.1946
 5563SOL    HW218174   3.499   6.095   4.163 -0.1329 -0.2449  1.4494
 5564SOL     OW18175   0.568   2.903   0.723 -0.2080 -0.2097  0.2744
 5564SOL    HW118176   0.621   2.954   0.785  0.6509 -0.5119 -0.2096
 5564SOL    HW218177   0.585   2.812   0.747 -1.6597 -0.2930  1.0699
 5565SOL     OW18178   7.028   0.545   6.671 -0.0709 -0.3047  0.1123
 5565SOL    HW118179   7.096   0.505   6.726  0.3094 -1.1251 -0.9354
 5565SOL    HW218180   7.001   0.623   6.720  0.8162 -0.5910  1.0892
 5566SOL     OW18181   0.722   3.314   2.107  0.4460 -0.2511 -0.4188
 5566SOL    HW118182   0.739   3.275   2.021  1.7477 -0.2362 -0.1864
 5566SOL    HW218183   0.776   3.393   2.108 -0.2345  0.2124  0.0860
 5567SOL     OW18184   2.254   8.083   4.195  0.5722  0.3654  0.3982
 5567SOL    HW118185   2.237   8.157   4.254 -0.3174  0.0792  0.5109
 5567SOL    HW218186   2.293   8.123   4.117 -1.6878  1.2041 -0.3445
 5568SOL     OW18187   7.927   6.368   1.824 -0.7021  0.9479  0.4431
 5568SOL    HW118188   7.917   6.424   1.901  1.1364  1.5880  0.2539
 5568SOL    HW218189   8.012   6.326   1.835 -1.5283 -0.9168 -0.0199
 5569SOL     OW18190   5.721   6.268   1.952  0.3178 -0.2145  0.2843
 5569SOL    HW118191   5.772   6.303   1.879  1.3825  0.1352  1.1948
 5569SOL    HW218192   5.757   6.180   1.966 -1.9115 -1.4870 -1.5724
 5570SOL     OW18193   0.960   3.078   3.178 -0.2423 -0.0584  0.0098
 5570SOL    HW118194   0.867   3.063   3.191 -0.3007  1.2373  1.2575
 5570SOL    HW218195   0.964   3.156   3.122  0.0874  0.1540  0.3230
 5571SOL     OW18196   5.220   0.021   1.066  0.4411 -0.0244  0.1840
 5571SOL    HW118197   5.290   0.065   1.113  0.0815  0.4113  0.3158
 5571SOL    HW218198   5.145   0.081   1.073  0.2781 -0.1271 -0.6117
 5572SOL     OW18199   1.757   8.028   1.860 -0.5479 -0.1171  0.6383
 5572SOL    HW118200   1.685   8.079   1.898 -0.4809  0.4147  0.0458
 5572SOL    HW218201   1.797   8.086   1.796 -0.2494 -0.7856  0.2108
 5573SOL     OW18202   0.049   8.199   0.067 -0.1183  0.3411 -0.0759
 5573SOL    HW118203  -0.011   8.184   0.140 -1.5051 -1.5152 -1.5810
 5573SOL    HW218204   0.012   8.274   0.021  0.2447  0.9195  0.5545
 5574SOL     OW18205   0.738   0.085   8.173  0.0516 -0.3914  0.2389
 5574SOL    HW118206   0.777   0.036   8.101  0.0585 -2.0413  1.3383
 5574SOL    HW218207   0.667   0.135   8.132 -0.0625 -1.4497 -0.8874
 5575SOL     OW18208   7.796   6.491   5.668  0.2869  0.1206 -0.6368
 5575SOL    HW118209   7.878   6.519   5.628  1.3891 -0.9821  0.7820
 5575SOL    HW218210   7.791   6.397   5.649 -1.4520  0.4984 -2.0923
 5576SOL     OW18211   4.987   8.133   5.790 -0.5965  0.1139  0.9484
 5576SOL    HW118212   4.984   8.206   5.729  1.0038 -0.3626  0.2898
 5576SOL    HW218213   4.930   8.066   5.751  0.8142 -0.3869 -0.3051
 5577SOL     OW18214   3.042   6.924   0.644  0.0832  0.4368 -0.0190
 5577SOL    HW118215   3.097   6.867   0.698  0.4049  1.4385  0.7247
 5577SOL    HW218216   3.089   7.008   0.643  0.8182  0.0428 -3.0201
 5578SOL     OW18217   4.290   3.025   1.131  0.1709 -0.1635 -0.0049
 5578SOL    HW118218   4.247   3.106   1.157  1.7501  0.0448  2.1322
 5578SOL    HW218219   4.367   3.053   1.081 -0.7259 -0.4485 -1.5711
 5579SOL     OW18220   3.604   4.118   2.559  0.2626 -0.3206 -0.4612
 5579SOL    HW118221   3.572   4.191   2.505  3.4375  1.1723 -0.4028
 5579SOL    HW218222   3.642   4.057   2.496  0.1163 -0.6225 -0.2576
 5580SOL     OW18223   4.480   4.115   4.444 -0.6409 -0.4372  0.2014
 5580SOL    HW118224   4.456   4.023   4.430  0.9777 -0.8779  0.2376
 5580SOL    HW218225   4.542   4.113   4.517  1.4540  0.3635 -1.4781
 5581SOL     OW18226   2.836   5.815   3.800  0.3721  0.0058 -0.1251
 5581SOL    HW118227   2.878   5.849   3.721 -0.7183  0.2216 -0.6235
 5581SOL    HW218228   2.905   5.814   3.866  0.8249  1.6163 -0.5700
 5582SOL     OW18229   3.377   6.685   5.027 -0.1386 -0.2827  0.1555
 5582SOL    HW118230   3.408   6.629   4.956  1.2397  1.4866 -0.6836
 5582SOL    HW218231   3.328   6.755   4.984  0.5829  0.7239  0.9315
 5583SOL     OW18232   2.184   6.206   0.752 -0.1186 -0.1392  0.3062
 5583SOL    HW118233   2.265   6.257   0.752  1.2852 -2.2601  2.1572
 5583SOL    HW218234   2.213   6.116   0.735 -2.0660 -0.9631  1.2225
 5584SOL     OW18235   1.623   0.482   3.630  0.0339  0.6205 -0.2287
 5584SOL    HW118236   1.596   0.566   3.667 -2.2891 -0.9477  1.7447
 5584SOL    HW218237   1.709   0.465   3.668 -0.1715  1.3675  0.5737
 5585SOL     OW18238   5.848   2.179   1.179  0.5006 -0.0043  0.4206
 5585SOL    HW118239   5.942   2.168   1.193  0.5546  1.9537  1.6656
 5585SOL    HW218240   5.817   2.225   1.256 -1.2352  0.6261 -0.6259
 5586SOL     OW18241   7.803   2.702   4.539  0.1443  0.1382 -0.2855
 5586SOL    HW118242   7.862   2.628   4.540  0.0341  0.0433 -0.7198
 5586SOL    HW218243   7.752   2.691   4.459 -0.2676  0.3681 -0.0562
 5587SOL     OW18244   6.720   1.227   6.889  0.1504  0.3594 -0.7053
 5587SOL    HW118245   6.794   1.186   6.845 -0.4546 -1.1918 -0.3182
 5587SOL    HW218246   6.672   1.154   6.928 -1.4563  1.3588 -0.7638
 5588SOL     OW18247   3.731   5.144   7.632  0.1425  0.3916  0.1231
 5588SOL    HW118248   3.792   5.157   7.704  0.3909  0.5799 -0.1199
 5588SOL    HW218249   3.785   5.106   7.562 -0.3511 -0.9752  0.4617
 5589SOL     OW18250   1.352   5.514   2.067 -0.3402  0.4648  0.5163
 5589SOL    HW118251   1.350   5.419   2.057 -2.7362  0.6000 -0.7060
 5589SOL    HW218252   1.438   5.540   2.035 -0.7572 -1.0288 -1.9034
 5590SOL     OW18253   0.418   2.875   4.961 -0.2076 -0.1330  0.0807
 5590SOL    HW118254   0.331   2.838   4.942  0.6080 -3.0215  1.5416
 5590SOL    HW218255   0.452   2.901   4.876 -1.0936 -2.3443 -1.0126
 5591SOL     OW18256   3.519   1.005   1.760  0.4260  0.7421  0.2510
 5591SOL    HW118257   3.575   1.001   1.682  0.7332  3.2181  0.3176
 5591SOL    HW218258   3.554   0.938   1.818  1.3271  0.1029 -1.0010
 5592SOL     OW18259   2.592   5.562   0.446 -0.0553 -0.5291  0.2514
 5592SOL    HW118260   2.585   5.506   0.524 -0.6470 -0.5037  0.2230
 5592SOL    HW218261   2.579   5.503   0.372 -0.6314 -0.3648  0.2193
 5593SOL     OW18262   1.433   2.025   7.194 -0.2832  0.3876 -0.2729
 5593SOL    HW118263   1.500   2.014   7.127 -0.2839 -1.4232  0.0181
 5593SOL    HW218264   1.353   2.047   7.145  0.3098  1.7226 -0.6698
 5594SOL     OW18265   7.094   7.417   4.536 -0.7189 -0.4468 -0.0789
 5594SOL    HW118266   7.044   7.461   4.467  0.6266  0.4003 -0.5269
 5594SOL    HW218267   7.028   7.394   4.602 -1.7674  0.2653 -0.8591
 5595SOL     OW18268   1.755   2.829   7.203  0.9678  0.2682  0.6241
 5595SOL    HW118269   1.732   2.751   7.153 -0.2465  0.8692  0.2336
 5595SOL    HW218270   1.690   2.832   7.273  1.0286  0.9149  0.6502
 5596SOL     OW18271   1.761   6.402   3.095 -0.0820 -0.5456 -0.4361
 5596SOL    HW118272   1.825   6.374   3.161  0.5055  1.6211 -0.0409
 5596SOL    HW218273   1.709   6.324   3.078 -1.0574 -0.8785  3.5408
 5597SOL     OW18274   6.580   3.411   2.416 -0.0386 -0.2124 -0.0626
 5597SOL    HW118275   6.634   3.478   2.458  1.3249 -1.6260  0.4925
 5597SOL    HW218276   6.637   3.335   2.411 -1.0944 -0.8910 -2.0138
 5598SOL     OW18277   4.353   5.725   4.009 -0.3696  0.0421 -0.3980
 5598SOL    HW118278   4.379   5.653   3.951 -0.4156  0.5364 -1.0429
 5598SOL    HW218279   4.352   5.687   4.096  0.0454 -0.6251 -0.6836
 5599SOL     OW18280   7.680   4.745   2.107  0.4136  0.4161 -0.4042
 5599SOL    HW118281   7.730   4.800   2.046  1.3920 -0.0839 -0.0598
 5599SOL    HW218282   7.626   4.807   2.156  1.2878  1.0502 -0.2277
 5600SOL     OW18283   6.581   3.293   6.050  0.0355  0.3253 -0.2669
 5600SOL    HW118284   6.640   3.306   5.975 -0.4676  2.4186 -0.3119
 5600SOL    HW218285   6.525   3.370   6.051 -1.1504 -0.5270  1.2155
 5601SOL     OW18286   0.560   6.576   5.416  0.6089  0.2654  0.0810
 5601SOL    HW118287   0.540   6.668   5.429  1.2336  0.2540  1.1884
 5601SOL    HW218288   0.645   6.564   5.459  0.8433 -0.6711 -0.6347
 5602SOL     OW18289   7.705   6.827   1.774  0.0280 -0.2347 -0.0076
 5602SOL    HW118290   7.663   6.913   1.783  0.6843  0.2375 -1.3367
 5602SOL    HW218291   7.797   6.847   1.758  0.2903 -1.2081  0.2534
 5603SOL     OW18292   2.562   6.416   7.720 -0.0161 -0.1061  0.2917
 5603SOL    HW118293   2.598   6.373   7.797 -0.0120 -0.1106  0.2871
 5603SOL    HW218294   2.580   6.356   7.648 -0.2090 -0.1977  0.3205
 5604SOL     OW18295   7.731   7.719   6.988 -0.6293 -0.6331  0.3701
 5604SOL    HW118296   7.719   7.789   7.052  0.3993 -0.5305  0.4632
 5604SOL    HW218297   7.796   7.662   7.028  0.8704  0.0392 -1.0698
 5605SOL     OW18298   0.950   7.625   1.447 -0.6697 -0.5888 -0.6328
 5605SOL    HW118299   0.960   7.600   1.355 -0.0607 -0.0737 -0.7166
 5605SOL    HW218300   0.857   7.645   1.457 -0.5234  0.6000 -1.4726
 5606SOL     OW18301   6.952   3.654   3.241  0.7671  0.0632  0.1960
 5606SOL    HW118302   6.939   3.559   3.248  1.1678 -0.1023 -1.2860
 5606SOL    HW218303   6.875   3.692   3.286  0.2698 -0.9488  0.2118
 5607SOL     OW18304   3.006   4.459   7.869  0.3728 -0.4507 -0.4648
 5607SOL    HW118305   2.928   4.419   7.830  1.4905 -0.4363 -2.7789
 5607SOL    HW218306   3.063   4.384   7.890  0.9339 -0.3074 -1.4434
 5608SOL     OW18307   0.982   7.112   4.241 -0.1858  0.1203 -0.0908
 5608SOL    HW118308   0.892   7.145   4.244 -0.3495 -0.4107  0.8736
 5608SOL    HW218309   0.974   7.017   4.248  0.4458  0.0649 -0.0425
 5609SOL     OW18310   2.516   7.019   5.563  0.1291  0.1239  0.5905
 5609SOL    HW118311   2.456   7.089   5.588 -0.6995 -1.0480  1.9841
 5609SOL    HW218312   2.471   6.939   5.591  0.4016 -1.0827 -2.1975
 5610SOL     OW18313   2.034   0.268   8.231 -0.1780 -0.2240 -0.2700
 5610SOL    HW118314   2.068   0.210   8.300  0.8116  0.6504 -0.0007
 5610SOL    HW218315   2.112   0.309   8.194 -0.6066 -1.4791 -2.6632
 5611SOL     OW18316   2.104   4.830   4.196  0.1769 -0.3043 -0.6154
 5611SOL    HW118317   2.049   4.799   4.124  0.5288 -2.7727  0.1332
 5611SOL    HW218318   2.096   4.762   4.263  0.7818  1.3733  1.2193
 5612SOL     OW18319   4.894   2.190   3.364  0.8596  0.2516  0.0004
 5612SOL    HW118320   4.950   2.266   3.348  1.0483 -0.3788 -2.4614
 5612SOL    HW218321   4.934   2.119   3.314 -1.2003 -0.6316 -0.4581
 5613SOL     OW18322   1.814   8.192   4.242  0.3842 -0.1724  1.0311
 5613SOL    HW118323   1.887   8.146   4.284  0.2635  1.1069  2.7282
 5613SOL    HW218324   1.754   8.212   4.315 -0.1208  1.5802  0.1614
 5614SOL     OW18325   0.506   3.290   7.589  0.5834 -0.1682  0.1102
 5614SOL    HW118326   0.476   3.368   7.543 -0.2314 -0.6636 -0.1976
 5614SOL    HW218327   0.499   3.220   7.525 -2.7893 -1.3257  1.6497
 5615SOL     OW18328   2.264   3.537   5.336  0.3880 -0.3951 -0.5105
 5615SOL    HW118329   2.320   3.614   5.348  0.4228 -0.1995 -1.8596
 5615SOL    HW218330   2.236   3.514   5.425  0.1971  1.2975 -0.1072
 5616SOL     OW18331   3.199   6.869   6.116  0.5291 -0.0954 -0.1028
 5616SOL    HW118332   3.137   6.864   6.043  0.9172  1.5053 -0.5640
 5616SOL    HW218333   3.282   6.894   6.076  1.9984 -3.9176  0.2570
 5617SOL     OW18334   1.030   3.078   2.217 -0.0489 -0.5493  0.6236
 5617SOL    HW118335   0.965   3.134   2.260  0.1014  0.1369 -0.0299
 5617SOL    HW218336   1.103   3.074   2.279  0.3377  0.7754  0.2583
 5618SOL     OW18337   1.469   2.387   5.391  0.5026  0.3122  0.4570
 5618SOL    HW118338   1.376   2.370   5.372  0.4664  0.2163  0.7255
 5618SOL    HW218339   1.478   2.372   5.485  0.3870  2.1590  0.7781
 5619SOL     OW18340   4.251   6.937   2.605 -0.0755  0.2866 -0.3564
 5619SOL    HW118341   4.285   7.001   2.543  0.5079 -0.7985 -1.1853
 5619SOL    HW218342   4.160   6.924   2.577  0.1954 -0.2251 -1.0177
 5620SOL     OW18343   6.806   4.035   3.492 -0.5933 -0.5829  0.7980
 5620SOL    HW118344   6.729   4.065   3.539 -0.3571 -0.1144  0.8896
 5620SOL    HW218345   6.830   4.108   3.435 -0.3754 -0.8249  0.5768
 5621SOL     OW18346   3.481   7.870   2.738  1.3216 -0.0412 -0.5461
 5621SOL    HW118347   3.529   7.952   2.740  0.1043  0.6771 -0.5954
 5621SOL    HW218348   3.514   7.824   2.661 -0.3205  1.8232 -2.4070
 5622SOL     OW18349   7.656   6.198   2.104 -0.0341  0.1108 -0.2968
 5622SOL    HW118350   7.591   6.206   2.173  0.6153  0.0591  0.3310
 5622SOL    HW218351   7.624   6.254   2.034 -1.9997 -1.8382 -0.9805
 5623SOL     OW18352   0.728   4.946   0.868  0.2050 -0.1650  0.0710
 5623SOL    HW118353   0.684   4.923   0.786  1.5439 -0.9848 -0.4333
 5623SOL    HW218354   0.683   4.894   0.935  2.0318 -2.9998 -0.8084
 5624SOL     OW18355   4.785   1.482   3.387  0.1396  0.5290 -0.5675
 5624SOL    HW118356   4.714   1.420   3.405  2.6273 -2.2514  0.0727
 5624SOL    HW218357   4.815   1.510   3.474  1.7284 -0.6013 -0.7343
 5625SOL     OW18358   7.704   0.182   5.216 -1.0025  0.0369  0.0020
 5625SOL    HW118359   7.721   0.102   5.267 -1.0253 -0.1145 -0.2254
 5625SOL    HW218360   7.791   0.221   5.204 -0.8880 -0.3978 -0.6054
 5626SOL     OW18361   6.822   3.455   0.730  0.2051 -0.1316 -0.3245
 5626SOL    HW118362   6.830   3.537   0.779  0.0148 -0.2229 -0.1410
 5626SOL    HW218363   6.738   3.419   0.757 -0.2916  0.2263 -1.3370
 5627SOL     OW18364   1.324   5.239   2.015 -0.0470  0.4872 -0.2450
 5627SOL    HW118365   1.266   5.197   2.079  1.3099 -0.2907  0.4918
 5627SOL    HW218366   1.279   5.228   1.931 -1.2725  0.4644  0.4075
 5628SOL     OW18367   1.608   7.546   5.637 -0.2049 -0.0737  0.5330
 5628SOL    HW118368   1.675   7.546   5.706  0.5491  1.1295 -0.1871
 5628SOL    HW218369   1.567   7.460   5.644  1.9283 -1.1199  0.4885
 5629SOL     OW18370   0.959   6.249   8.065  0.1670 -0.0498  0.5584
 5629SOL    HW118371   0.923   6.235   7.977  0.7942  1.1968  0.0879
 5629SOL    HW218372   1.017   6.324   8.055 -0.5812  0.7807  2.2744
 5630SOL     OW18373   4.262   3.498   5.929 -0.7378 -0.2635 -0.3611
 5630SOL    HW118374   4.335   3.534   5.978  0.1575 -0.9663 -1.1677
 5630SOL    HW218375   4.265   3.542   5.844 -0.0147 -1.7410 -1.1265
 5631SOL     OW18376   0.590   0.767   5.928 -0.7482 -0.0628  0.5098
 5631SOL    HW118377   0.532   0.827   5.975  2.3554  3.6190 -0.0805
 5631SOL    HW218378   0.628   0.712   5.997 -1.9232  0.1647  1.3608
 5632SOL     OW18379   3.905   6.238   4.475 -0.4825  0.4209  0.4726
 5632SOL    HW118380   3.939   6.231   4.564  0.5294  0.1189  0.0721
 5632SOL    HW218381   3.860   6.155   4.460 -1.0630  0.6573  0.8568
 5633SOL     OW18382   1.557   4.883   4.883 -0.6098  0.0384 -0.1145
 5633SOL    HW118383   1.577   4.965   4.837 -0.2195  0.1516  0.2619
 5633SOL    HW218384   1.564   4.905   4.976  0.1516 -0.5911 -0.0170
 5634SOL     OW18385   1.418   1.834   8.307 -0.1863  0.0472 -0.0046
 5634SOL    HW118386   1.386   1.887   8.234  0.7635  2.6306  1.3793
 5634SOL    HW218387   1.508   1.811   8.283 -0.6793 -1.2207 -0.7166
 5635SOL     OW18388   7.186   5.006   2.364 -0.4056  0.9681 -1.1572
 5635SOL    HW118389   7.188   4.910   2.363 -1.0721  0.9050  0.9827
 5635SOL    HW218390   7.276   5.032   2.382 -0.8597  0.5964  2.0341
 5636SOL     OW18391   5.464   0.403   1.802  0.1397  0.1899  0.2660
 5636SOL    HW118392   5.406   0.327   1.811 -0.7158  0.6527 -1.1531
 5636SOL    HW218393   5.479   0.432   1.892  1.2981 -2.2541  0.9016
 5637SOL     OW18394   7.594   5.184   2.028 -0.1180  0.4877  0.1248
 5637SOL    HW118395   7.598   5.245   1.954  3.7754  0.3375  0.1337
 5637SOL    HW218396   7.553   5.105   1.991  0.6511  0.8563 -1.5554
 5638SOL     OW18397   6.188   6.689   6.375  0.2127  0.4096 -0.2764
 5638SOL    HW118398   6.192   6.648   6.461 -0.0463  0.9047 -0.0220
 5638SOL    HW218399   6.110   6.744   6.379  1.1532  1.7751 -0.2113
 5639SOL     OW18400   0.031   7.543   1.206  0.9868  0.4058  0.1764
 5639SOL    HW118401   0.069   7.478   1.147  0.5270 -0.4624  0.8178
 5639SOL    HW218402  -0.062   7.545   1.184  1.1838  1.6437 -0.5742
 5640SOL     OW18403   5.655   7.627   4.191  0.3000 -0.3089  0.2294
 5640SOL    HW118404   5.562   7.648   4.193  0.1512 -0.9802  0.2776
 5640SOL    HW218405   5.659   7.533   4.174  1.0001 -0.0636 -0.9867
 5641SOL     OW18406   0.244   2.831   4.604 -0.0959 -0.2050 -0.5692
 5641SOL    HW118407   0.267   2.919   4.634  1.9535 -1.5080  1.8956
 5641SOL    HW218408   0.192   2.793   4.675 -0.0572 -1.3723 -1.1374
 5642SOL     OW18409   2.363   2.466   3.157  0.0189 -0.4319 -0.1219
 5642SOL    HW118410   2.426   2.506   3.097  0.0812 -0.4860 -0.0932
 5642SOL    HW218411   2.297   2.426   3.101  0.4067 -1.0201 -0.1654
 5643SOL     OW18412   0.614   6.522   3.795  0.2566 -0.0168  0.3834
 5643SOL    HW118413   0.557   6.471   3.853  0.1541 -1.4832 -0.9812
 5643SOL    HW218414   0.676   6.458   3.759  0.4580  0.9056 -0.9500
 5644SOL     OW18415   3.309   5.891   3.889  0.2183  0.0674 -0.1114
 5644SOL    HW118416   3.378   5.825   3.882 -0.5805 -0.8751  0.7520
 5644SOL    HW218417   3.347   5.959   3.946 -0.0143 -1.0516  1.4074
 5645SOL     OW18418   0.383   3.238   3.368 -0.1756  0.0027 -0.4679
 5645SOL    HW118419   0.375   3.275   3.456  3.0683 -0.2738 -0.0045
 5645SOL    HW218420   0.392   3.143   3.382 -1.8384 -0.2965 -1.2612
 5646SOL     OW18421   4.461   7.960   4.855  0.0037 -1.1565 -0.7131
 5646SOL    HW118422   4.389   7.898   4.838  0.1024 -1.2712 -0.7132
 5646SOL    HW218423   4.456   7.977   4.948 -0.3961 -0.7020 -0.8187
 5647SOL     OW18424   5.018   5.944   7.276 -0.2282 -0.5151  0.2194
 5647SOL    HW118425   4.987   5.994   7.352 -0.1716  1.4892 -1.0591
 5647SOL    HW218426   4.941   5.936   7.219  0.1556 -0.5616 -0.2943
 5648SOL     OW18427   1.539   3.370   6.335 -0.2915 -0.6681 -0.0130
 5648SOL    HW118428   1.621   3.338   6.297 -0.1826 -0.2830 -0.1069
 5648SOL    HW218429   1.493   3.410   6.261  0.3520  0.9517  0.4442
 5649SOL     OW18430   7.237   5.429   7.625 -0.0348  0.4026 -0.4977
 5649SOL    HW118431   7.261   5.470   7.542  1.4357  0.6459  0.0309
 5649SOL    HW218432   7.218   5.338   7.602  3.4914 -0.3513 -0.6532
 5650SOL     OW18433   4.768   5.021   4.056 -0.4505  0.0061  0.2240
 5650SOL    HW118434   4.806   5.082   4.119 -1.0913  0.1718  0.4450
 5650SOL    HW218435   4.844   4.975   4.019 -0.0750 -0.0946  1.1080
 5651SOL     OW18436   0.314   0.320   6.779  0.4462  0.1465 -0.5926
 5651SOL    HW118437   0.372   0.262   6.828  1.8437  0.6375 -1.6554
 5651SOL    HW218438   0.354   0.327   6.693 -1.1089  0.6263 -1.2909
 5652SOL     OW18439   3.780   0.872   1.717 -0.1146 -0.2033  0.3259
 5652SOL    HW118440   3.708   0.831   1.670 -0.8074  0.0205  1.1725
 5652SOL    HW218441   3.836   0.910   1.649 -2.1926  1.9412 -0.2316
 5653SOL     OW18442   1.538   5.674   3.640 -0.7835  0.0129  0.2803
 5653SOL    HW118443   1.518   5.669   3.733 -0.7610 -0.1762  0.2756
 5653SOL    HW218444   1.611   5.735   3.634  1.2388 -2.2989  0.7072
 5654SOL     OW18445   0.554   5.426   2.880 -0.2059  0.4037 -0.1541
 5654SOL    HW118446   0.619   5.364   2.913 -1.2646 -0.4724  0.3050
 5654SOL    HW218447   0.562   5.502   2.938 -0.6702 -0.3299  0.8899
 5655SOL     OW18448   4.442   7.237   1.932  0.0480 -0.2617 -0.2337
 5655SOL    HW118449   4.512   7.196   1.881 -0.7560 -2.5554  0.4399
 5655SOL    HW218450   4.374   7.256   1.868 -0.3999 -1.8776 -0.2609
 5656SOL     OW18451   5.002   6.718   3.675  0.3385  0.3389  0.1150
 5656SOL    HW118452   5.046   6.655   3.618 -0.7710 -0.4716  0.1430
 5656SOL    HW218453   4.922   6.674   3.702  0.0423  1.3778  0.9497
 5657SOL     OW18454   2.009   5.050   3.984 -0.5858 -0.8729  0.6734
 5657SOL    HW118455   1.983   4.961   3.962 -0.2428 -0.6644 -0.5578
 5657SOL    HW218456   1.955   5.072   4.061 -0.1001 -2.4108  1.4691
 5658SOL     OW18457   3.800   8.174   4.245  0.0450  0.4294  0.3018
 5658SOL    HW118458   3.776   8.263   4.218 -0.3304  0.0656 -0.5825
 5658SOL    HW218459   3.792   8.175   4.340 -0.8475  1.0904  0.2272
 5659SOL     OW18460   2.155   4.774   4.643 -0.1471  0.1758 -0.1765
 5659SOL    HW118461   2.071   4.819   4.647  0.4438  1.1374  2.3286
 5659SOL    HW218462   2.137   4.685   4.671 -0.5996 -0.0208 -1.1020
 5660SOL     OW18463   6.399   6.846   3.268  0.4729  0.8744 -0.3435
 5660SOL    HW118464   6.318   6.896   3.274 -0.1113  0.0481 -1.2266
 5660SOL    HW218465   6.417   6.842   3.174  0.9360  0.1014 -0.2198
 5661SOL     OW18466   4.022   1.655   7.250 -0.8759 -0.0539  0.0712
 5661SOL    HW118467   4.073   1.582   7.287  1.2067 -0.0100 -2.4693
 5661SOL    HW218468   4.084   1.728   7.248 -1.8668  0.7735 -0.6470
 5662SOL     OW18469   1.174   7.407   7.473 -0.4449  0.1028 -0.6849
 5662SOL    HW118470   1.146   7.496   7.497  1.5667  0.9869 -1.5337
 5662SOL    HW218471   1.192   7.364   7.557 -0.1508  0.9365 -0.3119
 5663SOL     OW18472   5.505   8.118   2.313 -0.2378 -0.4041  0.2028
 5663SOL    HW118473   5.543   8.162   2.389 -1.6630  1.3647 -0.0625
 5663SOL    HW218474   5.578   8.106   2.253  0.4380  0.3694  0.8625
 5664SOL     OW18475   3.036   5.638   0.912 -0.4344 -0.0642  0.3503
 5664SOL    HW118476   3.052   5.732   0.920  1.0951 -0.4505  2.2099
 5664SOL    HW218477   2.982   5.617   0.988 -0.9272 -0.6424 -0.1659
 5665SOL     OW18478   3.634   2.807   0.508  0.6165 -0.2819 -0.4039
 5665SOL    HW118479   3.577   2.827   0.434 -1.2114  1.4686  1.4131
 5665SOL    HW218480   3.719   2.789   0.468 -0.5131 -0.1674 -2.9747
 5666SOL     OW18481   5.290   4.526   0.075 -0.5361  0.6271  0.0176
 5666SOL    HW118482   5.284   4.561  -0.014  0.6683  0.0049 -0.3099
 5666SOL    HW218483   5.374   4.480   0.078 -0.1768  1.3312  1.7152
 5667SOL     OW18484   5.355   2.523   8.032 -0.0348 -0.4589  0.5102
 5667SOL    HW118485   5.264   2.505   8.008 -0.2220 -0.0865  0.9308
 5667SOL    HW218486   5.350   2.599   8.091  0.5185 -0.6322  0.7862
 5668SOL     OW18487   6.308   3.613   1.100 -0.2433  0.4489 -0.0618
 5668SOL    HW118488   6.268   3.547   1.156  1.7587 -0.4941  0.3156
 5668SOL    HW218489   6.267   3.602   1.015 -0.7325 -0.5182  0.3047
 5669SOL     OW18490   2.643   5.568   0.068 -0.0554  0.1371  0.5115
 5669SOL    HW118491   2.683   5.655   0.068  0.8098 -0.2563 -0.4851
 5669SOL    HW218492   2.601   5.560  -0.017  1.8819 -1.3235 -0.3434
 5670SOL     OW18493   1.927   2.534   8.280  0.6246 -0.5847 -0.2680
 5670SOL    HW118494   1.920   2.569   8.369 -0.1534 -0.4772 -0.3676
 5670SOL    HW218495   1.963   2.446   8.291  1.9941  0.0056  0.0363
 5671SOL     OW18496   0.220   7.767   7.610 -0.0574  0.0136 -0.6693
 5671SOL    HW118497   0.131   7.733   7.602 -0.9224  1.5103  1.9369
 5671SOL    HW218498   0.219   7.820   7.690  3.1437  0.1777 -0.6464
 5672SOL     OW18499   6.890   2.398   2.302  0.0205  0.8917 -0.1950
 5672SOL    HW118500   6.949   2.446   2.360  0.1538  0.5677 -0.0623
 5672SOL    HW218501   6.802   2.423   2.331  0.0898  1.1038 -0.1676
 5673SOL     OW18502   1.961   4.236   6.611  0.6032  0.2989 -0.3714
 5673SOL    HW118503   1.986   4.156   6.659 -1.8353 -0.4997 -0.3775
 5673SOL    HW218504   1.919   4.291   6.677 -0.4126  0.3142 -1.0330
 5674SOL     OW18505   6.232   2.699   5.858  0.5626  0.1823  0.2298
 5674SOL    HW118506   6.283   2.766   5.903  1.6202 -0.5859  0.2035
 5674SOL    HW218507   6.152   2.744   5.829 -0.6636  0.4572  3.7674
 5675SOL     OW18508   4.991   1.515   0.565  0.3350  0.0885 -0.1635
 5675SOL    HW118509   5.073   1.491   0.521  0.1649 -0.1853 -0.3427
 5675SOL    HW218510   5.000   1.482   0.654  1.1723  1.7213  0.3678
 5676SOL     OW18511   5.239   7.372   1.802  0.5011  0.3997 -0.0415
 5676SOL    HW118512   5.155   7.417   1.793  0.1660 -0.2915 -0.3948
 5676SOL    HW218513   5.216   7.285   1.837  0.8767 -0.5112 -1.9954
 5677SOL     OW18514   1.083   6.816   8.248 -0.7574  0.3259  0.0486
 5677SOL    HW118515   1.046   6.896   8.286  0.8541  1.3568 -0.5335
 5677SOL    HW218516   1.030   6.746   8.286 -1.1242  1.5375  1.8516
 5678SOL     OW18517   0.802   0.070   6.834  0.8870  0.1516 -0.7167
 5678SOL    HW118518   0.749   0.111   6.766  1.0694  1.2120 -0.2381
 5678SOL    HW218519   0.767   0.106   6.916  0.2805 -1.5532 -0.1973
 5679SOL     OW18520   7.203   3.083   8.147 -0.2311 -0.0393 -0.3737
 5679SOL    HW118521   7.289   3.054   8.177 -0.3422  1.2383  1.3009
 5679SOL    HW218522   7.146   3.007   8.161  0.2817 -0.3258  0.1921
 5680SOL     OW18523   7.974   2.575   2.570  0.3185  0.5447  0.1976
 5680SOL    HW118524   7.945   2.602   2.657 -0.5966 -1.1464  0.4275
 5680SOL    HW218525   8.048   2.517   2.587 -0.6158 -0.7329 -0.1013
 5681SOL     OW18526   1.718   0.336   5.578 -0.5066 -0.0651 -0.1770
 5681SOL    HW118527   1.654   0.272   5.547  0.9455 -1.7453  0.1468
 5681SOL    HW218528   1.798   0.315   5.529  0.5881  0.0870  1.4837
 5682SOL     OW18529   6.946   5.314   0.197 -0.3256  0.1593 -0.1572
 5682SOL    HW118530   6.850   5.313   0.193 -0.3343 -1.2801  0.2709
 5682SOL    HW218531   6.973   5.323   0.106 -0.8576 -1.3897 -0.4845
 5683SOL     OW18532   7.197   1.252   5.153  0.3802  0.5058  0.3042
 5683SOL    HW118533   7.242   1.304   5.219  3.4859  0.2377 -1.5215
 5683SOL    HW218534   7.249   1.172   5.145 -1.3239 -0.5475 -0.7302
 5684SOL     OW18535   2.234   7.315   1.706  0.5416 -0.6739  0.2987
 5684SOL    HW118536   2.222   7.244   1.643  0.6235  0.6830 -1.2639
 5684SOL    HW218537   2.182   7.388   1.671  0.9888  0.2560  1.5276
 5685SOL     OW18538   6.327   1.312   1.675 -0.0965  0.2029 -0.2986
 5685SOL    HW118539   6.393   1.245   1.653 -0.9581 -1.0081  0.7716
 5685SOL    HW218540   6.311   1.300   1.769 -2.1004  0.2697 -0.6242
 5686SOL     OW18541   6.325   7.266   7.986 -0.6764 -0.0263 -0.7402
 5686SOL    HW118542   6.387   7.207   8.029 -1.9857 -1.8496 -1.3189
 5686SOL    HW218543   6.273   7.210   7.929  0.4407  2.1905 -4.1408
 5687SOL     OW18544   1.713   6.348   6.188  0.3705 -0.4869 -1.0869
 5687SOL    HW118545   1.780   6.318   6.127  0.0435 -1.2874 -1.0635
 5687SOL    HW218546   1.633   6.303   6.160 -0.5052  1.5316 -2.0006
 5688SOL     OW18547   8.264   3.267   0.287 -0.0735 -0.0514 -0.2210
 5688SOL    HW118548   8.195   3.334   0.290  0.3270  0.3850 -0.6785
 5688SOL    HW218549   8.241   3.206   0.357 -0.7132  0.2998 -0.1168
 5689SOL     OW18550   6.758   6.575   0.259  0.6317 -0.1439 -0.5378
 5689SOL    HW118551   6.745   6.610   0.347  2.8576 -2.3811  0.7459
 5689SOL    HW218552   6.851   6.592   0.240  0.3827 -0.4389 -2.1273
 5690SOL     OW18553   4.804   2.550   4.109 -0.1960 -0.0110 -0.4896
 5690SOL    HW118554   4.717   2.572   4.142 -0.2715 -0.5721 -0.2998
 5690SOL    HW218555   4.791   2.529   4.017 -0.1950  0.2969 -0.5610
 5691SOL     OW18556   0.941   7.157   3.399  0.2844  0.3201 -0.1967
 5691SOL    HW118557   0.886   7.123   3.470  0.2242 -2.5238 -1.5561
 5691SOL    HW218558   0.941   7.088   3.333  2.2798  1.9343 -1.9532
 5692SOL     OW18559   0.773   6.070   5.687 -0.4162 -0.1243 -0.2513
 5692SOL    HW118560   0.708   6.019   5.639  0.6910 -2.0454  0.2190
 5692SOL    HW218561   0.784   6.023   5.770  0.6703  0.8515  0.1768
 5693SOL     OW18562   7.425   4.839   7.483  0.2363  0.4068 -0.7372
 5693SOL    HW118563   7.378   4.801   7.409  0.1796 -0.2912 -0.3435
 5693SOL    HW218564   7.517   4.817   7.466 -0.1023 -2.7757  1.1327
 5694SOL     OW18565   4.939   0.900   4.847  0.2858  0.0286 -0.0498
 5694SOL    HW118566   4.906   0.882   4.759 -0.3188 -0.0748  0.1929
 5694SOL    HW218567   5.026   0.861   4.850 -0.0872 -0.8242 -0.2784
 5695SOL     OW18568   0.415   0.250   1.086  0.0428 -0.8332  0.3927
 5695SOL    HW118569   0.479   0.281   1.150  0.5268  1.1024 -0.9840
 5695SOL    HW218570   0.335   0.236   1.136  0.2905  1.0740  1.3529
 5696SOL     OW18571   3.645   3.999   6.762  0.1337 -0.0017  0.8022
 5696SOL    HW118572   3.628   3.986   6.855 -0.7663  0.2154  0.6654
 5696SOL    HW218573   3.666   4.092   6.754 -1.0121  0.2411  0.5986
 5697SOL     OW18574   1.533   0.008   1.420  0.4033  0.1698 -0.5907
 5697SOL    HW118575   1.604   0.008   1.357 -1.2728  0.7077 -2.5320
 5697SOL    HW218576   1.459   0.046   1.373 -0.9153  0.5090  1.6720
 5698SOL     OW18577   4.006   0.437   0.877  0.0237  0.4060  0.0202
 5698SOL    HW118578   3.996   0.421   0.783  0.8033 -0.9194  0.1531
 5698SOL    HW218579   3.962   0.520   0.891 -0.4504  0.4305 -1.4551
 5699SOL     OW18580   6.385   6.713   2.415 -0.1541 -0.1399  0.0180
 5699SOL    HW118581   6.327   6.696   2.341 -0.9713  2.2353  0.0750
 5699SOL    HW218582   6.473   6.702   2.379 -0.5236  1.6491 -1.5184
 5700SOL     OW18583   0.173   2.104   7.536 -0.2909 -0.5041 -0.2862
 5700SOL    HW118584   0.110   2.039   7.504 -0.4258 -0.5691  0.1106
 5700SOL    HW218585   0.118   2.175   7.571 -0.1587 -1.4617  1.9223
 5701SOL     OW18586   3.401   0.512   7.475  0.4623 -0.0725 -0.0773
 5701SOL    HW118587   3.375   0.597   7.511  0.3809  0.4567 -1.3669
 5701SOL    HW218588   3.358   0.508   7.390 -0.5384 -1.9506  0.4952
 5702SOL     OW18589   6.061   3.948   8.028 -0.0359 -0.3846 -0.2122
 5702SOL    HW118590   6.025   4.037   8.031 -1.4831 -0.8971 -1.7353
 5702SOL    HW218591   6.025   3.910   7.948  0.6032 -2.3449  0.4000
 5703SOL     OW18592   4.117   6.879   5.527 -0.4100  0.1568 -0.0268
 5703SOL    HW118593   4.154   6.947   5.470  1.8144 -0.9123  0.0923
 5703SOL    HW218594   4.192   6.825   5.552 -1.9158 -1.4796  1.0808
 5704SOL     OW18595   1.339   4.128   1.462 -0.5307 -0.0701  0.7762
 5704SOL    HW118596   1.246   4.111   1.471 -1.0440  2.0456 -0.2594
 5704SOL    HW218597   1.366   4.161   1.549 -1.4798  2.4171  0.1818
 5705SOL     OW18598   4.556   1.768   8.259 -0.4528 -0.2427  0.2649
 5705SOL    HW118599   4.510   1.724   8.330  0.0236 -1.3847 -0.1184
 5705SOL    HW218600   4.649   1.756   8.278 -0.3129  0.7770  0.2574
 5706SOL     OW18601   5.405   1.662   0.541  0.6576 -0.2924 -0.3790
 5706SOL    HW118602   5.462   1.616   0.603  0.9828 -0.5207 -0.8403
 5706SOL    HW218603   5.424   1.755   0.555 -0.9455 -0.2179  1.4670
 5707SOL     OW18604   6.885   5.236   5.327  0.0412  0.5448  0.0392
 5707SOL    HW118605   6.902   5.329   5.342  0.3490  0.2740  1.5128
 5707SOL    HW218606   6.959   5.205   5.275  0.0184  1.0925 -0.3129
 5708SOL     OW18607   4.501   4.650   6.966  0.1111  0.4977  0.0799
 5708SOL    HW118608   4.526   4.617   7.053 -0.5013  2.2533  0.9331
 5708SOL    HW218609   4.496   4.571   6.912 -0.1105 -0.6969  1.7893
 5709SOL     OW18610   2.053   7.482   6.942  0.2562  0.0443 -0.4928
 5709SOL    HW118611   1.974   7.509   6.989  0.5099  4.2728 -2.2880
 5709SOL    HW218612   2.021   7.444   6.860 -0.0003 -0.6809 -0.0532
 5710SOL     OW18613   4.394   0.789   4.855  0.5377 -0.1843  0.0927
 5710SOL    HW118614   4.337   0.797   4.931  0.8170  0.4817  0.2361
 5710SOL    HW218615   4.472   0.744   4.887 -0.2267 -1.7961 -0.2780
 5711SOL     OW18616   7.967   3.866   7.692 -0.6035 -0.4279  0.0077
 5711SOL    HW118617   8.054   3.847   7.658 -0.8346 -1.1270 -0.2055
 5711SOL    HW218618   7.959   3.812   7.771 -0.9332 -0.5575 -0.1112
 5712SOL     OW18619   2.112   7.976   5.616 -0.1219 -0.4105  0.1916
 5712SOL    HW118620   2.116   7.923   5.537 -1.7255 -0.5265  0.1728
 5712SOL    HW218621   2.201   8.010   5.627 -0.3073  1.1554 -2.6987
 5713SOL     OW18622   0.019   0.318   6.300 -0.2995 -0.2108 -0.4707
 5713SOL    HW118623   0.043   0.410   6.314 -0.4738 -0.1037 -0.8615
 5713SOL    HW218624   0.042   0.274   6.382 -0.1306  0.1650 -0.3167
 5714SOL     OW18625   0.588   0.419   6.343 -0.6198 -0.6756  0.1416
 5714SOL    HW118626   0.650   0.450   6.409  0.1863 -0.9545 -0.4868
 5714SOL    HW218627   0.637   0.357   6.290 -0.8856  0.5341 -1.5559
 5715SOL     OW18628   2.414   3.227   1.355 -0.4162  0.1089  0.0003
 5715SOL    HW118629   2.357   3.293   1.314 -0.0329  1.1928  1.1774
 5715SOL    HW218630   2.430   3.261   1.443  0.1342 -1.3679  0.4792
 5716SOL     OW18631   4.969   0.113   6.583  0.8467 -0.6338  0.4625
 5716SOL    HW118632   5.003   0.033   6.623  1.7659 -0.9126 -0.8276
 5716SOL    HW218633   4.881   0.123   6.618  1.8433 -0.5283  3.0162
 5717SOL     OW18634   5.912   0.245   4.035 -0.0061  0.8326 -0.0224
 5717SOL    HW118635   5.849   0.208   4.097 -1.7562  0.0558 -2.2066
 5717SOL    HW218636   5.860   0.269   3.958  2.1876  1.2748 -1.4240
 5718SOL     OW18637   3.644   2.267   2.883 -0.3478 -0.0622 -0.3899
 5718SOL    HW118638   3.642   2.242   2.791  1.2689 -0.5605 -0.3127
 5718SOL    HW218639   3.678   2.356   2.883 -0.3978 -0.0438 -0.2959
 5719SOL     OW18640   3.882   8.190   1.377  0.3494 -0.3515  0.2304
 5719SOL    HW118641   3.888   8.243   1.298 -0.8457 -1.9290 -0.9529
 5719SOL    HW218642   3.820   8.238   1.433  1.9833  1.3061  0.7123
 5720SOL     OW18643   2.068   1.629   1.165 -0.2390 -0.0574  0.2998
 5720SOL    HW118644   2.113   1.704   1.126 -0.2518  1.0790  2.4013
 5720SOL    HW218645   1.981   1.661   1.187 -0.7568 -1.1260 -0.1371
 5721SOL     OW18646   2.166   6.789   8.276  0.2936 -0.2906  0.1155
 5721SOL    HW118647   2.206   6.727   8.336 -1.0750 -0.6074  0.7188
 5721SOL    HW218648   2.094   6.740   8.236 -0.2813  0.6537 -0.0103
 5722SOL     OW18649   0.260   3.848   6.372  0.4037 -0.1693  0.0579
 5722SOL    HW118650   0.242   3.811   6.286 -0.0448 -0.3296  0.2177
 5722SOL    HW218651   0.292   3.936   6.355  0.7125 -0.3477 -0.2905
 5723SOL     OW18652   2.942   0.187   3.659  0.8554 -0.2848 -0.1806
 5723SOL    HW118653   2.868   0.170   3.717 -1.4019  1.9519 -2.2651
 5723SOL    HW218654   2.942   0.114   3.598 -0.0339  0.0227 -0.5516
 5724SOL     OW18655   7.691   6.616   4.384  0.5004  0.3599 -0.3662
 5724SOL    HW118656   7.679   6.711   4.375  0.3180  0.2862 -0.8724
 5724SOL    HW218657   7.609   6.586   4.424 -0.8777 -0.0718 -3.3771
 5725SOL     OW18658   0.731   7.741   3.093 -0.4272 -0.2758 -0.5703
 5725SOL    HW118659   0.653   7.791   3.116  1.0840  2.6584 -1.5172
 5725SOL    HW218660   0.702   7.681   3.024 -1.9848  0.2718 -0.4034
 5726SOL     OW18661   6.259   4.586   1.299 -0.2707  0.3645  0.2460
 5726SOL    HW118662   6.247   4.656   1.235 -0.9183 -0.3350 -0.4000
 5726SOL    HW218663   6.300   4.515   1.250 -2.5574 -0.9127  0.1187
 5727SOL     OW18664   7.937   5.543   0.632  0.8249 -0.2178  0.8217
 5727SOL    HW118665   7.934   5.548   0.727 -2.9522 -2.3526  0.9176
 5727SOL    HW218666   7.905   5.455   0.611  1.1235  0.3663 -2.4278
 5728SOL     OW18667   7.665   5.885   7.200 -0.1688 -0.6038  0.4363
 5728SOL    HW118668   7.746   5.845   7.232  0.8298  0.1828 -1.0764
 5728SOL    HW218669   7.659   5.968   7.248  1.2385  0.4954 -1.2550
 5729SOL     OW18670   0.023   2.718   6.699  0.5096 -0.2486  0.2059
 5729SOL    HW118671  -0.008   2.805   6.674 -0.6409 -0.6648  0.1186
 5729SOL    HW218672  -0.009   2.706   6.789  0.5978 -0.6072  0.1913
 5730SOL     OW18673   3.607   1.967   0.975 -0.1069  0.0260 -0.0968
 5730SOL    HW118674   3.526   1.989   0.930  0.1913  1.8942  0.2158
 5730SOL    HW218675   3.675   1.971   0.908 -0.2555 -1.4869 -0.3486
 5731SOL     OW18676   4.176   2.349   6.347 -0.0224 -0.7062  0.1272
 5731SOL    HW118677   4.162   2.379   6.437 -0.2270  0.6375 -0.3434
 5731SOL    HW218678   4.268   2.322   6.345 -0.3155 -1.8512  1.0407
 5732SOL     OW18679   1.578   2.810   3.989 -0.5853  0.1663  0.2027
 5732SOL    HW118680   1.572   2.866   4.066 -3.5808 -0.6416  0.5952
 5732SOL    HW218681   1.592   2.870   3.916  0.1363  1.0861  1.0838
 5733SOL     OW18682   6.574   8.126   8.066  0.0184  0.0616 -0.2824
 5733SOL    HW118683   6.490   8.170   8.077  0.5758  1.3103 -0.9861
 5733SOL    HW218684   6.554   8.033   8.075 -1.4601  0.3487 -0.5727
 5734SOL     OW18685   4.555   1.195   1.213  0.6958  0.0244 -0.1451
 5734SOL    HW118686   4.550   1.170   1.121  0.3415 -2.9400  0.6328
 5734SOL    HW218687   4.563   1.291   1.211 -2.4862  0.3407 -3.1342
 5735SOL     OW18688   7.367   2.612   5.330 -0.0724  0.0759 -0.1958
 5735SOL    HW118689   7.311   2.684   5.356  0.0486  0.5003 -1.0854
 5735SOL    HW218690   7.456   2.643   5.346 -0.0838 -0.6330  1.3054
 5736SOL     OW18691   5.018   6.029   2.218  0.0932 -0.1967  0.1071
 5736SOL    HW118692   5.032   6.087   2.293 -0.6068 -0.8204  0.7389
 5736SOL    HW218693   4.922   6.023   2.211  0.1619 -0.8315 -0.2985
 5737SOL     OW18694   0.209   2.572   0.822  0.0486 -0.0663 -0.0071
 5737SOL    HW118695   0.282   2.518   0.851 -0.5660 -0.5839  0.6118
 5737SOL    HW218696   0.214   2.651   0.875 -0.8930 -0.8807  1.3368
 5738SOL     OW18697   1.672   0.448   5.831 -0.4006  0.3983 -0.5997
 5738SOL    HW118698   1.684   0.542   5.838 -3.2348  0.9563 -2.3917
 5738SOL    HW218699   1.704   0.426   5.744 -0.9937 -0.0393 -0.7137
 5739SOL     OW18700   0.661   0.587   7.251  0.2371  0.2812  0.2976
 5739SOL    HW118701   0.618   0.672   7.258 -0.5479 -0.0178 -0.5786
 5739SOL    HW218702   0.697   0.570   7.338 -0.8330  0.8628  0.8660
 5740SOL     OW18703   0.857   1.937   0.917  0.1384 -0.3923  0.1588
 5740SOL    HW118704   0.832   1.903   1.003  0.6748 -1.6602 -0.1679
 5740SOL    HW218705   0.795   1.898   0.856  0.8430 -0.9117 -0.2406
 5741SOL     OW18706   7.381   6.650   7.883 -0.4027  0.4237 -0.0122
 5741SOL    HW118707   7.307   6.589   7.885 -0.6376  0.7001 -0.1431
 5741SOL    HW218708   7.441   6.617   7.950 -0.3207 -0.2051 -0.3885
 5742SOL     OW18709   7.094   0.260   4.691 -0.2668  0.5986  0.8115
 5742SOL    HW118710   7.077   0.273   4.598  0.4295 -1.9059  0.2911
 5742SOL    HW218711   7.014   0.290   4.735 -0.9928  0.8507 -0.6630
 5743SOL     OW18712   5.264   7.813   6.354  0.5138 -0.6837  0.4854
 5743SOL    HW118713   5.262   7.903   6.386  0.8312 -0.1210 -1.0679
 5743SOL    HW218714   5.198   7.810   6.285  1.2228 -1.3738 -0.1704
 5744SOL     OW18715   1.572   1.938   1.383 -0.0956 -0.1187  0.2738
 5744SOL    HW118716   1.518   1.891   1.446  0.4487  0.1376  0.9383
 5744SOL    HW218717   1.646   1.971   1.434  0.4533 -0.0731 -0.5333
 5745SOL     OW18718   0.813   5.573   6.308  0.2376 -0.0677 -0.5565
 5745SOL    HW118719   0.857   5.518   6.244  2.0818 -0.7809  1.2833
 5745SOL    HW218720   0.854   5.659   6.298  2.0562 -0.7058  1.0839
 5746SOL     OW18721   2.966   2.060   2.348  0.1819 -0.0840 -0.2421
 5746SOL    HW118722   2.874   2.036   2.360  0.0476  0.4792 -0.1252
 5746SOL    HW218723   3.009   2.028   2.428 -0.3450  1.7931  0.8205
 5747SOL     OW18724   5.714   6.996   4.445 -0.3584 -0.2405  0.0179
 5747SOL    HW118725   5.635   6.998   4.391 -0.2152  2.6037 -0.1614
 5747SOL    HW218726   5.692   7.047   4.522  1.0422 -0.0818  0.3379
 5748SOL     OW18727   0.970   7.189   0.592  0.0110 -0.2050  0.0269
 5748SOL    HW118728   0.944   7.222   0.506 -2.1207 -1.9801 -0.0461
 5748SOL    HW218729   0.893   7.200   0.647  1.3670  0.9486  1.7725
 5749SOL     OW18730   0.612   4.111   3.074  0.3872 -0.6493 -0.5081
 5749SOL    HW118731   0.564   4.187   3.106 -0.2079 -1.3628  0.2963
 5749SOL    HW218732   0.704   4.134   3.086  0.2217  0.1894 -0.8386
 5750SOL     OW18733   1.360   0.425   1.821 -0.0575 -0.4954  0.1965
 5750SOL    HW118734   1.266   0.407   1.822  0.4849 -3.7075  1.0344
 5750SOL    HW218735   1.383   0.430   1.729 -0.8538 -1.0167 -0.0346
 5751SOL     OW18736   7.466   3.830   2.079 -0.0695  0.0360  0.5686
 5751SOL    HW118737   7.433   3.751   2.036 -0.0324  1.0087 -1.2849
 5751SOL    HW218738   7.387   3.878   2.104 -0.0751  0.6364 -0.6078
 5752SOL     OW18739   7.174   7.411   3.017  0.5067 -0.1900 -0.4124
 5752SOL    HW118740   7.228   7.489   3.006  1.4855 -0.6249  1.0976
 5752SOL    HW218741   7.226   7.340   2.979  0.3834 -0.3843 -0.2178
 5753SOL     OW18742   7.729   0.406   3.927 -0.0107 -0.0075  0.6613
 5753SOL    HW118743   7.760   0.488   3.967  0.2187  0.0731  0.3124
 5753SOL    HW218744   7.678   0.434   3.851 -1.7124 -0.0918  1.7364
 5754SOL     OW18745   3.763   4.653   5.866  0.3086  0.1243 -0.0183
 5754SOL    HW118746   3.737   4.588   5.800  0.7004 -0.4620  0.4078
 5754SOL    HW218747   3.796   4.726   5.815 -0.6729  0.2307 -0.5240
 5755SOL     OW18748   6.714   3.756   3.377 -0.0495  0.3812 -0.6351
 5755SOL    HW118749   6.683   3.767   3.467 -0.4669  0.6707 -0.8086
 5755SOL    HW218750   6.751   3.841   3.354  0.1837  0.2645 -0.6878
 5756SOL     OW18751   3.541   3.910   3.643  0.2260  0.8014  0.3472
 5756SOL    HW118752   3.529   3.860   3.562 -0.5968  0.1473  0.8638
 5756SOL    HW218753   3.527   4.001   3.618 -0.9418  0.5147 -0.0634
 5757SOL     OW18754   6.374   2.446   2.535  0.6292 -0.4473 -0.0631
 5757SOL    HW118755   6.435   2.392   2.584 -1.3823 -0.9784  1.9443
 5757SOL    HW218756   6.401   2.536   2.555  2.0402 -0.6664 -0.9065
 5758SOL     OW18757   4.967   5.081   4.815 -0.2143 -0.5060  0.3821
 5758SOL    HW118758   4.922   5.132   4.748  0.9364 -1.4865 -1.1545
 5758SOL    HW218759   4.969   4.992   4.780  1.8383 -0.7170  0.9793
 5759SOL     OW18760   5.295   0.746   2.946  0.4929  0.7403  0.5455
 5759SOL    HW118761   5.338   0.718   2.866 -1.4765 -0.0151 -0.2924
 5759SOL    HW218762   5.210   0.779   2.917 -0.7487 -0.7138  2.4272
 5760SOL     OW18763   4.855   6.636   5.897  0.0503  0.6231  0.7641
 5760SOL    HW118764   4.902   6.633   5.814 -0.6729 -1.0858  0.3980
 5760SOL    HW218765   4.837   6.729   5.911  0.1994  0.9349 -0.9826
 5761SOL     OW18766   0.222   1.568   0.840 -0.1618 -0.7852 -0.3640
 5761SOL    HW118767   0.202   1.483   0.801 -0.6421 -1.1227  0.6093
 5761SOL    HW218768   0.212   1.555   0.934  2.3755 -0.3637  0.0044
 5762SOL     OW18769   3.412   4.817   3.388 -0.2042  0.2338  0.1492
 5762SOL    HW118770   3.347   4.841   3.454 -0.2058  1.7854 -0.4016
 5762SOL    HW218771   3.483   4.881   3.399  0.4792 -0.4172 -0.3601
 5763SOL     OW18772   3.951   3.230   4.049  0.2745  0.2461 -0.4562
 5763SOL    HW118773   3.968   3.170   4.121  1.6760 -0.0558 -1.0332
 5763SOL    HW218774   3.871   3.195   4.007  0.7395 -0.8778 -0.4304
 5764SOL     OW18775   6.367   5.900   3.829  0.0187 -0.2883  0.1410
 5764SOL    HW118776   6.437   5.836   3.814  0.9520  0.5534  0.8600
 5764SOL    HW218777   6.404   5.963   3.891 -1.4609  0.0254  0.7451
 5765SOL     OW18778   2.557   0.352   0.148  0.3472  0.0810 -0.2522
 5765SOL    HW118779   2.568   0.286   0.216  0.3042  1.8174  1.4782
 5765SOL    HW218780   2.575   0.435   0.192  1.4573  1.1565 -2.6433
 5766SOL     OW18781   3.609   1.304   6.826 -0.1231  0.2886 -0.3995
 5766SOL    HW118782   3.628   1.240   6.895  0.0088  1.0572  0.2899
 5766SOL    HW218783   3.574   1.380   6.873 -0.9624  0.4474 -1.2749
 5767SOL     OW18784   4.231   3.159   4.892 -0.1270 -0.6767 -0.3532
 5767SOL    HW118785   4.236   3.161   4.796  0.2905 -1.5634 -0.3595
 5767SOL    HW218786   4.228   3.066   4.913  2.0048 -0.5666  0.5851
 5768SOL     OW18787   1.184   4.634   4.748  0.0969  0.7478  0.2090
 5768SOL    HW118788   1.269   4.674   4.732 -0.2376  1.6148  0.5736
 5768SOL    HW218789   1.185   4.554   4.696  1.5657  0.1764  1.0959
 5769SOL     OW18790   5.799   5.982   8.231 -0.1338 -0.6881  0.0434
 5769SOL    HW118791   5.891   5.959   8.245  0.3876  0.8917 -0.6800
 5769SOL    HW218792   5.754   5.953   8.311  1.1250 -0.7544  0.7343
 5770SOL     OW18793   1.850   2.288   2.578 -0.2659 -0.1013  0.5429
 5770SOL    HW118794   1.900   2.347   2.522  0.1212 -0.1595  0.8245
 5770SOL    HW218795   1.832   2.340   2.657 -1.4572  0.2357  0.0612
 5771SOL     OW18796   3.082   7.638   0.871 -0.8039 -0.2511  0.4003
 5771SOL    HW118797   3.070   7.733   0.859  0.9769 -0.1692 -1.0590
 5771SOL    HW218798   3.106   7.606   0.784 -1.4789 -2.0811  0.8604
 5772SOL     OW18799   2.782   2.257   1.109 -0.2407 -0.4440  0.2866
 5772SOL    HW118800   2.796   2.346   1.142 -0.5591  0.3213 -1.5815
 5772SOL    HW218801   2.706   2.265   1.051  0.0003 -1.8520 -0.2314
 5773SOL     OW18802   6.667   2.408   5.328 -0.1443  0.0108  0.0766
 5773SOL    HW118803   6.666   2.430   5.421  2.6678 -2.0211  0.6266
 5773SOL    HW218804   6.634   2.318   5.324 -1.2084  0.4276 -1.0355
 5774SOL     OW18805   4.689   4.823   0.227  0.6860  0.0552  0.1895
 5774SOL    HW118806   4.738   4.885   0.281 -0.6018  0.3664  1.0201
 5774SOL    HW218807   4.718   4.842   0.138 -0.8557  3.0112  0.2408
 5775SOL     OW18808   8.310   3.446   2.011 -0.5331 -0.5918  0.5619
 5775SOL    HW118809   8.280   3.511   1.948  1.7050  0.7434  0.8200
 5775SOL    HW218810   8.332   3.496   2.089 -1.7428 -2.0477  1.8866
 5776SOL     OW18811   1.883   2.917   5.512 -0.3344 -0.0793 -0.1160
 5776SOL    HW118812   1.838   2.872   5.584 -1.1213  0.1880 -0.4322
 5776SOL    HW218813   1.833   2.892   5.434  1.7399 -2.0263 -0.8586
 5777SOL     OW18814   2.473   7.846   0.685 -0.3806 -0.8136 -0.4116
 5777SOL    HW118815   2.537   7.811   0.623 -0.2342 -0.5436 -0.4139
 5777SOL    HW218816   2.405   7.779   0.691  0.1829 -1.3459  0.0230
 5778SOL     OW18817   6.363   8.226   5.441 -0.1817  0.2119  0.4179
 5778SOL    HW118818   6.425   8.155   5.429 -1.0283 -0.3263 -0.8260
 5778SOL    HW218819   6.416   8.305   5.440  0.7791 -0.3947  1.9280
 5779SOL     OW18820   0.843   5.214   6.178 -0.0464  0.0999  0.3654
 5779SOL    HW118821   0.879   5.303   6.180 -0.6680  0.4138 -1.2594
 5779SOL    HW218822   0.911   5.160   6.219  0.6356  1.2221  0.7429
 5780SOL     OW18823   2.134   6.922   3.450 -0.0468  0.0508  0.3505
 5780SOL    HW118824   2.101   6.833   3.461  0.1764  0.1251  1.6729
 5780SOL    HW218825   2.226   6.917   3.476  0.3598  0.3518 -1.0074
 5781SOL     OW18826   6.796   7.516   6.715 -0.0125 -0.3533  0.2543
 5781SOL    HW118827   6.873   7.545   6.667  0.6860 -1.0808  0.9252
 5781SOL    HW218828   6.791   7.574   6.790  0.3106 -0.7756  0.6040
 5782SOL     OW18829   5.099   2.468   8.302  0.1214 -0.6073  0.1201
 5782SOL    HW118830   5.048   2.525   8.244  1.0460 -0.4183 -0.5327
 5782SOL    HW218831   5.101   2.383   8.257  1.5382 -0.2381 -0.5664
 5783SOL     OW18832   3.281   1.652   6.881  0.3201  0.5479  0.4998
 5783SOL    HW118833   3.192   1.620   6.895  0.3133  0.1779 -0.3545
 5783SOL    HW218834   3.269   1.735   6.833  0.5041 -0.7718 -1.9095
 5784SOL     OW18835   3.004   2.263   1.338  0.8461  0.3014  0.2829
 5784SOL    HW118836   2.980   2.196   1.402  0.5261  0.4684  0.3397
 5784SOL    HW218837   2.980   2.227   1.253 -0.5246  0.8725  0.4235
 5785SOL     OW18838   6.915   8.068   3.287 -0.0380  0.1780 -0.0613
 5785SOL    HW118839   6.839   8.011   3.277 -0.8691  1.2517  0.1708
 5785SOL    HW218840   6.964   8.030   3.360 -0.0430 -0.8370 -0.5693
 5786SOL     OW18841   2.126   4.027   6.725  0.3559  0.0043 -0.4107
 5786SOL    HW118842   2.217   4.050   6.704  0.2593  0.9280  0.1519
 5786SOL    HW218843   2.125   3.931   6.721  1.6453 -0.0790  0.6849
 5787SOL     OW18844   3.919   2.417   0.129  0.5818 -0.3764 -0.6324
 5787SOL    HW118845   3.912   2.511   0.116 -2.7735 -0.3476  0.8817
 5787SOL    HW218846   3.950   2.407   0.219 -0.2085 -0.7136 -0.3918
 5788SOL     OW18847   7.595   2.945   7.738 -0.1131 -0.5278  0.3523
 5788SOL    HW118848   7.577   2.923   7.830 -0.8599 -0.7894  0.1504
 5788SOL    HW218849   7.650   2.873   7.707 -2.1372 -1.9004 -0.1671
 5789SOL     OW18850   0.576   5.128   3.976 -0.2851  0.1791 -0.1545
 5789SOL    HW118851   0.609   5.067   4.042 -1.4995  0.0792  0.3770
 5789SOL    HW218852   0.536   5.072   3.910 -0.2408  0.3414 -0.3186
 5790SOL     OW18853   6.758   0.298   5.142  0.1877  0.0964 -0.0591
 5790SOL    HW118854   6.758   0.319   5.235  1.3728  0.6908 -0.1880
 5790SOL    HW218855   6.787   0.378   5.099  0.7062 -0.5170 -0.8602
 5791SOL     OW18856   1.579   2.614   7.465  0.6139 -0.0641  0.1942
 5791SOL    HW118857   1.584   2.622   7.561  2.4169  0.1934  0.1054
 5791SOL    HW218858   1.571   2.520   7.450  0.1379 -0.0927  0.6041
 5792SOL     OW18859   7.731   0.122   4.891 -0.1799 -0.0164  0.3615
 5792SOL    HW118860   7.682   0.139   4.971  2.1041 -0.1064  1.7910
 5792SOL    HW218861   7.766   0.034   4.902  0.9410  0.3375 -0.3431
 5793SOL     OW18862   6.857   4.505   3.922 -0.1956 -0.1630  0.5559
 5793SOL    HW118863   6.929   4.447   3.949 -0.9363 -0.7496  1.3136
 5793SOL    HW218864   6.812   4.526   4.004  0.3786  1.9363  0.3682
 5794SOL     OW18865   3.700   2.024   3.751  0.1023  0.3798  0.1315
 5794SOL    HW118866   3.676   2.116   3.745  1.3579  0.7967  1.1977
 5794SOL    HW218867   3.624   1.982   3.791 -0.2621  1.0442  0.1468
 5795SOL     OW18868   3.716   3.082   4.633  0.5498  0.1791 -0.2329
 5795SOL    HW118869   3.758   3.000   4.659  0.0764 -1.1755 -3.5229
 5795SOL    HW218870   3.777   3.150   4.662  1.8888 -1.4132  0.8209
 5796SOL     OW18871   6.625   0.938   3.253  0.6229  0.0071 -0.1344
 5796SOL    HW118872   6.708   0.892   3.269 -0.1312 -1.1719  0.4935
 5796SOL    HW218873   6.598   0.910   3.165  1.9515  2.0731 -1.2197
 5797SOL     OW18874   8.124   3.147   7.301 -0.4355 -1.0589 -0.1623
 5797SOL    HW118875   8.180   3.149   7.378 -2.1796 -1.5094  1.1370
 5797SOL    HW218876   8.155   3.073   7.250  0.2497 -1.2088  0.4749
 5798SOL     OW18877   6.303   3.729   4.454  0.0362 -0.1871  0.5057
 5798SOL    HW118878   6.224   3.761   4.497  0.7676  0.1932  1.5812
 5798SOL    HW218879   6.375   3.767   4.504  0.9058 -1.1871  0.0420
 5799SOL     OW18880   1.578   2.344   7.385  0.4755  0.2121  0.1910
 5799SOL    HW118881   1.611   2.271   7.438  2.2867  2.1334  1.8150
 5799SOL    HW218882   1.589   2.315   7.295 -0.9575 -2.4215  0.8230
 5800SOL     OW18883   6.765   1.743   6.076  0.2338  0.0784  0.1621
 5800SOL    HW118884   6.670   1.744   6.087  0.1719 -0.2597 -0.3593
 5800SOL    HW218885   6.799   1.718   6.162 -0.0982  1.5103  0.7251
 5801SOL     OW18886   0.138   7.501   5.664  0.1444  0.3718  0.9458
 5801SOL    HW118887   0.129   7.540   5.577 -1.4936 -1.2636  0.3526
 5801SOL    HW218888   0.233   7.497   5.678  0.3914  2.9467  0.3227
 5802SOL     OW18889   8.046   7.941   3.283 -0.1867  0.4472  0.3101
 5802SOL    HW118890   8.000   7.988   3.352 -0.7679 -0.3052  0.4517
 5802SOL    HW218891   8.101   8.006   3.241  0.9338  0.7039  2.1307
 5803SOL     OW18892   2.187   6.990   4.929 -0.2558  0.1527 -0.7290
 5803SOL    HW118893   2.228   6.931   4.866 -1.3699 -0.1199 -1.2149
 5803SOL    HW218894   2.260   7.039   4.967  0.5940 -0.8612 -1.0101
 5804SOL     OW18895   2.719   0.199   7.374  0.3441 -0.1608 -0.2158
 5804SOL    HW118896   2.722   0.208   7.469 -0.6978 -0.8724 -0.1095
 5804SOL    HW218897   2.643   0.251   7.347  0.1416 -0.6405 -0.5728
 5805SOL     OW18898   1.820   0.346   0.475  0.3511  0.1592  0.1806
 5805SOL    HW118899   1.742   0.307   0.515 -0.7131  1.7625 -0.2993
 5805SOL    HW218900   1.813   0.322   0.382  0.8480 -0.3639  0.2771
 5806SOL     OW18901   5.056   7.555   1.695  0.3592 -0.2754  0.2444
 5806SOL    HW118902   4.972   7.556   1.648  0.4417 -1.0939  0.0672
 5806SOL    HW218903   5.103   7.631   1.662  0.3568 -0.7691 -0.9064
 5807SOL     OW18904   4.117   0.390   4.630  0.0199  0.3667  0.1237
 5807SOL    HW118905   4.198   0.419   4.587  0.1880 -0.9931 -0.4818
 5807SOL    HW218906   4.058   0.369   4.557 -0.5808  0.5188  0.5671
 5808SOL     OW18907   3.206   2.720   4.624  0.4705  0.5520  0.0991
 5808SOL    HW118908   3.166   2.787   4.569 -1.4678  0.8498  1.7951
 5808SOL    HW218909   3.297   2.747   4.632  0.2669  1.6798 -1.1787
 5809SOL     OW18910   3.872   8.098   2.398 -0.1754  0.6976  0.8522
 5809SOL    HW118911   3.896   8.006   2.412  1.9811  1.2745  1.2225
 5809SOL    HW218912   3.873   8.136   2.486 -0.4210  1.2178  0.6269
 5810SOL     OW18913   7.941   6.762   2.264  0.3703  0.1432 -0.1789
 5810SOL    HW118914   7.913   6.690   2.320  0.5300 -0.7084 -1.1771
 5810SOL    HW218915   7.881   6.759   2.189  0.8937  0.5290 -0.6188
 5811SOL     OW18916   5.154   0.598   6.582  0.0460  0.3781 -0.2554
 5811SOL    HW118917   5.064   0.578   6.555 -0.9728 -0.9648  3.8792
 5811SOL    HW218918   5.189   0.515   6.614  2.5905  1.0371 -1.1935
 5812SOL     OW18919   4.024   1.013   4.246 -0.2092  0.5002 -0.3839
 5812SOL    HW118920   3.937   0.986   4.215 -0.2772 -2.0854  1.8987
 5812SOL    HW218921   4.007   1.057   4.329  0.4747  2.3653 -1.2021
 5813SOL     OW18922   0.248   3.297   8.136 -0.4024  0.3230  0.0497
 5813SOL    HW118923   0.257   3.377   8.187  2.1753  0.0756  0.0598
 5813SOL    HW218924   0.195   3.323   8.061 -0.5760  1.7598  0.6434
 5814SOL     OW18925   5.201   3.348   0.748 -0.0308  0.1422 -0.0333
 5814SOL    HW118926   5.229   3.341   0.839 -0.0118 -2.3115 -0.1837
 5814SOL    HW218927   5.277   3.385   0.703  0.0982  0.9951  0.8649
 5815SOL     OW18928   1.557   1.729   5.758  0.3261  0.5043  0.0321
 5815SOL    HW118929   1.490   1.673   5.718  1.1677  0.6186 -1.6094
 5815SOL    HW218930   1.636   1.674   5.758  0.0053 -0.0043  2.9198
 5816SOL     OW18931   3.347   4.293   4.388  0.7399  0.1609 -0.1241
 5816SOL    HW118932   3.369   4.349   4.462  2.0096  1.2828 -1.3176
 5816SOL    HW218933   3.405   4.322   4.317 -0.7719 -0.5602 -1.7026
 5817SOL     OW18934   0.045   7.758   2.422  0.6453  0.0672 -0.4273
 5817SOL    HW118935   0.033   7.774   2.516 -0.5780 -0.2413 -0.5140
 5817SOL    HW218936   0.124   7.705   2.416 -1.3346 -3.2031  0.7881
 5818SOL     OW18937   2.014   3.405   4.550 -0.1942 -0.0933  0.4162
 5818SOL    HW118938   2.078   3.370   4.488 -0.0175 -0.6657  0.9092
 5818SOL    HW218939   2.057   3.399   4.635 -0.6946  0.0339  0.6819
 5819SOL     OW18940   4.565   0.464   7.252  0.2998  0.5489  0.0456
 5819SOL    HW118941   4.639   0.485   7.309 -0.5895  1.7529  0.7843
 5819SOL    HW218942   4.519   0.392   7.296  0.7607  0.1221 -0.1737
 5820SOL     OW18943   1.860   7.795   6.306  0.0940 -0.0241  0.1467
 5820SOL    HW118944   1.901   7.840   6.380 -1.1582  0.4289  0.5765
 5820SOL    HW218945   1.808   7.725   6.346  0.8597 -0.9249 -0.4254
 5821SOL     OW18946   2.828   2.596   2.168  0.3182  0.0015 -0.2773
 5821SOL    HW118947   2.802   2.508   2.193 -2.0684  0.7436  0.0292
 5821SOL    HW218948   2.807   2.650   2.245 -0.1957  1.1484 -1.2065
 5822SOL     OW18949   7.944   5.043   7.982 -0.1679 -0.7613  0.1072
 5822SOL    HW118950   8.031   5.062   8.018  0.5005 -0.5190 -1.6222
 5822SOL    HW218951   7.946   5.078   7.893 -1.4721 -2.2562 -0.5290
 5823SOL     OW18952   4.444   3.700   6.714 -0.1943 -0.0908  0.4563
 5823SOL    HW118953   4.511   3.752   6.759  0.1792  0.6193 -0.8993
 5823SOL    HW218954   4.494   3.636   6.663 -0.5417  0.3929 -0.4988
 5824SOL     OW18955   7.448   7.824   0.791  0.6063 -0.0122  0.0535
 5824SOL    HW118956   7.353   7.824   0.803  0.6704 -0.2358  0.5297
 5824SOL    HW218957   7.460   7.860   0.703  0.1078  0.5899  0.2226
 5825SOL     OW18958   5.682   2.186   7.168  0.0195 -0.3297  0.3095
 5825SOL    HW118959   5.777   2.196   7.160 -0.0499 -1.1393 -1.6155
 5825SOL    HW218960   5.670   2.111   7.226  0.5602 -1.1280 -0.6097
 5826SOL     OW18961   3.683   5.407   2.077  0.1809 -0.1866  0.2224
 5826SOL    HW118962   3.606   5.370   2.033 -0.3867 -2.7524  3.1473
 5826SOL    HW218963   3.757   5.361   2.038  0.0022  0.3392 -0.7400
 5827SOL     OW18964   5.551   6.375   3.073  0.0530 -0.0332 -0.2894
 5827SOL    HW118965   5.584   6.398   2.986  1.2363  1.1042  0.4334
 5827SOL    HW218966   5.488   6.305   3.057 -1.1862  1.4625 -2.2764
 5828SOL     OW18967   6.505   1.805   5.869 -0.1256 -0.0675  0.5584
 5828SOL    HW118968   6.523   1.899   5.861 -0.0852 -0.0944  0.3327
 5828SOL    HW218969   6.438   1.800   5.938  1.7671 -0.0828  2.4594
 5829SOL     OW18970   1.024   0.914   0.969 -0.2070  0.0296  0.5719
 5829SOL    HW118971   0.938   0.929   1.010 -0.3119 -0.2195  0.4410
 5829SOL    HW218972   1.078   0.986   1.002 -1.0830  1.5078 -1.1266
 5830SOL     OW18973   6.873   4.603   3.362 -0.1303  0.0192  0.1130
 5830SOL    HW118974   6.785   4.608   3.323 -0.1399 -1.7674 -0.1167
 5830SOL    HW218975   6.932   4.626   3.290 -0.3718  0.8291  0.1638
 5831SOL     OW18976   1.783   1.362   3.583 -0.0415 -0.3786  0.3171
 5831SOL    HW118977   1.819   1.315   3.659  1.1748 -0.8358 -0.5252
 5831SOL    HW218978   1.814   1.312   3.507 -1.5450 -0.1366 -0.4843
 5832SOL     OW18979   2.627   5.881   4.455 -0.2362  0.1069 -0.1632
 5832SOL    HW118980   2.601   5.807   4.400 -3.1679 -0.0834  1.3611
 5832SOL    HW218981   2.672   5.841   4.530 -0.1072  0.0079 -0.2951
 5833SOL     OW18982   7.661   6.861   2.806  0.3046 -0.3160  0.4270
 5833SOL    HW118983   7.595   6.845   2.873 -1.1798  0.6650 -0.7760
 5833SOL    HW218984   7.655   6.955   2.789  0.6549 -0.5731 -1.1148
 5834SOL     OW18985   3.732   6.362   1.160 -0.1535 -0.3349 -0.1788
 5834SOL    HW118986   3.800   6.386   1.223 -0.4873 -1.3660  0.5885
 5834SOL    HW218987   3.738   6.429   1.092  1.4997 -0.3008 -0.0239
 5835SOL     OW18988   3.118   0.999   0.526 -0.1115  0.2957 -0.3097
 5835SOL    HW118989   3.143   1.063   0.460  0.1583 -0.5522 -1.0475
 5835SOL    HW218990   3.110   1.049   0.607 -0.7963  1.4061 -1.0515
 5836SOL     OW18991   8.191   4.898   1.994  0.3714  0.4604  0.1171
 5836SOL    HW118992   8.134   4.957   2.043  0.4432 -0.9028  1.8611
 5836SOL    HW218993   8.275   4.945   1.988  0.1573  0.9160  0.6771
 5837SOL     OW18994   7.673   8.209   4.613 -0.3114  0.5590 -0.3662
 5837SOL    HW118995   7.588   8.187   4.576 -1.2440  0.9587  1.4786
 5837SOL    HW218996   7.672   8.304   4.622 -0.0334  0.4889  0.4986
 5838SOL     OW18997   7.562   3.864   8.222  0.2303  0.1861  0.2257
 5838SOL    HW118998   7.644   3.854   8.271  0.0233 -2.4499  0.1577
 5838SOL    HW218999   7.586   3.911   8.142  1.5706 -0.0391  0.4901
 5839SOL     OW19000   6.138   6.903   5.501  0.2182 -0.2220 -0.0921
 5839SOL    HW119001   6.085   6.900   5.421 -1.0108  1.8567  0.6165
 5839SOL    HW219002   6.075   6.895   5.572  0.6954  3.0383  0.7749
 5840SOL     OW19003   1.017   4.484   3.042  0.1654 -0.2089 -0.4047
 5840SOL    HW119004   1.059   4.541   3.106  0.6593  0.2060 -1.0941
 5840SOL    HW219005   0.977   4.544   2.978 -3.3308 -0.5285  1.3610
 5841SOL     OW19006   5.241   3.731   3.453 -0.3247  0.3798 -0.2514
 5841SOL    HW119007   5.319   3.780   3.429  0.8415 -0.1573  2.2285
 5841SOL    HW219008   5.182   3.797   3.490 -0.0588  0.4142  0.1144
 5842SOL     OW19009   2.833   7.083   1.293  0.1309 -0.1880 -0.0097
 5842SOL    HW119010   2.902   7.147   1.308 -0.2419  0.0212  0.8786
 5842SOL    HW219011   2.753   7.135   1.286  0.0544 -0.4338 -0.9482
 5843SOL     OW19012   7.670   3.766   1.749 -0.2608 -0.7448  0.4263
 5843SOL    HW119013   7.613   3.722   1.685  0.1721 -0.6397 -0.0369
 5843SOL    HW219014   7.630   3.852   1.761  0.5476 -0.1552 -0.9405
 5844SOL     OW19015   0.439   0.858   4.523  0.0257 -0.1964  0.0097
 5844SOL    HW119016   0.477   0.938   4.558  0.4134  0.0676 -0.9837
 5844SOL    HW219017   0.486   0.787   4.566 -0.1149  0.1107  0.6717
 5845SOL     OW19018   5.686   3.175   3.636  0.3759  0.0162  0.1656
 5845SOL    HW119019   5.614   3.112   3.636  1.5848 -1.4008  1.8251
 5845SOL    HW219020   5.649   3.253   3.593 -1.7128 -1.1366 -0.2250
 5846SOL     OW19021   7.769   4.468   4.392  0.1090  0.5310  0.0596
 5846SOL    HW119022   7.737   4.556   4.372  1.1002  0.6487 -1.1087
 5846SOL    HW219023   7.773   4.424   4.307  1.9985  0.1919  0.2926
 5847SOL     OW19024   8.000   7.696   0.716  0.1338 -0.1635  0.2315
 5847SOL    HW119025   8.017   7.764   0.651  0.2824 -1.3611 -1.0239
 5847SOL    HW219026   7.920   7.725   0.760 -0.4281  0.3006 -1.0429
 5848SOL     OW19027   2.185   6.097   1.072 -0.4844  0.2814 -0.0016
 5848SOL    HW119028   2.280   6.097   1.059 -0.4570 -0.9042  0.1204
 5848SOL    HW219029   2.154   6.167   1.015  0.6469  2.0267  1.4968
 5849SOL     OW19030   3.216   2.175   7.431  0.3085 -0.1783  0.2754
 5849SOL    HW119031   3.163   2.238   7.480  1.8858 -0.4742  2.3840
 5849SOL    HW219032   3.262   2.229   7.366 -0.1890  0.4955  0.4681
 5850SOL     OW19033   7.732   1.272   2.721  0.3517  0.0927 -0.0128
 5850SOL    HW119034   7.826   1.287   2.720  0.3966 -0.1849 -0.1794
 5850SOL    HW219035   7.709   1.258   2.629  0.1534  0.1319  0.0299
 5851SOL     OW19036   1.565   6.785   1.669 -0.1781 -0.8287 -0.3692
 5851SOL    HW119037   1.500   6.806   1.602 -0.0563  1.7273  0.2635
 5851SOL    HW219038   1.514   6.776   1.750  0.1246  0.3810 -0.0252
 5852SOL     OW19039   7.450   0.240   5.075  0.3950  0.6939  0.0912
 5852SOL    HW119040   7.383   0.240   5.144  0.6426 -0.2036  0.3345
 5852SOL    HW219041   7.532   0.230   5.123  0.5276 -0.4591 -0.3709
 5853SOL     OW19042   8.102   1.768   2.331  0.3495  0.0347  0.7567
 5853SOL    HW119043   8.009   1.791   2.336  0.3497  0.1835 -0.0210
 5853SOL    HW219044   8.134   1.782   2.420  0.1666  2.2391  0.4958
 5854SOL     OW19045   8.047   7.425   5.309 -0.2452 -0.3043  0.5748
 5854SOL    HW119046   7.974   7.487   5.311  1.0499  1.2330  1.6744
 5854SOL    HW219047   8.015   7.352   5.255 -1.1847  2.1131 -2.3064
 5855SOL     OW19048   8.305   0.927   6.977 -0.1237  0.1268 -0.3787
 5855SOL    HW119049   8.317   0.838   7.010 -2.3688  0.7850  2.3982
 5855SOL    HW219050   8.239   0.918   6.909  0.3083 -0.4559 -0.7271
 5856SOL     OW19051   2.370   3.964   7.325 -0.1326 -0.4554 -0.0777
 5856SOL    HW119052   2.412   4.008   7.251 -0.7720 -1.3173 -0.9499
 5856SOL    HW219053   2.277   3.987   7.317 -0.0232  0.5523  1.2367
 5857SOL     OW19054   6.634   7.421   3.085 -0.3057 -0.6553 -0.0721
 5857SOL    HW119055   6.679   7.418   3.000 -0.7495 -0.2026 -0.3196
 5857SOL    HW219056   6.684   7.360   3.140  0.5653 -0.2198 -0.3717
 5858SOL     OW19057   1.979   0.192   6.602  0.2043 -0.7915 -0.0372
 5858SOL    HW119058   1.966   0.121   6.665 -0.6012 -1.0182 -0.4509
 5858SOL    HW219059   1.893   0.204   6.561  0.3755  0.3068 -0.0945
 5859SOL     OW19060   5.636   1.334   2.705 -0.3258  0.8762  0.2075
 5859SOL    HW119061   5.558   1.346   2.759 -0.4163  1.3903 -0.0404
 5859SOL    HW219062   5.705   1.380   2.752  0.5000 -1.9696  1.9214
 5860SOL     OW19063   1.121   6.259   7.424  0.3849 -0.3844  0.0807
 5860SOL    HW119064   1.181   6.304   7.365 -1.0393  1.1897 -0.1878
 5860SOL    HW219065   1.178   6.213   7.486  1.8983  2.9093  1.2196
 5861SOL     OW19066   1.139   0.376   2.810 -0.2831 -0.3706 -0.8721
 5861SOL    HW119067   1.117   0.442   2.744 -1.5582 -0.7844 -0.8625
 5861SOL    HW219068   1.121   0.292   2.767 -1.0582 -0.6409 -0.0277
 5862SOL     OW19069   4.001   5.138   7.403 -0.0295 -0.1949 -0.7475
 5862SOL    HW119070   4.034   5.173   7.486  0.3449  0.1511 -1.0364
 5862SOL    HW219071   3.958   5.056   7.427 -0.0185 -0.0456 -0.1984
 5863SOL     OW19072   2.639   1.676   7.191  0.5483 -0.3648 -0.0376
 5863SOL    HW119073   2.609   1.764   7.216 -0.7301 -0.5819 -0.7385
 5863SOL    HW219074   2.728   1.688   7.161  0.4315  0.6742  0.0196
 5864SOL     OW19075   4.776   1.387   2.099  0.3722  0.6757  0.1896
 5864SOL    HW119076   4.735   1.306   2.129  0.8476  0.6610  0.7999
 5864SOL    HW219077   4.722   1.415   2.025  1.1560 -1.0447 -1.0479
 5865SOL     OW19078   5.027   2.432   3.018  0.2027 -0.1248 -0.2997
 5865SOL    HW119079   5.045   2.481   2.938 -1.2229  0.2309 -0.4102
 5865SOL    HW219080   4.937   2.455   3.041 -0.2296 -2.0712  0.0751
 5866SOL     OW19081   0.008   5.959   0.629 -0.4222  0.3215  0.5211
 5866SOL    HW119082   0.031   5.962   0.536 -1.4599  1.1478  0.2722
 5866SOL    HW219083  -0.079   5.918   0.630 -0.2788  0.0401  1.1507
 5867SOL     OW19084   2.000   2.944   2.875  0.2735 -0.4286  0.2409
 5867SOL    HW119085   1.931   2.968   2.937 -2.4580 -1.7475 -2.2096
 5867SOL    HW219086   2.043   2.869   2.915 -2.0932 -1.8794  0.1442
 5868SOL     OW19087   3.656   6.909   4.435  0.1543 -0.6199  0.5650
 5868SOL    HW119088   3.686   6.914   4.526 -0.5796 -0.0221  0.7771
 5868SOL    HW219089   3.617   6.995   4.417  0.7747 -0.5463 -0.4905
 5869SOL     OW19090   1.408   3.756   6.775 -0.0365 -0.1438 -0.0288
 5869SOL    HW119091   1.438   3.675   6.816  2.0524 -0.3588 -1.8804
 5869SOL    HW219092   1.364   3.727   6.695 -1.9450  0.3957  0.8156
 5870SOL     OW19093   7.736   5.272   5.942  0.6557  0.2216 -0.4539
 5870SOL    HW119094   7.807   5.216   5.910  0.4310  0.9057 -2.1872
 5870SOL    HW219095   7.664   5.257   5.881 -0.2369  0.5707  0.4973
 5871SOL     OW19096   4.095   3.790   6.290  0.0057  0.2608 -0.5320
 5871SOL    HW119097   4.161   3.721   6.281  0.0346  0.4093 -1.5887
 5871SOL    HW219098   4.119   3.855   6.224 -1.1852  0.3217 -0.9211
 5872SOL     OW19099   6.255   5.200   5.144 -0.2006  0.1216 -0.4760
 5872SOL    HW119100   6.229   5.264   5.210  2.9350 -0.6094  1.5674
 5872SOL    HW219101   6.207   5.120   5.168  1.6538 -0.4132  1.5269
 5873SOL     OW19102   2.322   3.934   7.713 -0.2683 -0.6958 -0.6955
 5873SOL    HW119103   2.352   3.992   7.782 -0.8533 -2.8510  1.4286
 5873SOL    HW219104   2.285   3.993   7.647  1.6747  1.4925  0.0905
 5874SOL     OW19105   7.695   6.725   2.085  0.3626 -1.0651  0.4286
 5874SOL    HW119106   7.688   6.704   1.992  0.1641  0.5354  0.0650
 5874SOL    HW219107   7.651   6.810   2.094  2.2304 -0.1805  1.5868
 5875SOL     OW19108   0.415   2.745   3.643  0.6709 -0.5129  0.3019
 5875SOL    HW119109   0.385   2.738   3.552 -0.4197  0.2018  0.6028
 5875SOL    HW219110   0.475   2.671   3.654  4.6865  2.0650 -2.4717
 5876SOL     OW19111   2.742   5.033   2.752 -0.4691  0.0195 -0.0089
 5876SOL    HW119112   2.764   5.015   2.843 -0.1581 -1.8086 -0.4278
 5876SOL    HW219113   2.724   4.947   2.714 -0.1711  0.7194 -1.7916
 5877SOL     OW19114   4.094   1.032   8.262 -0.1182 -0.4013  0.4546
 5877SOL    HW119115   4.102   1.098   8.193  0.8338 -0.5540  0.4036
 5877SOL    HW219116   4.135   1.073   8.339  0.4564 -0.9120  0.4291
 5878SOL     OW19117   1.655   3.294   1.717 -0.1702  0.2799  0.0540
 5878SOL    HW119118   1.610   3.248   1.646  0.4608 -0.2251 -0.0186
 5878SOL    HW219119   1.596   3.366   1.739 -1.5243 -0.9700  0.6529
 5879SOL     OW19120   5.547   7.817   6.322 -0.2403 -0.1365  0.1397
 5879SOL    HW119121   5.574   7.907   6.342  3.6300 -0.4183 -3.1537
 5879SOL    HW219122   5.452   7.822   6.312  0.0536  3.9626 -1.5799
 5880SOL     OW19123   3.484   4.920   7.555 -0.3415 -0.2865 -0.0021
 5880SOL    HW119124   3.419   4.938   7.487  0.1732  1.3054 -0.0960
 5880SOL    HW219125   3.555   4.982   7.537  0.3519 -0.7060  1.2373
 5881SOL     OW19126   2.261   0.234   4.678  0.1182 -0.3852 -0.0666
 5881SOL    HW119127   2.212   0.314   4.692  1.1455  0.8256 -3.0492
 5881SOL    HW219128   2.203   0.179   4.624 -0.7228 -1.8522  2.2375
 5882SOL     OW19129   2.177   4.759   6.651  0.3256 -0.3017 -0.2163
 5882SOL    HW119130   2.120   4.773   6.727 -0.7616 -0.0316 -1.0608
 5882SOL    HW219131   2.141   4.681   6.609  1.0437 -0.5632 -0.3512
 5883SOL     OW19132   5.769   2.612   0.289  0.0442  0.3049  0.2621
 5883SOL    HW119133   5.802   2.694   0.251  0.1212 -0.0686 -0.5021
 5883SOL    HW219134   5.787   2.546   0.222 -0.0075 -0.3409  0.8755
 5884SOL     OW19135   7.586   5.448   0.158 -0.5807  0.5720  0.7811
 5884SOL    HW119136   7.559   5.534   0.192 -2.0460  1.2422 -1.8831
 5884SOL    HW219137   7.515   5.423   0.099 -0.2724 -2.6107  1.6765
 5885SOL     OW19138   5.697   6.885   6.283  0.5745  0.1289 -0.5996
 5885SOL    HW119139   5.639   6.951   6.321  1.8045  0.7876  0.1892
 5885SOL    HW219140   5.758   6.936   6.229  0.5969 -0.5207 -1.1879
 5886SOL     OW19141   4.712   6.875   4.161  0.4834  0.2116  0.0079
 5886SOL    HW119142   4.711   6.780   4.146 -0.8183  0.1421  0.4291
 5886SOL    HW219143   4.799   6.903   4.134  0.4699 -0.9222 -1.2839
 5887SOL     OW19144   6.755   2.508   4.558 -0.0418 -0.2092 -0.6239
 5887SOL    HW119145   6.715   2.595   4.560 -1.3382 -0.8166  0.8207
 5887SOL    HW219146   6.842   2.522   4.595 -0.7399  0.2542  0.8947
 5888SOL     OW19147   4.328   2.636   6.508  0.1316 -0.6396 -0.0589
 5888SOL    HW119148   4.301   2.550   6.541 -1.1622  0.2227  1.1532
 5888SOL    HW219149   4.423   2.639   6.523  0.1300 -1.7190  0.1945
 5889SOL     OW19150   7.298   2.740   8.116  0.4553 -0.1727 -0.4586
 5889SOL    HW119151   7.271   2.650   8.099 -0.1922 -0.2693  1.0500
 5889SOL    HW219152   7.223   2.793   8.090  0.3952 -0.1470 -0.2304
 5890SOL     OW19153   0.274   7.198   2.991  0.4355  0.1074  0.0376
 5890SOL    HW119154   0.248   7.185   3.082 -1.3841  0.3757 -0.4302
 5890SOL    HW219155   0.194   7.182   2.940  1.8009 -1.7314 -1.6608
 5891SOL     OW19156   2.259   0.635   4.672 -0.4430  0.3967 -0.4667
 5891SOL    HW119157   2.301   0.618   4.588 -0.0629 -3.4843  0.4327
 5891SOL    HW219158   2.320   0.601   4.737 -1.4626  1.8887  1.3346
 5892SOL     OW19159   5.940   7.494   3.446 -0.2849  0.2315  0.0594
 5892SOL    HW119160   5.993   7.543   3.509 -0.1195 -1.3396  1.1545
 5892SOL    HW219161   5.851   7.497   3.481  0.0591 -1.8955  1.1522
 5893SOL     OW19162   5.268   7.368   5.206 -0.5428  0.2947 -0.4613
 5893SOL    HW119163   5.225   7.367   5.291 -0.3128 -1.3494 -0.3409
 5893SOL    HW219164   5.219   7.432   5.154 -0.1014  1.9940  1.1725
 5894SOL     OW19165   4.276   7.314   2.552  0.1344  0.0118 -0.2054
 5894SOL    HW119166   4.284   7.243   2.489  0.2141  0.1570 -0.3595
 5894SOL    HW219167   4.195   7.358   2.528 -0.4497 -0.6522  0.5326
 5895SOL     OW19168   7.757   0.646   0.654 -0.5448 -0.2266 -0.5842
 5895SOL    HW119169   7.729   0.727   0.612 -0.1820  1.0802  1.5975
 5895SOL    HW219170   7.681   0.589   0.649 -1.6200  1.1239 -0.0288
 5896SOL     OW19171   1.050   2.727   0.013  0.0317  0.1223 -0.2808
 5896SOL    HW119172   1.094   2.812   0.016 -2.0304  1.1829  2.0668
 5896SOL    HW219173   0.957   2.749   0.018 -0.4894 -2.3091  1.3739
 5897SOL     OW19174   3.818   1.540   4.711  0.3230  0.2002  0.1924
 5897SOL    HW119175   3.769   1.512   4.789 -1.4855  1.2405 -0.5463
 5897SOL    HW219176   3.879   1.605   4.744  0.4968 -0.3423  0.9586
 5898SOL     OW19177   8.182   0.916   2.534 -0.3665  0.0897 -0.3524
 5898SOL    HW119178   8.161   0.857   2.606 -0.5526 -0.3292 -0.7446
 5898SOL    HW219179   8.113   0.901   2.470 -0.2777  0.5602 -0.5560
 5899SOL     OW19180   8.106   0.558   4.078 -0.3178 -0.0201  0.5559
 5899SOL    HW119181   8.107   0.641   4.029  0.8141 -0.2564  0.1638
 5899SOL    HW219182   8.035   0.508   4.038  0.1020  0.0924 -0.3298
 5900SOL     OW19183   2.564   3.003   1.345  0.4509 -0.1447  0.4950
 5900SOL    HW119184   2.509   3.080   1.335  1.0925  0.0378 -2.1505
 5900SOL    HW219185   2.651   3.038   1.365  0.4503 -0.2475  0.6788
 5901SOL     OW19186   6.755   7.666   3.818  0.0334  0.4672  0.9592
 5901SOL    HW119187   6.787   7.613   3.745 -1.5792  0.9736 -0.1689
 5901SOL    HW219188   6.829   7.673   3.878  2.2482  2.0697 -1.7971
 5902SOL     OW19189   6.273   0.660   5.466  0.2774  0.3265  0.3302
 5902SOL    HW119190   6.300   0.623   5.382 -0.3697 -0.8224  0.6215
 5902SOL    HW219191   6.213   0.595   5.503  0.2957  0.9815  1.5325
 5903SOL     OW19192   2.826   4.029   1.251  0.6764  0.0694 -0.0415
 5903SOL    HW119193   2.894   3.981   1.203  0.3103 -0.8265  0.3267
 5903SOL    HW219194   2.747   4.014   1.199  0.9143  1.8474 -0.9619
 5904SOL     OW19195   4.712   1.381   3.868  0.3616 -0.2530  0.0593
 5904SOL    HW119196   4.635   1.375   3.812  0.4774  0.1941 -0.1500
 5904SOL    HW219197   4.698   1.315   3.935  0.1284 -0.6569 -0.3837
 5905SOL     OW19198   3.410   2.696   6.240  0.2185 -0.6943 -0.2426
 5905SOL    HW119199   3.388   2.605   6.259  1.8597 -1.2052 -0.7378
 5905SOL    HW219200   3.505   2.701   6.252  0.0693  1.1122  0.4462
 5906SOL     OW19201   1.323   6.509   2.333 -0.2253 -0.1174 -0.2036
 5906SOL    HW119202   1.377   6.575   2.378  0.8973 -1.2106  0.1076
 5906SOL    HW219203   1.246   6.499   2.389 -0.2934  0.7661 -0.1372
 5907SOL     OW19204   2.503   1.206   2.763 -0.4931  0.3484 -0.3093
 5907SOL    HW119205   2.476   1.268   2.831 -0.9348 -0.4792  0.2733
 5907SOL    HW219206   2.577   1.249   2.719 -0.5112  1.0898  0.3877
 5908SOL     OW19207   1.681   6.923   5.109 -0.4913  0.7200 -0.1995
 5908SOL    HW119208   1.748   6.928   5.177 -1.3053  2.7921  0.4941
 5908SOL    HW219209   1.723   6.961   5.031 -0.5782  1.2340  0.0032
 5909SOL     OW19210   5.104   3.024   5.872 -0.3442 -0.0130  0.1583
 5909SOL    HW119211   5.198   3.024   5.891 -0.2187  1.6412 -0.3689
 5909SOL    HW219212   5.083   2.932   5.856  1.3734 -0.2914 -0.6152
 5910SOL     OW19213   1.264   0.280   5.886 -0.1076  0.1696  0.7859
 5910SOL    HW119214   1.325   0.348   5.913  1.1731 -1.1454  1.2595
 5910SOL    HW219215   1.207   0.268   5.961 -0.4376  0.8205  0.6452
 5911SOL     OW19216   5.042   4.500   5.966 -0.6322 -0.5903 -0.0220
 5911SOL    HW119217   4.951   4.474   5.979 -0.7418 -0.4797 -0.5829
 5911SOL    HW219218   5.078   4.434   5.906 -0.1850 -0.9618  0.6412
 5912SOL     OW19219   3.867   0.582   1.140  0.4545  0.4060  0.1469
 5912SOL    HW119220   3.872   0.634   1.220  0.6834 -0.2145  0.5387
 5912SOL    HW219221   3.839   0.495   1.169 -0.8517  0.5592 -0.6156
 5913SOL     OW19222   1.616   1.578   3.843 -0.2824 -0.0705 -0.1599
 5913SOL    HW119223   1.622   1.645   3.911  2.1205  1.3979 -1.7280
 5913SOL    HW219224   1.606   1.628   3.761  1.3217 -1.5677 -1.3234
 5914SOL     OW19225   6.971   5.970   7.527  0.1523 -0.2525 -0.5276
 5914SOL    HW119226   6.959   6.053   7.480 -0.2811  0.2251  0.4006
 5914SOL    HW219227   6.950   5.903   7.463  0.2261  0.3650 -1.2125
 5915SOL     OW19228   3.831   3.164   1.072 -0.5609 -0.0960 -0.4050
 5915SOL    HW119229   3.760   3.116   1.031 -1.3118 -0.1932  0.9770
 5915SOL    HW219230   3.910   3.136   1.025 -1.1170 -1.9120 -0.2760
 5916SOL     OW19231   6.033   6.382   6.948 -0.2305  0.6464  0.4168
 5916SOL    HW119232   6.096   6.315   6.977  0.1779  1.5920  1.7873
 5916SOL    HW219233   5.999   6.349   6.865  0.2405 -1.0843  0.8903
 5917SOL     OW19234   7.603   7.780   6.758 -0.2030  0.1221  0.0451
 5917SOL    HW119235   7.526   7.805   6.809 -0.5862 -0.7468 -0.1028
 5917SOL    HW219236   7.672   7.767   6.823 -0.0429  1.3594  0.1418
 5918SOL     OW19237   4.681   1.151   7.856  0.1473 -0.4318  0.1427
 5918SOL    HW119238   4.618   1.223   7.851  1.0393  0.3792  0.5040
 5918SOL    HW219239   4.645   1.092   7.922  0.6088  0.8671  1.5891
 5919SOL     OW19240   1.751   7.625   6.973  0.1304 -0.2077  0.2716
 5919SOL    HW119241   1.731   7.708   7.016 -0.6054 -0.8586  1.1898
 5919SOL    HW219242   1.705   7.631   6.889  0.8854  0.7081 -0.0971
 5920SOL     OW19243   3.898   0.846   8.172 -0.0727  0.3566  0.4563
 5920SOL    HW119244   3.958   0.915   8.201  0.2292 -0.2461  1.3039
 5920SOL    HW219245   3.811   0.881   8.190  0.0163  1.2759 -0.8655
 5921SOL     OW19246   5.392   4.269   2.871  0.2641 -0.1433 -0.1161
 5921SOL    HW119247   5.396   4.318   2.953 -1.2811  2.8464 -1.7429
 5921SOL    HW219248   5.475   4.220   2.869  1.3463  1.4846  2.1456
 5922SOL     OW19249   2.512   2.558   0.962 -0.2781  0.2412  0.1316
 5922SOL    HW119250   2.441   2.609   0.922 -0.3929  0.5524  0.7319
 5922SOL    HW219251   2.553   2.618   1.024  0.5529  0.0800 -0.2547
 5923SOL     OW19252   6.076   7.031   3.802  0.2781 -0.7824 -0.0560
 5923SOL    HW119253   6.156   7.001   3.844  0.9038  1.8820  0.7377
 5923SOL    HW219254   6.009   7.028   3.870  0.3666 -0.3155  0.0555
 5924SOL     OW19255   4.909   3.810   7.464  0.3482  0.2736  0.3277
 5924SOL    HW119256   4.947   3.856   7.539  0.0264  1.3282 -0.1543
 5924SOL    HW219257   4.902   3.719   7.493 -0.1702  0.7481  1.7434
 5925SOL     OW19258   6.356   2.838   2.776  0.4455  0.3062  0.3894
 5925SOL    HW119259   6.269   2.800   2.782  1.2275 -1.4236  1.1439
 5925SOL    HW219260   6.341   2.931   2.762 -1.5149  0.1028  1.0448
 5926SOL     OW19261   3.571   1.299   5.447 -0.9379  0.2899  0.6169
 5926SOL    HW119262   3.516   1.248   5.507 -1.7644  0.7693  0.2691
 5926SOL    HW219263   3.519   1.376   5.426  0.0964  1.0374  0.7336
 5927SOL     OW19264   0.613   4.704   1.635 -0.3480 -0.1202  0.4654
 5927SOL    HW119265   0.519   4.719   1.623 -0.2028  2.0082  1.7334
 5927SOL    HW219266   0.624   4.695   1.730  1.0879  2.6838  0.6384
 5928SOL     OW19267   6.322   7.455   5.015 -0.1732 -0.1939  0.3059
 5928SOL    HW119268   6.364   7.474   4.930  1.0948  0.4567  1.0495
 5928SOL    HW219269   6.366   7.376   5.046 -1.1529 -0.8477  0.0189
 5929SOL     OW19270   4.706   4.981   1.124 -0.4742  0.0012  0.0306
 5929SOL    HW119271   4.756   4.930   1.188 -1.1593  0.3224  0.8361
 5929SOL    HW219272   4.752   4.968   1.042  1.7060  1.2898  0.9862
 5930SOL     OW19273   2.401   0.653   7.071 -0.2212 -0.2858 -0.4309
 5930SOL    HW119274   2.336   0.711   7.111  0.7784  1.2444 -0.9771
 5930SOL    HW219275   2.369   0.565   7.090 -1.4404  0.4282  0.9661
 5931SOL     OW19276   2.943   0.689   4.392 -0.1699  0.6380 -0.5853
 5931SOL    HW119277   2.856   0.665   4.426  0.6680 -0.1040  1.0676
 5931SOL    HW219278   2.966   0.617   4.334  0.7477 -0.8486  1.5401
 5932SOL     OW19279   2.925   6.938   6.178 -0.6167 -0.1198  0.1145
 5932SOL    HW119280   2.854   6.890   6.220 -0.9019 -1.3912 -1.7410
 5932SOL    HW219281   2.912   6.924   6.084  0.0286  2.5681 -0.4368
 5933SOL     OW19282   4.241   7.192   1.505 -0.3270  0.3467  0.2447
 5933SOL    HW119283   4.185   7.127   1.547 -0.5298  0.5537  0.2956
 5933SOL    HW219284   4.327   7.149   1.499  0.2183  1.0222  2.6574
 5934SOL     OW19285   5.956   0.483   4.168 -0.1936 -0.5304 -0.9810
 5934SOL    HW119286   5.940   0.396   4.130 -2.6012  0.0273 -1.3551
 5934SOL    HW219287   5.925   0.544   4.101 -0.2298  0.5862  0.0362
 5935SOL     OW19288   6.334   1.410   0.411 -0.3605  0.7253 -0.6089
 5935SOL    HW119289   6.388   1.441   0.484 -0.2729 -1.5845  0.3756
 5935SOL    HW219290   6.362   1.319   0.398 -2.5497  0.1439 -1.4659
 5936SOL     OW19291   7.958   5.666   4.582  0.1897 -0.3212  0.3618
 5936SOL    HW119292   8.020   5.621   4.640  1.6598 -0.7005 -1.4675
 5936SOL    HW219293   7.975   5.759   4.597  0.4988 -0.4147  0.6049
 5937SOL     OW19294   1.800   0.319   6.035  0.1682  0.1109  0.4075
 5937SOL    HW119295   1.889   0.349   6.049  0.3849 -1.0635  1.6801
 5937SOL    HW219296   1.769   0.369   5.960  2.2280 -0.1818 -0.6666
 5938SOL     OW19297   6.036   4.566   5.617  0.1371 -0.4293  0.4703
 5938SOL    HW119298   6.090   4.560   5.538  0.7838 -0.1564  0.8902
 5938SOL    HW219299   6.037   4.659   5.640 -0.6158 -0.4028  0.4124
 5939SOL     OW19300   7.766   0.967   4.419 -0.0635 -0.2465 -0.3606
 5939SOL    HW119301   7.766   0.884   4.468 -0.3792  1.0252  1.8507
 5939SOL    HW219302   7.853   1.002   4.432 -0.5572  0.7196  0.3684
 5940SOL     OW19303   0.201   3.611   3.347 -0.0680 -0.1224 -0.0907
 5940SOL    HW119304   0.265   3.676   3.376 -0.5722  0.5550 -0.4810
 5940SOL    HW219305   0.118   3.658   3.344 -0.4420 -0.7886 -0.3503
 5941SOL     OW19306   0.651   2.891   3.669 -0.3886 -0.4166 -0.2441
 5941SOL    HW119307   0.685   2.833   3.600 -0.6339 -0.4345 -0.3522
 5941SOL    HW219308   0.559   2.864   3.679 -0.0030 -1.3225  1.0271
 5942SOL     OW19309   1.488   3.285   3.306 -0.3502  0.1383 -0.3450
 5942SOL    HW119310   1.408   3.336   3.288 -1.5235 -1.2528  0.7721
 5942SOL    HW219311   1.457   3.208   3.353  1.7745 -0.0302  0.8319
 5943SOL     OW19312   8.024   3.355   3.560  1.0111  0.7962 -0.0697
 5943SOL    HW119313   8.046   3.283   3.618  0.2323 -0.3541 -1.1738
 5943SOL    HW219314   7.933   3.338   3.534  1.4038  1.1874 -1.7579
 5944SOL     OW19315   4.374   1.834   1.634  0.0746  0.4828 -0.6293
 5944SOL    HW119316   4.329   1.839   1.718 -0.0544 -0.5517 -0.6304
 5944SOL    HW219317   4.407   1.923   1.619 -0.9154  0.9568 -0.0508
 5945SOL     OW19318   1.496   2.224   8.302  0.0524 -0.2199  0.3797
 5945SOL    HW119319   1.514   2.149   8.245 -1.5850  0.5468 -1.2071
 5945SOL    HW219320   1.495   2.299   8.242  0.8531  0.9628  1.8262
 5946SOL     OW19321   3.855   7.394   1.185  0.8349 -0.6261 -0.4609
 5946SOL    HW119322   3.880   7.428   1.099  1.2005  0.1684 -0.0458
 5946SOL    HW219323   3.917   7.322   1.201  0.5656 -0.9857 -0.9899
 5947SOL     OW19324   3.688   1.342   3.733  0.0401  0.4617 -0.0738
 5947SOL    HW119325   3.762   1.303   3.779 -1.4333 -0.3534  1.6910
 5947SOL    HW219326   3.671   1.424   3.779  0.7734  1.3991 -1.4313
 5948SOL     OW19327   0.398   6.896   1.475  0.0810  0.1132  0.0178
 5948SOL    HW119328   0.485   6.857   1.460 -1.2154 -2.3183 -1.5727
 5948SOL    HW219329   0.354   6.834   1.533 -0.8350  1.0043  0.2866
 5949SOL     OW19330   4.166   3.945   4.510  0.4576  0.2717  0.1177
 5949SOL    HW119331   4.153   3.853   4.485  1.0239 -0.1618  1.4093
 5949SOL    HW219332   4.107   3.994   4.452 -1.0092 -1.0307  0.4905
 5950SOL     OW19333   2.325   4.579   4.891 -0.4919 -0.5386  0.1594
 5950SOL    HW119334   2.403   4.599   4.942 -0.1766 -0.8207 -0.2075
 5950SOL    HW219335   2.350   4.504   4.837 -0.7546 -0.1174 -0.5609
 5951SOL     OW19336   2.830   3.633   3.700  0.1147  0.3515 -0.0734
 5951SOL    HW119337   2.769   3.587   3.642 -0.7505  2.1340 -0.6142
 5951SOL    HW219338   2.843   3.572   3.773  2.0750 -2.4088 -2.5761
 5952SOL     OW19339   7.650   3.413   0.452  0.4930 -0.2711 -0.4239
 5952SOL    HW119340   7.561   3.377   0.461  0.5629 -0.2412  0.4108
 5952SOL    HW219341   7.637   3.499   0.412  0.0539  0.2307  0.7912
 5953SOL     OW19342   6.826   3.982   1.817 -0.1829 -0.3326  0.3915
 5953SOL    HW119343   6.781   4.047   1.872 -0.6526 -0.8885  0.6647
 5953SOL    HW219344   6.915   3.980   1.851 -0.6667 -1.2248  1.6248
 5954SOL     OW19345   2.522   7.934   2.320  0.7114 -0.2291  0.1773
 5954SOL    HW119346   2.618   7.929   2.324  0.6234 -3.8590 -0.6871
 5954SOL    HW219347   2.494   7.900   2.405  0.1843  3.0947  1.3779
 5955SOL     OW19348   8.161   7.439   1.819  0.3533  0.5426  0.0662
 5955SOL    HW119349   8.151   7.524   1.862  1.5025  0.8738 -0.3139
 5955SOL    HW219350   8.071   7.410   1.804 -0.0718  0.7091  2.0995
 5956SOL     OW19351   2.541   7.875   5.165 -0.3653 -0.2775 -0.3422
 5956SOL    HW119352   2.585   7.791   5.179  1.3094  0.7641  0.8461
 5956SOL    HW219353   2.611   7.934   5.137 -1.3024  1.0141 -0.0184
 5957SOL     OW19354   4.742   2.862   1.706 -0.7493 -0.5103  0.1665
 5957SOL    HW119355   4.836   2.852   1.721 -0.3682  2.6719  0.1101
 5957SOL    HW219356   4.702   2.846   1.791  0.0593  0.7250  0.7814
 5958SOL     OW19357   0.648   2.581   8.129  0.0302 -0.0440 -0.0794
 5958SOL    HW119358   0.568   2.616   8.087 -0.3666 -0.7178  0.1072
 5958SOL    HW219359   0.657   2.493   8.092  1.2980  0.4327 -0.9154
 5959SOL     OW19360   6.710   8.020   0.533  0.0224 -0.4465 -0.4062
 5959SOL    HW119361   6.732   8.056   0.619  1.6251 -0.7745 -0.6509
 5959SOL    HW219362   6.651   7.948   0.551  1.4251 -1.3898  0.5505
 5960SOL     OW19363   0.820   7.234   1.316  0.2906  0.7492  0.1756
 5960SOL    HW119364   0.798   7.305   1.255 -1.2243 -0.9941 -1.3852
 5960SOL    HW219365   0.892   7.188   1.274 -1.4811 -1.1221 -0.9060
 5961SOL     OW19366   1.258   0.018   4.143 -0.4551  0.1019  0.2058
 5961SOL    HW119367   1.239  -0.075   4.151  0.4657 -0.1470 -0.4120
 5961SOL    HW219368   1.176   0.062   4.167 -1.5710 -0.9202 -1.6276
 5962SOL     OW19369   4.425   5.015   3.503  0.0165 -0.0408  0.0046
 5962SOL    HW119370   4.352   4.982   3.452 -0.5064 -1.8137  1.8432
 5962SOL    HW219371   4.395   5.100   3.536  0.3286  1.0841 -2.4867
 5963SOL     OW19372   5.575   5.481   7.295  0.0924  0.1249 -0.1340
 5963SOL    HW119373   5.535   5.519   7.374  1.1592  1.1308 -0.0626
 5963SOL    HW219374   5.581   5.388   7.314 -2.0531 -0.0217 -0.0790
 5964SOL     OW19375   1.931   1.535   2.711 -0.0522 -0.4879  0.5895
 5964SOL    HW119376   1.864   1.503   2.771  1.9928 -1.8429  2.2163
 5964SOL    HW219377   1.972   1.456   2.676  0.5110  0.3200 -0.6130
 5965SOL     OW19378   5.900   5.442   0.951 -0.4003 -0.1340 -0.6587
 5965SOL    HW119379   5.899   5.347   0.958 -2.0228 -0.0534  0.6864
 5965SOL    HW219380   5.809   5.466   0.934  0.0510  1.1555 -1.3389
 5966SOL     OW19381   3.153   7.585   4.190 -0.8351  0.2963 -0.4971
 5966SOL    HW119382   3.206   7.528   4.246 -1.6716 -0.8996 -0.8874
 5966SOL    HW219383   3.070   7.596   4.237 -1.4530 -0.5216 -1.3664
 5967SOL     OW19384   4.999   5.156   0.946  0.6722  0.0378  0.0513
 5967SOL    HW119385   4.988   5.212   1.022 -1.7777  0.2038 -0.3938
 5967SOL    HW219386   4.945   5.197   0.878  0.5644 -1.6794 -0.9269
 5968SOL     OW19387   5.343   0.920   5.121  0.3160 -0.5367 -0.5902
 5968SOL    HW119388   5.248   0.926   5.116  0.2593 -0.3475  0.5906
 5968SOL    HW219389   5.375   0.987   5.060 -0.3166  1.5202  1.3018
 5969SOL     OW19390   5.517   4.689   1.107 -0.2129  0.5273 -0.2331
 5969SOL    HW119391   5.581   4.745   1.062 -0.2025 -0.2953 -1.2640
 5969SOL    HW219392   5.549   4.682   1.197 -0.4397  2.5079  0.0082
 5970SOL     OW19393   6.341   0.353   3.532  0.4459 -0.0135  0.0080
 5970SOL    HW119394   6.347   0.359   3.628  0.6471 -1.8332  0.1199
 5970SOL    HW219395   6.428   0.325   3.505  0.5152  0.9177 -0.7617
 5971SOL     OW19396   0.986   2.401   1.346  0.1260  0.0895 -0.1471
 5971SOL    HW119397   0.895   2.369   1.354 -0.5624  1.9539 -0.3505
 5971SOL    HW219398   0.977   2.487   1.304  1.8934  0.8931  1.1136
 5972SOL     OW19399   1.556   3.338   7.187  0.2382  0.4938 -0.1522
 5972SOL    HW119400   1.565   3.243   7.194 -0.5034  0.2875 -1.7190
 5972SOL    HW219401   1.586   3.372   7.272  2.4040 -1.0036 -0.2855
 5973SOL     OW19402   5.306   5.005   7.237 -0.1415  0.1521  0.2686
 5973SOL    HW119403   5.224   4.970   7.203 -0.4486  2.3079 -1.3378
 5973SOL    HW219404   5.374   4.955   7.192 -0.5455 -1.4117  1.3606
 5974SOL     OW19405   8.019   3.665   1.165  0.3594 -0.6701  0.5958
 5974SOL    HW119406   8.061   3.741   1.126 -1.6074 -0.2362 -0.7890
 5974SOL    HW219407   8.080   3.593   1.150  1.0391  0.1191 -0.5185
 5975SOL     OW19408   5.798   8.265   5.043 -0.0792  0.3217  0.8935
 5975SOL    HW119409   5.864   8.198   5.023  0.2762  0.6853  0.8482
 5975SOL    HW219410   5.845   8.348   5.036 -0.7417  0.6278  0.0269
 5976SOL     OW19411   0.520   5.484   1.499 -0.5960 -0.3614 -0.4653
 5976SOL    HW119412   0.433   5.496   1.461 -0.5109 -1.2023 -0.9532
 5976SOL    HW219413   0.579   5.524   1.436 -0.4241 -2.0719 -1.4348
 5977SOL     OW19414   1.000   3.298   3.574  0.6390 -0.4656 -0.4304
 5977SOL    HW119415   0.933   3.240   3.610  0.0654  0.9265  0.8131
 5977SOL    HW219416   1.063   3.239   3.533 -1.3848 -1.8153 -1.7417
 5978SOL     OW19417   2.880   7.245   5.310 -0.5058  0.2226  0.3360
 5978SOL    HW119418   2.962   7.205   5.338  0.1129  0.4716 -1.0928
 5978SOL    HW219419   2.826   7.244   5.389  0.7787 -0.1425  1.2430
 5979SOL     OW19420   7.960   3.002   1.090  0.3830  0.3397 -0.2934
 5979SOL    HW119421   7.905   2.981   1.015  0.0325 -1.4655  0.4444
 5979SOL    HW219422   8.047   3.017   1.053 -0.1950  1.3563 -1.2571
 5980SOL     OW19423   2.475   4.916   6.963 -0.1253  0.7378 -0.2581
 5980SOL    HW119424   2.531   4.971   7.017 -0.3165  0.8890 -0.2146
 5980SOL    HW219425   2.421   4.977   6.913 -0.3528  0.5937 -0.1930
 5981SOL     OW19426   2.261   3.706   6.612  0.2907  0.6789  0.3067
 5981SOL    HW119427   2.275   3.720   6.706  0.5627  0.0933  0.3574
 5981SOL    HW219428   2.328   3.759   6.570  0.2916  0.7917  0.4506
 5982SOL     OW19429   1.891   0.681   7.784  1.0469  0.3387  0.2288
 5982SOL    HW119430   1.849   0.765   7.804  0.5630  0.4755 -1.2485
 5982SOL    HW219431   1.819   0.625   7.757  1.7347  0.4527 -1.9654
 5983SOL     OW19432   1.212   0.713   6.590 -0.1214  0.2461 -0.5566
 5983SOL    HW119433   1.148   0.708   6.662 -0.6135 -0.7522 -1.0558
 5983SOL    HW219434   1.189   0.640   6.533  1.7075 -0.3339 -0.5658
 5984SOL     OW19435   0.371   6.313   5.790 -0.4542  0.3744 -0.4393
 5984SOL    HW119436   0.458   6.332   5.755 -0.5821 -0.1836 -1.0725
 5984SOL    HW219437   0.372   6.350   5.878  0.4993  0.1868 -0.3628
 5985SOL     OW19438   1.535   3.169   4.379  0.6385 -1.1291 -0.1466
 5985SOL    HW119439   1.476   3.123   4.320  0.4648  0.3055 -1.1301
 5985SOL    HW219440   1.595   3.216   4.321  0.4704  0.3006  0.8004
 5986SOL     OW19441   0.463   1.678   6.328  0.8498 -0.9918  0.2910
 5986SOL    HW119442   0.539   1.733   6.309  0.7001 -0.3017  1.6584
 5986SOL    HW219443   0.453   1.624   6.250  1.6173  0.2070 -0.6554
 5987SOL     OW19444   6.747   1.921   6.720  0.6977  0.2901 -0.3974
 5987SOL    HW119445   6.825   1.975   6.733  1.1405 -0.3622 -0.3435
 5987SOL    HW219446   6.746   1.860   6.793  2.0271 -1.9574 -2.1633
 5988SOL     OW19447   1.660   5.673   0.101 -0.2816 -0.5072  0.6852
 5988SOL    HW119448   1.624   5.688   0.013  0.3546 -0.7275  0.3818
 5988SOL    HW219449   1.734   5.733   0.107  0.0441 -0.9218  0.8401
 5989SOL     OW19450   0.226   7.974   3.080  0.5147  0.4164 -0.3486
 5989SOL    HW119451   0.293   8.038   3.055 -0.1695  1.4651  0.4478
 5989SOL    HW219452   0.199   8.000   3.168 -0.4198 -0.4331 -0.3712
 5990SOL     OW19453   1.853   4.711   4.344  0.2049  0.1785  0.0331
 5990SOL    HW119454   1.758   4.719   4.335  0.1793 -1.0188 -0.8595
 5990SOL    HW219455   1.877   4.779   4.406 -1.1165  1.1340 -0.4846
 5991SOL     OW19456   4.297   3.168   7.158  0.3143 -0.6269 -0.1648
 5991SOL    HW119457   4.378   3.213   7.184  0.7407 -1.0578 -0.7625
 5991SOL    HW219458   4.235   3.239   7.142  0.5852 -0.2928  0.2330
 5992SOL     OW19459   1.369   6.276   0.519  0.3009 -0.0716 -0.0746
 5992SOL    HW119460   1.368   6.371   0.533  1.6800  0.0767 -0.8552
 5992SOL    HW219461   1.454   6.248   0.553  0.8328 -0.7024 -1.8537
 5993SOL     OW19462   6.859   6.467   7.989  0.8027  0.5920 -0.1580
 5993SOL    HW119463   6.826   6.487   8.076 -0.1084  1.4496 -0.6936
 5993SOL    HW219464   6.842   6.374   7.977 -1.0774  0.9339 -0.2678
 5994SOL     OW19465   0.192   7.121   4.735 -0.6276 -0.1289 -0.1668
 5994SOL    HW119466   0.239   7.167   4.805 -0.6429 -0.3052 -0.0386
 5994SOL    HW219467   0.187   7.184   4.664 -0.4639 -0.0040 -0.0691
 5995SOL     OW19468   6.514   5.528   6.740  0.2490  0.2132  0.5718
 5995SOL    HW119469   6.464   5.477   6.804 -0.0807  0.8969  0.8750
 5995SOL    HW219470   6.465   5.518   6.658 -1.0448  1.7831  1.1130
 5996SOL     OW19471   4.034   3.418   7.852  0.1604 -0.0476  0.0938
 5996SOL    HW119472   4.034   3.513   7.851 -0.2757 -0.0455 -1.5506
 5996SOL    HW219473   4.106   3.394   7.909  1.3850  1.2736 -0.8695
 5997SOL     OW19474   6.465   1.007   1.980 -0.5104  0.3442  0.3099
 5997SOL    HW119475   6.504   0.997   2.067 -0.7327 -0.2140  0.3497
 5997SOL    HW219476   6.394   0.944   1.978 -1.4416  1.3905  0.2375
 5998SOL     OW19477   4.492   4.511   6.327  0.3310  0.0351 -0.0371
 5998SOL    HW119478   4.543   4.587   6.357 -2.5973  2.5296 -1.0643
 5998SOL    HW219479   4.431   4.548   6.263  0.4234 -3.6593 -2.3898
 5999SOL     OW19480   6.357   3.599   3.670 -0.0860 -0.2459  0.1486
 5999SOL    HW119481   6.299   3.669   3.698 -0.2471 -0.1157 -0.5062
 5999SOL    HW219482   6.406   3.636   3.596 -0.2027 -0.8371 -0.2258
 6000SOL     OW19483   0.621   4.425   7.605  0.0908  0.5696  0.2457
 6000SOL    HW119484   0.544   4.421   7.548  0.7605  1.2979 -0.7369
 6000SOL    HW219485   0.605   4.358   7.671 -0.9468  0.0566 -0.4982
 6001SOL     OW19486   8.223   3.056   0.058 -0.4670  0.0278  0.4887
 6001SOL    HW119487   8.180   3.076  -0.025  0.0456  0.6830  0.3662
 6001SOL    HW219488   8.158   3.078   0.125 -0.3669  0.9265  0.3058
 6002SOL     OW19489   1.952   1.656   5.475  0.2741 -0.2272 -0.7433
 6002SOL    HW119490   1.881   1.634   5.415  0.2933 -0.1383 -0.8005
 6002SOL    HW219491   2.018   1.589   5.460 -0.1844 -0.8475 -0.0231
 6003SOL     OW19492   4.602   5.512   7.170 -0.6680 -0.2091 -0.0725
 6003SOL    HW119493   4.644   5.446   7.226 -1.3081 -0.1351  0.5048
 6003SOL    HW219494   4.639   5.496   7.083 -0.4207 -0.9888  0.1637
 6004SOL     OW19495   6.530   7.587   3.959 -0.2032 -0.1679 -0.0497
 6004SOL    HW119496   6.553   7.588   4.052 -0.7020 -0.9398  0.0911
 6004SOL    HW219497   6.610   7.611   3.913 -0.2619  1.3783  0.6379
 6005SOL     OW19498   5.239   3.582   2.843  0.4180  0.3855  0.0463
 6005SOL    HW119499   5.158   3.633   2.843 -0.1815 -0.5625  0.1091
 6005SOL    HW219500   5.222   3.510   2.904  1.7114  0.8150  0.9303
 6006SOL     OW19501   4.033   2.974   5.435  0.7376 -0.0291  0.0289
 6006SOL    HW119502   4.005   2.987   5.526  1.7687  1.7528  0.1038
 6006SOL    HW219503   3.962   3.011   5.383  0.1696 -1.0053  0.1030
 6007SOL     OW19504   4.784   1.133   5.691  0.2555 -0.7913 -0.3024
 6007SOL    HW119505   4.717   1.181   5.740 -0.0124 -0.6040 -0.8453
 6007SOL    HW219506   4.862   1.138   5.746  0.5220  1.1533 -0.7808
 6008SOL     OW19507   6.869   7.503   7.283  0.0790  0.4148 -0.0967
 6008SOL    HW119508   6.939   7.468   7.338  1.1856  1.2878 -0.9225
 6008SOL    HW219509   6.821   7.563   7.340 -1.1768 -1.5905  1.0175
 6009SOL     OW19510   7.606   2.068   3.848 -0.7914 -0.7007  0.3718
 6009SOL    HW119511   7.617   1.991   3.903  2.7785 -0.8189 -0.3541
 6009SOL    HW219512   7.639   2.041   3.762 -0.9078  1.1857 -0.2907
 6010SOL     OW19513   8.281   7.035   6.090 -0.7693  0.4110  0.4855
 6010SOL    HW119514   8.347   7.069   6.030 -0.8251  0.2695  0.3440
 6010SOL    HW219515   8.330   6.999   6.163 -0.5748 -1.7167 -0.6411
 6011SOL     OW19516   0.316   4.116   2.621 -0.0487 -0.0750 -0.5291
 6011SOL    HW119517   0.392   4.173   2.632  0.1018 -0.3479 -0.1630
 6011SOL    HW219518   0.339   4.036   2.668 -0.7846  0.0477  0.0351
 6012SOL     OW19519   3.967   8.269   3.538 -0.3439  0.3977 -0.4967
 6012SOL    HW119520   3.915   8.283   3.459  1.6150  1.3846 -1.6291
 6012SOL    HW219521   3.902   8.247   3.605 -2.0971  0.2640 -2.1908
 6013SOL     OW19522   3.857   1.021   3.247 -0.1317  0.1173  0.4583
 6013SOL    HW119523   3.839   1.005   3.339  2.0967 -2.8242  0.4748
 6013SOL    HW219524   3.797   0.963   3.200  1.2749 -1.1979  0.2227
 6014SOL     OW19525   4.957   8.301   5.552  0.1479  0.1071  0.3223
 6014SOL    HW119526   4.978   8.392   5.533 -0.2520  0.2879  0.7503
 6014SOL    HW219527   4.871   8.287   5.513  0.5257 -0.2897 -0.3672
 6015SOL     OW19528   4.583   1.342   5.652 -0.6146  0.2873 -0.9169
 6015SOL    HW119529   4.530   1.420   5.637  0.0239  0.8081 -0.5059
 6015SOL    HW219530   4.523   1.269   5.638 -1.2540  0.8542 -1.1621
 6016SOL     OW19531   4.894   7.906   3.122  0.0300 -0.1078 -0.0328
 6016SOL    HW119532   4.938   7.981   3.163  0.3429  0.3641 -1.2134
 6016SOL    HW219533   4.904   7.835   3.185 -0.3649  0.8719  1.1552
 6017SOL     OW19534   6.498   4.242   7.147  0.3098  0.7001 -0.0325
 6017SOL    HW119535   6.559   4.195   7.204 -0.3039  0.0200  0.0580
 6017SOL    HW219536   6.453   4.303   7.204  0.0155  0.3315  0.1298
 6018SOL     OW19537   1.478   3.153   0.625  0.2091 -0.4564  0.1693
 6018SOL    HW119538   1.514   3.236   0.592  0.1845 -0.3652  0.3695
 6018SOL    HW219539   1.467   3.099   0.547 -0.4380 -0.0167 -0.0475
 6019SOL     OW19540   7.043   4.996   5.004  0.4970 -0.5735 -0.4100
 6019SOL    HW119541   6.965   4.953   4.969  0.5928 -1.1287  0.0484
 6019SOL    HW219542   7.115   4.937   4.981  0.4775 -1.3062  1.3180
 6020SOL     OW19543   0.270   0.581   2.740 -0.0479  0.1355  0.1739
 6020SOL    HW119544   0.203   0.513   2.747  1.1365 -0.9752  1.0876
 6020SOL    HW219545   0.320   0.558   2.662 -0.1409  0.4141  0.0316
 6021SOL     OW19546   2.593   6.027   1.901 -0.0343 -0.1955  0.1914
 6021SOL    HW119547   2.558   5.949   1.858 -0.3306  0.9405 -1.6624
 6021SOL    HW219548   2.518   6.087   1.907 -0.2545 -0.6906  3.2197
 6022SOL     OW19549   1.077   0.903   7.443 -0.2082 -0.2474  0.9394
 6022SOL    HW119550   1.061   0.885   7.350  1.2457 -0.1352  0.6673
 6022SOL    HW219551   1.144   0.971   7.443  1.3566 -1.7719  2.1087
 6023SOL     OW19552   5.886   1.857   2.829  0.0957  0.2741 -0.5865
 6023SOL    HW119553   5.958   1.898   2.782  1.0918  0.4403  1.0269
 6023SOL    HW219554   5.818   1.925   2.832  0.4451  0.6383 -0.8313
 6024SOL     OW19555   0.208   3.930   1.141  0.6594  0.4220  0.0868
 6024SOL    HW119556   0.204   3.975   1.225 -0.1546  0.1638  0.1921
 6024SOL    HW219557   0.162   3.988   1.080 -0.2433 -0.1678  0.1891
 6025SOL     OW19558   3.760   4.234   7.356  0.4000  0.1135  0.3197
 6025SOL    HW119559   3.855   4.227   7.364  0.2817 -1.4560  0.5262
 6025SOL    HW219560   3.735   4.304   7.416  1.3058 -0.2176  1.0787
 6026SOL     OW19561   7.169   6.685   0.845  0.4139  0.4799  0.2814
 6026SOL    HW119562   7.218   6.632   0.907 -0.1965 -0.3733  0.0384
 6026SOL    HW219563   7.229   6.696   0.770  0.9768  1.1331  0.8091
 6027SOL     OW19564   4.468   1.284   4.486  0.4822 -0.2571  0.2625
 6027SOL    HW119565   4.520   1.237   4.421  2.1101 -0.0424  1.3864
 6027SOL    HW219566   4.403   1.332   4.434  0.5752 -1.5297 -1.0747
 6028SOL     OW19567   7.219   3.660   6.783  0.2372 -0.7170  0.1167
 6028SOL    HW119568   7.204   3.752   6.760  2.1451 -0.6668 -1.0115
 6028SOL    HW219569   7.275   3.627   6.713  1.0702 -2.2471  1.4908
 6029SOL     OW19570   2.777   5.210   6.199  0.2847 -0.5696  0.1824
 6029SOL    HW119571   2.726   5.225   6.278 -1.1341 -0.9515 -0.6426
 6029SOL    HW219572   2.865   5.244   6.220 -0.4318  0.5495  1.4412
 6030SOL     OW19573   6.969   3.541   0.516 -0.4709 -0.4829 -0.1979
 6030SOL    HW119574   7.054   3.553   0.558 -0.4435 -0.9711 -0.1068
 6030SOL    HW219575   6.917   3.492   0.581 -0.6727 -0.5745 -0.4281
 6031SOL     OW19576   7.044   6.287   3.172 -0.4067 -0.5468  0.1414
 6031SOL    HW119577   7.075   6.273   3.083 -0.7291  1.7804 -0.3620
 6031SOL    HW219578   6.969   6.228   3.181 -0.5815 -0.5422 -1.2307
 6032SOL     OW19579   2.673   5.573   7.976 -0.1447 -0.1968  0.1299
 6032SOL    HW119580   2.758   5.530   7.962 -0.1577  0.1858 -1.1633
 6032SOL    HW219581   2.620   5.507   8.020  0.2731 -1.0240 -0.5974
 6033SOL     OW19582   6.050   8.156   8.195  0.0926  0.3570  0.1612
 6033SOL    HW119583   5.964   8.157   8.152  0.4683 -1.7628 -0.6675
 6033SOL    HW219584   6.112   8.175   8.125  0.5293 -0.9892  0.1707
 6034SOL     OW19585   7.281   1.102   6.209  0.6799  0.7141 -0.0523
 6034SOL    HW119586   7.329   1.121   6.289  1.1201 -0.4065 -0.0492
 6034SOL    HW219587   7.342   1.052   6.155 -1.4023 -3.3990  1.1849
 6035SOL     OW19588   5.148   7.860   6.085 -0.3648 -0.1593 -0.3934
 6035SOL    HW119589   5.117   7.815   6.006  0.5284 -0.3566 -0.6299
 6035SOL    HW219590   5.173   7.947   6.055  1.0977 -0.6301 -0.5390
 6036SOL     OW19591   4.099   6.177   8.132  0.0609  0.1147  0.3183
 6036SOL    HW119592   4.097   6.273   8.130 -1.0833  0.1520  1.9460
 6036SOL    HW219593   4.066   6.154   8.219 -0.3665 -1.7797 -0.3108
 6037SOL     OW19594   3.948   1.263   0.769 -0.9623  0.0954 -0.4206
 6037SOL    HW119595   3.863   1.255   0.725 -0.7355 -0.4680 -0.7641
 6037SOL    HW219596   3.996   1.184   0.743 -1.3611 -0.9906  1.9879
 6038SOL     OW19597   7.325   0.624   4.738 -0.6262  0.5928  0.1526
 6038SOL    HW119598   7.352   0.569   4.812 -3.1493 -1.9466 -0.7208
 6038SOL    HW219599   7.230   0.634   4.749 -0.9400  0.7381 -2.3705
 6039SOL     OW19600   5.634   7.464   6.002  0.1233 -0.6623 -0.2959
 6039SOL    HW119601   5.612   7.552   6.033  0.8176 -0.3620 -0.6341
 6039SOL    HW219602   5.696   7.431   6.067  1.0735 -0.2851 -0.9861
 6040SOL     OW19603   8.127   4.121   0.941  0.0330 -0.4759 -0.1439
 6040SOL    HW119604   8.154   4.103   0.851  0.1416  1.0267 -0.4323
 6040SOL    HW219605   8.036   4.148   0.934  0.8171  2.3641 -0.1862
 6041SOL     OW19606   1.685   7.588   6.410 -0.0488 -0.1051 -0.1313
 6041SOL    HW119607   1.608   7.637   6.438  0.0187 -0.1366  0.1164
 6041SOL    HW219608   1.650   7.503   6.381 -0.1986  0.2129 -0.8844
 6042SOL     OW19609   3.337   5.720   4.306  0.7476  0.1609  1.0469
 6042SOL    HW119610   3.260   5.777   4.307  1.6128  1.4244 -1.1093
 6042SOL    HW219611   3.319   5.657   4.237  0.7836 -0.8251  1.9220
 6043SOL     OW19612   6.498   3.517   4.767  0.3095  0.4590  0.2081
 6043SOL    HW119613   6.462   3.590   4.816 -1.2327 -0.0312 -0.1809
 6043SOL    HW219614   6.429   3.452   4.765  1.8097 -1.2027  0.9034
 6044SOL     OW19615   1.405   6.434   1.684 -0.0279 -0.0588  0.2243
 6044SOL    HW119616   1.460   6.455   1.760  0.4271  1.6073 -0.5481
 6044SOL    HW219617   1.316   6.452   1.714  0.2011  1.1651  0.1773
 6045SOL     OW19618   6.641   7.651   5.884 -0.7688  0.1678  0.1577
 6045SOL    HW119619   6.634   7.631   5.790  0.1524 -1.2800  0.3909
 6045SOL    HW219620   6.571   7.600   5.924 -0.2593 -0.3326  0.4160
 6046SOL     OW19621   7.955   6.002   7.223  0.6826 -0.3200 -0.0904
 6046SOL    HW119622   8.037   5.999   7.272  0.3099  1.3267  0.6520
 6046SOL    HW219623   7.938   6.095   7.209  0.5588 -0.7241 -3.0176
 6047SOL     OW19624   6.384   1.751   6.829 -0.3494  0.4935  0.0863
 6047SOL    HW119625   6.444   1.681   6.805 -2.8823 -1.7265  0.0334
 6047SOL    HW219626   6.323   1.757   6.756  0.3986  3.4523 -0.3575
 6048SOL     OW19627   1.122   2.409   8.218 -0.1211  0.0618  0.1506
 6048SOL    HW119628   1.048   2.469   8.214 -0.0744  0.3338  2.7065
 6048SOL    HW219629   1.198   2.466   8.229  0.0443 -0.4216  1.5006
 6049SOL     OW19630   7.871   6.486   1.339  0.4289 -0.1510  0.0324
 6049SOL    HW119631   7.893   6.518   1.251  0.2934  2.3025  0.8470
 6049SOL    HW219632   7.953   6.454   1.375  0.8191  0.3934 -0.3727
 6050SOL     OW19633   6.289   0.347   5.979  0.4470  0.2706 -0.3719
 6050SOL    HW119634   6.371   0.395   5.979  0.0216  1.0345 -1.4864
 6050SOL    HW219635   6.255   0.358   5.890 -1.6837  1.4187  0.5373
 6051SOL     OW19636   4.835   7.362   5.848 -0.1188 -0.5511 -0.0165
 6051SOL    HW119637   4.777   7.437   5.861  0.1782 -0.5127  1.1522
 6051SOL    HW219638   4.915   7.399   5.812  0.3073 -0.1933  1.2674
 6052SOL     OW19639   0.533   5.626   5.567  0.3236  0.0573 -0.6690
 6052SOL    HW119640   0.549   5.542   5.523 -2.7981 -1.1449  0.3134
 6052SOL    HW219641   0.440   5.644   5.550  0.3293  2.0586  1.2336
 6053SOL     OW19642   6.474   0.416   6.362  0.0365  0.0581  0.1289
 6053SOL    HW119643   6.491   0.459   6.446  0.5029 -1.0779  0.6296
 6053SOL    HW219644   6.378   0.405   6.360 -0.0973  1.2389 -0.0707
 6054SOL     OW19645   1.525   8.283   3.465 -0.1041  0.1289  0.3477
 6054SOL    HW119646   1.538   8.222   3.537 -1.3805  0.3647  0.7967
 6054SOL    HW219647   1.517   8.369   3.507 -0.0891  0.3693 -0.1365
 6055SOL     OW19648   5.636   5.292   1.703 -0.0648  0.6982 -0.4249
 6055SOL    HW119649   5.559   5.284   1.759 -1.5976  4.6666 -1.7330
 6055SOL    HW219650   5.600   5.299   1.614  2.0243 -0.8197 -1.4149
 6056SOL     OW19651   0.149   5.009   0.522  0.2233 -0.2799 -0.4655
 6056SOL    HW119652   0.069   5.008   0.470  1.0483  0.2866 -1.7962
 6056SOL    HW219653   0.188   5.095   0.505  0.4372 -0.0304  1.2274
 6057SOL     OW19654   4.681   0.745   5.302  0.2045 -0.0075  0.0813
 6057SOL    HW119655   4.597   0.699   5.304 -0.8234  1.7634 -1.1546
 6057SOL    HW219656   4.699   0.758   5.209  0.8064  1.4737  0.3923
 6058SOL     OW19657   3.268   1.819   5.980  0.2414 -0.0421 -0.5496
 6058SOL    HW119658   3.241   1.905   5.949 -0.1355 -0.4489 -1.3811
 6058SOL    HW219659   3.296   1.833   6.070 -0.6939  0.7803 -0.3850
 6059SOL     OW19660   0.659   0.876   3.297 -0.6130  0.1977 -0.1752
 6059SOL    HW119661   0.720   0.885   3.223 -0.0915  0.4124  0.2759
 6059SOL    HW219662   0.655   0.782   3.313 -1.1170  0.1078 -0.7957
 6060SOL     OW19663   5.490   1.916   5.520  0.1113 -0.4955 -0.3465
 6060SOL    HW119664   5.516   1.900   5.610 -0.4981  0.2555 -0.0318
 6060SOL    HW219665   5.405   1.960   5.526 -0.7288 -1.9266 -1.3257
 6061SOL     OW19666   0.722   3.913   1.433 -0.5286 -0.4705  0.6485
 6061SOL    HW119667   0.710   3.979   1.364 -2.9422 -0.3333  1.1723
 6061SOL    HW219668   0.794   3.858   1.400  0.2912  1.3024 -0.6348
 6062SOL     OW19669   6.797   7.950   1.482  0.0532  0.4380 -0.1752
 6062SOL    HW119670   6.766   7.860   1.480  0.5500  0.2119  1.3987
 6062SOL    HW219671   6.719   8.003   1.499 -0.1639  0.2570 -0.6239
 6063SOL     OW19672   5.483   2.275   0.292  0.1916  0.2743 -0.2108
 6063SOL    HW119673   5.391   2.292   0.274  0.1957 -0.4883 -1.0021
 6063SOL    HW219674   5.511   2.217   0.221  0.8512 -0.7960  0.8925
 6064SOL     OW19675   0.969   5.292   6.495  0.0219 -0.3232 -0.7753
 6064SOL    HW119676   0.898   5.357   6.496 -1.1216 -1.5407  1.0337
 6064SOL    HW219677   0.926   5.210   6.472  1.4025 -0.5368 -2.7105
 6065SOL     OW19678   4.956   5.648   4.762  0.2580 -0.0187  0.4811
 6065SOL    HW119679   4.894   5.637   4.834 -0.3671 -1.6897 -0.3101
 6065SOL    HW219680   5.003   5.565   4.758  0.8158  0.3399 -0.5572
 6066SOL     OW19681   6.385   3.631   4.218 -0.2287  0.4797  0.0228
 6066SOL    HW119682   6.479   3.641   4.235  0.1052  0.8377 -1.8853
 6066SOL    HW219683   6.343   3.659   4.299  1.2690  1.8316  0.3621
 6067SOL     OW19684   5.129   1.230   7.873 -0.0741  0.3699  0.2964
 6067SOL    HW119685   5.079   1.298   7.828 -0.5169  0.7142  1.2983
 6067SOL    HW219686   5.063   1.170   7.908  0.3348 -0.9726 -1.1758
 6068SOL     OW19687   0.535   7.314   2.791  0.4376 -0.3017 -0.3277
 6068SOL    HW119688   0.462   7.371   2.818  1.1608  0.6042 -0.2443
 6068SOL    HW219689   0.548   7.334   2.698 -0.8186 -2.0472 -0.9090
 6069SOL     OW19690   5.701   1.049   7.538  0.4143  0.3049 -0.2287
 6069SOL    HW119691   5.696   1.138   7.503  0.0394  0.0434 -0.8439
 6069SOL    HW219692   5.622   1.006   7.506  1.7613 -0.9705 -1.9691
 6070SOL     OW19693   5.066   0.342   6.089 -0.1339 -0.2217 -0.1900
 6070SOL    HW119694   5.087   0.396   6.165  0.1745 -2.1380  1.1212
 6070SOL    HW219695   5.048   0.255   6.126 -1.4599 -0.8116 -2.1610
 6071SOL     OW19696   7.720   8.113   7.930 -0.1274  0.1345  0.2253
 6071SOL    HW119697   7.811   8.084   7.926 -0.2352 -0.4116  1.6037
 6071SOL    HW219698   7.684   8.088   7.844  0.9961  0.3148 -0.3100
 6072SOL     OW19699   3.720   8.103   3.172 -0.2763 -0.2411 -0.0805
 6072SOL    HW119700   3.773   8.068   3.100  1.4103  0.4394  0.8047
 6072SOL    HW219701   3.640   8.135   3.130  1.0318  0.9092 -1.7743
 6073SOL     OW19702   6.925   7.855   0.727  0.0443  0.3827 -0.5442
 6073SOL    HW119703   7.014   7.872   0.757 -0.0065  1.1798 -0.8168
 6073SOL    HW219704   6.876   7.933   0.753 -1.4579 -1.6330  3.0011
 6074SOL     OW19705   0.173   2.967   7.584  1.3210 -0.3400  0.0082
 6074SOL    HW119706   0.194   2.955   7.491  1.0729 -1.9847  0.1528
 6074SOL    HW219707   0.256   2.953   7.629  0.7528 -2.9700  0.2834
 6075SOL     OW19708   0.550   2.189   4.137  0.3239 -0.0291  0.2683
 6075SOL    HW119709   0.643   2.176   4.156  0.9763  2.0816 -1.2996
 6075SOL    HW219710   0.537   2.283   4.145 -2.4673 -0.5986  3.7247
 6076SOL     OW19711   2.249   1.368   7.034 -0.5185 -0.1379 -0.0143
 6076SOL    HW119712   2.329   1.328   6.999  0.0264  1.0156 -0.0924
 6076SOL    HW219713   2.227   1.437   6.971 -1.3807 -0.2140  0.1979
 6077SOL     OW19714   2.793   2.926   1.067 -0.0170  0.2124 -0.2315
 6077SOL    HW119715   2.869   2.888   1.111  0.8655  2.8738  0.6071
 6077SOL    HW219716   2.823   2.941   0.977  0.1586  0.4079 -0.1414
 6078SOL     OW19717   7.064   7.221   5.210  0.4669  0.0947 -0.6512
 6078SOL    HW119718   7.087   7.129   5.222  0.7964  0.3450  0.7548
 6078SOL    HW219719   7.133   7.256   5.154  0.5056 -0.4351 -0.9392
 6079SOL     OW19720   3.069   2.538   7.663 -0.1400 -0.2020  0.3299
 6079SOL    HW119721   2.977   2.513   7.657 -0.3406  0.8590 -1.3976
 6079SOL    HW219722   3.103   2.528   7.574  0.6572  2.1550  0.3285
 6080SOL     OW19723   1.246   5.695   8.082  0.6338  0.0115  0.2571
 6080SOL    HW119724   1.279   5.770   8.033 -0.7971 -0.2494 -1.1691
 6080SOL    HW219725   1.227   5.629   8.015 -0.5321 -0.6776  1.2341
 6081SOL     OW19726   1.035   7.416   2.886 -0.4040  0.2538  1.0985
 6081SOL    HW119727   0.958   7.380   2.842 -1.5747  1.2127  2.2920
 6081SOL    HW219728   1.098   7.344   2.887 -0.4451  0.1307 -1.8224
 6082SOL     OW19729   7.027   2.045   1.490 -0.6000  0.1092  0.6883
 6082SOL    HW119730   7.109   2.094   1.483  1.1162 -3.0959 -3.1310
 6082SOL    HW219731   7.033   2.001   1.575  2.3933 -1.3711 -0.2551
 6083SOL     OW19732   2.512   1.624   3.813  0.1339  0.4187 -0.0738
 6083SOL    HW119733   2.562   1.701   3.788  2.1106 -0.9455 -0.4562
 6083SOL    HW219734   2.426   1.658   3.838  1.1605  2.7756  0.3569
 6084SOL     OW19735   2.020   3.991   3.371 -0.0306 -0.1025  0.2811
 6084SOL    HW119736   1.976   3.933   3.309 -0.5252  0.2765  0.2800
 6084SOL    HW219737   2.101   4.016   3.326  1.4593 -2.8509  1.3279
 6085SOL     OW19738   1.362   3.013   7.426  0.4176 -0.4900 -0.0099
 6085SOL    HW119739   1.296   3.028   7.493  0.4060  1.9399 -0.5439
 6085SOL    HW219740   1.422   3.088   7.434  2.1178 -1.7384 -0.7118
 6086SOL     OW19741   2.077   3.222   8.224 -0.6498 -0.0724 -0.2100
 6086SOL    HW119742   2.098   3.264   8.141  0.4893  2.1787  1.1712
 6086SOL    HW219743   2.161   3.190   8.257 -1.4278 -3.0838 -0.9994
 6087SOL     OW19744   7.595   4.488   3.822  0.1576 -0.4472 -0.0498
 6087SOL    HW119745   7.605   4.557   3.888 -0.7564 -1.1909  0.8801
 6087SOL    HW219746   7.684   4.469   3.794  0.4627  0.6926  0.1354
 6088SOL     OW19747   5.012   1.167   7.479  0.1181 -0.0864  0.1930
 6088SOL    HW119748   4.981   1.198   7.394 -2.4204  0.0153  1.1205
 6088SOL    HW219749   5.093   1.120   7.459 -0.1182  0.4544 -2.1924
 6089SOL     OW19750   7.828   6.787   1.025  0.0626  0.0587 -0.1220
 6089SOL    HW119751   7.879   6.868   1.026  0.4479 -0.1750 -0.8099
 6089SOL    HW219752   7.746   6.810   1.069  0.8024  0.3985  1.1262
 6090SOL     OW19753   6.567   1.903   0.737  0.2285  0.1146 -0.5439
 6090SOL    HW119754   6.631   1.834   0.752  0.0305  0.0825  0.1862
 6090SOL    HW219755   6.608   1.961   0.673 -0.4391 -1.7633 -2.7372
 6091SOL     OW19756   1.988   2.157   2.977  0.3616 -0.1093 -0.0074
 6091SOL    HW119757   2.010   2.248   2.959 -0.2537  0.0427 -0.0245
 6091SOL    HW219758   2.022   2.108   2.902  0.6008  0.1222 -0.0483
 6092SOL     OW19759   3.753   2.133   1.532 -0.2006  0.1142  0.1555
 6092SOL    HW119760   3.682   2.185   1.569  1.6618  1.8421  1.4058
 6092SOL    HW219761   3.826   2.145   1.593  0.9126 -2.3224 -0.6278
 6093SOL     OW19762   2.346   0.731   2.974  0.0368  0.5674 -0.2771
 6093SOL    HW119763   2.404   0.791   2.927 -0.0972 -0.3361 -1.6129
 6093SOL    HW219764   2.373   0.644   2.946 -1.8030  0.1214 -0.7239
 6094SOL     OW19765   2.582   3.268   5.795  0.1147  0.0021 -0.0095
 6094SOL    HW119766   2.605   3.176   5.808 -0.7455 -0.1733  0.3092
 6094SOL    HW219767   2.511   3.266   5.730  0.6597  0.4982 -0.6229
 6095SOL     OW19768   4.657   3.442   1.138 -0.2614 -0.2794 -0.0480
 6095SOL    HW119769   4.703   3.377   1.085  0.2017 -0.3728  0.4579
 6095SOL    HW219770   4.723   3.509   1.156 -0.6746  0.2201 -0.3772
 6096SOL     OW19771   8.131   3.294   1.221  0.3442 -0.1039 -0.4462
 6096SOL    HW119772   8.148   3.230   1.152 -0.5246  0.0540 -0.8094
 6096SOL    HW219773   8.185   3.370   1.197 -0.4956  0.2173 -1.3352
 6097SOL     OW19774   7.291   7.739   6.262  0.5020 -0.5635 -0.2653
 6097SOL    HW119775   7.289   7.748   6.357  0.8116  0.5696 -0.3499
 6097SOL    HW219776   7.267   7.826   6.229 -0.1085 -1.0798 -1.2237
 6098SOL     OW19777   7.203   1.145   8.175  0.0470 -0.2597 -0.2829
 6098SOL    HW119778   7.285   1.118   8.216 -0.0436  0.7157  0.5409
 6098SOL    HW219779   7.206   1.105   8.088  1.5002 -0.0517 -0.3396
 6099SOL     OW19780   5.701   5.682   6.314 -0.3831  0.1702 -0.0215
 6099SOL    HW119781   5.732   5.591   6.318  0.6120  0.4351 -1.3638
 6099SOL    HW219782   5.633   5.687   6.381 -0.0344 -1.4092  0.4742
 6100SOL     OW19783   7.797   6.479   6.730 -0.0297 -0.6538  0.0060
 6100SOL    HW119784   7.725   6.535   6.759 -0.6059 -1.6339  0.5058
 6100SOL    HW219785   7.798   6.407   6.793  0.6300 -1.2650 -0.6962
 6101SOL     OW19786   2.484   5.183   4.237  0.1464  0.2264 -0.6714
 6101SOL    HW119787   2.448   5.260   4.192 -0.3663  0.0984 -0.4906
 6101SOL    HW219788   2.537   5.139   4.171 -1.1279 -0.3177 -1.3481
 6102SOL     OW19789   7.746   4.370   2.587  0.1346  0.4810  0.6927
 6102SOL    HW119790   7.746   4.284   2.629 -0.7413 -1.5504 -3.2216
 6102SOL    HW219791   7.837   4.400   2.596  0.8611 -1.6056  0.7047
 6103SOL     OW19792   6.395   2.292   3.606  0.0414  0.2580 -0.5835
 6103SOL    HW119793   6.444   2.362   3.563 -0.0029 -0.3660 -1.6535
 6103SOL    HW219794   6.424   2.212   3.562  1.4153 -0.6151  1.7690
 6104SOL     OW19795   7.815   3.330   4.164 -0.0195  0.1218 -0.0776
 6104SOL    HW119796   7.810   3.425   4.172  0.7246  0.2385 -0.9055
 6104SOL    HW219797   7.887   3.315   4.103  0.6565 -1.0077  0.9723
 6105SOL     OW19798   8.240   0.422   2.704  0.9188 -0.1569 -0.0624
 6105SOL    HW119799   8.287   0.338   2.702  0.4772 -0.4452  1.1577
 6105SOL    HW219800   8.275   0.470   2.629  2.7127 -0.6221  0.4302
 6106SOL     OW19801   1.965   6.267   2.302  0.1383  0.1161 -0.0749
 6106SOL    HW119802   1.906   6.239   2.372 -0.1095 -0.2089 -0.4110
 6106SOL    HW219803   1.919   6.340   2.260  0.0809  0.0137 -0.1892
 6107SOL     OW19804   2.758   2.857   3.034  0.1002  0.2796  0.0908
 6107SOL    HW119805   2.795   2.900   2.957  0.8478 -0.9164 -0.2283
 6107SOL    HW219806   2.833   2.819   3.079 -0.4560  0.0506  0.8353
 6108SOL     OW19807   2.666   0.801   4.474 -0.3011 -0.8297 -0.3527
 6108SOL    HW119808   2.626   0.884   4.499  1.4738  0.0757 -0.4766
 6108SOL    HW219809   2.694   0.762   4.557  1.3473 -0.0039 -0.4973
 6109SOL     OW19810   5.789   7.133   1.450  0.1324 -0.0269 -0.6581
 6109SOL    HW119811   5.787   7.177   1.365 -0.7302  2.0614  0.4025
 6109SOL    HW219812   5.709   7.161   1.493  2.0885  1.5530  2.1117
 6110SOL     OW19813   7.478   4.905   2.206 -0.5093 -0.1261  0.5779
 6110SOL    HW119814   7.525   4.975   2.251  0.2571  0.8726 -1.6646
 6110SOL    HW219815   7.410   4.951   2.156 -0.3849 -1.0329 -0.4467
 6111SOL     OW19816   1.022   6.576   7.127 -0.1559 -0.7482 -0.1891
 6111SOL    HW119817   0.950   6.636   7.107  0.8704  0.2030 -1.1652
 6111SOL    HW219818   1.001   6.496   7.079 -2.2598 -1.7186  2.2718
 6112SOL     OW19819   5.139   6.616   6.607 -0.5280  0.1128 -0.0611
 6112SOL    HW119820   5.137   6.525   6.637 -0.4347  0.0999 -0.0942
 6112SOL    HW219821   5.120   6.610   6.513 -0.8479  0.1553  0.0028
 6113SOL     OW19822   2.587   2.264   7.453  0.5611 -0.3707  0.2790
 6113SOL    HW119823   2.546   2.349   7.469  1.2731 -0.1906  1.1662
 6113SOL    HW219824   2.539   2.203   7.511  2.5869  0.1326  2.5673
 6114SOL     OW19825   6.142   3.045   1.622 -0.4874 -0.3604  0.0709
 6114SOL    HW119826   6.087   3.094   1.560 -0.8735 -0.2954  0.4619
 6114SOL    HW219827   6.173   2.970   1.571  0.1280  0.3013 -0.5338
 6115SOL     OW19828   8.075   5.972   6.039 -0.0612  0.2940 -0.0002
 6115SOL    HW119829   8.035   5.979   6.126 -0.9783 -1.5388 -0.2519
 6115SOL    HW219830   8.162   5.936   6.056  0.2802  1.2320  0.2686
 6116SOL     OW19831   0.113   3.630   2.180 -0.0313  0.0356  0.5386
 6116SOL    HW119832   0.159   3.696   2.232  1.6314 -0.5219 -0.1746
 6116SOL    HW219833   0.172   3.554   2.181  0.7913  0.5313 -3.4277
 6117SOL     OW19834   2.360   2.909   4.321 -0.1540 -0.0229  0.3921
 6117SOL    HW119835   2.285   2.853   4.339 -1.7028  1.4016 -1.3857
 6117SOL    HW219836   2.363   2.971   4.393 -0.5535 -0.2025  0.5608
 6118SOL     OW19837   5.348   1.902   5.160  0.0061 -0.6104 -0.1967
 6118SOL    HW119838   5.426   1.848   5.170 -0.4007 -0.7275  2.8082
 6118SOL    HW219839   5.337   1.945   5.245 -0.8286  2.6958 -1.8816
 6119SOL     OW19840   5.971   4.048   7.530 -0.1494  0.7964  0.5686
 6119SOL    HW119841   6.059   4.077   7.557  0.4736 -1.3416  0.9501
 6119SOL    HW219842   5.913   4.083   7.598  0.4298  1.9358  0.5021
 6120SOL     OW19843   2.107   2.348   1.741 -0.3782  0.3219 -0.1986
 6120SOL    HW119844   2.159   2.396   1.678 -2.4244  3.9566  0.6980
 6120SOL    HW219845   2.159   2.348   1.821 -0.8684  2.1843  0.1356
 6121SOL     OW19846   5.228   5.621   5.587  0.0209 -0.4060  0.2567
 6121SOL    HW119847   5.217   5.671   5.506 -1.5833 -0.1312  0.6287
 6121SOL    HW219848   5.141   5.583   5.603  0.2405 -0.1799  2.0139
 6122SOL     OW19849   6.694   4.437   8.087 -0.3925 -0.0300 -0.1379
 6122SOL    HW119850   6.768   4.381   8.107 -1.4049 -0.9183  1.2011
 6122SOL    HW219851   6.729   4.503   8.027  0.7828 -2.1068 -1.7601
 6123SOL     OW19852   6.819   7.761   2.583 -0.3733 -0.1690 -0.5501
 6123SOL    HW119853   6.741   7.792   2.628  0.2320 -0.1062  0.4659
 6123SOL    HW219854   6.876   7.837   2.578 -0.1513 -0.3503 -0.8041
 6124SOL     OW19855   5.760   6.601   4.728  0.2758  0.5664 -0.2406
 6124SOL    HW119856   5.693   6.666   4.750  0.2300  0.6666 -0.6551
 6124SOL    HW219857   5.825   6.608   4.797  0.6929  1.6485 -0.7242
 6125SOL     OW19858   0.615   3.419   0.117 -0.3776 -0.1231 -0.7225
 6125SOL    HW119859   0.707   3.413   0.139 -0.1575 -0.7845 -1.7721
 6125SOL    HW219860   0.614   3.453   0.027 -1.0999 -1.2575 -1.1613
 6126SOL     OW19861   7.303   5.422   1.242  0.0548 -0.1577  0.9876
 6126SOL    HW119862   7.397   5.402   1.238  0.1705  0.3682  1.0821
 6126SOL    HW219863   7.291   5.470   1.324 -0.5445 -1.4843  1.6924
 6127SOL     OW19864   0.948   4.963   7.044  0.3626 -0.0987 -0.0239
 6127SOL    HW119865   0.980   4.879   7.078  1.8258  0.6419  0.4708
 6127SOL    HW219866   0.989   5.029   7.100 -1.0831  0.9479 -0.1525
 6128SOL     OW19867   8.247   7.280   5.770  0.0456  0.0643 -0.4784
 6128SOL    HW119868   8.205   7.271   5.685 -1.6362 -0.9382  0.4252
 6128SOL    HW219869   8.280   7.370   5.772 -2.2350  0.9309 -1.1382
 6129SOL     OW19870   0.084   7.355   3.905 -0.0946 -0.0375  0.3333
 6129SOL    HW119871   0.073   7.344   3.810 -1.9411  0.4383  0.4766
 6129SOL    HW219872  -0.002   7.336   3.941  1.5199 -4.1320  2.3181
 6130SOL     OW19873   6.295   5.375   1.165  0.4975 -0.2246  0.2264
 6130SOL    HW119874   6.224   5.433   1.189  1.0238  0.9310 -0.9531
 6130SOL    HW219875   6.361   5.387   1.234  0.1854 -0.1877  0.5194
 6131SOL     OW19876   3.532   5.666   3.909  0.1564 -0.2300 -0.0993
 6131SOL    HW119877   3.551   5.590   3.853 -0.2040 -0.8419  0.5913
 6131SOL    HW219878   3.468   5.632   3.973 -1.7414  1.2442 -1.1741
 6132SOL     OW19879   6.312   7.182   3.009 -0.0169 -0.2465 -0.3105
 6132SOL    HW119880   6.291   7.227   2.927 -1.3317  0.2827  0.3073
 6132SOL    HW219881   6.250   7.109   3.013 -0.5228  0.2342  0.6345
 6133SOL     OW19882   7.419   6.928   0.364  0.6066 -0.8279 -0.3192
 6133SOL    HW119883   7.442   6.836   0.352 -1.7511 -1.3704 -1.0193
 6133SOL    HW219884   7.494   6.976   0.331  0.6808 -2.5003 -2.7002
 6134SOL     OW19885   2.801   4.071   2.697 -0.1276 -0.1301  0.6549
 6134SOL    HW119886   2.824   4.113   2.780 -0.7571  0.6965  0.4248
 6134SOL    HW219887   2.880   4.078   2.644 -0.1481  0.5682  0.7065
 6135SOL     OW19888   5.392   2.422   0.683  0.8437 -0.0735  0.1132
 6135SOL    HW119889   5.346   2.470   0.752 -0.9126  0.3006 -1.2775
 6135SOL    HW219890   5.349   2.337   0.679  2.3018 -0.8633  0.8587
 6136SOL     OW19891   1.491   7.656   2.378  0.0739 -0.3589 -0.1755
 6136SOL    HW119892   1.517   7.712   2.304 -2.2807 -0.2871 -0.9993
 6136SOL    HW219893   1.574   7.620   2.411  1.2457  0.2346 -2.3390
 6137SOL     OW19894   1.901   1.249   0.479 -0.6535 -0.1935 -0.0613
 6137SOL    HW119895   1.901   1.290   0.392 -0.2174  0.5566  0.2884
 6137SOL    HW219896   1.964   1.300   0.529  0.1239 -1.4865  0.3028
 6138SOL     OW19897   1.444   5.570   7.818 -0.1970 -0.2134  0.1393
 6138SOL    HW119898   1.385   5.503   7.852 -0.1515 -0.2434  0.1606
 6138SOL    HW219899   1.504   5.587   7.890 -0.3930  0.0647  0.2340
 6139SOL     OW19900   3.787   1.659   0.373 -0.0280  0.2136 -0.1376
 6139SOL    HW119901   3.740   1.736   0.341  1.7569  0.8700 -1.2623
 6139SOL    HW219902   3.726   1.617   0.434 -1.6971  1.5378 -0.8530
 6140SOL     OW19903   7.789   5.412   3.664  0.9285 -0.0657  0.4296
 6140SOL    HW119904   7.770   5.358   3.588 -0.5674  0.6512  0.2721
 6140SOL    HW219905   7.854   5.476   3.633  0.1044  0.4103 -0.3349
 6141SOL     OW19906   5.491   4.611   5.964  0.1222 -0.1346  0.2841
 6141SOL    HW119907   5.400   4.582   5.971 -0.6427  2.2850  1.2500
 6141SOL    HW219908   5.516   4.633   6.054  0.8704  1.3678 -0.2623
 6142SOL     OW19909   1.586   4.066   7.326 -0.8384 -0.1313 -0.4148
 6142SOL    HW119910   1.575   4.133   7.258  0.4084 -1.5722 -2.1157
 6142SOL    HW219911   1.539   3.990   7.292 -1.8280 -0.2921  1.2627
 6143SOL     OW19912   3.439   3.042   4.652 -0.0142  0.1192  0.2484
 6143SOL    HW119913   3.425   2.950   4.675  0.2374  0.2482  0.9450
 6143SOL    HW219914   3.533   3.055   4.662  0.0916  0.2072 -0.7991
 6144SOL     OW19915   2.912   3.104   3.963  0.2838  0.6028  0.7320
 6144SOL    HW119916   2.872   3.188   3.940  1.0599  0.5750 -0.8143
 6144SOL    HW219917   2.988   3.127   4.016 -0.2294  0.7936  1.3981
 6145SOL     OW19918   3.444   2.813   2.699 -0.0507  0.3959 -0.2029
 6145SOL    HW119919   3.499   2.778   2.769  0.4404 -0.7005 -1.1210
 6145SOL    HW219920   3.355   2.812   2.735  0.3659  1.1141  0.8813
 6146SOL     OW19921   7.770   4.187   1.467  0.5484 -0.5048 -0.5368
 6146SOL    HW119922   7.773   4.142   1.552 -1.3332 -0.5368 -0.4758
 6146SOL    HW219923   7.782   4.279   1.488  2.7435 -0.7719 -0.5049
 6147SOL     OW19924   6.193   6.217   1.445 -0.0436 -0.5861  0.7858
 6147SOL    HW119925   6.136   6.193   1.371 -0.2515  1.7811  0.1265
 6147SOL    HW219926   6.133   6.248   1.512  0.3563  0.6504  0.5894
 6148SOL     OW19927   7.338   2.170   1.729  0.1113  0.1214  0.1250
 6148SOL    HW119928   7.274   2.166   1.658 -0.6554  0.2660  0.8120
 6148SOL    HW219929   7.286   2.179   1.809  0.9355 -1.1471  0.8171
 6149SOL     OW19930   3.603   5.854   4.304  0.0050 -0.0305 -0.1928
 6149SOL    HW119931   3.598   5.762   4.278  0.2472 -0.0819 -0.0619
 6149SOL    HW219932   3.546   5.861   4.381  1.7567 -0.5730  1.1945
 6150SOL     OW19933   7.455   7.167   7.130  0.0630 -0.7751  0.4091
 6150SOL    HW119934   7.474   7.145   7.039 -1.7109  0.1283 -0.2187
 6150SOL    HW219935   7.510   7.243   7.148 -0.1080 -0.5079 -0.1613
 6151SOL     OW19936   5.047   4.197   2.201  0.0974 -0.0656  0.8154
 6151SOL    HW119937   4.988   4.199   2.125  1.3247  0.6771 -0.1320
 6151SOL    HW219938   5.071   4.105   2.209  0.8046  0.0033 -0.3712
 6152SOL     OW19939   3.969   7.826   3.553 -0.1036  0.1614  0.4231
 6152SOL    HW119940   4.041   7.769   3.526 -0.0577  1.2415 -1.9151
 6152SOL    HW219941   3.967   7.895   3.486 -2.8089  0.5832  0.8798
 6153SOL     OW19942   7.844   4.391   2.256 -0.3341  0.6953  0.3753
 6153SOL    HW119943   7.920   4.378   2.313  0.2800 -1.0837 -0.7940
 6153SOL    HW219944   7.880   4.425   2.175 -1.1621  2.8134  0.8675
 6154SOL     OW19945   5.786   7.070   1.829  0.4703 -0.0356  0.3096
 6154SOL    HW119946   5.693   7.049   1.840  0.7602 -1.8236 -0.5781
 6154SOL    HW219947   5.823   7.063   1.918 -0.1017 -0.0132  0.5503
 6155SOL     OW19948   6.841   7.409   6.421 -0.1272 -0.2895 -0.1631
 6155SOL    HW119949   6.909   7.428   6.485  0.1117 -0.4579 -0.3643
 6155SOL    HW219950   6.819   7.494   6.384 -0.4528 -0.1582  0.3272
 6156SOL     OW19951   5.659   7.809   5.636  0.5287 -0.0672  0.6824
 6156SOL    HW119952   5.614   7.887   5.602  0.7361  0.1136  0.8196
 6156SOL    HW219953   5.597   7.738   5.621  1.1827 -0.2249 -1.3382
 6157SOL     OW19954   8.125   7.004   1.977 -0.3229  0.2493  0.3774
 6157SOL    HW119955   8.167   7.074   1.926  0.0644  0.8194  1.4563
 6157SOL    HW219956   8.078   7.051   2.047  1.5778 -0.6483  2.3093
 6158SOL     OW19957   4.554   4.854   4.148  0.0217 -0.6899  0.3536
 6158SOL    HW119958   4.601   4.822   4.225  0.5097 -1.4858 -0.2633
 6158SOL    HW219959   4.617   4.909   4.102 -1.1236  2.0325  1.9239
 6159SOL     OW19960   5.413   0.742   6.045  0.5663 -0.0356 -0.0429
 6159SOL    HW119961   5.472   0.814   6.070  1.7950 -0.8338 -0.5701
 6159SOL    HW219962   5.447   0.666   6.092  1.6358 -1.0942 -2.4207
 6160SOL     OW19963   4.269   2.916   5.016 -0.1138  0.4664 -0.2390
 6160SOL    HW119964   4.343   2.867   4.980  0.0084  1.0807 -0.8490
 6160SOL    HW219965   4.290   2.927   5.109 -0.2204 -0.7649 -0.0595
 6161SOL     OW19966   1.171   5.589   2.758 -0.5657  0.3735 -0.8031
 6161SOL    HW119967   1.170   5.683   2.740 -1.1896  0.5569  0.1131
 6161SOL    HW219968   1.263   5.567   2.769 -0.5532  1.4966  1.9297
 6162SOL     OW19969   7.267   2.058   7.083 -0.1986  0.0909 -0.3415
 6162SOL    HW119970   7.206   2.038   7.154 -1.3148  0.2263 -1.2458
 6162SOL    HW219971   7.238   2.003   7.010 -1.0756  2.3349 -1.7144
 6163SOL     OW19972   2.803   3.283   0.860 -0.1800 -0.1251 -0.3645
 6163SOL    HW119973   2.810   3.229   0.781  2.0693 -2.1926  1.1704
 6163SOL    HW219974   2.839   3.368   0.834  0.7616 -0.8543 -1.5031
 6164SOL     OW19975   2.697   6.371   0.807 -0.2218 -0.0665 -0.0049
 6164SOL    HW119976   2.771   6.362   0.868  1.5248  0.3670 -1.9850
 6164SOL    HW219977   2.658   6.456   0.829 -0.7619 -0.7444  1.7132
 6165SOL     OW19978   6.452   5.311   8.027  0.1371 -0.0920 -0.1392
 6165SOL    HW119979   6.411   5.374   7.967  1.0587  0.5845 -0.0807
 6165SOL    HW219980   6.397   5.233   8.022  0.6505 -0.3278 -2.4651
 6166SOL     OW19981   7.875   6.571   7.268  0.7444 -0.0404  0.0592
 6166SOL    HW119982   7.942   6.635   7.244  0.6854 -0.0246 -0.0664
 6166SOL    HW219983   7.901   6.540   7.355 -0.4794  1.8031  1.0953
 6167SOL     OW19984   3.862   2.040   8.018  0.0740  0.1606 -0.2913
 6167SOL    HW119985   3.844   1.987   8.096  3.6783  0.6609  0.9896
 6167SOL    HW219986   3.864   1.976   7.947 -0.0569 -0.7964  0.5399
 6168SOL     OW19987   0.736   4.394   5.042 -0.2989 -0.5366 -0.1076
 6168SOL    HW119988   0.722   4.300   5.037  2.0635 -0.9774  1.3816
 6168SOL    HW219989   0.783   4.408   5.124 -0.2688  1.9051 -0.4966
 6169SOL     OW19990   8.193   6.186   5.878  0.5274  0.2632 -0.0914
 6169SOL    HW119991   8.279   6.176   5.919  0.1850  0.2548  0.6287
 6169SOL    HW219992   8.141   6.115   5.916 -0.7332  2.2016  1.9109
 6170SOL     OW19993   2.222   0.963   2.313  0.2007  0.3375 -0.3756
 6170SOL    HW119994   2.130   0.939   2.323  0.5560 -0.5699  0.8069
 6170SOL    HW219995   2.226   1.056   2.336 -0.1157 -0.0837  1.4111
 6171SOL     OW19996   3.827   1.854   1.134  0.4502 -0.4667 -0.1192
 6171SOL    HW119997   3.735   1.881   1.136  1.0673  1.7049  0.3414
 6171SOL    HW219998   3.855   1.869   1.043  0.3890 -0.9438 -0.2144
 6172SOL     OW19999   4.089   2.144   2.930  0.1121  0.2638  0.1335
 6172SOL    HW120000   4.068   2.057   2.964 -0.2258  0.6683  0.9591
 6172SOL    HW220001   4.164   2.129   2.872 -1.4479 -0.9673 -1.6632
 6173SOL     OW20002   4.166   2.619   1.379  0.1479 -0.3758  0.4998
 6173SOL    HW120003   4.175   2.565   1.300 -0.0349 -0.7340  0.7192
 6173SOL    HW220004   4.147   2.706   1.346 -0.1921 -0.5795  0.1493
 6174SOL     OW20005   0.521   8.296   0.572 -0.3005  0.6324  0.3004
 6174SOL    HW120006   0.572   8.324   0.648 -1.3773 -1.0907  1.7019
 6174SOL    HW220007   0.449   8.359   0.567  0.4402  1.4698 -0.0582
 6175SOL     OW20008   6.960   3.560   8.094 -0.3906  0.3340 -0.2308
 6175SOL    HW120009   7.021   3.495   8.131  0.4256  1.1818 -0.0634
 6175SOL    HW220010   6.971   3.637   8.149 -0.2938  1.0927 -1.3031
 6176SOL     OW20011   7.354   5.793   6.399 -0.5681  0.0246 -0.4466
 6176SOL    HW120012   7.370   5.745   6.480 -0.3515 -0.8498 -1.0063
 6176SOL    HW220013   7.332   5.726   6.335 -0.8474  0.7236 -1.0905
 6177SOL     OW20014   4.599   7.803   3.270 -0.4859 -0.1130  0.1226
 6177SOL    HW120015   4.648   7.728   3.236 -1.4436 -0.7465  0.1029
 6177SOL    HW220016   4.659   7.847   3.330 -0.0198 -1.0786  0.3689
 6178SOL     OW20017   5.445   2.243   6.442  0.1299  0.6582  0.5480
 6178SOL    HW120018   5.489   2.282   6.518 -0.3068  0.2309  1.0250
 6178SOL    HW220019   5.437   2.150   6.464 -0.0704  0.5471  0.0094
 6179SOL     OW20020   3.831   3.775   0.324  0.0682  0.5762  0.5698
 6179SOL    HW120021   3.911   3.767   0.375  0.1597 -2.5908  0.0353
 6179SOL    HW220022   3.763   3.739   0.381 -0.7014  1.6949  0.3716
 6180SOL     OW20023   5.538   7.261   1.326 -0.2201 -0.6730 -0.0501
 6180SOL    HW120024   5.616   7.295   1.282  0.5977 -0.8256  1.2374
 6180SOL    HW220025   5.504   7.334   1.377 -1.6598 -0.2565 -1.5874
 6181SOL     OW20026   7.751   0.055   7.587 -1.0650 -0.6366 -0.3111
 6181SOL    HW120027   7.661   0.027   7.576 -1.1269 -0.4279 -0.3469
 6181SOL    HW220028   7.746   0.130   7.647 -0.9186 -0.6125 -0.3284
 6182SOL     OW20029   5.904   0.640   7.120  0.3602 -0.2386  0.0432
 6182SOL    HW120030   5.882   0.718   7.069 -2.6395 -1.0577 -0.0429
 6182SOL    HW220031   5.985   0.608   7.082  0.2984  1.4223 -1.5617
 6183SOL     OW20032   1.305   4.489   3.232 -0.3060 -0.7347 -0.3661
 6183SOL    HW120033   1.324   4.581   3.250 -0.4304 -0.3012 -2.3536
 6183SOL    HW220034   1.370   4.463   3.167 -0.6062 -1.9177 -0.2053
 6184SOL     OW20035   6.763   2.300   7.056 -0.7267 -0.1361 -0.5275
 6184SOL    HW120036   6.708   2.284   7.133  1.5477 -1.7133  0.8153
 6184SOL    HW220037   6.712   2.363   7.003 -2.1009  1.4028  2.4877
 6185SOL     OW20038   2.539   1.032   1.726  0.1815 -0.0466  0.3838
 6185SOL    HW120039   2.468   1.033   1.791  0.9434 -1.2889  1.2654
 6185SOL    HW220040   2.588   0.953   1.747  2.0003  0.9634 -0.0406
 6186SOL     OW20041   1.252   4.942   4.816  0.0217 -0.2275 -0.0924
 6186SOL    HW120042   1.340   4.935   4.853  0.1211 -1.0913 -0.4701
 6186SOL    HW220043   1.194   4.909   4.885 -0.0105  0.3141  0.1444
 6187SOL     OW20044   7.551   7.064   1.451  0.3477  0.5098 -0.1684
 6187SOL    HW120045   7.563   7.146   1.498 -0.5813  0.2561  0.5339
 6187SOL    HW220046   7.503   7.008   1.512  0.1573 -0.2292 -0.9808
 6188SOL     OW20047   2.478   7.656   2.988 -0.1013 -0.1641  0.3547
 6188SOL    HW120048   2.565   7.629   2.959 -0.3759  1.1069 -1.8250
 6188SOL    HW220049   2.418   7.598   2.941 -0.5083  1.1062 -0.7505
 6189SOL     OW20050   1.020   6.784   2.403 -0.1251 -0.2107 -0.3078
 6189SOL    HW120051   0.976   6.754   2.324  1.4604 -2.9267 -0.2171
 6189SOL    HW220052   1.056   6.870   2.379 -0.2767 -0.6691 -2.2956
 6190SOL     OW20053   6.796   7.372   0.025  0.2896 -0.0007 -0.0640
 6190SOL    HW120054   6.846   7.296   0.054 -1.8961 -1.2898  0.4457
 6190SOL    HW220055   6.756   7.407   0.104 -0.5169  0.3283 -0.5989
 6191SOL     OW20056   8.292   4.414   3.065 -0.0289  0.2708 -0.2346
 6191SOL    HW120057   8.279   4.342   3.004 -0.2465  0.7189 -0.7202
 6191SOL    HW220058   8.354   4.472   3.022  2.2215 -0.9348  1.2885
 6192SOL     OW20059   4.044   1.422   3.594  0.2651  0.4327  0.3770
 6192SOL    HW120060   4.024   1.378   3.677  1.8173  1.7850  1.4919
 6192SOL    HW220061   4.069   1.511   3.619 -0.6883  1.3130 -1.6803
 6193SOL     OW20062   5.519   5.252   7.567 -0.5337  0.3231  0.3417
 6193SOL    HW120063   5.477   5.186   7.623 -0.9604  1.5546  1.4820
 6193SOL    HW220064   5.613   5.238   7.582 -0.6293  0.2153  0.8827
 6194SOL     OW20065   7.854   4.754   0.147 -0.1146 -0.7494  0.3340
 6194SOL    HW120066   7.786   4.736   0.083 -2.1270 -0.3441  2.3006
 6194SOL    HW220067   7.812   4.740   0.232  2.0847  0.0830  1.6147
 6195SOL     OW20068   2.150   7.640   4.729 -0.3576 -0.2697 -0.7392
 6195SOL    HW120069   2.136   7.653   4.635 -0.4162  0.3660 -0.6377
 6195SOL    HW220070   2.082   7.577   4.754 -1.2484  0.6597 -0.8231
 6196SOL     OW20071   3.371   2.857   0.373  0.0049 -0.3772  0.1290
 6196SOL    HW120072   3.310   2.862   0.299 -0.6924 -0.5845  0.6758
 6196SOL    HW220073   3.340   2.781   0.423 -0.7775  0.9455  1.7115
 6197SOL     OW20074   4.620   7.174   8.111  0.3173 -0.0230 -0.0451
 6197SOL    HW120075   4.679   7.103   8.134 -1.5258 -1.4337  0.3994
 6197SOL    HW220076   4.586   7.151   8.025  0.8335  1.0947 -0.5720
 6198SOL     OW20077   4.201   4.130   3.000 -0.2648 -0.3254  0.1374
 6198SOL    HW120078   4.125   4.095   2.956  0.0193 -0.3296 -0.3532
 6198SOL    HW220079   4.183   4.224   3.008 -1.1904 -0.6322  1.7843
 6199SOL     OW20080   2.570   2.945   5.130  0.4437 -0.2330  0.3307
 6199SOL    HW120081   2.613   2.917   5.210 -0.8331  0.1078  1.1545
 6199SOL    HW220082   2.593   3.037   5.121 -0.1479 -0.0350  0.8039
 6200SOL     OW20083   8.072   0.857   1.552  0.0777 -0.4770 -0.1299
 6200SOL    HW120084   8.023   0.786   1.508  0.6956  0.3129 -2.1659
 6200SOL    HW220085   8.028   0.937   1.523 -0.2348  0.0142  1.6806
 6201SOL     OW20086   8.012   3.788   4.283  0.5134 -0.0855  0.7306
 6201SOL    HW120087   7.929   3.743   4.269  0.7625 -0.5347  0.7086
 6201SOL    HW220088   8.068   3.723   4.325  0.6617  0.3987  1.3058
 6202SOL     OW20089   6.506   2.680   2.618  0.2559 -0.4402  0.1636
 6202SOL    HW120090   6.568   2.753   2.623  1.1113 -1.1175 -0.5671
 6202SOL    HW220091   6.423   2.719   2.646  0.4532  1.1122 -1.3151
 6203SOL     OW20092   5.665   7.504   3.176  0.1627  0.4559 -0.9580
 6203SOL    HW120093   5.748   7.475   3.214  0.5293  1.5809 -0.8912
 6203SOL    HW220094   5.690   7.562   3.104 -0.5386 -1.2330 -2.5988
 6204SOL     OW20095   4.508   1.567   7.700  0.7267 -0.4661 -0.5140
 6204SOL    HW120096   4.423   1.530   7.676 -0.3483  2.1199 -0.8773
 6204SOL    HW220097   4.510   1.653   7.659  3.1164 -0.0640  0.3252
 6205SOL     OW20098   4.050   4.227   7.381 -0.0314  0.1079  0.0423
 6205SOL    HW120099   4.119   4.258   7.322 -1.4286  1.2986 -0.9976
 6205SOL    HW220100   4.085   4.240   7.469  1.7493 -0.9251 -0.4908
 6206SOL     OW20101   8.076   0.061   4.481 -0.2561 -0.0424  0.0145
 6206SOL    HW120102   8.050   0.101   4.564  0.1199 -0.5300  0.3702
 6206SOL    HW220103   8.002   0.004   4.459 -0.6359  0.5680 -0.3135
 6207SOL     OW20104   2.319   1.243   4.196  0.4772  0.7428  0.2301
 6207SOL    HW120105   2.267   1.298   4.138  0.1248 -1.7051 -1.8956
 6207SOL    HW220106   2.402   1.232   4.151  0.2550 -1.0827  0.1902
 6208SOL     OW20107   4.257   3.617   0.229 -0.6418  0.1775 -0.0670
 6208SOL    HW120108   4.298   3.662   0.303  1.3906  3.3078 -2.9415
 6208SOL    HW220109   4.327   3.566   0.190 -1.5930 -1.0841 -0.1728
 6209SOL     OW20110   7.999   0.810   2.360 -0.3118  0.3578  0.0419
 6209SOL    HW120111   7.932   0.747   2.387  1.3064 -1.6630 -0.5158
 6209SOL    HW220112   7.951   0.877   2.312 -2.2969  0.4112  2.0590
 6210SOL     OW20113   1.779   4.868   6.750 -0.0602  0.6650 -0.2848
 6210SOL    HW120114   1.840   4.814   6.800  0.6026  0.8638 -0.8759
 6210SOL    HW220115   1.702   4.874   6.806  0.8002  1.1782  0.8704
 6211SOL     OW20116   6.423   5.005   4.625  0.0146 -0.0832  0.3081
 6211SOL    HW120117   6.462   4.990   4.711  1.3210  4.3122  0.6302
 6211SOL    HW220118   6.495   5.038   4.571 -1.3184 -0.4642 -1.7626
 6212SOL     OW20119   0.785   3.733   1.756  0.1793  0.0665  0.1340
 6212SOL    HW120120   0.810   3.825   1.762  0.5253  0.0183 -0.4819
 6212SOL    HW220121   0.690   3.733   1.769  0.2644  0.4409  0.7453
 6213SOL     OW20122   5.809   2.355   7.433 -0.1058  0.3680 -0.4587
 6213SOL    HW120123   5.772   2.295   7.499  0.4655 -0.3828 -0.8212
 6213SOL    HW220124   5.772   2.440   7.456 -0.8957 -0.1088  0.0891
 6214SOL     OW20125   0.339   2.920   3.943 -0.2016  0.9432  0.2251
 6214SOL    HW120126   0.269   2.922   4.008  0.8111  1.5169  1.3212
 6214SOL    HW220127   0.326   2.998   3.890 -0.9246  0.5712 -0.1482
 6215SOL     OW20128   0.950   3.328   3.038 -0.1093 -0.4795 -0.1646
 6215SOL    HW120129   0.964   3.377   3.119  1.5830  0.1909 -0.8409
 6215SOL    HW220130   0.855   3.326   3.027 -0.2498  1.4166  0.6133
 6216SOL     OW20131   1.258   3.999   7.063  0.4642 -0.0910 -0.3230
 6216SOL    HW120132   1.206   4.067   7.105  2.9409  1.2608  0.6993
 6216SOL    HW220133   1.276   4.033   6.975  0.1469 -0.2649 -0.4545
 6217SOL     OW20134   6.559   5.993   2.079 -0.3535  0.2350 -0.2147
 6217SOL    HW120135   6.478   5.988   2.129 -1.1896  0.8226 -1.4897
 6217SOL    HW220136   6.624   5.948   2.133 -1.1967  1.0278  1.4667
 6218SOL     OW20137   2.535   7.286   4.102  0.2037 -0.1879 -0.2418
 6218SOL    HW120138   2.440   7.272   4.110 -0.0472  0.8479 -1.3023
 6218SOL    HW220139   2.562   7.315   4.189 -0.2813 -1.4466  0.3395
 6219SOL     OW20140   3.900   2.609   1.701 -0.7067  0.0838 -0.0994
 6219SOL    HW120141   3.885   2.686   1.646  0.3669 -0.2784 -0.9077
 6219SOL    HW220142   3.939   2.545   1.642  1.7747  0.1727  1.3563
 6220SOL     OW20143   3.247   4.834   3.594 -0.2705 -0.4312 -0.5352
 6220SOL    HW120144   3.260   4.841   3.689  1.0838  0.9777 -0.8143
 6220SOL    HW220145   3.151   4.836   3.583 -0.5550 -2.9034  0.9347
 6221SOL     OW20146   1.748   4.402   6.243  0.1388  0.2533  0.2514
 6221SOL    HW120147   1.835   4.368   6.225 -0.4998 -0.8242 -0.8560
 6221SOL    HW220148   1.748   4.491   6.206  0.8737  0.3829  0.5648
 6222SOL     OW20149   7.851   7.623   4.427  0.4129 -0.8420  0.2755
 6222SOL    HW120150   7.777   7.678   4.403  0.6643 -0.2952  0.7630
 6222SOL    HW220151   7.815   7.558   4.486  0.5857  0.2502  1.5992
 6223SOL     OW20152   3.582   6.179   5.952 -0.3746  0.1251  0.2279
 6223SOL    HW120153   3.580   6.207   5.860 -0.3714  0.0019  0.1904
 6223SOL    HW220154   3.534   6.248   5.999 -0.1968  0.2941  0.1624
 6224SOL     OW20155   6.326   4.482   3.115 -0.5178  0.0809 -0.2402
 6224SOL    HW120156   6.261   4.548   3.139  0.7665  1.2035  0.2365
 6224SOL    HW220157   6.405   4.533   3.097  0.0078 -1.1961 -1.6047
 6225SOL     OW20158   4.675   5.902   1.653  0.5749  0.2674 -0.5574
 6225SOL    HW120159   4.647   5.966   1.587  1.1675  1.9189  0.7561
 6225SOL    HW220160   4.632   5.930   1.733 -0.9968 -2.3724 -0.4415
 6226SOL     OW20161   3.459   3.649   1.825  0.6351 -0.2410  0.8684
 6226SOL    HW120162   3.364   3.644   1.822  0.6805  0.0418 -2.5887
 6226SOL    HW220163   3.478   3.740   1.849  0.0179  0.6674 -1.9780
 6227SOL     OW20164   6.845   3.978   4.338  0.3714  0.3990  0.8007
 6227SOL    HW120165   6.909   3.992   4.408  0.4682 -1.9493  1.2061
 6227SOL    HW220166   6.884   3.911   4.283 -2.7070 -2.8610  2.3814
 6228SOL     OW20167   7.138   1.795   1.387  0.2793  0.0109  0.2700
 6228SOL    HW120168   7.119   1.854   1.459 -3.7652 -1.4743  0.5673
 6228SOL    HW220169   7.113   1.708   1.419  0.6100 -1.0155 -2.0953
 6229SOL     OW20170   1.944   5.562   8.263 -0.0451  0.4692  0.4942
 6229SOL    HW120171   1.989   5.622   8.203  0.2568 -0.0576  0.1888
 6229SOL    HW220172   1.909   5.618   8.332 -1.4777  1.2340 -0.8201
 6230SOL     OW20173   7.515   1.820   1.242 -0.0531  0.0122  0.1981
 6230SOL    HW120174   7.452   1.793   1.175 -0.5833 -0.3519  0.8428
 6230SOL    HW220175   7.541   1.908   1.216 -1.9806  0.7681  0.7763
 6231SOL     OW20176   5.642   1.250   7.357 -0.5906  0.2721 -0.0661
 6231SOL    HW120177   5.585   1.174   7.346 -0.0846 -0.1375  0.1055
 6231SOL    HW220178   5.599   1.302   7.425 -1.1853  0.3755 -0.5213
 6232SOL     OW20179   3.006   0.889   1.413  0.2270 -0.1232  0.0180
 6232SOL    HW120180   2.996   0.976   1.374 -0.0224 -0.0386  0.2684
 6232SOL    HW220181   2.942   0.834   1.366 -0.3363  0.0640  0.5582
 6233SOL     OW20182   3.425   0.215   2.508  0.0195 -0.4816  0.4840
 6233SOL    HW120183   3.423   0.228   2.603  0.2357  0.6385  0.3375
 6233SOL    HW220184   3.511   0.175   2.492  1.1231  1.8103  0.4701
 6234SOL     OW20185   1.242   4.946   7.398  0.1103  0.6298 -0.7163
 6234SOL    HW120186   1.168   5.002   7.375 -0.3948 -0.0355 -0.7345
 6234SOL    HW220187   1.212   4.858   7.377  0.0282  0.1101  1.5592
 6235SOL     OW20188   4.092   3.030   5.898 -0.1858 -0.1064 -0.2945
 6235SOL    HW120189   4.068   3.054   5.988 -0.8364  0.1040 -0.5210
 6235SOL    HW220190   4.158   3.095   5.873 -2.0252  1.5646 -0.9426
 6236SOL     OW20191   6.953   6.164   3.680 -0.1015  0.2648  0.0450
 6236SOL    HW120192   6.937   6.254   3.654 -0.8969 -0.2242 -1.2631
 6236SOL    HW220193   7.003   6.126   3.608 -0.7664 -0.6400  0.0391
 6237SOL     OW20194   6.875   7.726   0.471  0.5190 -0.3070 -0.1225
 6237SOL    HW120195   6.890   7.776   0.551  0.5272  0.4307 -0.5800
 6237SOL    HW220196   6.879   7.791   0.401 -0.0440 -0.8586 -0.6730
 6238SOL     OW20197   5.860   1.203   2.994 -0.5999 -0.8063 -0.1776
 6238SOL    HW120198   5.795   1.273   3.001 -0.6339 -0.6886 -1.5028
 6238SOL    HW220199   5.911   1.210   3.075 -0.7905  0.5630 -0.1559
 6239SOL     OW20200   7.987   1.252   2.238 -0.0799  0.2809  0.0733
 6239SOL    HW120201   8.009   1.345   2.235 -0.0756  0.3263  1.2899
 6239SOL    HW220202   8.026   1.221   2.321 -2.0165 -0.3009  0.7806
 6240SOL     OW20203   1.281   2.190   7.500 -0.0386  0.2166  0.3727
 6240SOL    HW120204   1.367   2.231   7.484 -0.0553  0.2123  0.2737
 6240SOL    HW220205   1.218   2.252   7.464  0.0518 -1.0131 -1.9658
 6241SOL     OW20206   6.952   0.703   6.142 -0.1428  0.1914  0.4963
 6241SOL    HW120207   6.860   0.730   6.135  0.3886  2.3251  1.6245
 6241SOL    HW220208   6.951   0.610   6.116 -2.4613  0.4261 -0.3880
 6242SOL     OW20209   8.045   2.176   3.995  0.4849  0.0211 -0.0467
 6242SOL    HW120210   8.057   2.227   4.075  2.1979  0.1727 -0.3847
 6242SOL    HW220211   8.090   2.227   3.927 -2.0675  0.5803 -1.4120
 6243SOL     OW20212   5.967   1.460   6.079  0.2628  0.4234  0.7864
 6243SOL    HW120213   5.944   1.552   6.087 -1.0694  0.2441 -0.5860
 6243SOL    HW220214   5.986   1.448   5.986  1.2666 -0.5007  1.0998
 6244SOL     OW20215   5.923   2.464   4.917 -0.2869  0.1040  0.0694
 6244SOL    HW120216   5.884   2.396   4.972 -1.1832 -0.6429 -1.4638
 6244SOL    HW220217   6.013   2.436   4.904  0.3501  1.0102  2.3011
 6245SOL     OW20218   4.686   3.240   3.086 -0.7292  0.2004 -0.1025
 6245SOL    HW120219   4.705   3.240   2.992 -0.0721 -0.9178  0.0122
 6245SOL    HW220220   4.638   3.321   3.102 -1.4768  0.0522 -1.5394
 6246SOL     OW20221   2.305   0.730   1.029 -0.3497  0.2764 -0.1325
 6246SOL    HW120222   2.242   0.693   1.091  0.0396  1.2655  0.8723
 6246SOL    HW220223   2.252   0.759   0.955 -1.1929  1.7467  1.0039
 6247SOL     OW20224   6.320   6.586   2.049  0.2132  0.3335  0.4085
 6247SOL    HW120225   6.260   6.628   1.988  0.3574  0.2250  0.1931
 6247SOL    HW220226   6.362   6.516   1.998  0.6813  0.5496  0.4946
 6248SOL     OW20227   4.502   1.368   1.952 -0.4772  0.0632  0.1422
 6248SOL    HW120228   4.486   1.282   1.990  2.0896 -0.4727  0.1304
 6248SOL    HW220229   4.454   1.429   2.008 -0.3895 -1.1483  1.5717
 6249SOL     OW20230   6.202   2.232   7.064 -0.5221  0.5868  0.2397
 6249SOL    HW120231   6.191   2.151   7.114 -0.4383  0.7570  0.5303
 6249SOL    HW220232   6.201   2.203   6.972  0.5087  0.1392  0.3636
 6250SOL     OW20233   2.601   3.301   8.144 -0.0213 -0.4946  0.1996
 6250SOL    HW120234   2.556   3.238   8.201 -0.6322  0.5919  0.9452
 6250SOL    HW220235   2.561   3.288   8.058 -0.2922 -0.9794  0.3961
 6251SOL     OW20236   4.941   2.810   2.168 -0.5967 -0.0051 -0.1437
 6251SOL    HW120237   5.018   2.780   2.217 -0.2487  0.0483 -0.6544
 6251SOL    HW220238   4.915   2.734   2.115 -1.0455 -0.1020  0.2075
 6252SOL     OW20239   7.290   4.764   7.245  0.3580 -0.3535 -0.2436
 6252SOL    HW120240   7.206   4.803   7.270  0.7285  0.1333  0.2261
 6252SOL    HW220241   7.269   4.671   7.231 -0.4751 -0.0458 -1.1551
 6253SOL     OW20242   3.572   2.893   7.672  0.1648 -0.3695  0.3018
 6253SOL    HW120243   3.634   2.884   7.745 -0.6950 -1.6496  0.8940
 6253SOL    HW220244   3.548   2.985   7.672 -1.7253 -0.7752  3.2606
 6254SOL     OW20245   7.014   4.119   6.333  0.0002  0.8085  0.3079
 6254SOL    HW120246   6.925   4.153   6.336  0.1597  1.2148  0.4904
 6254SOL    HW220247   7.067   4.193   6.302  0.0848  0.1767 -1.1112
 6255SOL     OW20248   6.152   0.626   0.907  0.4436 -0.3089  0.2547
 6255SOL    HW120249   6.209   0.700   0.889 -0.3929  0.4335  0.5920
 6255SOL    HW220250   6.174   0.599   0.996  0.5805 -0.3155  0.2190
 6256SOL     OW20251   1.686   1.408   1.833  0.2173 -0.2670  0.5315
 6256SOL    HW120252   1.593   1.408   1.807  0.6994 -0.9977 -1.2928
 6256SOL    HW220253   1.693   1.480   1.896 -1.2900  0.7527 -0.4095
 6257SOL     OW20254   6.442   1.044   4.329  0.4634 -0.1338 -0.6253
 6257SOL    HW120255   6.433   0.980   4.400 -1.0392  0.8663  0.1398
 6257SOL    HW220256   6.435   1.129   4.373 -0.0286  0.5089 -1.9189
 6258SOL     OW20257   5.472   2.344   1.165  0.2592  0.4809  0.6865
 6258SOL    HW120258   5.493   2.279   1.232  0.2819 -1.2401 -0.9559
 6258SOL    HW220259   5.555   2.360   1.120 -0.1575  0.1641 -0.2051
 6259SOL     OW20260   2.172   3.840   4.540 -0.7460  0.1246  1.0667
 6259SOL    HW120261   2.144   3.843   4.449 -1.1220 -0.9554  1.1396
 6259SOL    HW220262   2.229   3.916   4.550 -0.9966  0.4592  0.0334
 6260SOL     OW20263   5.547   0.542   7.978  0.3707  0.1916  0.1001
 6260SOL    HW120264   5.598   0.477   8.026  0.1441  0.8979  1.3346
 6260SOL    HW220265   5.566   0.524   7.886  3.4288  0.8636  0.5301
 6261SOL     OW20266   5.206   3.167   0.230 -0.2328  0.0360  0.1526
 6261SOL    HW120267   5.288   3.195   0.271 -0.7281 -0.0115  1.1801
 6261SOL    HW220268   5.141   3.229   0.263 -0.8222 -0.6226  0.2202
 6262SOL     OW20269   2.224   6.529   1.328 -0.7413 -0.5967  0.3859
 6262SOL    HW120270   2.223   6.620   1.356  0.5242 -0.3882 -0.1941
 6262SOL    HW220271   2.198   6.532   1.236 -1.3374 -0.9001  0.5394
 6263SOL     OW20272   0.399   6.160   3.516 -0.4180  0.6778  0.2352
 6263SOL    HW120273   0.472   6.122   3.564  0.6937  2.9217  0.4049
 6263SOL    HW220274   0.436   6.186   3.431 -1.0630  1.5506  0.2006
 6264SOL     OW20275   6.522   3.710   3.175 -0.0538  0.1795  0.0089
 6264SOL    HW120276   6.496   3.776   3.111 -0.7599  2.0760  2.1638
 6264SOL    HW220277   6.602   3.744   3.215 -1.4832  0.7726  2.5078
 6265SOL     OW20278   3.453   1.187   4.005  0.0842  0.1500  0.5879
 6265SOL    HW120279   3.441   1.281   4.015 -0.4666  0.1514 -0.1057
 6265SOL    HW220280   3.433   1.169   3.914  1.1283 -0.5033  0.4805
 6266SOL     OW20281   3.490   5.522   3.104 -0.2544  0.5940 -0.3103
 6266SOL    HW120282   3.463   5.436   3.073  0.2539 -0.4987  2.1641
 6266SOL    HW220283   3.407   5.570   3.115 -0.5229  0.5426 -1.9118
 6267SOL     OW20284   4.339   2.348   0.661 -0.5795  0.1455  0.3035
 6267SOL    HW120285   4.292   2.299   0.593 -0.4709 -0.5303  0.7069
 6267SOL    HW220286   4.347   2.437   0.626 -5.0777  1.1898  1.6036
 6268SOL     OW20287   0.133   7.964   1.502  0.3285  0.3892  0.2120
 6268SOL    HW120288   0.053   7.994   1.459 -0.9976 -0.8729  1.7216
 6268SOL    HW220289   0.109   7.880   1.542  2.4443 -0.0682  0.5844
 6269SOL     OW20290   2.249   7.270   4.869 -0.0983 -0.2466 -1.4758
 6269SOL    HW120291   2.257   7.363   4.892 -1.0775  0.3049 -3.2566
 6269SOL    HW220292   2.180   7.237   4.926  1.0400 -0.1757 -0.0348
 6270SOL     OW20293   6.993   7.315   2.028 -0.1687  0.1842  0.5042
 6270SOL    HW120294   6.910   7.361   2.033 -0.1535  0.3081 -0.2743
 6270SOL    HW220295   7.042   7.344   2.105 -0.5764  0.6446  0.5900
 6271SOL     OW20296   4.158   3.931   5.060 -0.2046  0.0693 -0.3311
 6271SOL    HW120297   4.069   3.918   5.092 -1.1073  1.6577 -2.1133
 6271SOL    HW220298   4.149   3.942   4.965  1.9249 -0.0916 -0.5904
 6272SOL     OW20299   2.580   7.703   0.443 -0.2264 -0.4460  0.0211
 6272SOL    HW120300   2.636   7.628   0.465 -1.0304 -1.3462 -0.9734
 6272SOL    HW220301   2.491   7.670   0.457 -0.6400 -0.1444 -1.8543
 6273SOL     OW20302   6.022   4.578   6.675  0.5270  0.2684 -0.0674
 6273SOL    HW120303   5.961   4.635   6.629  0.1403  0.6042  0.8599
 6273SOL    HW220304   6.004   4.491   6.640  0.3331  0.5402 -0.6505
 6274SOL     OW20305   7.269   3.095   0.516 -0.0334 -0.3423  0.4225
 6274SOL    HW120306   7.309   3.182   0.519  0.6290 -0.6352  0.3496
 6274SOL    HW220307   7.344   3.035   0.519 -0.4221 -0.8970 -0.5801
 6275SOL     OW20308   6.394   7.067   8.304  0.2573 -0.0264 -0.3833
 6275SOL    HW120309   6.391   6.979   8.265 -1.0684  0.4223 -1.3425
 6275SOL    HW220310   6.311   7.107   8.279  0.6923  1.3797  0.3553
 6276SOL     OW20311   3.031   0.275   1.204 -0.0659  0.0382 -0.4386
 6276SOL    HW120312   3.082   0.206   1.246  0.9016  0.0203 -1.6144
 6276SOL    HW220313   3.015   0.338   1.274 -4.2246 -3.0825  1.6602
 6277SOL     OW20314   6.177   4.794   1.132 -0.3386  0.1384 -0.0007
 6277SOL    HW120315   6.106   4.852   1.159 -1.4474 -0.9770 -0.4870
 6277SOL    HW220316   6.225   4.845   1.067 -0.5903  0.9682  0.4592
 6278SOL     OW20317   1.537   6.839   0.760 -0.3031 -0.1919 -0.4636
 6278SOL    HW120318   1.458   6.784   0.759 -0.3270 -0.1507 -1.8959
 6278SOL    HW220319   1.504   6.928   0.757 -0.2276 -0.1161  0.5914
 6279SOL     OW20320   4.795   2.831   8.000  0.2901 -0.2265 -0.2850
 6279SOL    HW120321   4.845   2.892   7.945  1.9709 -1.0635  0.2676
 6279SOL    HW220322   4.769   2.761   7.940  1.5912 -0.8239 -0.1890
 6280SOL     OW20323   7.626   0.465   6.428  0.3199  0.5097  0.3961
 6280SOL    HW120324   7.666   0.379   6.438  0.8757  0.8764  1.3228
 6280SOL    HW220325   7.681   0.510   6.364  0.8551  0.6762  0.9664
 6281SOL     OW20326   6.055   0.840   5.872 -0.4682  0.5078 -0.0858
 6281SOL    HW120327   6.130   0.857   5.814 -3.4161  1.0868 -3.9006
 6281SOL    HW220328   6.069   0.899   5.947  3.0980  0.2279 -0.4434
 6282SOL     OW20329   5.729   5.491   7.600  0.2329 -0.5634  0.6679
 6282SOL    HW120330   5.810   5.526   7.562  0.8365  0.2044  2.6285
 6282SOL    HW220331   5.733   5.397   7.581  1.3576 -0.4665  0.3686
 6283SOL     OW20332   6.879   0.605   2.447  0.2820 -0.7414  0.1920
 6283SOL    HW120333   6.821   0.564   2.511  0.4143 -1.1845  0.0313
 6283SOL    HW220334   6.833   0.683   2.419  0.0332 -0.7696  0.5154
 6284SOL     OW20335   4.687   7.265   2.800 -0.1149  0.4105  0.2719
 6284SOL    HW120336   4.604   7.307   2.780 -1.3050 -2.7124 -1.8045
 6284SOL    HW220337   4.743   7.286   2.725  0.5776  1.5071  1.0918
 6285SOL     OW20338   1.641   0.960   0.315  0.3905 -0.5129 -0.1192
 6285SOL    HW120339   1.572   0.972   0.380  1.1744  1.4114  0.3999
 6285SOL    HW220340   1.616   0.881   0.268 -1.7400 -0.2960  0.5857
 6286SOL     OW20341   0.994   6.702   0.780 -0.3615  0.2833  0.1172
 6286SOL    HW120342   0.956   6.632   0.726  3.6230 -1.1466 -1.0683
 6286SOL    HW220343   1.001   6.777   0.721  1.1873 -0.3428 -0.5329
 6287SOL     OW20344   6.677   2.399   7.502 -0.4582  0.2593 -0.2214
 6287SOL    HW120345   6.624   2.459   7.555 -0.8977  0.2032 -0.5860
 6287SOL    HW220346   6.714   2.454   7.433  0.2248  0.3580  0.2214
 6288SOL     OW20347   4.465   0.070   0.337 -0.3315 -0.2729 -0.4605
 6288SOL    HW120348   4.463  -0.025   0.346  0.3538 -0.1585  0.9864
 6288SOL    HW220349   4.536   0.087   0.275  0.9134 -0.6104  0.8481
 6289SOL     OW20350   7.763   2.619   0.850 -0.0129 -0.4707  0.3734
 6289SOL    HW120351   7.848   2.611   0.808 -0.1932 -2.9433  0.3773
 6289SOL    HW220352   7.781   2.611   0.944 -0.2764 -1.3429  0.3538
 6290SOL     OW20353   2.505   2.642   3.753 -0.7235  0.4219  0.0612
 6290SOL    HW120354   2.479   2.550   3.741 -1.5990  0.7430 -0.5635
 6290SOL    HW220355   2.601   2.639   3.754 -0.7186 -0.3796 -1.0394
 6291SOL     OW20356   7.908   0.277   4.099  0.1738 -0.0870 -1.6096
 6291SOL    HW120357   7.841   0.303   4.036  0.0468  2.4822 -0.4962
 6291SOL    HW220358   7.886   0.187   4.122 -2.1644  0.2915 -2.2265
 6292SOL     OW20359   1.639   7.361   0.121  0.0217 -0.3392  0.3559
 6292SOL    HW120360   1.593   7.283   0.154 -0.3406 -0.5901 -0.7232
 6292SOL    HW220361   1.608   7.432   0.177 -0.8119 -0.7098  0.3749
 6293SOL     OW20362   5.728   0.871   7.798  0.6961  0.4958  0.0312
 6293SOL    HW120363   5.743   0.949   7.744  5.1336  1.2331  2.1336
 6293SOL    HW220364   5.766   0.799   7.747  2.2195  0.7284  0.8158
 6294SOL     OW20365   2.269   3.775   2.462 -0.1789  0.5964  0.4361
 6294SOL    HW120366   2.200   3.818   2.411  1.8725  2.3554 -0.9389
 6294SOL    HW220367   2.310   3.714   2.401 -0.6469 -0.6065  1.3121
 6295SOL     OW20368   0.677   5.639   5.804 -0.2775  0.2048  0.1295
 6295SOL    HW120369   0.682   5.544   5.790 -1.8529 -0.0410  1.1188
 6295SOL    HW220370   0.604   5.667   5.748  1.0609  1.0726 -1.2341
 6296SOL     OW20371   2.564   7.489   0.911 -0.6903  0.4638  0.0501
 6296SOL    HW120372   2.654   7.514   0.890  0.1300 -1.8235  0.6748
 6296SOL    HW220373   2.551   7.517   1.001 -0.8240  1.3621 -0.2461
 6297SOL     OW20374   0.150   0.199   6.531 -0.0732 -0.5815  0.0272
 6297SOL    HW120375   0.180   0.109   6.521 -0.0253 -0.9497  3.0455
 6297SOL    HW220376   0.225   0.245   6.570 -1.4945 -0.2758  2.5259
 6298SOL     OW20377   1.768   7.768   7.675 -0.8801 -0.5782  0.1319
 6298SOL    HW120378   1.819   7.720   7.741 -2.2176  0.4327  1.9682
 6298SOL    HW220379   1.765   7.710   7.600  0.5539 -1.8491  1.0273
 6299SOL     OW20380   2.803   2.547   3.604 -0.4608  0.3807 -0.4925
 6299SOL    HW120381   2.896   2.528   3.595 -0.3624  1.6554 -2.6698
 6299SOL    HW220382   2.781   2.521   3.693  1.7404 -0.9026 -0.2966
 6300SOL     OW20383   4.727   3.169   3.657  0.0805 -0.9305  0.1432
 6300SOL    HW120384   4.763   3.252   3.625 -1.1793 -0.5220 -0.2399
 6300SOL    HW220385   4.723   3.178   3.752 -2.6637  0.5523 -0.0651
 6301SOL     OW20386   0.665   7.664   1.791  0.1061 -0.2254 -0.3727
 6301SOL    HW120387   0.578   7.626   1.805  0.3198 -1.0389 -1.1836
 6301SOL    HW220388   0.726   7.594   1.816  0.5725  0.8973  1.7715
 6302SOL     OW20389   2.637   6.831   6.608  0.4185 -0.3286 -0.4690
 6302SOL    HW120390   2.724   6.829   6.649  0.2012 -1.5044 -0.0400
 6302SOL    HW220391   2.583   6.777   6.666 -0.5199  0.1272 -0.9198
 6303SOL     OW20392   7.143   7.756   6.686 -0.5372 -0.1141  0.1198
 6303SOL    HW120393   7.232   7.748   6.651  0.4022  0.8746  2.1931
 6303SOL    HW220394   7.126   7.850   6.683 -0.5087 -0.0355  2.1048
 6304SOL     OW20395   4.720   1.395   8.161 -0.7043 -0.1915 -0.0782
 6304SOL    HW120396   4.695   1.393   8.069 -1.3991  0.1576  0.1020
 6304SOL    HW220397   4.804   1.441   8.162 -1.1419  0.6196 -0.4368
 6305SOL     OW20398   7.095   2.744   3.362 -0.3177  0.1900  0.1709
 6305SOL    HW120399   7.177   2.757   3.409  0.4624 -0.3699 -1.0001
 6305SOL    HW220400   7.122   2.731   3.271 -1.5971 -1.3866 -0.0084
 6306SOL     OW20401   3.066   7.599   1.169  0.4579  0.0078  0.0379
 6306SOL    HW120402   3.070   7.583   1.075 -0.8006 -0.5569  0.0813
 6306SOL    HW220403   3.140   7.658   1.186  0.8496 -0.0988 -1.2539
 6307SOL     OW20404   3.204   1.392   4.644 -0.0011 -0.2007 -0.0073
 6307SOL    HW120405   3.115   1.390   4.609  0.2904  0.6214 -0.8235
 6307SOL    HW220406   3.257   1.427   4.572  0.8719 -0.0210  0.7097
 6308SOL     OW20407   2.874   6.053   1.993 -0.8664 -0.1964 -0.0428
 6308SOL    HW120408   2.792   6.022   1.955 -0.2803 -1.6158 -0.1963
 6308SOL    HW220409   2.939   5.987   1.968  0.0104  0.0890  1.3801
 6309SOL     OW20410   5.284   7.216   7.115 -0.0388  0.1789  0.3104
 6309SOL    HW120411   5.322   7.136   7.150 -0.4008  0.6695  1.8589
 6309SOL    HW220412   5.190   7.197   7.110 -0.1408  0.5581  0.8116
 6310SOL     OW20413   2.894   1.530   7.632  0.6464 -0.6623 -0.7395
 6310SOL    HW120414   2.826   1.476   7.671  0.6200 -1.4016 -1.7864
 6310SOL    HW220415   2.974   1.476   7.638  0.5208 -1.0598 -2.2384
 6311SOL     OW20416   2.618   0.966   0.192 -0.0080  0.3775  0.2747
 6311SOL    HW120417   2.576   0.943   0.275  0.2255  2.3290  0.9578
 6311SOL    HW220418   2.560   0.928   0.125 -0.6094 -0.5427  1.2920
 6312SOL     OW20419   2.986   5.820   7.345 -0.0650 -0.2441 -0.1575
 6312SOL    HW120420   3.011   5.790   7.432  0.4201  0.5124 -0.0333
 6312SOL    HW220421   2.895   5.849   7.354 -0.5344 -1.6519 -0.2752
 6313SOL     OW20422   3.336   5.945   1.201 -0.1826  0.1245 -0.3630
 6313SOL    HW120423   3.349   5.957   1.107  2.2348 -0.5042 -0.1458
 6313SOL    HW220424   3.277   6.015   1.227 -1.0402  0.1704 -2.3920
 6314SOL     OW20425   6.598   7.098   5.962  0.0620 -0.6211  0.1522
 6314SOL    HW120426   6.693   7.104   5.956  0.1096 -0.6669  0.8574
 6314SOL    HW220427   6.570   7.071   5.874  0.7759 -1.6732  0.2416
 6315SOL     OW20428   1.167   1.232   5.689  0.2116  0.2267  0.3160
 6315SOL    HW120429   1.248   1.221   5.738  0.0635  0.5057  0.6253
 6315SOL    HW220430   1.157   1.327   5.679  0.5162  0.1605 -0.7146
 6316SOL     OW20431   6.794   4.179   5.249  0.2078 -0.3974 -0.1477
 6316SOL    HW120432   6.742   4.189   5.169 -0.8160 -0.9670  0.4400
 6316SOL    HW220433   6.730   4.162   5.318  1.2016 -1.5674  0.5073
 6317SOL     OW20434   4.519   2.686   7.052 -0.2717 -0.1671  0.2835
 6317SOL    HW120435   4.519   2.618   6.985 -1.4494  1.6500 -1.6262
 6317SOL    HW220436   4.432   2.680   7.092 -0.3240  0.1108  0.2138
 6318SOL     OW20437   0.694   5.272   2.174 -0.2691 -0.5390 -0.0502
 6318SOL    HW120438   0.750   5.194   2.183 -0.0606 -0.2950  0.8325
 6318SOL    HW220439   0.611   5.238   2.141 -0.1597 -1.1371  0.2702
 6319SOL     OW20440   5.684   6.801   3.573  0.2181  0.6608 -0.3088
 6319SOL    HW120441   5.677   6.776   3.481 -1.9466  1.1266 -0.3015
 6319SOL    HW220442   5.635   6.883   3.580  0.7210  0.8540  1.1704
 6320SOL     OW20443   6.284   0.199   1.967  0.3677 -0.0817 -0.6389
 6320SOL    HW120444   6.200   0.152   1.962 -0.1958  0.7661  0.7057
 6320SOL    HW220445   6.313   0.205   1.876 -1.5123  0.4668 -1.2322
 6321SOL     OW20446   7.852   3.149   5.767 -0.2859 -0.4221 -0.4953
 6321SOL    HW120447   7.798   3.090   5.819 -2.4117  0.8322 -1.2432
 6321SOL    HW220448   7.804   3.160   5.685  0.2780  2.0193 -0.5322
 6322SOL     OW20449   7.974   6.565   7.744  0.0637 -0.5496  0.4728
 6322SOL    HW120450   7.981   6.534   7.654 -0.6436 -0.0313  0.2374
 6322SOL    HW220451   7.913   6.504   7.786 -1.5850  0.6616 -0.0762
 6323SOL     OW20452   3.233   3.371   0.769  0.1093  0.0501 -0.3777
 6323SOL    HW120453   3.295   3.298   0.762  0.5663  0.1128  2.5102
 6323SOL    HW220454   3.276   3.443   0.723  0.3251 -1.0474 -1.9547
 6324SOL     OW20455   1.508   3.365   5.156  0.2642  0.0552  0.3874
 6324SOL    HW120456   1.493   3.309   5.079 -0.1442 -1.0351  1.2526
 6324SOL    HW220457   1.441   3.433   5.148 -0.4891 -0.6793  0.3528
 6325SOL     OW20458   5.587   0.080   6.493  0.1139 -0.1943  0.0866
 6325SOL    HW120459   5.607   0.073   6.400 -0.1022  1.4127 -0.0912
 6325SOL    HW220460   5.507   0.132   6.497 -0.1170 -0.6051  1.1595
 6326SOL     OW20461   2.071   7.669   0.536  0.4224 -0.0143 -0.4617
 6326SOL    HW120462   2.001   7.687   0.598 -0.6353  0.9282 -1.8933
 6326SOL    HW220463   2.106   7.755   0.512  1.2879 -0.4042 -0.6366
 6327SOL     OW20464   0.647   3.970   4.619  0.1881  0.2785 -0.5478
 6327SOL    HW120465   0.719   3.998   4.563  1.0792 -0.6692  0.0934
 6327SOL    HW220466   0.634   4.043   4.680  0.5225  0.5066 -0.7472
 6328SOL     OW20467   1.507   1.972   4.812 -0.0749  0.7325 -0.0797
 6328SOL    HW120468   1.450   1.982   4.736 -1.8809  1.2321  1.3200
 6328SOL    HW220469   1.455   1.922   4.875 -0.3828  4.3604  2.6497
 6329SOL     OW20470   2.334   1.646   7.435  0.1673 -0.2420  0.0152
 6329SOL    HW120471   2.416   1.693   7.453 -0.2466  0.0492  1.1733
 6329SOL    HW220472   2.292   1.698   7.366  0.6371 -0.0061 -0.1007
 6330SOL     OW20473   8.229   5.954   4.323  0.2178 -0.2289  0.2655
 6330SOL    HW120474   8.162   5.981   4.386 -0.4465  0.5815 -0.7582
 6330SOL    HW220475   8.306   5.935   4.376  0.2684  2.3322  1.1853
 6331SOL     OW20476   6.058   7.353   3.877  0.2705  0.2200  0.3171
 6331SOL    HW120477   6.060   7.261   3.852  0.7225  0.3371 -0.1083
 6331SOL    HW220478   6.149   7.374   3.896 -0.0313  0.2287  1.7499
 6332SOL     OW20479   5.826   5.076   7.236  0.4696 -0.0693 -0.0552
 6332SOL    HW120480   5.743   5.031   7.248  0.5148  0.2544  1.5422
 6332SOL    HW220481   5.889   5.007   7.216  0.0175 -0.4076 -0.3102
 6333SOL     OW20482   5.452   5.235   1.159  0.0811  0.4925 -0.2434
 6333SOL    HW120483   5.427   5.320   1.193 -4.7777 -1.3543  1.2650
 6333SOL    HW220484   5.418   5.234   1.069 -0.0799  0.0815 -0.1803
 6334SOL     OW20485   1.506   3.247   7.473  0.3736 -0.0466 -0.1251
 6334SOL    HW120486   1.507   3.234   7.568 -3.0403  0.2572  0.0253
 6334SOL    HW220487   1.553   3.329   7.460 -0.1210  0.5128  1.4171
 6335SOL     OW20488   7.581   3.904   0.483  0.2241  0.1032 -0.4420
 6335SOL    HW120489   7.576   3.999   0.474  2.3217  0.3999  1.0901
 6335SOL    HW220490   7.675   3.885   0.483 -0.1063 -1.7199  1.4438
 6336SOL     OW20491   8.002   1.907   0.598  0.0588 -0.3553 -0.4330
 6336SOL    HW120492   7.949   1.844   0.647 -1.2930  0.4905 -0.7570
 6336SOL    HW220493   7.973   1.896   0.507 -0.2258  0.7469 -0.4818
 6337SOL     OW20494   4.543   3.181   7.837  0.3709 -0.3770  0.2973
 6337SOL    HW120495   4.601   3.177   7.913  0.1205  1.5454  0.6143
 6337SOL    HW220496   4.503   3.095   7.833  2.1299 -1.2584  0.9642
 6338SOL     OW20497   4.909   7.450   3.932 -1.0519  0.0477  0.0152
 6338SOL    HW120498   4.875   7.379   3.986  0.0507 -1.4978 -1.2914
 6338SOL    HW220499   4.842   7.465   3.866 -1.1735  0.0399  0.1375
 6339SOL     OW20500   8.019   2.249   1.139 -0.1047  0.0313  0.3519
 6339SOL    HW120501   8.047   2.264   1.229  1.3737 -0.5442 -0.0042
 6339SOL    HW220502   8.068   2.314   1.088 -1.7282  1.0733  0.0687
 6340SOL     OW20503   8.188   2.736   5.103  0.4617  0.0578  0.4346
 6340SOL    HW120504   8.197   2.646   5.135  0.1978  0.0839  0.5854
 6340SOL    HW220505   8.261   2.783   5.142 -0.6085  0.3913  2.0720
 6341SOL     OW20506   5.761   7.846   7.282 -0.4380  0.0919  0.5685
 6341SOL    HW120507   5.825   7.907   7.318  0.3005 -0.1238 -0.3540
 6341SOL    HW220508   5.805   7.760   7.285 -0.2902  0.0946 -0.9752
 6342SOL     OW20509   6.996   3.894   0.202 -0.2968  0.1531 -0.2041
 6342SOL    HW120510   6.992   3.869   0.294  1.0110 -1.7019 -0.6486
 6342SOL    HW220511   6.915   3.944   0.189 -0.9047 -0.2465  1.7370
 6343SOL     OW20512   3.983   0.873   5.822 -0.6402 -0.1599 -0.0627
 6343SOL    HW120513   3.904   0.921   5.844 -1.5953 -2.4932  1.7699
 6343SOL    HW220514   3.982   0.867   5.727 -1.3033  2.0129 -0.2248
 6344SOL     OW20515   4.372   6.737   4.755  0.2674  0.1441 -0.6906
 6344SOL    HW120516   4.361   6.826   4.788  0.7336  0.1600 -0.5771
 6344SOL    HW220517   4.327   6.682   4.820 -2.4810  0.5006 -2.1866
 6345SOL     OW20518   4.994   5.298   3.064  0.0385  0.1763  0.0259
 6345SOL    HW120519   5.040   5.328   2.985  1.2494  1.7457  1.3025
 6345SOL    HW220520   4.911   5.346   3.063 -1.3470 -2.1091 -1.8848
 6346SOL     OW20521   5.537   3.782   4.128  0.6828  0.2817 -0.5905
 6346SOL    HW120522   5.579   3.704   4.165  0.9205  0.2907 -0.8410
 6346SOL    HW220523   5.457   3.749   4.088  1.2232  0.0332 -1.4742
 6347SOL     OW20524   5.373   5.626   6.041  0.4606  0.2406 -0.0841
 6347SOL    HW120525   5.350   5.661   5.955  0.9557 -2.0202 -1.1774
 6347SOL    HW220526   5.458   5.584   6.028 -0.3335 -1.7696  1.0216
 6348SOL     OW20527   6.356   1.530   6.450 -0.1407 -0.1666  0.0559
 6348SOL    HW120528   6.399   1.614   6.432  0.3946 -0.4979 -0.2069
 6348SOL    HW220529   6.308   1.511   6.369 -0.6262  0.1063  0.2780
 6349SOL     OW20530   2.202   6.367   3.213 -0.4665 -0.2057 -0.4880
 6349SOL    HW120531   2.170   6.338   3.299 -1.8632 -0.9581 -1.2452
 6349SOL    HW220532   2.250   6.448   3.232  1.8498 -1.9448  1.4031
 6350SOL     OW20533   6.277   0.489   4.792 -0.0047  0.0583  0.0907
 6350SOL    HW120534   6.336   0.549   4.838  2.0854 -1.0000 -1.1429
 6350SOL    HW220535   6.247   0.428   4.860  0.3307  0.5958  0.7218
 6351SOL     OW20536   0.016   3.468   5.149 -0.2768  0.0659  0.5406
 6351SOL    HW120537   0.096   3.492   5.195 -0.6679  1.2396  0.6229
 6351SOL    HW220538  -0.012   3.387   5.192 -0.3961  0.9048  2.1008
 6352SOL     OW20539   2.458   2.238   4.907 -0.2238  0.4048 -0.3335
 6352SOL    HW120540   2.398   2.296   4.955 -1.6552 -0.1113 -1.4797
 6352SOL    HW220541   2.474   2.284   4.824 -0.6973 -0.4309 -0.8970
 6353SOL     OW20542   6.973   5.699   6.187  0.3980  1.0541 -0.1462
 6353SOL    HW120543   7.007   5.663   6.269 -1.8191  0.9100  0.7641
 6353SOL    HW220544   7.050   5.717   6.134  1.7873 -0.4440  1.3205
 6354SOL     OW20545   6.796   0.735   8.133  0.0094 -0.2637 -0.1190
 6354SOL    HW120546   6.773   0.694   8.217 -0.4692  0.1320 -0.0577
 6354SOL    HW220547   6.729   0.801   8.119 -0.6130 -1.1516 -1.4079
 6355SOL     OW20548   0.792   6.543   3.478 -0.2822  0.4731 -0.0691
 6355SOL    HW120549   0.782   6.485   3.554 -0.7084 -0.6014 -0.9323
 6355SOL    HW220550   0.871   6.511   3.434 -0.9117  0.0930 -0.9324
 6356SOL     OW20551   3.575   2.873   3.836  0.8326 -0.2601 -0.3322
 6356SOL    HW120552   3.586   2.880   3.742  1.4625 -1.5869 -0.3736
 6356SOL    HW220553   3.483   2.851   3.848  0.6294  0.4276 -0.6000
 6357SOL     OW20554   3.007   5.327   5.842  0.0842  0.5189  0.1564
 6357SOL    HW120555   3.046   5.398   5.893  1.1779 -1.8826  2.8133
 6357SOL    HW220556   3.078   5.295   5.787  0.0244  0.4490  0.1198
 6358SOL     OW20557   3.178   7.458   4.887 -0.4881  0.0980 -0.0427
 6358SOL    HW120558   3.143   7.371   4.866  1.7584 -1.2461  1.5332
 6358SOL    HW220559   3.255   7.467   4.831  0.4907  0.1600  1.2847
 6359SOL     OW20560   3.005   6.488   4.888  0.6687 -0.2150 -0.2822
 6359SOL    HW120561   2.939   6.527   4.947 -2.0824 -3.1871 -1.2847
 6359SOL    HW220562   3.044   6.564   4.844 -0.2773  1.7946  2.1853
 6360SOL     OW20563   4.463   8.096   4.606 -0.1870 -0.4713  0.2002
 6360SOL    HW120564   4.450   8.057   4.692 -0.4250  0.9013  0.7885
 6360SOL    HW220565   4.542   8.150   4.616  0.4662 -1.2245 -0.7595
 6361SOL     OW20566   2.001   4.016   3.642 -0.5626 -0.0121  0.0296
 6361SOL    HW120567   2.013   4.017   3.547 -1.0999  2.7300 -0.0283
 6361SOL    HW220568   2.086   4.043   3.677 -1.5194  2.8984  0.1748
 6362SOL     OW20569   3.115   2.559   2.264  0.0909  0.0637  0.8774
 6362SOL    HW120570   3.030   2.541   2.224 -0.0309 -0.4429  1.3682
 6362SOL    HW220571   3.156   2.473   2.275  1.2653  0.4012 -0.6663
 6363SOL     OW20572   8.310   7.670   4.187  0.0911  0.0163  0.2645
 6363SOL    HW120573   8.226   7.696   4.224 -0.4739  1.1596 -1.7001
 6363SOL    HW220574   8.339   7.597   4.241 -1.4601  0.5524  1.8715
 6364SOL     OW20575   6.418   1.581   0.092 -0.5522  0.6745  0.0836
 6364SOL    HW120576   6.400   1.672   0.118 -1.1764  1.0525 -1.5487
 6364SOL    HW220577   6.493   1.555   0.144 -0.5895  2.0258  0.8322
 6365SOL     OW20578   0.941   1.979   7.420 -0.1699 -0.1722 -0.3032
 6365SOL    HW120579   0.946   1.993   7.514  1.7073  0.4184 -0.4708
 6365SOL    HW220580   0.847   1.969   7.402 -0.6086  0.5937  1.4829
 6366SOL     OW20581   2.939   3.426   4.766  0.4745 -0.0180  0.3720
 6366SOL    HW120582   2.994   3.445   4.690  0.4709 -1.3429  0.0205
 6366SOL    HW220583   3.001   3.414   4.838  0.4592  1.5886  0.6723
 6367SOL     OW20584   3.430   5.369   8.093 -0.8163  0.0141  0.1609
 6367SOL    HW120585   3.407   5.352   8.184 -0.3632  2.2106  0.7196
 6367SOL    HW220586   3.516   5.327   8.081 -1.5173 -1.5048  0.2950
 6368SOL     OW20587   7.502   7.798   7.346  0.1238  0.7665  0.2880
 6368SOL    HW120588   7.487   7.705   7.364  1.6103  0.3870 -0.3671
 6368SOL    HW220589   7.442   7.819   7.275 -0.9659  0.5852  1.1377
 6369SOL     OW20590   2.688   6.915   2.095  0.0510  0.1359 -0.2202
 6369SOL    HW120591   2.689   6.833   2.046  0.3134  0.1291 -0.2025
 6369SOL    HW220592   2.755   6.904   2.162  2.4081  1.6030 -2.2556
 6370SOL     OW20593   2.538   6.629   3.505  0.2425 -0.2289  0.2864
 6370SOL    HW120594   2.546   6.634   3.600  1.1027  1.6459  0.1413
 6370SOL    HW220595   2.628   6.614   3.474 -0.2554 -2.3938 -0.1583
 6371SOL     OW20596   7.011   3.373   3.414  0.0424 -0.1420 -0.0079
 6371SOL    HW120597   7.098   3.390   3.378 -1.5300  1.8404 -3.0908
 6371SOL    HW220598   6.995   3.447   3.472  0.8784 -1.1614  1.5572
 6372SOL     OW20599   1.585   4.044   3.971  0.0372  0.3240  0.0428
 6372SOL    HW120600   1.675   4.017   3.991 -0.1956 -1.1054 -0.7743
 6372SOL    HW220601   1.552   3.976   3.913 -0.5175  2.5149 -2.2714
 6373SOL     OW20602   6.888   7.076   8.161 -0.0279 -0.4477  0.0864
 6373SOL    HW120603   6.891   7.070   8.257 -1.2366  1.0141  0.2352
 6373SOL    HW220604   6.901   6.986   8.131  2.3610 -0.6576  1.5649
 6374SOL     OW20605   2.372   1.316   7.840 -0.6115 -0.1777  0.3896
 6374SOL    HW120606   2.318   1.391   7.815 -0.1331 -0.0631 -0.3178
 6374SOL    HW220607   2.321   1.240   7.811 -1.1797 -0.1442  1.2698
 6375SOL     OW20608   6.671   3.487   3.369 -0.4603 -0.2188 -0.2810
 6375SOL    HW120609   6.580   3.478   3.395 -0.4285 -0.2452 -0.1754
 6375SOL    HW220610   6.682   3.580   3.348 -0.4879 -0.1979 -0.2017
 6376SOL     OW20611   5.459   6.556   5.277 -0.7386 -0.2672 -0.4409
 6376SOL    HW120612   5.493   6.554   5.366  1.3192 -1.6740 -1.2153
 6376SOL    HW220613   5.536   6.544   5.221 -1.4528  4.1267 -2.5984
 6377SOL     OW20614   3.954   4.095   3.841 -0.5123 -0.3717  0.2597
 6377SOL    HW120615   3.947   4.064   3.932  1.0332 -0.5910  0.3127
 6377SOL    HW220616   3.890   4.043   3.793  2.0457 -3.7105  0.3416
 6378SOL     OW20617   1.627   3.537   0.132  0.3217 -0.3722 -0.1622
 6378SOL    HW120618   1.557   3.566   0.191 -0.3294 -0.4660 -0.8688
 6378SOL    HW220619   1.583   3.478   0.071  0.6123  1.0968 -1.8296
 6379SOL     OW20620   3.127   0.358   0.963 -0.4619  0.8803  0.2748
 6379SOL    HW120621   3.065   0.324   1.028 -0.3632 -1.7422 -0.9578
 6379SOL    HW220622   3.212   0.326   0.993 -0.4254 -0.4294 -1.1751
 6380SOL     OW20623   3.614   2.910   7.151  0.1314  0.2770  0.1248
 6380SOL    HW120624   3.576   2.973   7.212  0.3313 -0.6041  1.1673
 6380SOL    HW220625   3.661   2.964   7.087  0.1614  1.1893  0.9098
 6381SOL     OW20626   3.730   0.327   0.371  0.9720 -0.5106 -0.0441
 6381SOL    HW120627   3.639   0.356   0.367  1.6055  1.6804  0.6307
 6381SOL    HW220628   3.726   0.241   0.413 -0.8274 -0.7735 -0.6967
 6382SOL     OW20629   0.797   4.912   4.853 -0.3575 -0.6283  0.3428
 6382SOL    HW120630   0.823   5.003   4.863  0.0412 -0.4904 -1.8574
 6382SOL    HW220631   0.864   4.873   4.796 -1.8360 -1.6783 -0.7261
 6383SOL     OW20632   1.007   7.767   5.537  0.1763 -0.2082  0.0554
 6383SOL    HW120633   0.973   7.699   5.478  0.7238  0.1118 -0.6363
 6383SOL    HW220634   1.037   7.719   5.614 -4.0893 -0.3080  1.7975
 6384SOL     OW20635   7.775   1.593   7.439 -0.1227  0.0773 -1.1317
 6384SOL    HW120636   7.703   1.642   7.477  2.0587  1.6653  1.1154
 6384SOL    HW220637   7.773   1.615   7.346 -1.6421  1.1863 -0.8479
 6385SOL     OW20638   2.449   1.460   0.583 -0.2613 -0.6993  0.0733
 6385SOL    HW120639   2.384   1.394   0.560 -2.8439  1.8287 -0.2527
 6385SOL    HW220640   2.432   1.479   0.675 -0.3426  0.3074 -0.1387
 6386SOL     OW20641   6.723   5.289   1.892 -0.0424 -0.2630  0.2156
 6386SOL    HW120642   6.788   5.229   1.927 -1.4414 -1.9199  0.0520
 6386SOL    HW220643   6.671   5.236   1.832  0.2910  1.7552 -1.9003
 6387SOL     OW20644   5.608   7.119   6.834  0.6888  0.5324 -0.5060
 6387SOL    HW120645   5.532   7.176   6.824  0.8403  0.6633 -0.9520
 6387SOL    HW220646   5.592   7.070   6.914 -0.0119  0.3428 -0.7638
 6388SOL     OW20647   0.596   5.525   3.898 -0.5059  0.3479 -0.2376
 6388SOL    HW120648   0.559   5.586   3.834 -2.2333  1.7760  2.0338
 6388SOL    HW220649   0.565   5.557   3.983 -1.5874 -3.7488  1.0589
 6389SOL     OW20650   8.080   8.168   5.662 -0.4593  0.0092  0.2279
 6389SOL    HW120651   8.114   8.185   5.575 -0.5043  1.0281  0.4008
 6389SOL    HW220652   7.995   8.125   5.647 -0.3841  0.0229 -0.2248
 6390SOL     OW20653   5.388   3.665   1.837  0.2193 -0.1023 -0.1611
 6390SOL    HW120654   5.339   3.679   1.756  0.1447  0.9944  0.0615
 6390SOL    HW220655   5.467   3.718   1.826  1.4722 -2.0308 -0.6106
 6391SOL     OW20656   2.868   0.960   0.822  0.3961  0.1480 -0.0687
 6391SOL    HW120657   2.795   0.979   0.881 -0.3599 -1.1991 -0.5470
 6391SOL    HW220658   2.874   0.864   0.822  1.8152  0.2311 -0.4597
 6392SOL     OW20659   1.239   3.839   0.706  0.4851 -0.7432 -0.7639
 6392SOL    HW120660   1.180   3.888   0.762  0.2914 -0.6607 -1.0407
 6392SOL    HW220661   1.327   3.863   0.737  0.4110  0.1865 -1.2323
 6393SOL     OW20662   3.583   1.124   3.313  0.2550  0.7173  0.5110
 6393SOL    HW120663   3.604   1.053   3.253  1.3677  0.9274  0.6396
 6393SOL    HW220664   3.661   1.135   3.367  0.2049  2.2093  0.3178
 6394SOL     OW20665   5.690   2.410   3.458  0.1839  0.2379  0.1908
 6394SOL    HW120666   5.712   2.396   3.550 -1.3718 -0.6795  0.4404
 6394SOL    HW220667   5.643   2.493   3.456  0.6278  0.4896  0.1520
 6395SOL     OW20668   2.322   1.744   6.314 -0.6635 -0.2622 -0.2709
 6395SOL    HW120669   2.383   1.819   6.317  0.1167 -0.8490 -1.0891
 6395SOL    HW220670   2.244   1.779   6.270 -0.6667  0.3274  0.2036
 6396SOL     OW20671   2.626   5.733   1.374 -0.1252 -0.1458  0.5176
 6396SOL    HW120672   2.670   5.665   1.425 -0.5693 -1.0683 -0.3213
 6396SOL    HW220673   2.539   5.697   1.355 -0.8716  1.2213  1.2522
 6397SOL     OW20674   5.188   2.827   6.925  0.1034 -0.2058  0.2202
 6397SOL    HW120675   5.165   2.920   6.928  0.1776 -0.1894  0.2936
 6397SOL    HW220676   5.143   2.790   7.001  0.2530 -0.1895  0.3162
 6398SOL     OW20677   3.612   4.945   0.018 -0.0691  0.0741  0.2395
 6398SOL    HW120678   3.604   5.023   0.073 -0.5082  0.0875  0.1552
 6398SOL    HW220679   3.634   4.875   0.080  3.2463  0.7832 -0.0243
 6399SOL     OW20680   3.280   7.798   8.112  0.3368  0.2425 -0.2520
 6399SOL    HW120681   3.308   7.853   8.185 -1.7638 -0.9317  1.4878
 6399SOL    HW220682   3.188   7.778   8.130  0.0232 -0.8061 -2.7641
 6400SOL     OW20683   6.627   0.670   3.966  0.0414 -0.0131 -0.2395
 6400SOL    HW120684   6.543   0.699   3.929 -0.0199 -0.2697 -0.3086
 6400SOL    HW220685   6.614   0.673   4.060 -0.2960 -0.7502 -0.2526
 6401SOL     OW20686   2.543   2.902   7.679 -0.2332 -0.0667 -1.1409
 6401SOL    HW120687   2.604   2.888   7.607 -2.0354  0.8403 -2.9042
 6401SOL    HW220688   2.458   2.877   7.643 -1.6135  3.1158 -0.2745
 6402SOL     OW20689   7.456   5.069   1.101  0.2864 -0.1127 -0.1760
 6402SOL    HW120690   7.476   5.144   1.157 -0.4373 -0.3616  0.4307
 6402SOL    HW220691   7.459   4.994   1.161  0.9561 -0.5585 -0.7689
 6403SOL     OW20692   7.462   5.925   1.603 -0.0558  0.7307 -0.0611
 6403SOL    HW120693   7.475   5.914   1.697  0.1983 -0.4519 -0.2170
 6403SOL    HW220694   7.537   5.978   1.574 -0.4306  1.5637  0.4803
 6404SOL     OW20695   6.176   2.548   1.770 -0.0004  0.2623  0.5167
 6404SOL    HW120696   6.237   2.609   1.812  2.2559 -0.6896 -1.2759
 6404SOL    HW220697   6.187   2.563   1.676 -1.6927 -0.7581  0.1250
 6405SOL     OW20698   0.921   0.606   2.925  0.2233  0.4857  0.3707
 6405SOL    HW120699   0.859   0.534   2.938  0.6685  0.3804  1.9521
 6405SOL    HW220700   0.922   0.620   2.830  0.0662 -1.5394  0.0544
 6406SOL     OW20701   0.059   2.927   4.022 -0.2656 -0.1254  0.0044
 6406SOL    HW120702   0.075   2.839   4.055  0.0280 -0.1754 -0.2668
 6406SOL    HW220703  -0.013   2.960   4.075 -0.0970 -0.3740  0.3888
 6407SOL     OW20704   6.677   3.143   0.715  0.7735 -0.2280  0.0950
 6407SOL    HW120705   6.768   3.151   0.688  0.7472 -0.7744 -0.1512
 6407SOL    HW220706   6.659   3.049   0.714  0.4373 -0.1767  0.9079
 6408SOL     OW20707   3.943   4.305   1.965 -0.0609 -0.2107 -0.1206
 6408SOL    HW120708   3.956   4.218   1.928  2.4107 -0.7089  1.7609
 6408SOL    HW220709   3.983   4.364   1.901 -1.6760 -0.4435 -1.3639
 6409SOL     OW20710   7.801   6.310   4.202 -0.0915  0.4326  0.0775
 6409SOL    HW120711   7.768   6.334   4.288  1.4483  0.5543  0.6485
 6409SOL    HW220712   7.789   6.388   4.148  0.6005  0.9425  0.6683
 6410SOL     OW20713   3.037   6.479   0.067 -0.5749 -0.5002  0.5430
 6410SOL    HW120714   2.993   6.564   0.062  0.4612  0.0053 -0.2284
 6410SOL    HW220715   3.103   6.490   0.135  1.2968  0.1602 -1.3200
 6411SOL     OW20716   7.537   1.380   4.431 -0.1339 -0.6389 -0.5866
 6411SOL    HW120717   7.571   1.299   4.470  0.8303 -0.1622 -0.4087
 6411SOL    HW220718   7.541   1.365   4.337 -2.0990 -1.6495 -0.5293
 6412SOL     OW20719   4.443   2.681   2.155 -0.5183  0.0786 -0.2677
 6412SOL    HW120720   4.385   2.706   2.083 -1.1785  0.5289  0.4221
 6412SOL    HW220721   4.400   2.714   2.233  1.8206  2.5737  0.0595
 6413SOL     OW20722   2.169   2.585   0.609 -0.6705  0.1182 -0.1974
 6413SOL    HW120723   2.121   2.665   0.589 -3.3672 -1.1549  0.9091
 6413SOL    HW220724   2.127   2.517   0.556  0.3778 -0.9007  0.2385
 6414SOL     OW20725   2.131   4.056   5.411 -0.3416 -0.3149 -0.3257
 6414SOL    HW120726   2.224   4.079   5.409 -0.1123 -1.0388  1.1514
 6414SOL    HW220727   2.092   4.118   5.473 -0.6904 -0.5112 -0.3507
 6415SOL     OW20728   2.199   2.592   5.240  0.3167 -0.0334 -0.9288
 6415SOL    HW120729   2.290   2.593   5.270  0.2080 -0.1122 -0.5922
 6415SOL    HW220730   2.148   2.608   5.320  0.0127 -0.5257 -1.0238
 6416SOL     OW20731   1.432   6.238   8.238 -0.0035  0.3616  0.6877
 6416SOL    HW120732   1.514   6.287   8.253  0.9202 -0.9878  0.1186
 6416SOL    HW220733   1.422   6.185   8.317 -0.0239  0.1033  0.5107
 6417SOL     OW20734   3.238   4.216   0.286  0.3390 -0.3198 -0.9706
 6417SOL    HW120735   3.256   4.291   0.343  1.8055 -1.4019  0.0304
 6417SOL    HW220736   3.144   4.204   0.292  0.5063 -0.6930  1.6302
 6418SOL     OW20737   4.541   4.802   2.780  0.2670  1.0719  0.0156
 6418SOL    HW120738   4.559   4.893   2.805  0.3294  1.4835 -1.4839
 6418SOL    HW220739   4.447   4.792   2.793  0.1666  1.5216 -0.3505
 6419SOL     OW20740   7.358   6.503   0.639 -0.4874 -0.5940  0.7435
 6419SOL    HW120741   7.355   6.413   0.606  1.1686  0.0340 -1.1792
 6419SOL    HW220742   7.445   6.513   0.677 -0.1593  0.6287 -0.3068
 6420SOL     OW20743   2.392   8.130   0.770 -0.0248  0.4290  0.9652
 6420SOL    HW120744   2.457   8.171   0.826  2.3103 -0.5957 -0.8893
 6420SOL    HW220745   2.411   8.036   0.776 -0.1506  0.2511 -0.9680
 6421SOL     OW20746   7.504   2.543   6.391  0.3191 -0.0842  0.2924
 6421SOL    HW120747   7.422   2.538   6.440 -1.1832 -0.5761 -2.1446
 6421SOL    HW220748   7.515   2.636   6.371 -0.4723 -0.1832 -0.6598
 6422SOL     OW20749   1.354   6.156   7.549  0.0240  0.0917 -0.0829
 6422SOL    HW120750   1.415   6.215   7.504 -0.1708 -0.9744 -1.8019
 6422SOL    HW220751   1.409   6.097   7.599  0.3098  0.3665 -0.0726
 6423SOL     OW20752   6.125   1.420   1.524 -0.5132  0.5253 -0.1344
 6423SOL    HW120753   6.200   1.370   1.555 -0.8029 -0.5495 -1.1529
 6423SOL    HW220754   6.157   1.464   1.445 -0.1432  2.2756  0.9610
 6424SOL     OW20755   5.382   5.418   7.879  0.4615  0.0710  0.4390
 6424SOL    HW120756   5.346   5.398   7.792 -0.8703  0.5930  0.8564
 6424SOL    HW220757   5.457   5.475   7.861 -0.5181  1.1567 -0.3233
 6425SOL     OW20758   7.519   4.071   6.013  0.4925  0.3972 -0.1199
 6425SOL    HW120759   7.542   4.003   5.950 -0.7205 -0.6255  0.5028
 6425SOL    HW220760   7.543   4.034   6.098 -1.3166  0.2031  0.3368
 6426SOL     OW20761   3.479   1.032   4.461 -0.2335 -0.2497  0.3503
 6426SOL    HW120762   3.456   1.056   4.371  2.2041  0.8522 -0.0197
 6426SOL    HW220763   3.404   0.981   4.493 -1.3969 -0.0959 -2.0762
 6427SOL     OW20764   3.169   1.053   5.884  0.0624  0.1187 -0.4501
 6427SOL    HW120765   3.098   1.109   5.852  0.3327  0.6772 -0.0824
 6427SOL    HW220766   3.124   0.977   5.920 -0.3982  0.7181  0.2726
 6428SOL     OW20767   0.139   4.454   5.453  0.6774 -0.2536 -0.4670
 6428SOL    HW120768   0.107   4.431   5.540 -1.1502  2.2277 -0.4340
 6428SOL    HW220769   0.187   4.536   5.467 -0.0317  0.4083 -1.8778
 6429SOL     OW20770   7.846   6.264   5.569 -0.4462 -0.0076  0.1430
 6429SOL    HW120771   7.904   6.278   5.494 -0.8166 -1.1353 -0.3625
 6429SOL    HW220772   7.811   6.176   5.557  0.1861 -0.5672  2.1180
 6430SOL     OW20773   5.834   1.314   7.170  0.1269  0.4659  0.2304
 6430SOL    HW120774   5.776   1.282   7.239 -2.6530  1.6382 -1.4884
 6430SOL    HW220775   5.852   1.237   7.116  0.9152 -0.0830  1.2563
 6431SOL     OW20776   5.801   2.180   4.932  0.4385  0.2381  0.4219
 6431SOL    HW120777   5.836   2.154   5.017  0.4053  0.8887  0.6352
 6431SOL    HW220778   5.825   2.107   4.874  2.2397  0.7055  0.5380
 6432SOL     OW20779   1.557   5.019   6.950 -0.2662  0.5043 -0.6887
 6432SOL    HW120780   1.468   4.986   6.968  0.8377 -1.9703  0.4859
 6432SOL    HW220781   1.546   5.077   6.875 -2.6868 -0.8169 -1.4227
 6433SOL     OW20782   7.538   8.137   2.621 -0.0336 -0.1282 -0.1194
 6433SOL    HW120783   7.550   8.101   2.533 -1.8810 -1.2072  0.0526
 6433SOL    HW220784   7.522   8.230   2.607  0.4484 -0.1515 -0.8608
 6434SOL     OW20785   3.633   1.902   4.227  0.2980 -0.4881 -0.1745
 6434SOL    HW120786   3.704   1.915   4.289  0.4648  1.7753 -0.7779
 6434SOL    HW220787   3.557   1.943   4.269  0.8179  2.7225 -2.1279
 6435SOL     OW20788   3.959   4.830   7.075 -0.1606  0.2094  0.3496
 6435SOL    HW120789   3.972   4.742   7.110 -1.8727 -0.6306 -0.9800
 6435SOL    HW220790   4.040   4.850   7.028 -0.5077 -1.5207 -1.0434
 6436SOL     OW20791   0.272   2.212   8.086 -0.2153  0.5707 -0.3434
 6436SOL    HW120792   0.232   2.231   8.001  1.3619 -0.3022 -1.3039
 6436SOL    HW220793   0.338   2.146   8.067 -0.4893 -0.3191  1.7313
 6437SOL     OW20794   0.765   6.670   7.610 -0.4501  0.8104 -0.2937
 6437SOL    HW120795   0.756   6.584   7.650 -0.3587  1.4259  1.0697
 6437SOL    HW220796   0.758   6.654   7.516  0.9574 -0.8626 -0.1235
 6438SOL     OW20797   3.148   1.382   2.533 -0.5044 -0.0691 -0.2390
 6438SOL    HW120798   3.095   1.417   2.604 -0.6654 -2.1418  0.6993
 6438SOL    HW220799   3.198   1.311   2.574  2.8999  1.7340 -1.1119
 6439SOL     OW20800   7.511   2.156   3.328 -0.5058  0.5351  0.4840
 6439SOL    HW120801   7.607   2.161   3.320 -0.4030 -1.2253  0.4220
 6439SOL    HW220802   7.483   2.111   3.249 -1.6528  3.2211 -0.6983
 6440SOL     OW20803   4.908   3.796   1.704 -0.0919 -0.2522 -0.6618
 6440SOL    HW120804   4.875   3.706   1.700 -2.5833  0.5411  0.8668
 6440SOL    HW220805   4.830   3.851   1.694  0.8957  1.7149  1.7919
 6441SOL     OW20806   7.225   7.175   1.491 -0.2937  0.4146 -0.1892
 6441SOL    HW120807   7.290   7.191   1.423 -0.8062  1.9303 -0.3460
 6441SOL    HW220808   7.270   7.198   1.572  0.1361 -0.8617 -0.0485
 6442SOL     OW20809   6.749   6.965   7.106 -0.1791 -0.6294 -0.0947
 6442SOL    HW120810   6.809   7.016   7.160 -2.4881  2.4918 -0.3060
 6442SOL    HW220811   6.746   6.879   7.148  0.6735  0.6895  2.7845
 6443SOL     OW20812   3.302   7.518   0.373  0.3344  0.4358  0.6544
 6443SOL    HW120813   3.324   7.522   0.280 -0.4828 -1.2892  0.3725
 6443SOL    HW220814   3.380   7.483   0.414  0.5013  0.6833  0.5540
 6444SOL     OW20815   2.460   5.219   5.146  0.2647 -0.5963  0.1147
 6444SOL    HW120816   2.475   5.259   5.231 -2.1445 -1.6037  1.0579
 6444SOL    HW220817   2.429   5.131   5.166 -1.1891 -0.5532 -1.7820
 6445SOL     OW20818   8.033   2.226   7.990  0.0025  0.2157  0.2835
 6445SOL    HW120819   8.117   2.210   7.946 -0.3814 -1.6890  0.2161
 6445SOL    HW220820   8.048   2.307   8.039  2.2654 -0.6956  1.2053
 6446SOL     OW20821   6.210   3.804   1.419  0.1659 -0.5966 -0.0578
 6446SOL    HW120822   6.155   3.851   1.481  1.6133  0.0857  0.7240
 6446SOL    HW220823   6.262   3.744   1.472  2.3499  0.9009 -0.4274
 6447SOL     OW20824   3.623   1.139   0.977 -0.0505  0.1194 -0.0326
 6447SOL    HW120825   3.587   1.090   1.051 -0.0507  1.1557  0.6654
 6447SOL    HW220826   3.709   1.099   0.961  1.1235  1.6525  2.2956
 6448SOL     OW20827   4.384   6.371   6.322 -0.3168  0.1210 -0.2484
 6448SOL    HW120828   4.467   6.401   6.361 -0.1847 -0.3311 -0.1686
 6448SOL    HW220829   4.393   6.275   6.320 -0.4330  0.1308 -1.1614
 6449SOL     OW20830   5.771   1.789   6.350 -0.3824 -0.3288 -0.4867
 6449SOL    HW120831   5.730   1.812   6.433 -1.0687  1.0259 -1.1886
 6449SOL    HW220832   5.698   1.769   6.292 -0.0159  1.2955 -1.5148
 6450SOL     OW20833   5.723   3.374   1.277  0.3430  0.6542 -0.0592
 6450SOL    HW120834   5.661   3.366   1.205  2.0432 -0.4502 -1.4444
 6450SOL    HW220835   5.731   3.284   1.311 -0.5713  1.1925  1.6172
 6451SOL     OW20836   6.441   4.934   1.370 -0.3061  0.5165 -0.8148
 6451SOL    HW120837   6.497   4.935   1.292 -0.2178  0.5187 -0.7509
 6451SOL    HW220838   6.362   4.981   1.343  0.3158  1.7843 -0.4557
 6452SOL     OW20839   6.688   6.918   3.981  0.3030 -0.4437 -0.5419
 6452SOL    HW120840   6.656   6.888   3.896 -0.7897  1.7112 -0.9248
 6452SOL    HW220841   6.641   6.865   4.045 -1.5747  0.4204 -1.1923
 6453SOL     OW20842   3.609   2.598   1.522 -0.4471 -0.4931  0.2941
 6453SOL    HW120843   3.704   2.592   1.513 -0.3174 -1.3735  1.9903
 6453SOL    HW220844   3.593   2.588   1.616 -2.1734  0.3544  0.1173
 6454SOL     OW20845   4.435   6.294   4.317 -0.3528 -0.3004 -0.0707
 6454SOL    HW120846   4.393   6.340   4.245 -1.9629  0.6375  1.4054
 6454SOL    HW220847   4.498   6.236   4.276 -0.8687  0.6017 -2.1847
 6455SOL     OW20848   2.210   3.226   2.582  0.0054 -0.7022  0.3519
 6455SOL    HW120849   2.232   3.211   2.490 -1.7238  0.1119 -0.1978
 6455SOL    HW220850   2.179   3.141   2.613 -2.0371 -0.3043 -0.5710
 6456SOL     OW20851   0.372   1.040   3.855 -0.1423  0.5356  0.3530
 6456SOL    HW120852   0.375   0.952   3.819 -1.1987  0.7950 -0.3737
 6456SOL    HW220853   0.279   1.058   3.868  0.1552  0.8025  2.3347
 6457SOL     OW20854   6.137   6.575   5.620  0.2696 -0.0258  0.1838
 6457SOL    HW120855   6.210   6.516   5.601  1.7108  2.2142 -1.6025
 6457SOL    HW220856   6.089   6.532   5.691  2.0779 -2.5987 -0.0693
 6458SOL     OW20857   3.329   8.296   7.115  0.2755  0.3557  0.9423
 6458SOL    HW120858   3.369   8.343   7.189  0.3431 -1.2654  1.9637
 6458SOL    HW220859   3.374   8.331   7.038  1.7708  0.5044  1.8461
 6459SOL     OW20860   7.897   0.960   1.163 -0.3365 -0.0966  0.0568
 6459SOL    HW120861   7.814   0.913   1.157 -0.2982 -0.0253 -1.2611
 6459SOL    HW220862   7.964   0.893   1.147 -0.2666  0.3231 -1.5012
 6460SOL     OW20863   2.173   5.850   2.253  0.5988 -0.3154 -0.0964
 6460SOL    HW120864   2.155   5.923   2.193 -0.5653  0.2372  0.9051
 6460SOL    HW220865   2.255   5.873   2.295  0.3075  0.3523  0.1120
 6461SOL     OW20866   0.544   6.835   4.032 -0.0971  0.7015 -0.2756
 6461SOL    HW120867   0.550   6.747   4.068  0.6693  0.7053 -0.3886
 6461SOL    HW220868   0.520   6.822   3.940  1.0498  0.5536 -0.5693
 6462SOL     OW20869   3.772   2.683   2.141 -0.1484 -0.5406  0.0403
 6462SOL    HW120870   3.833   2.612   2.122 -2.0322 -2.0585 -0.6162
 6462SOL    HW220871   3.746   2.669   2.232 -1.6402 -1.6490 -0.5176
 6463SOL     OW20872   0.838   0.730   0.725 -0.0943  0.2402  0.3637
 6463SOL    HW120873   0.924   0.745   0.685  0.7389 -1.2478  1.5667
 6463SOL    HW220874   0.776   0.741   0.653  1.2187 -0.1098 -0.8415
 6464SOL     OW20875   0.918   4.663   2.854  0.1406  0.1276  0.4440
 6464SOL    HW120876   0.941   4.719   2.780 -0.1637 -0.7759 -0.3477
 6464SOL    HW220877   0.861   4.717   2.909 -1.9549 -0.0893 -1.4335
 6465SOL     OW20878   6.806   0.428   7.260 -0.0582  0.2062 -0.2541
 6465SOL    HW120879   6.752   0.507   7.254  0.3113  0.3289 -2.8997
 6465SOL    HW220880   6.746   0.360   7.289 -0.8103  1.0881  0.2763
 6466SOL     OW20881   0.056   4.888   6.352  0.1521  0.3486 -0.2241
 6466SOL    HW120882   0.008   4.887   6.269  1.7764  0.0828 -1.1845
 6466SOL    HW220883   0.142   4.924   6.329  1.0549 -0.9360  1.0938
 6467SOL     OW20884   3.088   7.635   0.182 -0.3065  0.5024  0.0848
 6467SOL    HW120885   3.164   7.583   0.156 -0.3619 -0.4170  1.6837
 6467SOL    HW220886   3.061   7.680   0.102  1.3889  0.1735 -0.6994
 6468SOL     OW20887   7.149   5.537   2.067 -0.3112 -0.0345  0.3139
 6468SOL    HW120888   7.207   5.506   2.137 -0.8856 -0.2441  0.7050
 6468SOL    HW220889   7.069   5.486   2.078 -0.2370 -0.3975 -0.7911
 6469SOL     OW20890   2.502   0.185   1.171 -0.1670 -0.5655 -0.6027
 6469SOL    HW120891   2.595   0.209   1.177 -0.5257  1.1871 -2.0297
 6469SOL    HW220892   2.465   0.213   1.255 -0.3552  3.0137 -1.8024
 6470SOL     OW20893   5.231   6.534   4.709  0.0660  0.2642  0.3378
 6470SOL    HW120894   5.257   6.620   4.741 -0.1741  1.2240 -1.9148
 6470SOL    HW220895   5.136   6.543   4.693  0.1310 -0.2558 -0.3488
 6471SOL     OW20896   5.247   2.759   0.653 -0.2509  0.0218 -0.1732
 6471SOL    HW120897   5.243   2.841   0.604 -0.8399  0.7683  1.1023
 6471SOL    HW220898   5.157   2.746   0.684  0.3533  0.1338  1.6319
 6472SOL     OW20899   7.977   2.349   6.393 -0.0199 -0.4874  0.4717
 6472SOL    HW120900   7.927   2.374   6.470 -1.7364 -1.5321 -0.2911
 6472SOL    HW220901   8.037   2.422   6.379  0.8930 -0.6516  3.2666
 6473SOL     OW20902   0.975   0.895   1.323  0.4867 -0.0941 -0.1795
 6473SOL    HW120903   0.999   0.965   1.384 -3.3440 -1.2788  2.8602
 6473SOL    HW220904   0.921   0.939   1.257  1.0307  0.4296 -0.2806
 6474SOL     OW20905   1.623   2.029   4.193 -0.7915  0.1185 -0.3227
 6474SOL    HW120906   1.640   1.999   4.104  0.8350 -0.8418  0.2894
 6474SOL    HW220907   1.703   2.008   4.241 -1.5977  0.7539  1.3302
 6475SOL     OW20908   7.010   3.272   3.160  0.5198  0.6432 -0.0198
 6475SOL    HW120909   6.972   3.306   3.241  0.1326 -0.5662  0.3237
 6475SOL    HW220910   6.979   3.181   3.156  1.3081  0.4129 -1.0378
 6476SOL     OW20911   6.485   5.027   2.075  0.4270 -0.4628 -0.3047
 6476SOL    HW120912   6.475   4.970   2.152  0.7578  0.2818  0.2915
 6476SOL    HW220913   6.550   4.981   2.021  0.4012 -0.8514 -0.0105
 6477SOL     OW20914   1.868   6.729   3.377  0.0434 -0.3579 -0.1847
 6477SOL    HW120915   1.895   6.764   3.292  0.7177 -0.5727 -0.0612
 6477SOL    HW220916   1.950   6.712   3.423 -0.3205 -0.2296  0.5172
 6478SOL     OW20917   4.021   1.544   0.386  0.0030  0.0279 -0.8610
 6478SOL    HW120918   3.938   1.591   0.378  0.2033  0.2968 -1.3834
 6478SOL    HW220919   4.014   1.472   0.323 -0.7879 -1.3711  0.7887
 6479SOL     OW20920   7.232   4.231   1.997  0.0952 -0.1076  0.4469
 6479SOL    HW120921   7.148   4.241   2.041 -0.0333 -0.6014  0.3170
 6479SOL    HW220922   7.211   4.185   1.916  0.7960 -2.2401  1.4622
 6480SOL     OW20923   4.889   1.372   2.660  0.1021  0.0802 -0.2221
 6480SOL    HW120924   4.904   1.466   2.666 -1.7056  0.5000 -1.7448
 6480SOL    HW220925   4.921   1.337   2.743 -1.8352  2.4125  1.5873
 6481SOL     OW20926   3.714   5.762   5.386  0.6319  0.2644 -0.1310
 6481SOL    HW120927   3.622   5.756   5.413  0.8598 -0.8531  0.4250
 6481SOL    HW220928   3.746   5.841   5.430  0.4285 -0.3696  1.1710
 6482SOL     OW20929   1.362   6.773   5.972 -0.2278 -0.0704  0.6590
 6482SOL    HW120930   1.315   6.763   6.055 -0.6219  0.8406  0.5639
 6482SOL    HW220931   1.446   6.812   5.997 -0.1333 -0.2971  0.6892
 6483SOL     OW20932   5.049   2.097   2.662  0.6158  0.3862  1.1571
 6483SOL    HW120933   5.085   2.185   2.665  0.5973  0.3626  2.3095
 6483SOL    HW220934   5.039   2.072   2.754  0.0943 -0.5979  0.8408
 6484SOL     OW20935   1.116   7.654   4.215 -0.6460 -0.3308 -0.8117
 6484SOL    HW120936   1.171   7.628   4.289 -0.8626 -3.1890 -1.6226
 6484SOL    HW220937   1.078   7.738   4.243  3.2116  1.2027  0.2080
 6485SOL     OW20938   6.082   6.091   0.038 -0.0043  0.3250  0.3960
 6485SOL    HW120939   6.083   6.075   0.133 -0.3018 -1.5737  0.0884
 6485SOL    HW220940   6.102   6.185   0.030 -2.2719  1.0448  2.4508
 6486SOL     OW20941   6.442   6.845   8.163  0.1092  0.1412  0.6562
 6486SOL    HW120942   6.410   6.883   8.081  0.3088  1.8457  1.3325
 6486SOL    HW220943   6.534   6.825   8.145  0.6172  2.0514  0.9248
 6487SOL     OW20944   2.983   2.336   1.780 -0.9399 -0.9411  0.1702
 6487SOL    HW120945   2.989   2.246   1.811 -0.5394 -0.9596  0.0457
 6487SOL    HW220946   3.000   2.330   1.686  1.1628 -0.5057  0.4816
 6488SOL     OW20947   6.653   2.055   6.411 -0.0100  0.3388  0.8240
 6488SOL    HW120948   6.620   2.131   6.363  2.0469  1.1717  0.6791
 6488SOL    HW220949   6.740   2.040   6.376 -0.6353 -2.5482  0.3805
 6489SOL     OW20950   4.668   8.081   4.001 -0.3477  0.1581 -0.1252
 6489SOL    HW120951   4.708   8.120   4.079  0.2803  0.8998 -0.8116
 6489SOL    HW220952   4.578   8.114   4.002 -0.1637  0.6685 -0.0478
 6490SOL     OW20953   7.638   1.168   0.899 -0.3291  0.2228 -0.1807
 6490SOL    HW120954   7.712   1.139   0.845 -1.2486  2.6448 -2.9362
 6490SOL    HW220955   7.678   1.203   0.978  1.6360  2.2886 -1.9893
 6491SOL     OW20956   2.444   1.248   2.393 -0.5187  0.1905  0.1290
 6491SOL    HW120957   2.388   1.244   2.316 -1.6370 -0.3962  0.9638
 6491SOL    HW220958   2.386   1.232   2.467  0.5648  0.5980  1.0989
 6492SOL     OW20959   6.700   7.850   7.091 -0.0455 -0.4759 -0.2829
 6492SOL    HW120960   6.706   7.772   7.035 -0.7918 -0.7974  0.0915
 6492SOL    HW220961   6.609   7.877   7.085 -0.3918 -1.1424  1.6362
 6493SOL     OW20962   1.771   6.967   7.789  0.1515  0.5267  0.0242
 6493SOL    HW120963   1.780   6.952   7.883  0.2533  0.5568  0.0195
 6493SOL    HW220964   1.681   6.999   7.778  0.1350  0.5092  0.1089
 6494SOL     OW20965   7.409   2.045   2.089  0.0462  0.4715  0.2462
 6494SOL    HW120966   7.347   2.118   2.091 -2.3213 -1.4896  0.5493
 6494SOL    HW220967   7.366   1.976   2.141  2.5452 -0.8937  0.5667
 6495SOL     OW20968   3.181   2.409   3.982 -0.3246 -0.4076 -0.4745
 6495SOL    HW120969   3.185   2.473   4.053 -0.0930 -0.5497 -0.3575
 6495SOL    HW220970   3.268   2.371   3.980 -0.5269 -0.8787 -0.3946
 6496SOL     OW20971   0.011   8.203   5.850  0.0998  0.6992  0.1793
 6496SOL    HW120972   0.096   8.211   5.807  0.1848  2.6138  0.6652
 6496SOL    HW220973  -0.053   8.223   5.781 -0.0037 -1.2359 -0.3155
 6497SOL     OW20974   6.064   6.728   3.021 -0.2189  0.1725 -0.1398
 6497SOL    HW120975   6.085   6.651   3.074  0.1390  0.1195 -0.3579
 6497SOL    HW220976   5.970   6.739   3.031 -0.2844 -0.3420 -0.1695
 6498SOL     OW20977   3.215   7.934   5.290 -0.3382 -0.2978 -0.4128
 6498SOL    HW120978   3.164   7.967   5.365 -2.4385 -1.8155 -1.1445
 6498SOL    HW220979   3.283   7.880   5.330 -1.1298 -0.6830  0.4319
 6499SOL     OW20980   5.308   7.529   6.406  0.4185  0.0452  0.1319
 6499SOL    HW120981   5.270   7.612   6.379  2.9705  0.8152 -1.3048
 6499SOL    HW220982   5.359   7.551   6.484 -0.8966 -0.6951  1.2226
 6500SOL     OW20983   4.440   4.672   1.690  0.1074 -0.2169  0.3447
 6500SOL    HW120984   4.500   4.716   1.630 -0.0423 -0.7658 -0.2083
 6500SOL    HW220985   4.387   4.743   1.727 -1.5353 -0.1172 -2.1104
 6501SOL     OW20986   6.818   0.393   6.594 -0.5949  0.2317  0.0387
 6501SOL    HW120987   6.790   0.381   6.685  0.9360 -1.1661  0.3604
 6501SOL    HW220988   6.905   0.432   6.601  0.4509 -1.8903 -0.7652
 6502SOL     OW20989   3.058   3.051   1.551 -0.5049 -0.1188  0.2304
 6502SOL    HW120990   3.148   3.035   1.580 -1.0947 -0.6153  1.8625
 6502SOL    HW220991   3.054   3.145   1.534 -0.4731  0.4463  3.0874
 6503SOL     OW20992   3.362   1.433   1.107  0.3006  0.1633 -0.1309
 6503SOL    HW120993   3.376   1.482   1.188  0.0270  0.8330 -0.4820
 6503SOL    HW220994   3.434   1.460   1.050 -0.7587  1.4237 -0.9131
 6504SOL     OW20995   1.285   4.233   7.879  0.0148  0.3325 -0.1820
 6504SOL    HW120996   1.240   4.272   7.954 -3.0286  0.5404 -2.0782
 6504SOL    HW220997   1.295   4.141   7.903  0.5683  0.7164  1.1478
 6505SOL     OW20998   1.949   2.605   0.926  0.7724 -0.0508 -0.1894
 6505SOL    HW120999   1.973   2.697   0.910 -1.7019  0.7343  0.2844
 6505SOL    HW221000   1.969   2.591   1.019  1.1816  0.0104 -0.2699
 6506SOL     OW21001   3.719   5.522   4.726 -0.9068 -0.3591  0.2940
 6506SOL    HW121002   3.797   5.554   4.771 -0.1613 -1.4289 -0.2083
 6506SOL    HW221003   3.745   5.519   4.634 -1.4228 -1.0889  0.1717
 6507SOL     OW21004   2.903   7.340   4.170 -0.5593 -0.0166 -0.5166
 6507SOL    HW121005   2.931   7.338   4.261 -1.0219  0.1324 -0.3679
 6507SOL    HW221006   2.850   7.419   4.163  2.1995  1.7900 -1.7290
 6508SOL     OW21007   5.815   7.769   4.904  0.4140 -0.3627 -0.2951
 6508SOL    HW121008   5.736   7.805   4.943  0.3197  0.7783 -1.4707
 6508SOL    HW221009   5.834   7.828   4.831  4.0138  1.1442  1.7136
 6509SOL     OW21010   8.089   5.531   1.070  0.6576 -0.0600 -0.3478
 6509SOL    HW121011   8.103   5.596   1.138  2.9778  2.7105 -3.2951
 6509SOL    HW221012   8.080   5.448   1.117 -0.4897  2.0599  3.4033
 6510SOL     OW21013   4.679   7.530   3.798 -0.4261 -0.7751  1.4216
 6510SOL    HW121014   4.621   7.461   3.831 -3.8070  1.5904  0.7416
 6510SOL    HW221015   4.621   7.604   3.784  2.2577  0.7207 -2.4915
 6511SOL     OW21016   6.507   0.760   5.921 -0.2951  0.3180  0.1372
 6511SOL    HW121017   6.585   0.768   5.976  0.1360 -2.2576 -0.0378
 6511SOL    HW221018   6.435   0.747   5.982 -0.0388 -0.9921  0.1764
 6512SOL     OW21019   1.934   6.370   2.883 -0.6382  0.2596 -0.5168
 6512SOL    HW121020   1.841   6.368   2.905 -0.6085  2.4065 -0.0833
 6512SOL    HW221021   1.973   6.301   2.937 -1.5746  1.0537  1.2086
 6513SOL     OW21022   6.706   0.009   1.164 -0.6628  0.4938 -0.5445
 6513SOL    HW121023   6.724  -0.030   1.250 -1.5193 -0.6810 -0.8877
 6513SOL    HW221024   6.761   0.088   1.162 -0.4231  0.3902  0.9664
 6514SOL     OW21025   2.135   2.296   6.109 -0.1506 -0.0917  0.4655
 6514SOL    HW121026   2.124   2.338   6.023  1.2432 -0.4516  0.0920
 6514SOL    HW221027   2.181   2.215   6.090 -1.0122 -0.8085  1.4256
 6515SOL     OW21028   7.467   4.267   6.385  0.2921  0.5843 -0.1440
 6515SOL    HW121029   7.452   4.360   6.371 -0.9913  0.3583 -0.3273
 6515SOL    HW221030   7.431   4.224   6.307  0.9609 -0.0586 -0.1084
 6516SOL     OW21031   0.012   0.606   4.244  0.1624  0.6032  0.2559
 6516SOL    HW121032  -0.010   0.671   4.311  0.4417  1.3087 -0.3350
 6516SOL    HW221033  -0.069   0.596   4.194 -0.9298 -2.0423  2.4332
 6517SOL     OW21034   3.930   0.769   1.915  0.9538 -0.0790  0.1052
 6517SOL    HW121035   3.924   0.842   1.977 -1.1401 -0.3586  0.2967
 6517SOL    HW221036   3.888   0.802   1.836  0.2441 -0.9605  0.1050
 6518SOL     OW21037   5.697   2.436   7.821  0.3353  0.2192 -0.7303
 6518SOL    HW121038   5.762   2.474   7.881 -2.0087  0.2540  1.8615
 6518SOL    HW221039   5.697   2.342   7.843 -1.7791  0.5010  0.6087
 6519SOL     OW21040   0.341   6.889   4.680  0.3225 -0.1142  0.1975
 6519SOL    HW121041   0.299   6.803   4.673 -1.7673  0.9532 -0.5521
 6519SOL    HW221042   0.269   6.951   4.682  1.8708  1.7448 -0.7116
 6520SOL     OW21043   0.796   8.238   1.598 -0.2185  0.3500 -0.2820
 6520SOL    HW121044   0.738   8.230   1.522 -0.4714 -2.6994  0.1739
 6520SOL    HW221045   0.757   8.307   1.651 -0.1262  2.4215 -2.8207
 6521SOL     OW21046   1.940   6.661   4.568  0.6843  0.2224 -0.5245
 6521SOL    HW121047   1.872   6.712   4.613 -0.1493 -2.0629  0.8819
 6521SOL    HW221048   1.931   6.684   4.476 -1.9659  0.0209 -0.3436
 6522SOL     OW21049   1.261   7.348   3.721  0.2214  0.6514  0.1097
 6522SOL    HW121050   1.295   7.431   3.754 -0.1022  0.5476  0.7032
 6522SOL    HW221051   1.167   7.364   3.710  0.0188  0.0909  1.0445
 6523SOL     OW21052   1.510   5.888   0.373 -0.3592  0.4497 -0.4651
 6523SOL    HW121053   1.571   5.818   0.397  0.5081  0.6368 -2.1137
 6523SOL    HW221054   1.500   5.940   0.453  1.1117  0.0286 -0.0028
 6524SOL     OW21055   7.070   6.408   0.756  0.6469  0.2189  0.2833
 6524SOL    HW121056   7.008   6.458   0.704  0.6743  0.8399  0.8421
 6524SOL    HW221057   7.142   6.469   0.772  1.2635 -0.3984 -0.1022
 6525SOL     OW21058   7.557   5.342   0.746 -0.4601  0.1514  0.4460
 6525SOL    HW121059   7.637   5.322   0.794 -0.7487  1.0540  1.3464
 6525SOL    HW221060   7.496   5.272   0.770  0.3206 -0.9854 -0.8937
 6526SOL     OW21061   0.333   5.119   8.178  0.6838 -0.2976 -0.4219
 6526SOL    HW121062   0.295   5.033   8.158 -2.0672  0.6371  0.4922
 6526SOL    HW221063   0.342   5.163   8.094 -2.7465  0.3938 -0.5106
 6527SOL     OW21064   0.404   2.683   5.867  0.0756 -0.9385 -0.2680
 6527SOL    HW121065   0.376   2.723   5.785  0.2146  0.7268  0.4754
 6527SOL    HW221066   0.442   2.755   5.917  0.8917 -2.1310  0.8600
 6528SOL     OW21067   6.152   0.532   2.215 -0.6968  0.2682  0.0065
 6528SOL    HW121068   6.105   0.596   2.162 -1.5318 -0.5167 -0.2171
 6528SOL    HW221069   6.183   0.581   2.291 -3.0351  0.5248  0.8289
 6529SOL     OW21070   3.078   4.053   3.134  0.2416 -0.3280  0.5575
 6529SOL    HW121071   3.161   4.079   3.094 -0.1894  1.1989  0.6196
 6529SOL    HW221072   3.022   4.029   3.061  0.8923 -1.9007  0.5449
 6530SOL     OW21073   2.375   4.327   4.763  0.4676 -0.0632  0.5750
 6530SOL    HW121074   2.281   4.318   4.752  0.3193  1.5639  0.4538
 6530SOL    HW221075   2.403   4.245   4.804 -0.8834 -0.8467 -0.0470
 6531SOL     OW21076   6.213   3.416   1.221 -0.4620  0.5578  0.3802
 6531SOL    HW121077   6.260   3.346   1.267 -0.0259 -0.1252 -1.0524
 6531SOL    HW221078   6.152   3.451   1.286  1.7543  1.2148  2.1740
 6532SOL     OW21079   6.341   5.528   7.025 -0.4138  0.2020  0.7091
 6532SOL    HW121080   6.316   5.463   6.960 -1.5407  1.1653  0.1458
 6532SOL    HW221081   6.399   5.482   7.085  0.8706 -0.6390 -1.1164
 6533SOL     OW21082   3.114   0.270   0.363  0.2320  0.3665 -0.2324
 6533SOL    HW121083   3.078   0.341   0.416 -0.4439  0.0149 -0.2228
 6533SOL    HW221084   3.161   0.316   0.293 -0.1356  0.8302 -0.1840
 6534SOL     OW21085   2.848   6.065   7.763 -0.1914  0.0310 -0.0085
 6534SOL    HW121086   2.763   6.103   7.788 -0.8681 -1.3618 -0.0887
 6534SOL    HW221087   2.883   6.029   7.845  0.3770  0.7136  0.0460
 6535SOL     OW21088   7.840   2.639   1.128  0.3037  0.3854  0.0073
 6535SOL    HW121089   7.932   2.636   1.154  0.1852 -0.8189  0.2895
 6535SOL    HW221090   7.793   2.654   1.210  0.1770  0.0046  0.0038
 6536SOL     OW21091   0.833   0.602   4.508  0.1308 -0.5603  0.6549
 6536SOL    HW121092   0.828   0.695   4.488  1.8562 -0.7526 -0.8765
 6536SOL    HW221093   0.798   0.594   4.597  1.6298  1.8006  1.4953
 6537SOL     OW21094   2.626   1.830   6.635  0.2459 -0.1444  0.7551
 6537SOL    HW121095   2.593   1.786   6.557  0.6946 -0.3718  0.6906
 6537SOL    HW221096   2.696   1.887   6.603  1.2608 -1.1532  1.1422
 6538SOL     OW21097   1.427   6.561   0.571  0.3364 -0.3375  0.0621
 6538SOL    HW121098   1.444   6.619   0.498 -0.1520 -1.5373 -1.0241
 6538SOL    HW221099   1.374   6.613   0.631  1.5132  0.9487 -0.0003
 6539SOL     OW21100   2.430   6.804   4.389 -0.8581  0.4728  0.1355
 6539SOL    HW121101   2.406   6.781   4.298 -2.2992 -1.0491  0.8639
 6539SOL    HW221102   2.451   6.720   4.429  2.0217  1.3833  0.6214
 6540SOL     OW21103   8.041   1.504   6.460  0.4057 -0.1938 -0.2050
 6540SOL    HW121104   8.102   1.572   6.488 -0.7471  1.5411 -1.7501
 6540SOL    HW221105   8.015   1.460   6.541  0.8459  1.5002  0.8810
 6541SOL     OW21106   2.808   3.372   3.913 -0.4486 -0.7877  0.5117
 6541SOL    HW121107   2.723   3.407   3.885  1.0749  1.9703 -0.8927
 6541SOL    HW221108   2.864   3.383   3.836  1.4627 -1.5786  1.7720
 6542SOL     OW21109   2.013   5.297   6.666 -0.1415  0.3716 -0.4462
 6542SOL    HW121110   1.957   5.254   6.730 -0.5598  0.2972 -0.8562
 6542SOL    HW221111   2.073   5.229   6.637 -0.7049  0.0939 -0.9833
 6543SOL     OW21112   8.275   3.791   5.538  0.6751  0.1773 -0.5096
 6543SOL    HW121113   8.271   3.813   5.445 -0.1398 -3.0413 -1.2670
 6543SOL    HW221114   8.216   3.717   5.549  0.6702  0.5517  2.6271
 6544SOL     OW21115   3.871   4.505   2.133  0.2552  0.0651 -0.6160
 6544SOL    HW121116   3.921   4.446   2.076 -0.3675  0.8862 -2.0204
 6544SOL    HW221117   3.917   4.500   2.217 -0.1445 -2.9067 -0.5092
 6545SOL     OW21118   1.652   6.301   0.567  0.3207  0.0136  0.4558
 6545SOL    HW121119   1.735   6.269   0.530  0.7765 -0.0073  1.4973
 6545SOL    HW221120   1.671   6.316   0.659 -0.4915  1.2088  0.4344
 6546SOL     OW21121   0.974   1.069   2.530 -0.0777 -0.4225 -0.1179
 6546SOL    HW121122   0.917   1.143   2.510  2.4795  1.7631  0.3580
 6546SOL    HW221123   1.032   1.063   2.454 -0.0281 -1.7130  0.0207
 6547SOL     OW21124   1.443   5.332   4.026  0.0523 -0.4403  0.1388
 6547SOL    HW121125   1.368   5.293   3.981 -1.0378  3.1581 -1.2787
 6547SOL    HW221126   1.410   5.351   4.114 -0.1765 -0.3946  0.0438
 6548SOL     OW21127   2.524   5.626   7.405  0.1773 -0.4407  0.2110
 6548SOL    HW121128   2.452   5.624   7.468 -0.1950 -0.3792 -0.2099
 6548SOL    HW221129   2.569   5.709   7.423  1.3623 -1.4007  1.8211
 6549SOL     OW21130   3.265   7.754   1.213  0.5536  0.2063 -0.1453
 6549SOL    HW121131   3.348   7.789   1.181  1.0323 -0.3113  0.5089
 6549SOL    HW221132   3.286   7.715   1.298 -0.0693 -1.1889 -0.6099
 6550SOL     OW21133   4.261   5.165   5.764 -0.0479 -0.1162  0.2608
 6550SOL    HW121134   4.269   5.212   5.681  0.0428 -0.6647 -0.0435
 6550SOL    HW221135   4.276   5.232   5.831  0.1142  0.2795 -0.1673
 6551SOL     OW21136   4.517   5.562   2.473  1.3498  0.3194  0.1184
 6551SOL    HW121137   4.467   5.635   2.509  0.8044 -1.1516  2.4480
 6551SOL    HW221138   4.453   5.511   2.423  0.7928 -0.7846  1.9179
 6552SOL     OW21139   6.715   3.179   2.561 -0.1426  0.4874 -0.0876
 6552SOL    HW121140   6.695   3.235   2.636 -2.2853  1.7500 -1.5183
 6552SOL    HW221141   6.800   3.142   2.580 -1.3693 -0.5491  3.7392
 6553SOL     OW21142   6.905   2.659   2.679  0.5548  0.5606 -0.2827
 6553SOL    HW121143   6.973   2.617   2.627  0.9765  1.0165 -0.1004
 6553SOL    HW221144   6.833   2.673   2.618  0.2655 -0.7600 -0.2632
 6554SOL     OW21145   7.367   1.524   0.314  0.0470  0.4660  0.1832
 6554SOL    HW121146   7.332   1.449   0.363  0.8251  0.6391  1.0151
 6554SOL    HW221147   7.353   1.501   0.222 -0.0513 -0.5422  0.4428
 6555SOL     OW21148   6.425   2.825   4.138 -0.3625 -0.0962  0.0180
 6555SOL    HW121149   6.390   2.737   4.125  0.3541 -0.3823 -0.0197
 6555SOL    HW221150   6.348   2.881   4.143 -0.8993 -0.9383  1.7185
 6556SOL     OW21151   3.205   0.695   7.312  0.0865 -0.6006 -0.1105
 6556SOL    HW121152   3.128   0.660   7.358 -2.2846  0.5772 -2.9750
 6556SOL    HW221153   3.230   0.772   7.363 -2.3768  0.5912 -0.6074
 6557SOL     OW21154   6.968   7.631   5.401  0.2847 -0.3079  0.6341
 6557SOL    HW121155   7.050   7.583   5.407  1.2241  1.0329 -1.0146
 6557SOL    HW221156   6.921   7.589   5.329  0.8599  0.8414 -0.4312
 6558SOL     OW21157   2.528   6.456   6.160 -1.1530 -0.6089  0.2344
 6558SOL    HW121158   2.531   6.480   6.253 -4.6986 -1.4669  0.6646
 6558SOL    HW221159   2.610   6.410   6.144  1.5525  3.3397  1.7651
 6559SOL     OW21160   6.257   0.894   1.358  0.3434 -0.6483 -0.2609
 6559SOL    HW121161   6.281   0.851   1.440  0.4811  0.6720  0.4011
 6559SOL    HW221162   6.223   0.979   1.384 -0.9448 -0.7697 -1.4958
 6560SOL     OW21163   0.559   1.912   6.213  0.3751  0.1798  0.5149
 6560SOL    HW121164   0.469   1.945   6.209 -0.3919 -1.7119  1.4979
 6560SOL    HW221165   0.591   1.918   6.122 -1.6130 -1.4432 -0.3383
 6561SOL     OW21166   8.003   6.576   3.845  0.6317 -0.1803  0.1285
 6561SOL    HW121167   7.909   6.577   3.827  0.8751  0.2642 -1.1495
 6561SOL    HW221168   8.031   6.488   3.822  0.5281 -0.3326  0.5686
 6562SOL     OW21169   3.389   6.349   4.379  0.0974  0.6174 -0.3688
 6562SOL    HW121170   3.356   6.373   4.292  0.6415 -2.4939 -1.4942
 6562SOL    HW221171   3.325   6.287   4.413 -0.5553  2.4607  1.8609
 6563SOL     OW21172   0.781   7.273   5.184 -0.1792 -0.2696 -0.1209
 6563SOL    HW121173   0.698   7.262   5.138 -1.0152  0.9834  1.0411
 6563SOL    HW221174   0.798   7.187   5.223 -0.4187 -0.8022 -1.1898
 6564SOL     OW21175   2.515   6.628   6.759  0.5062 -0.5930 -0.0712
 6564SOL    HW121176   2.568   6.549   6.745  1.5262  0.3367 -1.5270
 6564SOL    HW221177   2.438   6.616   6.703 -0.1294 -1.2689  0.9265
 6565SOL     OW21178   2.508   2.058   6.976  0.2514 -0.1807  0.1494
 6565SOL    HW121179   2.447   2.029   6.908 -0.9431  0.3095  0.9806
 6565SOL    HW221180   2.592   2.067   6.931 -0.5848  0.4489 -1.3322
 6566SOL     OW21181   3.916   4.210   5.020 -0.0459  0.0846 -0.1654
 6566SOL    HW121182   3.956   4.183   5.102 -0.0517 -0.8874 -0.4860
 6566SOL    HW221183   3.865   4.135   4.991 -0.3864  0.5675 -0.8513
 6567SOL     OW21184   4.602   1.540   5.879 -0.1456 -0.1522 -0.1727
 6567SOL    HW121185   4.546   1.565   5.806 -0.6547  0.2423  0.3414
 6567SOL    HW221186   4.542   1.502   5.943 -0.5202  4.0430  2.1554
 6568SOL     OW21187   7.408   0.210   5.737 -0.2174  0.3141  0.1027
 6568SOL    HW121188   7.460   0.182   5.812  3.0047  0.8699 -1.8331
 6568SOL    HW221189   7.380   0.299   5.760  0.7765  0.5010  0.6518
 6569SOL     OW21190   3.578   1.416   0.253 -0.3787 -0.1463 -0.1212
 6569SOL    HW121191   3.579   1.322   0.237 -0.2800 -0.0208 -0.8797
 6569SOL    HW221192   3.524   1.427   0.330  1.9925 -1.1091  1.7382
 6570SOL     OW21193   5.241   7.767   6.679  0.1599 -0.6734 -0.4211
 6570SOL    HW121194   5.173   7.721   6.631  1.5437  0.2185 -3.3166
 6570SOL    HW221195   5.320   7.714   6.666  0.6531 -0.1910  0.5302
 6571SOL     OW21196   4.465   7.868   0.793  0.5945 -0.3104  0.0973
 6571SOL    HW121197   4.493   7.936   0.730 -1.0548  0.1980 -0.1130
 6571SOL    HW221198   4.432   7.797   0.738 -0.6568  0.0480  0.3758
 6572SOL     OW21199   1.115   5.255   5.050 -0.3287 -0.2126  0.5616
 6572SOL    HW121200   1.179   5.281   4.984 -1.5684  1.9491  0.1541
 6572SOL    HW221201   1.135   5.309   5.126 -0.1786 -1.2381  1.2571
 6573SOL     OW21202   0.109   6.501   3.302 -0.3802  0.1577  0.0078
 6573SOL    HW121203   0.152   6.554   3.369 -0.0416 -0.7078  0.4757
 6573SOL    HW221204   0.039   6.455   3.349  0.0185 -0.6414 -0.1782
 6574SOL     OW21205   0.557   7.110   7.643  0.4751 -0.3418 -0.0737
 6574SOL    HW121206   0.594   7.181   7.695 -0.1242  0.0021 -0.1055
 6574SOL    HW221207   0.588   7.127   7.554  1.5178 -0.9434  0.1641
 6575SOL     OW21208   3.383   7.552   3.829 -0.0056 -0.8525 -0.3573
 6575SOL    HW121209   3.364   7.484   3.894  0.8842 -1.3025 -0.5689
 6575SOL    HW221210   3.474   7.576   3.844 -1.0827  2.2759  1.5390
 6576SOL     OW21211   4.070   3.534   1.869 -0.0443  0.7775  0.5454
 6576SOL    HW121212   4.022   3.587   1.805 -0.1505  1.1946  0.9700
 6576SOL    HW221213   4.144   3.498   1.819  0.8830  2.5435  0.6222
 6577SOL     OW21214   4.780   8.242   0.615 -0.0900 -0.4585  0.0229
 6577SOL    HW121215   4.851   8.182   0.639  1.1931  0.9286 -0.2250
 6577SOL    HW221216   4.824   8.325   0.597 -1.5971 -0.0610 -1.9850
 6578SOL     OW21217   4.346   1.470   4.298  0.4448  0.4636  0.1313
 6578SOL    HW121218   4.256   1.478   4.269  0.0643  0.5467  1.3238
 6578SOL    HW221219   4.397   1.462   4.217 -0.4825  1.7772 -0.5893
 6579SOL     OW21220   1.564   5.203   7.611  0.3621 -0.5416 -0.0542
 6579SOL    HW121221   1.479   5.158   7.614  0.2006 -0.1856  2.1563
 6579SOL    HW221222   1.582   5.215   7.518 -1.2084 -2.1304 -0.6021
 6580SOL     OW21223   4.536   0.202   1.987  0.0171 -0.0605  0.3603
 6580SOL    HW121224   4.457   0.157   1.955 -0.9448  1.3840  0.6318
 6580SOL    HW221225   4.588   0.133   2.028 -0.3390 -1.3327 -1.2662
 6581SOL     OW21226   4.818   6.962   3.813  0.1898 -0.9563 -0.0436
 6581SOL    HW121227   4.763   6.883   3.809 -1.1002  0.0191 -2.3753
 6581SOL    HW221228   4.760   7.030   3.845  0.7070 -0.4512 -0.1801
 6582SOL     OW21229   4.705   6.383   4.939  0.7601 -0.7441 -0.8324
 6582SOL    HW121230   4.622   6.429   4.953  0.7336 -0.7850 -0.8570
 6582SOL    HW221231   4.724   6.394   4.845  1.3923  0.3021 -0.5906
 6583SOL     OW21232   0.685   2.200   6.050 -0.2494 -0.0841  0.3355
 6583SOL    HW121233   0.639   2.274   6.090 -1.0646  0.1656 -1.0237
 6583SOL    HW221234   0.771   2.236   6.027  0.0728 -0.1170  1.4684
 6584SOL     OW21235   5.281   3.924   1.903  0.4596 -0.0807 -0.4807
 6584SOL    HW121236   5.304   3.833   1.886  1.3910  0.1438 -0.4711
 6584SOL    HW221237   5.186   3.924   1.911  0.4857 -1.1248 -0.0582
 6585SOL     OW21238   7.916   1.776   5.183  0.1019 -0.2265 -0.1998
 6585SOL    HW121239   7.868   1.810   5.108  2.1245  0.7739 -1.0706
 6585SOL    HW221240   7.988   1.725   5.145  1.8533  1.2744  1.0010
 6586SOL     OW21241   5.952   7.084   2.823  0.4997  0.0011  0.1377
 6586SOL    HW121242   5.953   7.179   2.833 -2.1470 -0.0526  1.0769
 6586SOL    HW221243   6.000   7.051   2.899  0.8027  0.5463  0.1849
 6587SOL     OW21244   0.456   6.807   5.514 -0.3072 -0.2006  0.0709
 6587SOL    HW121245   0.492   6.895   5.515 -1.7109  0.3735  0.4484
 6587SOL    HW221246   0.440   6.786   5.606 -2.5196  0.2134 -0.1986
 6588SOL     OW21247   2.450   1.524   4.769 -0.5796 -0.4873 -0.6962
 6588SOL    HW121248   2.433   1.612   4.735 -0.4021 -0.3869 -0.5287
 6588SOL    HW221249   2.529   1.496   4.724 -0.7744 -0.6574 -0.9296
 6589SOL     OW21250   0.391   3.210   6.459 -0.1361  0.3278  0.3352
 6589SOL    HW121251   0.364   3.294   6.495  1.1748  0.7317  0.4030
 6589SOL    HW221252   0.355   3.209   6.370  1.1922  1.6729 -0.2497
 6590SOL     OW21253   5.792   7.752   3.993  0.5648 -0.2073 -0.0536
 6590SOL    HW121254   5.880   7.749   4.032  0.7109  0.2574 -0.3477
 6590SOL    HW221255   5.744   7.683   4.039  0.4210  1.0443  1.7366
 6591SOL     OW21256   0.220   7.835   1.101 -0.6929 -0.1452  0.1547
 6591SOL    HW121257   0.247   7.760   1.048  0.0804  0.0519  0.2713
 6591SOL    HW221258   0.238   7.809   1.191 -1.7532 -0.3734  0.2997
 6592SOL     OW21259   2.782   2.641   3.870 -0.1694 -0.1719 -0.1739
 6592SOL    HW121260   2.769   2.689   3.951  1.0570  0.7642 -0.5180
 6592SOL    HW221261   2.833   2.564   3.895 -1.4286 -0.8927  0.2409
 6593SOL     OW21262   5.581   1.314   4.297 -0.5923  0.2586  0.6749
 6593SOL    HW121263   5.541   1.252   4.235 -1.4705  2.7868 -1.3679
 6593SOL    HW221264   5.596   1.262   4.376 -2.4342 -2.2662 -0.5573
 6594SOL     OW21265   3.776   5.330   5.738 -0.0206 -0.2373  0.1657
 6594SOL    HW121266   3.705   5.351   5.678 -0.8480 -1.2396  0.7798
 6594SOL    HW221267   3.854   5.368   5.698 -0.1601 -2.7579 -2.6120
 6595SOL     OW21268   7.332   0.773   6.238  0.0351 -0.0669 -0.1019
 6595SOL    HW121269   7.305   0.681   6.250 -0.1929  0.0989  0.6947
 6595SOL    HW221270   7.253   0.823   6.257  0.2439  0.3134 -0.2379
 6596SOL     OW21271   0.399   6.070   6.999 -0.6800  0.1535  0.1021
 6596SOL    HW121272   0.358   6.024   7.072 -1.8854  0.1001 -0.5911
 6596SOL    HW221273   0.357   6.156   6.999 -2.5392 -0.7215 -2.0745
 6597SOL     OW21274   3.672   2.178   1.135  0.0710  0.0565  0.6365
 6597SOL    HW121275   3.739   2.148   1.196  0.6319 -0.4873 -0.2260
 6597SOL    HW221276   3.688   2.127   1.056  0.1720  1.6381 -0.3962
 6598SOL     OW21277   2.654   4.338   3.393  0.1815 -0.1266  0.1313
 6598SOL    HW121278   2.677   4.253   3.356 -0.7148  0.4159 -1.6846
 6598SOL    HW221279   2.720   4.352   3.461  2.8492 -0.4307 -2.2780
 6599SOL     OW21280   3.155   3.064   3.803  0.2644 -0.7464 -0.3688
 6599SOL    HW121281   3.075   3.083   3.853  0.7366  1.4271 -0.3978
 6599SOL    HW221282   3.205   3.005   3.860 -1.0025 -1.5233 -0.0319
 6600SOL     OW21283   2.434   3.687   3.588  0.5113  0.0724 -0.4116
 6600SOL    HW121284   2.446   3.771   3.632  0.8619 -0.5197  0.6490
 6600SOL    HW221285   2.355   3.650   3.629 -0.1038  0.2381 -1.4360
 6601SOL     OW21286   2.824   5.634   1.123 -0.0600  0.4991  0.0529
 6601SOL    HW121287   2.733   5.651   1.099 -0.2780 -0.6622  0.0029
 6601SOL    HW221288   2.846   5.704   1.184 -1.3726  0.1192  0.9966
 6602SOL     OW21289   1.434   7.967   7.423 -0.2857  0.9307 -0.1414
 6602SOL    HW121290   1.477   7.883   7.408  2.1355  2.6912 -3.5997
 6602SOL    HW221291   1.431   7.975   7.519  0.6353 -2.4481  0.2339
 6603SOL     OW21292   7.321   1.047   0.487 -0.0521  0.2136 -0.1861
 6603SOL    HW121293   7.370   0.986   0.542  0.3847  0.4531 -0.3074
 6603SOL    HW221294   7.387   1.110   0.456 -0.7317  1.5436  1.0285
 6604SOL     OW21295   6.306   6.435   4.640  0.4810 -0.2735  0.9949
 6604SOL    HW121296   6.227   6.486   4.621  0.3429 -0.7243  0.3184
 6604SOL    HW221297   6.372   6.469   4.581  0.1371 -1.4734 -0.1049
 6605SOL     OW21298   5.693   2.874   5.844  0.1968 -0.0212  0.9747
 6605SOL    HW121299   5.635   2.913   5.778  2.9068  2.4015 -0.0799
 6605SOL    HW221300   5.720   2.790   5.805  0.1932  0.4764 -0.1103
 6606SOL     OW21301   2.434   7.021   5.081  0.2059  0.5352 -0.1431
 6606SOL    HW121302   2.496   7.094   5.076  1.2814 -0.2027  1.8797
 6606SOL    HW221303   2.407   7.019   5.172 -0.2543 -1.2429 -0.3032
 6607SOL     OW21304   5.669   0.071   5.965 -0.1080 -0.0459 -0.1252
 6607SOL    HW121305   5.634   0.010   5.900 -0.5702  0.2938 -0.1993
 6607SOL    HW221306   5.763   0.055   5.965 -0.3073 -1.1991  0.3107
 6608SOL     OW21307   6.039   2.621   4.462  0.0959 -0.1838  0.3553
 6608SOL    HW121308   5.962   2.650   4.415  1.8869  1.5344 -1.6049
 6608SOL    HW221309   6.049   2.683   4.534  0.6091  0.6335 -0.4101
 6609SOL     OW21310   4.297   5.307   2.543  0.1319  0.1642 -0.0252
 6609SOL    HW121311   4.341   5.224   2.527 -1.3190 -0.1363 -2.6620
 6609SOL    HW221312   4.302   5.354   2.460 -1.3540  1.6146  0.6783
 6610SOL     OW21313   2.179   1.201   7.227  0.0099  0.0082  0.6117
 6610SOL    HW121314   2.200   1.276   7.171  2.1759  0.4273  1.9135
 6610SOL    HW221315   2.088   1.216   7.253 -0.1691  1.2067 -0.6408
 6611SOL     OW21316   5.313   1.421   8.062 -0.0687 -0.2840  0.3746
 6611SOL    HW121317   5.288   1.506   8.025 -0.5298  0.1003  1.5637
 6611SOL    HW221318   5.260   1.357   8.013 -2.9468  0.4592  2.4090
 6612SOL     OW21319   2.817   2.628   4.336  0.3572  0.1728 -0.1882
 6612SOL    HW121320   2.768   2.570   4.394  0.0633 -1.1450 -1.7280
 6612SOL    HW221321   2.908   2.616   4.361  0.2063 -0.1459  0.2081
 6613SOL     OW21322   6.340   2.827   7.423 -0.4447  0.0834  0.0658
 6613SOL    HW121323   6.399   2.887   7.379 -1.3037  1.5442  0.8520
 6613SOL    HW221324   6.374   2.740   7.403  2.4135  0.9048  1.1561
 6614SOL     OW21325   3.408   6.168   5.444 -0.3517 -0.0434  0.0587
 6614SOL    HW121326   3.412   6.099   5.377  0.2217  0.0125  0.0296
 6614SOL    HW221327   3.435   6.248   5.398  0.2411 -0.0424  0.4059
 6615SOL     OW21328   0.519   6.571   2.667  0.0200 -0.2977 -0.1705
 6615SOL    HW121329   0.597   6.624   2.683  2.3489 -2.9488 -2.1299
 6615SOL    HW221330   0.498   6.587   2.575  1.0466 -2.9921 -0.9360
 6616SOL     OW21331   6.853   7.171   5.882 -0.3259 -0.2184 -0.1401
 6616SOL    HW121332   6.910   7.173   5.959 -1.5548 -0.9329  0.8180
 6616SOL    HW221333   6.910   7.147   5.810  1.3603  2.8758  0.0680
 6617SOL     OW21334   3.724   5.709   6.459  0.3780 -0.2449 -0.3448
 6617SOL    HW121335   3.652   5.647   6.462  0.4722 -0.3517 -0.2912
 6617SOL    HW221336   3.742   5.728   6.551  0.9746 -0.8585 -0.3316
 6618SOL     OW21337   5.644   3.220   7.790  0.2528 -0.0593 -0.1464
 6618SOL    HW121338   5.561   3.242   7.831 -0.0005 -0.1254 -0.6155
 6618SOL    HW221339   5.636   3.127   7.768 -0.4930  0.4908 -2.3478
 6619SOL     OW21340   7.719   3.175   7.680 -0.3368  0.0745 -0.2564
 6619SOL    HW121341   7.650   3.109   7.691  1.1511 -1.3873  0.6759
 6619SOL    HW221342   7.766   3.148   7.601 -1.4228  1.6376 -1.4595
 6620SOL     OW21343   1.002   6.476   3.316 -0.0451 -0.1964  0.4309
 6620SOL    HW121344   0.962   6.413   3.256  2.6926 -0.0736 -1.6140
 6620SOL    HW221345   1.086   6.436   3.340  1.5889  2.4809 -0.6226
 6621SOL     OW21346   5.780   0.643   5.225  0.5232  0.2883 -0.0717
 6621SOL    HW121347   5.874   0.627   5.212  0.6760  0.4763  0.7464
 6621SOL    HW221348   5.745   0.653   5.136  1.1178 -0.6346 -0.4189
 6622SOL     OW21349   3.425   4.685   4.180  0.5476  0.5508 -0.3832
 6622SOL    HW121350   3.508   4.658   4.218  0.2901  0.7126  0.3047
 6622SOL    HW221351   3.418   4.636   4.098  1.7385  1.2147 -0.8918
 6623SOL     OW21352   3.826   1.183   4.664  0.4086  1.2236  0.5860
 6623SOL    HW121353   3.744   1.144   4.694  0.7719 -0.5898 -0.6855
 6623SOL    HW221354   3.871   1.208   4.745  0.4124 -1.6140  1.5393
 6624SOL     OW21355   5.845   2.698   3.750  0.6255 -0.2484  0.2854
 6624SOL    HW121356   5.858   2.625   3.689  1.0641 -1.0523  1.3218
 6624SOL    HW221357   5.934   2.721   3.778  0.4078 -0.0494  0.8090
 6625SOL     OW21358   8.056   2.820   1.600 -0.1889  0.3381  0.4116
 6625SOL    HW121359   8.041   2.891   1.662 -1.1991 -0.3201  0.9386
 6625SOL    HW221360   8.040   2.860   1.514  0.1114  0.9692  0.6440
 6626SOL     OW21361   5.411   5.068   7.724 -0.2013 -0.5813  0.4575
 6626SOL    HW121362   5.458   5.108   7.798 -2.2687  2.8422  0.0327
 6626SOL    HW221363   5.344   5.013   7.765 -0.6546  0.4692  1.1480
 6627SOL     OW21364   0.330   6.343   6.885 -0.1548 -0.4766 -0.2685
 6627SOL    HW121365   0.312   6.360   6.792  0.7426 -2.2167 -0.7834
 6627SOL    HW221366   0.362   6.426   6.918  0.0997  0.0079 -1.6727
 6628SOL     OW21367   1.684   6.514   4.843  0.0132 -0.5426 -0.3032
 6628SOL    HW121368   1.727   6.449   4.898 -0.9648  0.3166  1.5168
 6628SOL    HW221369   1.610   6.545   4.895  0.8316  2.5114 -0.8297
 6629SOL     OW21370   7.579   5.526   3.440 -0.2513 -0.2096 -0.4121
 6629SOL    HW121371   7.651   5.572   3.481 -1.4923 -0.1736  1.8184
 6629SOL    HW221372   7.507   5.589   3.438 -0.0580 -0.0375 -3.1837
 6630SOL     OW21373   3.075   5.386   4.729  0.3325 -0.0001  0.3266
 6630SOL    HW121374   3.147   5.433   4.772  1.4777 -1.2846 -0.1195
 6630SOL    HW221375   3.119   5.333   4.661 -1.1623  0.0337 -0.6861
 6631SOL     OW21376   7.243   1.941   6.823 -0.0197  0.3625  0.0820
 6631SOL    HW121377   7.201   1.856   6.819  0.2718  0.1683  1.1103
 6631SOL    HW221378   7.334   1.924   6.798 -0.0961  0.4747 -0.2844
 6632SOL     OW21379   1.506   2.165   3.900  0.2689  0.3841 -0.2424
 6632SOL    HW121380   1.413   2.147   3.887  0.4116 -1.0963  0.6422
 6632SOL    HW221381   1.548   2.079   3.890  1.4707  0.9398 -0.0227
 6633SOL     OW21382   2.316   3.558   8.095  0.1486 -0.0659 -0.5018
 6633SOL    HW121383   2.365   3.609   8.030  0.6754  1.0407  0.7573
 6633SOL    HW221384   2.365   3.568   8.176 -0.9389 -0.7956  0.2595
 6634SOL     OW21385   7.204   0.370   0.135 -0.2492  0.2909  0.2755
 6634SOL    HW121386   7.235   0.287   0.171 -0.9333  0.2058  0.6700
 6634SOL    HW221387   7.284   0.420   0.118  0.1441 -0.2880  0.4167
 6635SOL     OW21388   3.573   0.799   7.233  0.1071  0.7723  0.2719
 6635SOL    HW121389   3.534   0.820   7.318  1.5681  1.3266  0.8309
 6635SOL    HW221390   3.565   0.704   7.226 -1.4162  0.8920  0.3268
 6636SOL     OW21391   8.059   2.581   0.836 -0.7173 -0.4719 -0.3380
 6636SOL    HW121392   8.113   2.653   0.867 -0.6789  0.1478 -1.8138
 6636SOL    HW221393   8.077   2.509   0.897  1.2283 -0.0491 -0.4019
 6637SOL     OW21394   7.826   2.887   5.601 -0.0156 -0.3571 -0.2497
 6637SOL    HW121395   7.796   2.815   5.545 -1.0335  0.9378 -1.4084
 6637SOL    HW221396   7.748   2.914   5.649  0.4193 -0.1791  0.3698
 6638SOL     OW21397   2.910   7.446   2.473  0.2605  0.5583 -0.2788
 6638SOL    HW121398   2.937   7.487   2.556  0.3075 -2.2411  1.1501
 6638SOL    HW221399   2.815   7.440   2.479  0.2178  0.8760 -0.6677
 6639SOL     OW21400   3.063   8.256   7.055 -0.0158  0.0757 -0.3462
 6639SOL    HW121401   3.016   8.318   7.110 -0.8657 -2.2901  1.6633
 6639SOL    HW221402   3.155   8.270   7.076  0.0230  2.4806 -1.9190
 6640SOL     OW21403   8.270   2.510   7.447 -0.6698  0.2030  0.4103
 6640SOL    HW121404   8.183   2.547   7.439 -1.0182 -0.7729 -0.4295
 6640SOL    HW221405   8.324   2.558   7.385 -1.2711 -1.1244 -1.1619
 6641SOL     OW21406   5.472   4.997   0.817 -0.4536  0.1288  0.1726
 6641SOL    HW121407   5.498   4.918   0.770  1.3761  0.9489 -0.2277
 6641SOL    HW221408   5.440   4.966   0.902  1.6823 -0.9403  0.6085
 6642SOL     OW21409   0.381   2.614   2.492  0.1643 -0.4506 -0.0022
 6642SOL    HW121410   0.370   2.552   2.564  1.0776  1.7026  2.0295
 6642SOL    HW221411   0.462   2.587   2.449  0.1862 -1.0929  0.4359
 6643SOL     OW21412   7.157   0.030   2.492  0.4348 -0.3717 -0.3549
 6643SOL    HW121413   7.138   0.047   2.399 -0.2486 -0.6177 -0.2638
 6643SOL    HW221414   7.231   0.087   2.512  1.6396 -1.4972 -1.4851
 6644SOL     OW21415   1.672   3.007   7.684 -0.0967  0.3896  0.1823
 6644SOL    HW121416   1.683   2.919   7.721 -2.9083  0.9673  2.6205
 6644SOL    HW221417   1.718   3.004   7.601 -0.0290 -3.3673  0.2603
 6645SOL     OW21418   3.641   5.910   6.022  0.0559  0.7548  0.7530
 6645SOL    HW121419   3.599   5.930   6.105 -2.9429 -1.9195 -0.0116
 6645SOL    HW221420   3.644   5.994   5.976 -0.2696  1.8494  2.6890
 6646SOL     OW21421   3.791   5.030   7.103  0.8179 -0.1000 -0.1557
 6646SOL    HW121422   3.828   5.068   7.182 -3.0326 -1.7297  2.5976
 6646SOL    HW221423   3.841   4.950   7.088  1.2937 -0.0082  0.8932
 6647SOL     OW21424   1.571   6.714   6.587  0.4677  0.1536  0.0631
 6647SOL    HW121425   1.574   6.638   6.529  1.1865  0.2711 -0.0592
 6647SOL    HW221426   1.490   6.759   6.564  0.5934  0.0264 -0.6258
 6648SOL     OW21427   1.756   3.105   5.931  1.1956  0.3763 -0.1704
 6648SOL    HW121428   1.699   3.101   6.007  1.2372  1.1313 -0.0889
 6648SOL    HW221429   1.836   3.146   5.963  1.1245  0.9177 -0.6653
 6649SOL     OW21430   2.059   5.815   8.210 -0.2667 -0.0592 -0.0153
 6649SOL    HW121431   2.153   5.802   8.196 -0.2935  0.5444 -0.7440
 6649SOL    HW221432   2.051   5.905   8.241 -0.5430 -0.3142  0.6518
 6650SOL     OW21433   5.191   7.832   5.335 -0.2298  0.4348 -0.4626
 6650SOL    HW121434   5.126   7.899   5.354  2.9753  3.5034  0.2410
 6650SOL    HW221435   5.257   7.877   5.282  0.5530 -2.9857 -2.5538
 6651SOL     OW21436   3.824   0.470   1.598 -0.1430  0.6088 -0.0132
 6651SOL    HW121437   3.915   0.494   1.616 -0.1625  1.3522 -0.8917
 6651SOL    HW221438   3.772   0.536   1.643 -0.2856 -0.6763  1.7491
 6652SOL     OW21439   8.238   6.334   1.163  0.2956  0.1095 -0.3020
 6652SOL    HW121440   8.281   6.358   1.081  1.3327 -0.6705  0.0010
 6652SOL    HW221441   8.153   6.379   1.160 -0.2511 -0.9980 -2.4070
 6653SOL     OW21442   4.069   0.997   7.382 -0.5929 -0.4005  0.4486
 6653SOL    HW121443   4.082   0.908   7.349  0.1206 -0.0575 -0.2219
 6653SOL    HW221444   4.157   1.034   7.388 -0.7379 -0.3186  2.4207
 6654SOL     OW21445   4.251   8.207   2.819  0.4185  0.2379  0.2024
 6654SOL    HW121446   4.281   8.235   2.733 -0.0494 -0.1275 -0.0770
 6654SOL    HW221447   4.157   8.223   2.819  0.4017  0.1475  0.6099
 6655SOL     OW21448   8.007   8.191   2.105  0.2701 -0.0591  0.3047
 6655SOL    HW121449   8.048   8.132   2.169  0.6966  1.2404  1.2481
 6655SOL    HW221450   7.914   8.170   2.110  0.6190 -2.0378 -0.8154
 6656SOL     OW21451   5.728   0.123   1.807  0.3854  0.3438 -0.0721
 6656SOL    HW121452   5.636   0.135   1.786  0.1524  1.1079  1.3238
 6656SOL    HW221453   5.730   0.042   1.859  0.6776 -0.3804 -1.2009
 6657SOL     OW21454   7.732   4.102   4.049 -0.4382 -0.2462  0.4710
 6657SOL    HW121455   7.691   4.043   4.113 -0.1136 -0.8167  0.1583
 6657SOL    HW221456   7.709   4.065   3.964 -0.6290  0.3506  0.2661
 6658SOL     OW21457   6.499   1.644   7.463 -0.0665  0.1365  0.1959
 6658SOL    HW121458   6.540   1.649   7.376  1.2950  0.2299  0.8322
 6658SOL    HW221459   6.477   1.735   7.483  1.7756  0.4275  0.9551
 6659SOL     OW21460   4.463   7.730   7.448 -0.9966 -0.4072  0.1204
 6659SOL    HW121461   4.540   7.756   7.498 -1.0724 -1.1687  0.6421
 6659SOL    HW221462   4.485   7.751   7.358 -0.0734 -0.8570  0.2352
 6660SOL     OW21463   7.773   0.830   7.089 -0.2700  0.1569 -0.1746
 6660SOL    HW121464   7.777   0.886   7.167  2.0005  2.4106 -1.8174
 6660SOL    HW221465   7.855   0.780   7.091  0.0806  0.6503 -1.3706
 6661SOL     OW21466   2.334   3.537   5.018  0.0477  0.2259  0.2244
 6661SOL    HW121467   2.343   3.590   5.097  0.1473 -0.4444  0.6639
 6661SOL    HW221468   2.244   3.553   4.989 -0.0126  0.4106  0.5082
 6662SOL     OW21469   6.882   7.762   2.127 -0.6166 -0.1285  0.4684
 6662SOL    HW121470   6.879   7.673   2.162 -0.0746 -0.6474 -0.7962
 6662SOL    HW221471   6.859   7.753   2.035  2.3032  0.6367 -0.3774
 6663SOL     OW21472   1.369   3.183   1.725 -0.0523 -0.4174 -0.6590
 6663SOL    HW121473   1.387   3.096   1.688 -0.8560 -0.7668 -0.2391
 6663SOL    HW221474   1.311   3.225   1.661  1.7517  0.4914 -1.7295
 6664SOL     OW21475   6.691   4.349   3.678 -0.6252 -0.1751  0.2816
 6664SOL    HW121476   6.676   4.274   3.735  0.8309 -0.9025 -0.2529
 6664SOL    HW221477   6.785   4.364   3.683 -0.7010  0.6896 -0.7558
 6665SOL     OW21478   5.119   3.283   1.353 -0.0044  0.2506  0.3506
 6665SOL    HW121479   5.116   3.265   1.259 -0.6866  0.9656  0.2338
 6665SOL    HW221480   5.042   3.337   1.370  0.0006 -0.0442  1.3597
 6666SOL     OW21481   1.510   0.142   5.522 -0.0305 -0.0076  0.0630
 6666SOL    HW121482   1.466   0.065   5.558  0.2366 -0.0201  0.3712
 6666SOL    HW221483   1.481   0.146   5.431 -1.9801  0.9673  0.7066
 6667SOL     OW21484   1.618   0.270   1.154  0.0710  0.1867  0.1692
 6667SOL    HW121485   1.615   0.203   1.086 -0.4648  0.8185 -0.4337
 6667SOL    HW221486   1.533   0.263   1.198  1.1844 -1.5838  2.1025
 6668SOL     OW21487   5.980   1.222   3.225  0.1324 -0.5139  0.0168
 6668SOL    HW121488   5.911   1.270   3.270 -0.0458 -1.5065  0.7919
 6668SOL    HW221489   6.008   1.155   3.287  0.3527 -1.4488 -1.0844
 6669SOL     OW21490   4.464   4.489   5.109 -0.1403 -0.3227 -0.0986
 6669SOL    HW121491   4.403   4.416   5.122  1.1021 -1.6203 -1.3780
 6669SOL    HW221492   4.461   4.506   5.014 -0.4607  1.3585  0.1833
 6670SOL     OW21493   3.358   0.787   4.900  0.7701  0.2762  0.0980
 6670SOL    HW121494   3.413   0.847   4.849 -3.0015  3.7481 -0.1120
 6670SOL    HW221495   3.361   0.704   4.852  4.0897  0.9516 -0.9865
 6671SOL     OW21496   1.284   3.267   7.301 -0.1558 -0.2111  0.1616
 6671SOL    HW121497   1.359   3.253   7.358 -0.1456  1.4341  0.5791
 6671SOL    HW221498   1.271   3.183   7.256  2.1607 -0.3994 -0.2083
 6672SOL     OW21499   4.439   1.989   2.144 -0.2876 -0.0102 -0.1094
 6672SOL    HW121500   4.461   2.008   2.235 -1.2619  0.0395  0.1202
 6672SOL    HW221501   4.470   2.065   2.095  0.5460 -0.1912  0.1366
 6673SOL     OW21502   0.114   3.463   6.047 -0.3367 -0.0017 -0.3945
 6673SOL    HW121503   0.121   3.545   6.097  0.6323 -1.4532  1.9146
 6673SOL    HW221504   0.204   3.439   6.029 -0.5539 -1.4151  0.3769
 6674SOL     OW21505   4.245   5.982   4.994  0.3953 -0.0987  0.0793
 6674SOL    HW121506   4.213   6.065   4.959  1.1382  0.3976  0.5533
 6674SOL    HW221507   4.235   5.990   5.089  4.0427  1.0043  0.4266
 6675SOL     OW21508   5.974   2.791   5.802  0.0754 -0.1638 -0.3772
 6675SOL    HW121509   5.900   2.731   5.806 -1.2504  1.3436 -1.6481
 6675SOL    HW221510   5.959   2.853   5.873 -0.1621  0.4523 -0.9627
 6676SOL     OW21511   2.009   2.851   0.877 -0.3603  0.6121  0.2336
 6676SOL    HW121512   2.011   2.913   0.804  1.1610  0.6959  0.3343
 6676SOL    HW221513   2.078   2.881   0.936 -0.5160 -0.3924  0.9365
 6677SOL     OW21514   2.998   0.117   4.084 -0.3737 -0.0498  0.2179
 6677SOL    HW121515   3.041   0.142   4.166  0.4433 -0.8230  0.0301
 6677SOL    HW221516   3.065   0.071   4.034 -1.1313 -0.3864 -0.5112
 6678SOL     OW21517   6.234   1.876   5.282  0.4250 -0.2786 -0.3870
 6678SOL    HW121518   6.140   1.894   5.280  0.4782  0.0731  0.1329
 6678SOL    HW221519   6.240   1.782   5.265  0.0453 -0.1157 -1.4841
 6679SOL     OW21520   2.356   0.823   6.026 -0.1220  0.6307  0.2846
 6679SOL    HW121521   2.398   0.868   6.100  1.1776  0.3970 -0.2988
 6679SOL    HW221522   2.376   0.878   5.950 -1.0450  0.6171  0.0244
 6680SOL     OW21523   7.291   7.238   3.970  0.1987 -0.1706 -0.0716
 6680SOL    HW121524   7.307   7.328   3.999  0.7959  0.0362 -1.0171
 6680SOL    HW221525   7.374   7.211   3.931 -0.4626 -0.5908 -1.1998
 6681SOL     OW21526   2.391   3.931   1.817 -0.3593  0.2167 -0.0427
 6681SOL    HW121527   2.356   4.013   1.781 -1.7810 -1.1454 -1.8960
 6681SOL    HW221528   2.337   3.915   1.894 -1.8318 -0.2824 -1.1479
 6682SOL     OW21529   6.745   1.684   5.767  0.5285  0.1273 -0.6090
 6682SOL    HW121530   6.794   1.725   5.696  1.3381  0.2775  0.0325
 6682SOL    HW221531   6.668   1.739   5.778  0.6033  0.3338 -1.1036
 6683SOL     OW21532   4.558   0.543   6.718 -0.5187 -0.4936 -0.8896
 6683SOL    HW121533   4.614   0.610   6.755 -0.2567 -0.0474 -2.0845
 6683SOL    HW221534   4.609   0.505   6.646 -0.6941 -1.9174 -0.2824
 6684SOL     OW21535   7.416   6.133   3.731 -0.2313 -0.3187 -0.3528
 6684SOL    HW121536   7.471   6.056   3.716 -1.2204 -0.9883 -0.5876
 6684SOL    HW221537   7.442   6.196   3.664 -1.1641 -1.4016 -1.7473
 6685SOL     OW21538   6.103   3.977   2.285  0.7310 -0.1226 -0.1385
 6685SOL    HW121539   6.193   3.994   2.256  0.7031 -0.4310 -0.4048
 6685SOL    HW221540   6.079   3.894   2.244  0.4898 -0.2807  0.3188
 6686SOL     OW21541   3.291   7.954   2.031  0.2970  0.2641 -0.4675
 6686SOL    HW121542   3.234   7.932   2.105  0.9721  1.3752  0.4007
 6686SOL    HW221543   3.372   7.905   2.048  0.3604  0.3202 -0.6062
 6687SOL     OW21544   6.129   0.132   4.419 -0.3381 -0.0942 -0.0799
 6687SOL    HW121545   6.063   0.113   4.486  1.3272 -2.9156  0.8799
 6687SOL    HW221546   6.184   0.200   4.458 -0.6167 -0.2401  0.5755
 6688SOL     OW21547   7.733   8.221   3.974 -0.4513  0.9119  0.1109
 6688SOL    HW121548   7.798   8.239   3.906 -0.6688 -0.4992 -0.4915
 6688SOL    HW221549   7.779   8.239   4.056  0.4309  0.7863 -0.3448
 6689SOL     OW21550   7.938   6.084   4.929  0.0711 -0.5119 -0.2375
 6689SOL    HW121551   7.864   6.113   4.876  0.4204  2.4499  0.7933
 6689SOL    HW221552   7.900   6.061   5.013  0.0766 -0.8979 -0.3409
 6690SOL     OW21553   0.887   5.598   7.776  0.4675 -0.0183  0.2738
 6690SOL    HW121554   0.831   5.675   7.788 -0.7201 -0.7801 -0.1890
 6690SOL    HW221555   0.958   5.609   7.838  0.4061  1.5446  0.0781
 6691SOL     OW21556   5.550   3.698   5.857 -0.1952  0.4942  0.1570
 6691SOL    HW121557   5.524   3.789   5.870 -0.1579  0.3452  1.3293
 6691SOL    HW221558   5.638   3.693   5.894  0.2157  0.2207 -0.8331
 6692SOL     OW21559   3.352   4.544   7.783  0.3405 -0.1393  0.3246
 6692SOL    HW121560   3.345   4.522   7.690 -2.1339  0.2172  0.3886
 6692SOL    HW221561   3.368   4.639   7.785  0.9100 -0.2349  0.2500
 6693SOL     OW21562   4.823   1.339   6.733 -0.3944  0.0617  0.0700
 6693SOL    HW121563   4.789   1.381   6.654  0.0119  0.5016  0.1242
 6693SOL    HW221564   4.915   1.366   6.737 -0.6659  0.8675  1.2321
 6694SOL     OW21565   3.357   3.460   6.591 -0.0669  0.0489  0.5462
 6694SOL    HW121566   3.441   3.416   6.585 -0.2302 -0.2450  0.3680
 6694SOL    HW221567   3.317   3.447   6.504  0.4027  1.5968  0.0840
 6695SOL     OW21568   1.848   2.484   7.667 -0.4403  0.3410 -0.0887
 6695SOL    HW121569   1.814   2.400   7.698 -0.0312  0.2100  0.0201
 6695SOL    HW221570   1.934   2.462   7.630 -0.4442  0.6717 -0.2942
 6696SOL     OW21571   7.890   0.584   3.261 -0.0346  0.5948 -0.1467
 6696SOL    HW121572   7.932   0.532   3.331  0.7808  0.4365 -0.7491
 6696SOL    HW221573   7.919   0.674   3.278 -0.5619  0.6939  0.2464
 6697SOL     OW21574   4.634   4.798   6.144 -0.4204 -0.2833 -0.5835
 6697SOL    HW121575   4.660   4.847   6.066  0.3004  0.5165  0.1584
 6697SOL    HW221576   4.716   4.764   6.180 -0.5197  1.2137  1.0710
 6698SOL     OW21577   7.744   2.719   7.684 -0.0769  0.5785 -0.3579
 6698SOL    HW121578   7.826   2.671   7.696  0.9311  2.1409 -0.7986
 6698SOL    HW221579   7.680   2.670   7.734  1.4289  0.0920  1.1327
 6699SOL     OW21580   4.966   0.081   0.810 -0.3294 -0.2332  0.2145
 6699SOL    HW121581   4.973   0.078   0.906 -0.0242 -0.4319  0.1888
 6699SOL    HW221582   5.026   0.012   0.780  0.8788  0.9803 -0.1855
 6700SOL     OW21583   1.892   1.342   0.227  0.3831 -0.6563  1.4240
 6700SOL    HW121584   1.817   1.288   0.203  0.1401 -0.3890  1.5882
 6700SOL    HW221585   1.938   1.358   0.145 -1.1636  1.3674  0.9244
 6701SOL     OW21586   6.319   1.872   0.872  0.1651 -0.6786  0.4394
 6701SOL    HW121587   6.275   1.806   0.819 -0.5040  1.0050 -1.1204
 6701SOL    HW221588   6.395   1.898   0.820 -0.3316  0.7839  0.4404
 6702SOL     OW21589   7.252   6.332   7.394 -0.1559 -0.6155  0.0881
 6702SOL    HW121590   7.174   6.337   7.449  1.4913 -0.4481  2.5091
 6702SOL    HW221591   7.306   6.265   7.436  1.3961 -0.0987 -1.0292
 6703SOL     OW21592   2.278   5.355   1.559 -0.0601 -0.1147 -0.0021
 6703SOL    HW121593   2.343   5.312   1.504  1.1574 -2.0979  2.8418
 6703SOL    HW221594   2.223   5.403   1.498  0.4198 -3.2309 -3.0872
 6704SOL     OW21595   2.906   2.400   6.562  0.3918  0.0954 -0.0828
 6704SOL    HW121596   2.882   2.471   6.622  1.0848  0.5038 -0.2838
 6704SOL    HW221597   2.871   2.321   6.603  1.3529  0.2956  1.1406
 6705SOL     OW21598   5.700   4.937   2.804  0.6655  0.3086  0.4824
 6705SOL    HW121599   5.764   5.003   2.829  1.3418 -1.0102  2.3197
 6705SOL    HW221600   5.645   4.926   2.882  0.3869 -1.0973  0.0964
 6706SOL     OW21601   7.461   0.384   8.192 -0.6003  0.1067 -0.3560
 6706SOL    HW121602   7.470   0.460   8.135 -2.1092  0.3352 -0.2950
 6706SOL    HW221603   7.377   0.344   8.168 -0.1573 -1.1390  0.0970
 6707SOL     OW21604   4.106   7.318   4.665 -0.0811 -0.3071  0.2192
 6707SOL    HW121605   4.029   7.343   4.716 -0.6177  0.2924 -0.8843
 6707SOL    HW221606   4.110   7.223   4.673 -1.1525 -0.3724 -0.0268
 6708SOL     OW21607   7.131   3.158   4.422 -0.3265 -0.2081 -0.4696
 6708SOL    HW121608   7.225   3.142   4.428 -0.6294 -1.8483  0.1719
 6708SOL    HW221609   7.116   3.231   4.483  0.3423 -0.7996  0.4283
 6709SOL     OW21610   7.455   8.116   4.040  0.0803 -0.2119  0.3886
 6709SOL    HW121611   7.541   8.154   4.055  0.3338 -0.6768  0.1258
 6709SOL    HW221612   7.393   8.181   4.075  0.4825  0.6825 -0.5275
 6710SOL     OW21613   5.274   0.055   2.473 -0.4768 -0.4647  0.4003
 6710SOL    HW121614   5.322   0.035   2.554 -0.6588  1.7179  1.0606
 6710SOL    HW221615   5.342   0.065   2.407 -0.2374 -0.6591  0.6126
 6711SOL     OW21616   2.769   4.359   7.692 -0.0208  0.1582  0.8383
 6711SOL    HW121617   2.734   4.371   7.604  0.9101 -1.1231  0.2744
 6711SOL    HW221618   2.711   4.295   7.733  0.0693  0.0912  0.8606
 6712SOL     OW21619   3.585   3.230   0.469 -0.0640  0.0281 -0.1103
 6712SOL    HW121620   3.652   3.255   0.532 -1.6879  1.5565  1.0801
 6712SOL    HW221621   3.632   3.190   0.396  2.2384  2.5110 -0.0264
 6713SOL     OW21622   5.395   0.475   3.452  0.1012 -0.0859 -0.0952
 6713SOL    HW121623   5.316   0.452   3.403  0.3300 -0.5439 -0.2435
 6713SOL    HW221624   5.374   0.560   3.491 -0.6949 -0.4885  0.3626
 6714SOL     OW21625   7.063   3.314   0.777  0.0750  0.5384  0.2775
 6714SOL    HW121626   7.124   3.385   0.757 -1.2267  1.2083 -1.4303
 6714SOL    HW221627   6.977   3.355   0.768 -0.6578 -0.6845  1.5675
 6715SOL     OW21628   7.020   0.393   2.420 -0.3640 -0.4979  0.3012
 6715SOL    HW121629   6.986   0.479   2.446  0.3759 -0.3385  0.7727
 6715SOL    HW221630   6.990   0.334   2.490  0.7438 -0.2632  0.9828
 6716SOL     OW21631   1.029   3.235   6.503 -0.7057 -0.0429 -0.0251
 6716SOL    HW121632   1.119   3.207   6.521 -0.2329  1.6730  0.3152
 6716SOL    HW221633   0.977   3.155   6.512  0.5171 -0.6665  1.7519
 6717SOL     OW21634   2.078   5.657   4.556  0.0280 -0.0392  0.4526
 6717SOL    HW121635   2.046   5.721   4.619 -1.0007 -2.2812  2.2614
 6717SOL    HW221636   2.147   5.609   4.603 -1.9399 -2.8845  0.5340
 6718SOL     OW21637   7.086   4.624   2.584  0.2606  0.2056  0.1471
 6718SOL    HW121638   7.075   4.547   2.529 -0.3026 -0.4781  1.1897
 6718SOL    HW221639   7.063   4.698   2.528 -0.1671 -0.4658 -0.5673
 6719SOL     OW21640   6.132   1.920   5.729  0.8256  0.5403 -0.6193
 6719SOL    HW121641   6.226   1.931   5.714  1.2192 -1.8406 -0.1510
 6719SOL    HW221642   6.108   1.846   5.673 -0.0191 -1.1847  1.9617
 6720SOL     OW21643   2.283   5.219   0.451  0.4764  0.2476  0.8212
 6720SOL    HW121644   2.302   5.291   0.392 -0.1308  0.7574  1.2355
 6720SOL    HW221645   2.367   5.176   0.465  0.4708 -0.4128 -1.0904
 6721SOL     OW21646   4.629   5.027   7.932  0.5238  0.0810 -0.2895
 6721SOL    HW121647   4.605   5.110   7.892  2.6442  0.7322 -0.2638
 6721SOL    HW221648   4.622   5.043   8.026  0.0276 -0.0509 -0.3037
 6722SOL     OW21649   1.918   6.433   6.900  0.1158 -0.3608  0.3495
 6722SOL    HW121650   1.879   6.473   6.822 -2.7911 -0.1762  1.8159
 6722SOL    HW221651   1.843   6.396   6.948  2.0089 -1.8476  2.2779
 6723SOL     OW21652   6.079   3.720   5.723 -0.0747  0.2129 -0.0930
 6723SOL    HW121653   6.063   3.699   5.631  0.6136  1.3511 -0.4812
 6723SOL    HW221654   6.080   3.635   5.767  1.7117 -0.5166 -1.4624
 6724SOL     OW21655   1.835   3.570   6.165  0.5605  0.0726  0.7473
 6724SOL    HW121656   1.916   3.588   6.213  0.6529 -0.7896  0.9241
 6724SOL    HW221657   1.833   3.475   6.156 -0.0754  0.1382  0.1123
 6725SOL     OW21658   2.554   5.451   2.311  0.0037 -0.0826 -0.5191
 6725SOL    HW121659   2.583   5.470   2.222 -4.2743  0.2941 -1.9053
 6725SOL    HW221660   2.532   5.536   2.349  0.6860 -0.3593  0.5574
 6726SOL     OW21661   3.864   0.913   3.827 -0.1634  0.2274 -0.0428
 6726SOL    HW121662   3.944   0.918   3.878 -0.5216 -0.4415  0.5830
 6726SOL    HW221663   3.793   0.923   3.891 -0.5665  4.0194 -0.9523
 6727SOL     OW21664   6.155   1.390   7.704  0.0755  0.9332 -0.1985
 6727SOL    HW121665   6.236   1.348   7.730  0.3982  0.7571 -1.4366
 6727SOL    HW221666   6.145   1.463   7.765  0.8946  0.6468  0.2834
 6728SOL     OW21667   4.266   8.253   2.236 -0.0043  0.0338 -0.2768
 6728SOL    HW121668   4.216   8.262   2.155  0.9301  2.0908 -0.6335
 6728SOL    HW221669   4.262   8.339   2.277  1.5792 -0.3182  0.6643
 6729SOL     OW21670   0.628   0.675   2.673  0.2995  0.7266 -1.0043
 6729SOL    HW121671   0.694   0.740   2.698 -0.9938  2.5110 -2.1210
 6729SOL    HW221672   0.600   0.701   2.586 -0.6094 -1.0579 -1.2718
 6730SOL     OW21673   7.616   1.638   2.088  0.8013  0.2867 -0.0288
 6730SOL    HW121674   7.527   1.617   2.115  0.8834  0.1653  0.1434
 6730SOL    HW221675   7.606   1.716   2.033  0.3499 -0.9581 -1.7766
 6731SOL     OW21676   1.083   0.920   0.217 -0.3768  0.2467 -0.2533
 6731SOL    HW121677   1.132   0.865   0.279  2.5707  1.1701 -1.6604
 6731SOL    HW221678   1.061   0.999   0.268 -0.7139 -0.3202  0.4912
 6732SOL     OW21679   5.444   7.368   7.405  0.0157 -0.1530 -0.0647
 6732SOL    HW121680   5.482   7.419   7.334  1.7808 -0.3319  0.7462
 6732SOL    HW221681   5.384   7.429   7.448  0.5431  0.5989 -0.3854
 6733SOL     OW21682   7.422   2.275   1.008  0.3462  0.3933 -0.7023
 6733SOL    HW121683   7.331   2.304   1.009  0.0598 -0.3941 -1.8316
 6733SOL    HW221684   7.473   2.354   0.990 -0.1624  0.7342 -0.6545
 6734SOL     OW21685   4.635   6.004   3.841  0.0221 -0.3694  0.1649
 6734SOL    HW121686   4.646   6.080   3.898  0.4657  0.3098 -0.8155
 6734SOL    HW221687   4.569   6.031   3.777 -1.2430 -1.4952  0.9604
 6735SOL     OW21688   6.223   1.924   6.650  0.8812  0.2983  0.1875
 6735SOL    HW121689   6.138   1.924   6.693 -0.4509  2.3252 -2.3206
 6735SOL    HW221690   6.283   1.959   6.717 -0.8744  1.9786  0.9379
 6736SOL     OW21691   4.677   3.469   3.520  0.5807  0.0168 -0.3518
 6736SOL    HW121692   4.711   3.422   3.444  0.0261  1.6378 -1.6580
 6736SOL    HW221693   4.608   3.413   3.555  1.7741 -1.3814 -0.1915
 6737SOL     OW21694   3.649   0.071   1.166  0.1324 -0.0572  0.6469
 6737SOL    HW121695   3.638   0.048   1.259 -0.3843 -1.1969  0.3153
 6737SOL    HW221696   3.623  -0.008   1.119  0.5776  0.4548 -0.4698
 6738SOL     OW21697   5.634   3.394   5.018 -0.5451 -0.0182 -0.1029
 6738SOL    HW121698   5.648   3.488   5.031  0.1060  0.0449 -1.1959
 6738SOL    HW221699   5.700   3.352   5.073 -0.4190  0.1699 -0.1120
 6739SOL     OW21700   7.359   0.701   5.114 -0.2503  0.4909 -0.0937
 6739SOL    HW121701   7.427   0.691   5.181 -0.1647  1.1973 -0.0715
 6739SOL    HW221702   7.305   0.622   5.123  0.4775 -0.0019 -0.0176
 6740SOL     OW21703   3.326   1.409   5.703 -0.5644  0.0877 -0.1839
 6740SOL    HW121704   3.335   1.319   5.734  0.4208  0.5264  0.8171
 6740SOL    HW221705   3.302   1.459   5.780 -1.1022  0.6924 -0.7389
 6741SOL     OW21706   0.313   0.819   4.278 -0.5183  0.1614 -0.9667
 6741SOL    HW121707   0.354   0.845   4.360 -3.8296 -0.7145  1.0710
 6741SOL    HW221708   0.265   0.897   4.249 -1.3475 -0.2633 -0.7563
 6742SOL     OW21709   7.709   0.283   0.448 -0.6165  0.4690  0.5710
 6742SOL    HW121710   7.695   0.205   0.393 -0.0831 -0.5889  1.8977
 6742SOL    HW221711   7.646   0.347   0.416 -2.3996 -1.1815  0.7130
 6743SOL     OW21712   3.089   6.224   6.661  0.8331 -0.4050  0.0998
 6743SOL    HW121713   3.115   6.309   6.695 -0.2374  0.2002 -0.5605
 6743SOL    HW221714   3.161   6.165   6.684  0.8887  0.3488  1.8699
 6744SOL     OW21715   5.704   6.549   3.270  0.4077 -0.2035  0.1042
 6744SOL    HW121716   5.653   6.495   3.209  0.0237  0.7615 -0.4472
 6744SOL    HW221717   5.712   6.633   3.225  2.1683 -0.2311  0.3484
 6745SOL     OW21718   6.378   3.233   1.309 -0.3741 -0.1237  0.4467
 6745SOL    HW121719   6.421   3.260   1.227  1.2444 -0.4554  1.1731
 6745SOL    HW221720   6.396   3.139   1.315  0.2657  0.0677  1.6234
 6746SOL     OW21721   1.232   5.844   7.018  0.2107 -0.1951  0.0450
 6746SOL    HW121722   1.163   5.853   7.084  1.0466 -0.4366  0.9684
 6746SOL    HW221723   1.220   5.756   6.982 -0.1213 -0.1413  0.0282
 6747SOL     OW21724   6.615   2.781   7.788  0.1755 -0.0576 -0.2714
 6747SOL    HW121725   6.524   2.775   7.757  0.4890 -0.7350 -1.0855
 6747SOL    HW221726   6.640   2.872   7.774 -0.1868 -0.0104 -0.6006
 6748SOL     OW21727   1.221   4.308   5.156  0.3385 -0.1768 -0.4169
 6748SOL    HW121728   1.190   4.288   5.244 -1.0257  1.4773 -0.5118
 6748SOL    HW221729   1.293   4.246   5.142  1.0204 -0.0069  2.1093
 6749SOL     OW21730   4.641   3.828   0.607 -0.0168 -0.3269  0.5211
 6749SOL    HW121731   4.735   3.843   0.612  0.0397  0.3201 -1.7781
 6749SOL    HW221732   4.603   3.916   0.609 -0.3495 -0.3907 -2.0243
 6750SOL     OW21733   0.399   1.277   6.018  0.2811 -0.3753 -0.2819
 6750SOL    HW121734   0.332   1.209   6.010 -0.4270  0.4617 -1.7855
 6750SOL    HW221735   0.450   1.271   5.937 -0.7097  1.7886 -1.1243
 6751SOL     OW21736   1.234   4.731   0.302 -0.4598  0.9511 -0.0967
 6751SOL    HW121737   1.254   4.780   0.381 -0.3878  0.2537  0.3244
 6751SOL    HW221738   1.177   4.660   0.331 -1.1468  1.1902 -0.8102
 6752SOL     OW21739   4.858   0.682   0.357  0.7938 -0.1610 -0.0832
 6752SOL    HW121740   4.862   0.651   0.447  1.6847  0.8207  0.2222
 6752SOL    HW221741   4.765   0.703   0.343  0.7189  0.0976  0.7469
 6753SOL     OW21742   4.199   4.497   5.273  0.2645  0.5449  0.3772
 6753SOL    HW121743   4.160   4.531   5.354  2.9434 -1.7935  2.7633
 6753SOL    HW221744   4.262   4.565   5.247  0.8983  0.3844  1.4617
 6754SOL     OW21745   1.674   1.711   4.096 -0.8211 -0.0528  0.4861
 6754SOL    HW121746   1.641   1.748   4.179  0.7773 -1.0555  1.6082
 6754SOL    HW221747   1.754   1.761   4.079  0.5311 -1.9028  1.2064
 6755SOL     OW21748   2.529   2.008   5.021  0.1609 -0.4849  0.3832
 6755SOL    HW121749   2.439   1.983   5.041  0.6601 -1.1016  1.9310
 6755SOL    HW221750   2.523   2.100   4.994 -1.0451 -0.8034 -0.4588
 6756SOL     OW21751   0.313   3.513   0.968  0.4494  0.7119 -0.0490
 6756SOL    HW121752   0.272   3.556   1.043  0.9246  2.0733 -0.5431
 6756SOL    HW221753   0.243   3.508   0.903  0.2897  0.3962  0.1476
 6757SOL     OW21754   8.209   4.442   4.425 -1.2049 -0.2199  0.0487
 6757SOL    HW121755   8.138   4.442   4.488 -1.7053  2.8213 -0.4570
 6757SOL    HW221756   8.239   4.533   4.421  2.3184 -1.2965 -0.2031
 6758SOL     OW21757   3.782   0.861   6.370 -0.4081  0.4201  0.6809
 6758SOL    HW121758   3.745   0.784   6.413  1.2120 -2.7243 -3.3455
 6758SOL    HW221759   3.876   0.854   6.382 -0.2102  1.5710 -0.0515
 6759SOL     OW21760   1.501   7.445   2.154 -0.3277  0.5329 -0.2883
 6759SOL    HW121761   1.558   7.398   2.215  0.1979  1.0018 -0.4133
 6759SOL    HW221762   1.519   7.538   2.171  0.8293  0.6669 -2.0746
 6760SOL     OW21763   7.925   0.455   6.740  0.2944  0.5692 -0.6210
 6760SOL    HW121764   7.976   0.534   6.722 -1.8559  1.7247 -1.8024
 6760SOL    HW221765   7.926   0.407   6.658  0.1803  0.1762 -0.3933
 6761SOL     OW21766   3.338   5.650   4.566 -0.6699  0.6075  0.5138
 6761SOL    HW121767   3.339   5.660   4.471 -2.4305 -0.2548  0.3788
 6761SOL    HW221768   3.408   5.708   4.597  0.0744  0.7145 -1.3098
 6762SOL     OW21769   0.604   3.682   3.278 -0.3732 -0.4475 -0.0296
 6762SOL    HW121770   0.548   3.760   3.277  1.5938  0.9822 -0.4257
 6762SOL    HW221771   0.584   3.640   3.362 -1.6596  0.3040  0.0637
 6763SOL     OW21772   1.913   2.842   2.045  1.0559 -0.0356 -0.0849
 6763SOL    HW121773   1.998   2.800   2.053  1.6350  0.8600 -1.4929
 6763SOL    HW221774   1.910   2.876   1.956  0.0003  1.6049  0.5462
 6764SOL     OW21775   0.709   5.293   3.770  0.7949 -0.4663 -0.2210
 6764SOL    HW121776   0.674   5.381   3.783  1.4264 -0.5099  1.9613
 6764SOL    HW221777   0.651   5.236   3.822  1.0236 -1.2006 -0.7600
 6765SOL     OW21778   0.718   0.049   0.372  0.8007  0.6344  0.1614
 6765SOL    HW121779   0.660   0.064   0.447  0.6479  1.8706 -0.1937
 6765SOL    HW221780   0.671  -0.014   0.318  0.7119  0.0674  0.8777
 6766SOL     OW21781   0.757   1.041   0.016 -0.2700 -0.0902 -0.2562
 6766SOL    HW121782   0.704   1.080  -0.054  0.8834  1.3503 -0.3401
 6766SOL    HW221783   0.810   0.974  -0.029 -0.4510 -0.0497 -0.5333
 6767SOL     OW21784   4.287   3.896   7.788  0.5322  0.0966 -0.3296
 6767SOL    HW121785   4.365   3.930   7.744  2.1125 -1.6012  1.0711
 6767SOL    HW221786   4.269   3.813   7.744 -0.3335  0.3460 -0.4549
 6768SOL     OW21787   6.824   4.956   4.851  0.0781 -0.6621 -0.1978
 6768SOL    HW121788   6.817   5.040   4.806 -0.6840  1.4676  3.7106
 6768SOL    HW221789   6.735   4.920   4.849  0.0717 -0.6308 -0.4827
 6769SOL     OW21790   0.671   6.367   6.727  0.2687 -0.9062  0.2663
 6769SOL    HW121791   0.704   6.295   6.672  0.7843 -1.4112  1.2178
 6769SOL    HW221792   0.655   6.326   6.812  1.8769  0.4063  1.2167
 6770SOL     OW21793   3.236   2.531   6.740 -0.1072  0.3294  0.2335
 6770SOL    HW121794   3.181   2.585   6.797 -0.5747 -0.2701  0.3659
 6770SOL    HW221795   3.294   2.484   6.800 -1.2543 -1.0324  0.3086
 6771SOL     OW21796   7.883   7.621   8.254 -0.0786 -0.3785  0.2894
 6771SOL    HW121797   7.932   7.563   8.313 -0.4444 -2.8320 -1.7339
 6771SOL    HW221798   7.940   7.698   8.243  2.3281 -2.1889 -0.2456
 6772SOL     OW21799   2.108   1.007   8.099  0.2417 -0.8609 -0.4522
 6772SOL    HW121800   2.125   0.915   8.117  0.8901 -0.5611  0.4809
 6772SOL    HW221801   2.143   1.054   8.175 -0.5495  0.1150 -0.6734
 6773SOL     OW21802   2.853   1.672   1.831 -0.1415 -0.4036  0.6657
 6773SOL    HW121803   2.782   1.662   1.766 -0.5503 -1.3258  1.2483
 6773SOL    HW221804   2.903   1.591   1.824  0.1660 -0.2478  1.0789
 6774SOL     OW21805   3.127   4.139   2.286 -0.2025  0.0995 -0.5993
 6774SOL    HW121806   3.221   4.126   2.296 -0.3220  0.4143  1.1351
 6774SOL    HW221807   3.099   4.072   2.224  0.7699 -1.5535  0.7167
 6775SOL     OW21808   3.269   1.955   3.079  0.8097  0.0223  0.2302
 6775SOL    HW121809   3.242   1.925   2.993  1.2308  1.3961 -0.3998
 6775SOL    HW221810   3.353   1.911   3.094 -0.3984 -2.0865  1.0005
 6776SOL     OW21811   0.942   0.679   3.691 -0.1167 -0.0864  0.2274
 6776SOL    HW121812   0.967   0.748   3.629 -0.5665 -0.1114  0.0153
 6776SOL    HW221813   0.967   0.598   3.647  0.8544 -0.0358  0.6841
 6777SOL     OW21814   8.101   7.712   4.588  0.2123 -0.0171 -0.2962
 6777SOL    HW121815   8.021   7.671   4.555 -0.0719  0.7351 -0.5420
 6777SOL    HW221816   8.074   7.755   4.669  0.7935 -1.4105  0.6546
 6778SOL     OW21817   4.538   2.888   5.850  0.3737  0.1491 -0.1177
 6778SOL    HW121818   4.546   2.803   5.806 -0.4929  0.6024 -1.1787
 6778SOL    HW221819   4.562   2.952   5.782 -2.6858  0.9649 -0.4969
 6779SOL     OW21820   0.390   4.963   5.172 -0.2886  0.0344 -0.5209
 6779SOL    HW121821   0.410   4.869   5.174  0.2504  0.1699  1.2022
 6779SOL    HW221822   0.475   5.006   5.163 -0.5829  0.3535 -1.8643
 6780SOL     OW21823   1.736   5.836   5.667  0.4413 -0.1372 -0.5582
 6780SOL    HW121824   1.708   5.750   5.698  2.1839 -0.6185 -0.2465
 6780SOL    HW221825   1.786   5.873   5.740 -1.4694  1.7539 -0.1615
 6781SOL     OW21826   5.172   5.555   2.835  0.0973 -0.2092 -0.5101
 6781SOL    HW121827   5.085   5.560   2.796 -0.3987 -2.3305  0.2837
 6781SOL    HW221828   5.206   5.470   2.807  1.8052  0.4699 -0.5664
 6782SOL     OW21829   5.964   3.670   4.891 -0.4216  0.2177 -0.2369
 6782SOL    HW121830   6.004   3.672   4.978 -0.8588 -2.3620  0.0802
 6782SOL    HW221831   6.038   3.655   4.832 -0.1092  2.0834 -0.3502
 6783SOL     OW21832   5.885   5.766   5.516  0.3493 -0.3169 -0.2076
 6783SOL    HW121833   5.919   5.854   5.534  1.1548 -0.7194  0.2459
 6783SOL    HW221834   5.860   5.769   5.423  0.8462  0.2381 -0.3256
 6784SOL     OW21835   3.932   2.285   5.757 -0.1836 -0.3629  0.1402
 6784SOL    HW121836   3.864   2.270   5.823 -1.5851  2.8120 -0.5112
 6784SOL    HW221837   3.916   2.216   5.692  0.1790 -2.4974  2.2474
 6785SOL     OW21838   0.622   0.007   3.793  0.1916 -0.2011 -0.4556
 6785SOL    HW121839   0.574   0.070   3.847 -1.4927 -0.5925 -1.4737
 6785SOL    HW221840   0.621  -0.074   3.844  1.3328  0.2629  0.3230
 6786SOL     OW21841   5.950   5.736   8.184  0.0642 -0.3790 -0.0114
 6786SOL    HW121842   6.035   5.708   8.218  0.6782  0.2789 -0.9847
 6786SOL    HW221843   5.886   5.692   8.240  1.0350 -1.4274  0.2921
 6787SOL     OW21844   5.573   0.758   6.683  0.5062  0.8614  0.6853
 6787SOL    HW121845   5.497   0.790   6.634  0.6908  0.5587  0.1983
 6787SOL    HW221846   5.538   0.688   6.738  0.6642 -0.1097 -0.4499
 6788SOL     OW21847   7.168   6.268   2.937  0.2659  0.5929 -0.3309
 6788SOL    HW121848   7.204   6.355   2.917  2.7457 -0.7429 -1.9388
 6788SOL    HW221849   7.093   6.260   2.878  2.1535  0.2897 -2.7954
 6789SOL     OW21850   3.171   2.845   0.182 -1.2676 -0.1965 -0.1284
 6789SOL    HW121851   3.146   2.878   0.096 -0.6746  2.8235  0.8098
 6789SOL    HW221852   3.088   2.826   0.226 -1.5712 -2.0011 -1.4001
 6790SOL     OW21853   2.214   8.000   1.199 -0.3097  0.7569  0.1841
 6790SOL    HW121854   2.240   7.987   1.290  1.0125  1.1594 -0.1283
 6790SOL    HW221855   2.138   7.943   1.187 -0.2671  0.4297  1.4291
 6791SOL     OW21856   7.972   4.497   4.571  0.4389 -0.5422  0.2020
 6791SOL    HW121857   7.932   4.428   4.624 -1.9978  0.7891  0.1686
 6791SOL    HW221858   7.907   4.515   4.503  1.5148  1.0271 -0.4306
 6792SOL     OW21859   5.078   6.829   1.393 -0.3235  0.1544 -0.2101
 6792SOL    HW121860   5.012   6.890   1.360 -1.2059 -0.0840  1.0869
 6792SOL    HW221861   5.044   6.742   1.370 -3.2873 -0.3459  5.1576
 6793SOL     OW21862   4.003   5.872   5.677  0.2935 -0.1101 -0.9440
 6793SOL    HW121863   3.966   5.815   5.745  0.2185  0.1622 -0.7575
 6793SOL    HW221864   3.927   5.910   5.634  0.3649  0.8298 -0.2388
 6794SOL     OW21865   7.172   5.822   4.126  0.0121  0.1589 -0.0573
 6794SOL    HW121866   7.219   5.882   4.068  2.3111 -0.1563  1.4262
 6794SOL    HW221867   7.241   5.772   4.170 -1.7468 -0.9272  1.5400
 6795SOL     OW21868   1.636   2.088   7.463 -0.5503 -0.4384  0.1859
 6795SOL    HW121869   1.729   2.087   7.439 -0.5601 -2.2135  0.1274
 6795SOL    HW221870   1.590   2.087   7.379 -0.6173 -0.4733  0.2235
 6796SOL     OW21871   3.868   2.730   3.832 -0.6297  0.1554  0.1297
 6796SOL    HW121872   3.873   2.819   3.867  1.4791 -0.4630  1.4873
 6796SOL    HW221873   3.919   2.734   3.751 -0.5560  0.1943  0.1776
 6797SOL     OW21874   0.548   0.053   2.796  0.4013 -0.4520 -0.4362
 6797SOL    HW121875   0.602  -0.022   2.820  0.9763  0.2281  0.3890
 6797SOL    HW221876   0.610   0.123   2.776 -0.1697  0.4208  0.7920
 6798SOL     OW21877   0.722   4.638   0.014 -0.2382 -0.0691  0.5203
 6798SOL    HW121878   0.761   4.720  -0.017 -1.5428  0.3512 -0.0899
 6798SOL    HW221879   0.703   4.589  -0.066  0.8521 -1.1285  0.8981
 6799SOL     OW21880   7.632   2.899   6.655 -0.0085 -0.2923 -0.0335
 6799SOL    HW121881   7.607   2.857   6.572  0.4723  1.0628 -0.8685
 6799SOL    HW221882   7.552   2.943   6.684 -0.0008 -0.2412 -0.0914
 6800SOL     OW21883   2.212   7.448   2.338  0.4504  0.3685  0.8548
 6800SOL    HW121884   2.120   7.450   2.363  0.5214 -1.7244  1.3352
 6800SOL    HW221885   2.213   7.482   2.248 -0.8814 -0.2673  0.5853
 6801SOL     OW21886   7.437   4.764   4.621  0.4832  0.3847  0.3199
 6801SOL    HW121887   7.489   4.828   4.572  0.5659 -0.0887 -0.2132
 6801SOL    HW221888   7.380   4.817   4.676 -0.1261  0.9345 -0.8219
 6802SOL     OW21889   2.346   5.378   1.194 -0.6834 -0.0266 -0.1520
 6802SOL    HW121890   2.339   5.287   1.164 -0.0609  0.3204 -1.3743
 6802SOL    HW221891   2.440   5.394   1.203 -0.8411 -0.0288  1.7505
 6803SOL     OW21892   1.259   0.484   8.133 -0.2263  0.0992 -0.8806
 6803SOL    HW121893   1.280   0.513   8.044  0.9101  0.5365 -0.4852
 6803SOL    HW221894   1.212   0.558   8.171 -0.6114 -0.0425 -1.0794
 6804SOL     OW21895   4.741   2.724   7.229 -0.0316 -0.1667  0.0473
 6804SOL    HW121896   4.697   2.804   7.257  0.5492  0.2714 -0.2537
 6804SOL    HW221897   4.682   2.684   7.165  0.2698  0.7267 -0.8037
 6805SOL     OW21898   3.812   0.682   3.637  0.1371 -0.2032  0.9402
 6805SOL    HW121899   3.735   0.740   3.640 -0.4147 -0.9396  1.1712
 6805SOL    HW221900   3.835   0.670   3.729 -0.6506 -1.5236  0.9840
 6806SOL     OW21901   0.126   5.612   3.192 -0.6465  0.7504 -0.0241
 6806SOL    HW121902   0.170   5.565   3.121 -2.3477  0.9604 -1.2536
 6806SOL    HW221903   0.157   5.570   3.272 -0.8760 -1.3786 -1.0196
 6807SOL     OW21904   2.230   5.434   0.221  0.6205 -0.5618  0.0750
 6807SOL    HW121905   2.212   5.408   0.130 -1.2684 -1.9164  0.7922
 6807SOL    HW221906   2.248   5.528   0.216 -3.3367  0.2451 -1.2835
 6808SOL     OW21907   3.821   0.541   4.533  0.2199 -0.2962 -0.1938
 6808SOL    HW121908   3.825   0.532   4.438  1.0284 -1.1061 -0.0869
 6808SOL    HW221909   3.837   0.453   4.566 -0.9554 -0.1992  0.6747
 6809SOL     OW21910   5.419   7.111   5.735  0.1811 -0.5486  0.7023
 6809SOL    HW121911   5.478   7.170   5.782 -1.1141  0.7466  0.7286
 6809SOL    HW221912   5.341   7.106   5.791 -1.0320  0.3307 -0.8877
 6810SOL     OW21913   0.416   2.766   8.169  0.0310  0.7869  0.2433
 6810SOL    HW121914   0.497   2.812   8.192  0.7283  0.2843 -1.1498
 6810SOL    HW221915   0.346   2.824   8.198  0.8825  0.8915  2.1468
 6811SOL     OW21916   5.133   2.280   7.820  0.6202 -0.1759 -0.1913
 6811SOL    HW121917   5.225   2.274   7.845  0.3461  0.0588  0.8773
 6811SOL    HW221918   5.097   2.348   7.877  0.3790  1.5867 -2.3356
 6812SOL     OW21919   0.094   1.537   4.234 -0.2259 -0.0401 -0.6547
 6812SOL    HW121920   0.120   1.628   4.249 -0.3282 -0.3645  1.6126
 6812SOL    HW221921   0.023   1.522   4.296 -0.6318 -1.4982 -1.4463
 6813SOL     OW21922   6.262   3.087   6.559 -0.0386  0.6249  0.1918
 6813SOL    HW121923   6.227   3.106   6.472 -0.6976  2.5743  0.8635
 6813SOL    HW221924   6.346   3.133   6.562  0.7232 -0.7222  0.0424
 6814SOL     OW21925   1.566   4.869   7.745 -0.2830 -1.0241 -0.0732
 6814SOL    HW121926   1.577   4.777   7.769 -0.7049 -1.5825 -1.9420
 6814SOL    HW221927   1.526   4.866   7.658 -1.4457  0.9314  0.3724
 6815SOL     OW21928   1.356   3.863   4.801 -0.3658 -0.3753  0.4333
 6815SOL    HW121929   1.365   3.777   4.842  1.4361 -0.1500  0.5440
 6815SOL    HW221930   1.265   3.888   4.817 -0.7490 -2.0192  0.8720
 6816SOL     OW21931   5.098   5.856   6.273 -0.2254  0.6969 -0.2408
 6816SOL    HW121932   5.191   5.836   6.271 -0.4264 -0.6379  1.9277
 6816SOL    HW221933   5.090   5.931   6.331 -0.5150  0.7331 -0.3237
 6817SOL     OW21934   3.173   0.990   4.937 -0.1094  0.0451  0.2374
 6817SOL    HW121935   3.235   0.930   4.896 -2.3314 -1.7676 -0.5311
 6817SOL    HW221936   3.210   1.077   4.918  2.2422 -0.9653 -0.1056
 6818SOL     OW21937   3.487   5.057   0.872 -0.0073 -0.3401  0.4736
 6818SOL    HW121938   3.410   5.099   0.833 -2.0305 -2.2598  2.3121
 6818SOL    HW221939   3.510   4.987   0.811  0.0174 -0.0605  0.1584
 6819SOL     OW21940   1.451   7.675   4.826 -0.3799 -0.7615  0.7285
 6819SOL    HW121941   1.458   7.632   4.740 -1.6953 -0.4594  0.4606
 6819SOL    HW221942   1.360   7.661   4.853 -1.1035  2.5175  0.2618
 6820SOL     OW21943   6.810   0.962   4.748  0.0667  0.0103  0.3883
 6820SOL    HW121944   6.896   0.998   4.726  0.6788 -0.7141  1.5758
 6820SOL    HW221945   6.754   0.989   4.675  0.7369  2.4827  0.7394
 6821SOL     OW21946   6.466   1.712   7.199  0.0641 -0.6205 -0.3040
 6821SOL    HW121947   6.371   1.707   7.190  0.0721 -0.0476 -0.7052
 6821SOL    HW221948   6.493   1.780   7.138  0.5076  0.6656  1.2757
 6822SOL     OW21949   5.164   5.334   5.789  0.1207  0.5267  0.8711
 6822SOL    HW121950   5.163   5.243   5.820 -2.1601  1.5748  4.1009
 6822SOL    HW221951   5.256   5.359   5.794  0.8761 -1.7088 -0.5941
 6823SOL     OW21952   6.076   3.533   7.224  0.1932 -0.0420  0.5579
 6823SOL    HW121953   6.008   3.487   7.174  0.8100 -0.1582 -0.1838
 6823SOL    HW221954   6.064   3.625   7.200 -0.6190  0.1146  1.5359
 6824SOL     OW21955   7.067   6.495   5.078 -0.2401 -0.1523  0.0647
 6824SOL    HW121956   7.002   6.471   5.013 -0.6842 -0.4128  0.5979
 6824SOL    HW221957   7.020   6.488   5.162  0.3828 -0.0315  0.4228
 6825SOL     OW21958   7.317   6.451   5.225 -0.0670 -0.0978 -0.5143
 6825SOL    HW121959   7.235   6.455   5.175 -0.1486 -0.1749 -0.3867
 6825SOL    HW221960   7.341   6.543   5.238  1.4558 -0.0743 -3.1483
 6826SOL     OW21961   0.130   2.974   1.777  0.3028 -0.4767 -0.1054
 6826SOL    HW121962   0.138   2.949   1.869 -0.1247  0.0249  0.0680
 6826SOL    HW221963   0.095   3.063   1.779 -0.1560 -0.6413 -0.7628
 6827SOL     OW21964   5.912   5.332   7.291  0.4718 -0.2152  0.2817
 6827SOL    HW121965   5.964   5.274   7.235 -0.5406 -1.4551  0.6292
 6827SOL    HW221966   5.827   5.289   7.300 -0.9742  2.2637 -1.0426
 6828SOL     OW21967   5.369   2.312   2.408 -0.5052  0.0897  0.2580
 6828SOL    HW121968   5.333   2.255   2.340  1.6443  1.0415 -1.7513
 6828SOL    HW221969   5.354   2.400   2.376 -0.6613  0.5857  1.6696
 6829SOL     OW21970   7.354   1.747   0.471 -0.1408  0.2727 -0.1694
 6829SOL    HW121971   7.366   1.672   0.412  0.1676  1.0583 -1.1173
 6829SOL    HW221972   7.423   1.808   0.446 -0.9287  1.2417  0.0056
 6830SOL     OW21973   3.666   5.197   8.040  0.4837 -0.1542 -0.0483
 6830SOL    HW121974   3.669   5.109   8.079  1.9200 -0.5014 -0.9080
 6830SOL    HW221975   3.728   5.193   7.967  0.0415  1.3758 -0.5222
 6831SOL     OW21976   5.884   0.512   1.506 -0.3902  0.3860 -0.0952
 6831SOL    HW121977   5.975   0.536   1.522 -0.1108 -1.4198  1.1753
 6831SOL    HW221978   5.844   0.507   1.593 -0.7407 -2.4197 -0.3774
 6832SOL     OW21979   7.948   7.292   1.489  0.1877  0.0518  0.3061
 6832SOL    HW121980   7.996   7.229   1.435  1.3177 -0.5060  1.9466
 6832SOL    HW221981   7.966   7.377   1.447  3.7539  0.0303  1.6254
 6833SOL     OW21982   4.258   0.343   6.059 -0.4573 -0.5547 -0.1463
 6833SOL    HW121983   4.243   0.417   6.118 -1.2096 -0.0831 -0.9260
 6833SOL    HW221984   4.172   0.325   6.020  0.1370 -0.5430 -1.4773
 6834SOL     OW21985   6.874   2.225   7.589 -0.0829 -0.3149 -0.7401
 6834SOL    HW121986   6.782   2.247   7.573 -0.3474 -2.1736 -1.9072
 6834SOL    HW221987   6.871   2.137   7.625  1.1673  0.2208  0.7421
 6835SOL     OW21988   2.020   2.084   4.150  0.9709  0.3757  0.3200
 6835SOL    HW121989   1.985   2.060   4.236  0.7979 -1.2278 -0.1849
 6835SOL    HW221990   1.952   2.139   4.111  0.4542 -0.0183  0.6567
 6836SOL     OW21991   2.783   6.866   0.794 -0.3009 -0.2754  0.2940
 6836SOL    HW121992   2.854   6.838   0.737 -0.7552  0.3957 -0.6249
 6836SOL    HW221993   2.793   6.961   0.799  0.2220 -0.4005  2.0010
 6837SOL     OW21994   1.015   2.948   4.602  0.1663  0.2740  0.2885
 6837SOL    HW121995   0.924   2.951   4.630 -0.2948  2.4815 -1.3323
 6837SOL    HW221996   1.058   3.016   4.654  0.2414  1.2913 -1.0845
 6838SOL     OW21997   7.006   0.498   0.540 -0.2145 -0.2152 -0.0908
 6838SOL    HW121998   6.985   0.512   0.632 -1.4406  1.0397 -0.5384
 6838SOL    HW221999   6.927   0.457   0.504  0.2928 -0.7782 -0.5712
 6839SOL     OW22000   6.461   7.646   6.784 -0.3230 -0.3088  0.3125
 6839SOL    HW122001   6.463   7.714   6.852  1.7815 -0.9672  0.9543
 6839SOL    HW222002   6.450   7.695   6.702  1.5476  0.8793  0.7267
 6840SOL     OW22003   0.634   4.255   8.033 -0.3242  0.4385 -0.1685
 6840SOL    HW122004   0.686   4.248   7.953 -0.2430  2.5215 -0.3349
 6840SOL    HW222005   0.660   4.179   8.085  1.0486  0.0959 -1.3068
 6841SOL     OW22006   1.826   6.569   0.621  0.5090  1.3507 -0.0354
 6841SOL    HW122007   1.823   6.664   0.632 -1.7659  1.4240 -0.8803
 6841SOL    HW222008   1.736   6.546   0.598  0.7730 -1.1715  1.3859
 6842SOL     OW22009   2.704   2.361   4.829  0.0225  0.5277  0.2835
 6842SOL    HW122010   2.755   2.363   4.910 -0.4329  1.5638  0.5478
 6842SOL    HW222011   2.613   2.365   4.857 -0.2415 -1.3883 -0.1861
 6843SOL     OW22012   6.742   8.167   2.015  0.4310  0.4627 -0.0247
 6843SOL    HW122013   6.671   8.227   1.994 -0.4334  0.1513  1.9042
 6843SOL    HW222014   6.777   8.198   2.098  2.1883  0.2694 -0.6668
 6844SOL     OW22015   3.054   4.374   4.781  0.6363  0.2360 -0.6131
 6844SOL    HW122016   3.047   4.278   4.788 -0.2935  0.3239 -0.3040
 6844SOL    HW222017   3.019   4.394   4.694 -1.2910  0.5001  0.2025
 6845SOL     OW22018   7.278   1.044   6.593  0.6849 -0.3084  0.9642
 6845SOL    HW122019   7.243   0.956   6.575  1.1182 -0.3672  0.3735
 6845SOL    HW222020   7.372   1.034   6.581  0.8702 -0.0563  2.1515
 6846SOL     OW22021   5.507   5.583   3.096  0.1891  0.4966  0.7098
 6846SOL    HW122022   5.491   5.625   3.181  1.8251  1.8205  0.3913
 6846SOL    HW222023   5.486   5.650   3.032  2.4162  0.7193  0.1766
 6847SOL     OW22024   3.026   1.298   2.937  0.0822 -0.2448 -0.1385
 6847SOL    HW122025   3.009   1.372   2.880 -1.4434 -0.3420  0.1646
 6847SOL    HW222026   3.084   1.241   2.887  1.5511  1.3074 -0.2283
 6848SOL     OW22027   4.727   7.001   4.952 -0.5339  0.0515  0.1753
 6848SOL    HW122028   4.684   7.086   4.944 -1.2326 -0.0340  2.8771
 6848SOL    HW222029   4.807   7.011   4.900 -0.4543  2.4540  0.7007
 6849SOL     OW22030   4.514   2.916   2.736  0.4179 -0.0144 -0.2758
 6849SOL    HW122031   4.593   2.885   2.780  0.9501  0.6640 -0.7465
 6849SOL    HW222032   4.442   2.874   2.785  1.0673 -0.9406 -0.0861
 6850SOL     OW22033   6.386   6.414   5.946 -0.2572  0.1214 -0.0061
 6850SOL    HW122034   6.470   6.391   5.986 -0.6080  0.5932  1.0308
 6850SOL    HW222035   6.361   6.495   5.990 -0.5247  0.7952 -1.4094
 6851SOL     OW22036   5.937   2.154   2.554  0.1502 -0.1911 -0.3412
 6851SOL    HW122037   6.013   2.200   2.519  0.0527  3.3393  3.7605
 6851SOL    HW222038   5.862   2.201   2.519 -0.0613 -0.4893 -0.2922
 6852SOL     OW22039   4.816   0.970   3.133 -0.4122 -0.5402 -0.0709
 6852SOL    HW122040   4.817   0.984   3.228 -0.1967 -1.3383  0.0462
 6852SOL    HW222041   4.802   1.057   3.096 -0.6170 -0.2439  0.6993
 6853SOL     OW22042   2.896   1.744   3.466 -0.4796  0.4847  0.1798
 6853SOL    HW122043   2.954   1.819   3.455  0.4407 -0.3157 -0.4677
 6853SOL    HW222044   2.828   1.775   3.527  0.6940  1.3807  1.0600
 6854SOL     OW22045   6.915   7.134   4.355  0.5996  0.3164  0.5702
 6854SOL    HW122046   6.907   7.195   4.281  2.0086 -0.2050 -0.0184
 6854SOL    HW222047   6.935   7.050   4.314  2.3973  0.2254  1.6008
 6855SOL     OW22048   2.256   3.152   6.399 -0.1067  0.7519 -0.5786
 6855SOL    HW122049   2.220   3.115   6.319  1.1294 -0.1593 -0.7351
 6855SOL    HW222050   2.299   3.233   6.370 -0.4895  0.9140 -0.6866
 6856SOL     OW22051   6.576   7.581   3.452 -0.2484 -0.0114 -0.5600
 6856SOL    HW122052   6.528   7.502   3.429 -1.6377  1.1242 -1.6556
 6856SOL    HW222053   6.666   7.564   3.422 -0.1549 -1.7989  0.7039
 6857SOL     OW22054   2.675   6.401   0.192  0.3153  0.0581  0.3725
 6857SOL    HW122055   2.693   6.490   0.223  2.3106 -0.0178 -0.5539
 6857SOL    HW222056   2.716   6.396   0.106  2.3185 -2.5152  1.3977
 6858SOL     OW22057   6.213   0.412   1.382 -0.5712  0.5161 -0.1575
 6858SOL    HW122058   6.192   0.490   1.433 -0.2720 -0.7658  2.0065
 6858SOL    HW222059   6.217   0.442   1.291 -0.3809  3.0079  0.6525
 6859SOL     OW22060   0.319   6.043   0.014 -0.3124  0.4635  0.3598
 6859SOL    HW122061   0.300   6.016   0.104 -0.1948 -0.1840  0.1932
 6859SOL    HW222062   0.277   6.128   0.005 -0.1676  0.6164  1.0866
 6860SOL     OW22063   7.022   3.906   7.461 -0.1744 -0.5094 -0.2287
 6860SOL    HW122064   7.105   3.867   7.488 -1.4643 -1.9916  1.8150
 6860SOL    HW222065   6.957   3.863   7.517 -2.2334  1.1004 -1.3286
 6861SOL     OW22066   3.345   7.358   1.654 -0.2676 -0.0370  0.1169
 6861SOL    HW122067   3.340   7.429   1.717 -0.0187 -1.0123  1.2557
 6861SOL    HW222068   3.430   7.369   1.611 -0.4035  0.5769  0.0072
 6862SOL     OW22069   0.050   0.574   3.206 -0.5355  0.0375 -0.1873
 6862SOL    HW122070   0.131   0.621   3.185  0.0061 -1.0916 -0.6817
 6862SOL    HW222071   0.012   0.554   3.121 -0.4163 -0.9906 -0.0052
 6863SOL     OW22072   0.975   1.327   7.467  0.1574  0.1156 -0.3901
 6863SOL    HW122073   0.912   1.285   7.408  0.8484 -0.8796 -0.4414
 6863SOL    HW222074   1.045   1.358   7.409  2.3436 -3.5250  0.0817
 6864SOL     OW22075   4.201   1.639   3.661 -0.0569 -0.7096 -0.4160
 6864SOL    HW122076   4.186   1.637   3.756  0.2038 -0.1536 -0.3639
 6864SOL    HW222077   4.294   1.661   3.652 -0.4061  0.6385 -0.8245
 6865SOL     OW22078   0.743   4.312   5.727  0.5335  0.5906  0.1575
 6865SOL    HW122079   0.763   4.405   5.731  1.7009  0.3007  2.5578
 6865SOL    HW222080   0.724   4.288   5.818 -0.5136 -1.3587 -0.5357
 6866SOL     OW22081   7.226   7.020   4.904  0.4664 -0.7787  0.5094
 6866SOL    HW122082   7.166   7.093   4.897  0.8004 -0.5818 -0.3005
 6866SOL    HW222083   7.275   7.036   4.985  1.8406  0.8861 -0.6187
 6867SOL     OW22084   1.767   3.144   4.560  0.2300  0.1578  0.1023
 6867SOL    HW122085   1.693   3.139   4.499 -0.2047  1.2228  0.5434
 6867SOL    HW222086   1.844   3.126   4.506 -0.3369 -0.8610 -0.3803
 6868SOL     OW22087   8.055   8.295   2.506 -0.3915  0.3702 -0.2259
 6868SOL    HW122088   8.072   8.240   2.583  0.4413 -0.4192 -0.9547
 6868SOL    HW222089   8.128   8.277   2.447 -0.8277  1.2483 -1.0524
 6869SOL     OW22090   1.239   0.697   4.647 -0.2760 -0.1826 -0.0099
 6869SOL    HW122091   1.149   0.726   4.665 -0.0446  1.0654 -0.7522
 6869SOL    HW222092   1.233   0.602   4.640 -1.3920 -0.1819  0.7704
 6870SOL     OW22093   3.009   4.250   0.748 -0.8115 -0.1747 -0.2311
 6870SOL    HW122094   3.007   4.337   0.708 -2.3897 -0.1739 -0.1810
 6870SOL    HW222095   3.082   4.205   0.705 -0.7495  0.7671 -1.1114
 6871SOL     OW22096   2.879   0.620   2.122 -0.8240  0.4429 -0.0091
 6871SOL    HW122097   2.813   0.688   2.109 -2.0059 -1.0558 -2.1376
 6871SOL    HW222098   2.860   0.555   2.054  3.9591  0.8330 -1.8618
 6872SOL     OW22099   1.762   4.705   5.216 -0.0308 -0.3914 -0.0990
 6872SOL    HW122100   1.749   4.800   5.218 -1.6752 -0.6256  2.3013
 6872SOL    HW222101   1.730   4.679   5.129 -1.1128  1.0611 -0.1663
 6873SOL     OW22102   0.480   3.860   7.782  0.0523 -0.0053 -0.3519
 6873SOL    HW122103   0.486   3.949   7.747  0.1949  0.7598  1.5289
 6873SOL    HW222104   0.435   3.870   7.866  0.9249 -1.5887  0.3344
 6874SOL     OW22105   5.469   8.268   3.812 -0.0476  0.0067  0.1055
 6874SOL    HW122106   5.537   8.325   3.775  0.8890 -0.8177  0.5640
 6874SOL    HW222107   5.389   8.294   3.765  0.8734 -0.1136 -1.5730
 6875SOL     OW22108   6.769   6.235   6.488  0.3969 -0.1443  0.1029
 6875SOL    HW122109   6.841   6.189   6.533  0.9012  0.6460  0.1022
 6875SOL    HW222110   6.691   6.189   6.518  0.9539 -1.5272 -0.5067
 6876SOL     OW22111   7.088   0.862   5.348  0.2204  0.3095  0.5206
 6876SOL    HW122112   7.038   0.930   5.394  0.0143  0.4641  0.0742
 6876SOL    HW222113   7.076   0.783   5.400 -1.3963  0.0872 -0.1787
 6877SOL     OW22114   5.823   2.257   0.683 -0.0805 -0.0284 -0.2861
 6877SOL    HW122115   5.743   2.233   0.729  1.5111 -1.5162  1.7872
 6877SOL    HW222116   5.885   2.188   0.704  2.8099  2.7741  0.9452
 6878SOL     OW22117   6.755   6.527   4.323 -0.2423  0.1938  0.4071
 6878SOL    HW122118   6.791   6.527   4.234  1.5833 -3.3132  1.0356
 6878SOL    HW222119   6.823   6.570   4.375  0.4673 -1.1831  0.6582
 6879SOL     OW22120   5.718   7.720   3.016 -0.2091  0.1331 -0.2790
 6879SOL    HW122121   5.641   7.712   2.960 -0.0427 -0.1219 -0.4710
 6879SOL    HW222122   5.779   7.772   2.965 -0.2070  0.2319 -0.1761
 6880SOL     OW22123   7.376   3.393   6.220 -0.0250  0.5324  0.4512
 6880SOL    HW122124   7.417   3.391   6.307  1.9353  1.7756 -0.4276
 6880SOL    HW222125   7.410   3.315   6.175 -1.5359 -0.4666  0.9800
 6881SOL     OW22126   2.397   3.138   1.064  0.3441 -0.3677 -0.0696
 6881SOL    HW122127   2.377   3.150   1.157 -0.2269 -0.4058 -0.1835
 6881SOL    HW222128   2.484   3.176   1.053  0.2920 -0.1008  0.4231
 6882SOL     OW22129   5.128   7.349   5.508 -0.3679  0.0347  0.0551
 6882SOL    HW122130   5.100   7.408   5.577  0.3843  0.3272  0.1092
 6882SOL    HW222131   5.216   7.322   5.533 -0.1223  0.0839 -0.7447
 6883SOL     OW22132   4.036   7.620   2.579 -0.4158 -0.4526  0.3203
 6883SOL    HW122133   4.017   7.527   2.585  0.4552 -0.6958 -0.6230
 6883SOL    HW222134   4.077   7.631   2.493 -0.3661  0.7668  0.4913
 6884SOL     OW22135   3.242   7.947   6.748  0.4429 -0.3210  0.1552
 6884SOL    HW122136   3.252   8.041   6.739 -0.2510 -0.3572 -1.0399
 6884SOL    HW222137   3.202   7.918   6.666  0.0112 -1.5569  0.7724
 6885SOL     OW22138   2.984   3.244   6.865 -0.3471 -0.1952 -0.4047
 6885SOL    HW122139   3.003   3.333   6.895 -0.1362  0.5623 -2.6715
 6885SOL    HW222140   2.967   3.195   6.945  0.6008  1.6292  0.9623
 6886SOL     OW22141   4.590   4.307   1.333 -0.7378  0.5522  0.1407
 6886SOL    HW122142   4.543   4.379   1.374 -0.5831  0.5938  0.2447
 6886SOL    HW222143   4.580   4.323   1.239 -0.5123  0.8360  0.1639
 6887SOL     OW22144   4.966   6.133   3.148  0.6456  0.8466  0.1107
 6887SOL    HW122145   4.927   6.197   3.088  0.0225  0.5888  0.2422
 6887SOL    HW222146   4.921   6.051   3.130  1.2334  0.5043  0.1568
 6888SOL     OW22147   7.417   1.741   7.856 -0.2715  0.0749 -0.4004
 6888SOL    HW122148   7.342   1.691   7.888 -0.5828 -0.9311 -2.5860
 6888SOL    HW222149   7.490   1.713   7.910 -0.8441 -1.2611 -0.3057
 6889SOL     OW22150   1.549   3.837   1.248 -0.6758 -0.0079 -0.0705
 6889SOL    HW122151   1.637   3.830   1.285  0.0185  0.4056 -1.6186
 6889SOL    HW222152   1.555   3.794   1.163 -1.3095  2.1834 -1.2619
 6890SOL     OW22153   0.651   8.009   2.160  0.6345  0.4205 -0.2373
 6890SOL    HW122154   0.577   8.047   2.113 -0.9459  0.2090  2.0228
 6890SOL    HW222155   0.640   7.915   2.152 -0.4062  0.3606  1.6702
 6891SOL     OW22156   0.635   8.283   3.379 -0.4984  0.4275 -0.0779
 6891SOL    HW122157   0.595   8.200   3.407 -0.4498 -0.3863 -2.3154
 6891SOL    HW222158   0.593   8.349   3.435 -0.9785 -1.0136  1.3266
 6892SOL     OW22159   3.106   3.415   7.995 -0.0318 -0.1887  0.6841
 6892SOL    HW122160   3.014   3.419   8.022  0.6637  1.4148  2.9613
 6892SOL    HW222161   3.145   3.351   8.054  0.8209  1.0102  1.4620
 6893SOL     OW22162   4.769   2.391   2.789  0.3296  0.0618  0.7573
 6893SOL    HW122163   4.751   2.305   2.826 -1.6996 -0.1223 -0.5963
 6893SOL    HW222164   4.741   2.453   2.856 -1.3154 -0.2929  0.3971
 6894SOL     OW22165   6.941   1.313   3.841  0.1496 -0.2298 -0.3982
 6894SOL    HW122166   6.951   1.229   3.795 -0.4727 -2.7191  3.7652
 6894SOL    HW222167   7.016   1.317   3.900 -2.3682 -0.2295  2.9038
 6895SOL     OW22168   7.069   6.999   4.106 -0.1212  0.6876 -0.2759
 6895SOL    HW122169   7.044   6.908   4.122  1.7699 -0.0425 -1.2914
 6895SOL    HW222170   6.991   7.039   4.069 -0.6677 -0.7977 -0.7627
 6896SOL     OW22171   3.980   6.221   3.495 -0.3100  0.0707  0.8791
 6896SOL    HW122172   3.886   6.225   3.482 -0.2892 -0.7295  0.4461
 6896SOL    HW222173   3.992   6.223   3.590 -0.6503  2.3520  0.9017
 6897SOL     OW22174   1.052   7.532   1.732 -0.4463 -0.3717 -0.5546
 6897SOL    HW122175   1.051   7.558   1.640 -0.2521 -1.3864 -0.8456
 6897SOL    HW222176   1.131   7.574   1.767 -0.6748  0.2555 -0.7716
 6898SOL     OW22177   0.758   1.303   5.116 -0.4751 -0.2172  0.4432
 6898SOL    HW122178   0.824   1.354   5.069 -1.8179  1.6298  0.5190
 6898SOL    HW222179   0.713   1.254   5.047  0.2059 -0.6159  0.2706
 6899SOL     OW22180   2.952   5.729   3.175 -0.1880 -0.2417 -0.5456
 6899SOL    HW122181   2.874   5.782   3.159 -1.0189 -0.7920  1.5723
 6899SOL    HW222182   2.947   5.705   3.267  4.1308  2.3010  0.4862
 6900SOL     OW22183   0.400   1.599   7.937  0.4577  0.2028 -0.3544
 6900SOL    HW122184   0.314   1.561   7.916  0.1435 -0.4980  2.0760
 6900SOL    HW222185   0.435   1.626   7.852 -1.6957 -0.5002 -1.5142
 6901SOL     OW22186   4.744   0.949   7.094 -0.1721 -0.1712  0.1128
 6901SOL    HW122187   4.773   0.933   7.184 -0.7819 -0.8439  0.1949
 6901SOL    HW222188   4.737   1.044   7.087 -1.8985 -0.1977  1.3291
 6902SOL     OW22189   5.320   1.465   1.003  0.2050 -0.1755  0.3787
 6902SOL    HW122190   5.375   1.478   0.926  1.9367 -1.3496  1.3856
 6902SOL    HW222191   5.301   1.554   1.034  0.5056  0.2763 -0.6989
 6903SOL     OW22192   7.635   7.977   0.346 -0.0867  0.0730 -0.1548
 6903SOL    HW122193   7.571   8.014   0.285 -0.7277 -1.5813 -0.5074
 6903SOL    HW222194   7.595   7.988   0.432 -0.5729 -0.3923 -0.3195
 6904SOL     OW22195   7.330   7.357   6.030 -0.1846 -0.3012 -0.4578
 6904SOL    HW122196   7.269   7.409   6.081  2.3077  1.0481  1.2547
 6904SOL    HW222197   7.416   7.379   6.065  1.1175 -4.1975 -0.9338
 6905SOL     OW22198   6.000   0.978   0.531 -0.1640 -0.6499  0.3373
 6905SOL    HW122199   5.960   0.917   0.592  0.8392 -1.3717  0.2874
 6905SOL    HW222200   6.080   1.008   0.576 -0.8847  0.9964  0.5686
 6906SOL     OW22201   2.084   4.894   5.446  0.1662  0.8037 -0.0502
 6906SOL    HW122202   2.017   4.928   5.386 -0.9416  3.0453  2.4042
 6906SOL    HW222203   2.125   4.971   5.484  1.8194 -0.5773  1.0577
 6907SOL     OW22204   3.881   3.073   2.811 -0.0908  0.4116  0.2526
 6907SOL    HW122205   3.917   3.159   2.791  0.2715  0.1484 -0.2382
 6907SOL    HW222206   3.889   3.024   2.729 -0.8422  0.1029  0.3632
 6908SOL     OW22207   1.893   3.701   3.285 -0.1852 -0.2161  0.3139
 6908SOL    HW122208   1.849   3.687   3.369 -2.1373  0.1274 -0.6153
 6908SOL    HW222209   1.834   3.663   3.220  0.5744  0.8539 -1.0389
 6909SOL     OW22210   4.270   3.965   5.716  0.5837  0.2277  0.5044
 6909SOL    HW122211   4.275   4.018   5.636  0.2856 -1.7034 -0.8288
 6909SOL    HW222212   4.321   4.015   5.780  1.6859  1.3312 -1.1681
 6910SOL     OW22213   6.806   2.140   4.562 -0.9882 -1.1336 -0.4689
 6910SOL    HW122214   6.885   2.092   4.539  0.0590 -0.1756  0.9644
 6910SOL    HW222215   6.792   2.200   4.488 -0.2209 -1.1430 -0.6325
 6911SOL     OW22216   1.937   7.061   6.233 -0.0692 -0.3800  0.4265
 6911SOL    HW122217   2.025   7.086   6.260 -1.4182  1.3896  3.4901
 6911SOL    HW222218   1.934   6.966   6.246  0.6286 -0.1202  2.8622
 6912SOL     OW22219   0.688   1.203   6.700 -0.0756  0.3548 -0.6209
 6912SOL    HW122220   0.683   1.261   6.776  0.1539 -0.5440  0.0915
 6912SOL    HW222221   0.777   1.166   6.703 -0.9453 -1.7596  0.2441
 6913SOL     OW22222   8.180   0.836   4.021  0.9151  0.6560 -0.3359
 6913SOL    HW122223   8.164   0.839   4.115 -0.1625 -0.0439 -0.5030
 6913SOL    HW222224   8.273   0.812   4.013  0.3907 -1.7631  0.5176
 6914SOL     OW22225   6.788   5.291   3.923  0.0224 -0.3630 -0.3260
 6914SOL    HW122226   6.864   5.345   3.900  0.3758 -0.2626  1.0447
 6914SOL    HW222227   6.815   5.202   3.903  0.8175 -0.4130  0.9396
 6915SOL     OW22228   6.651   3.653   5.692 -0.3510  0.0675  0.1734
 6915SOL    HW122229   6.571   3.650   5.744  0.5233 -1.5172  1.4655
 6915SOL    HW222230   6.644   3.579   5.632  0.1980 -0.1388  0.3624
 6916SOL     OW22231   2.767   5.892   4.192  0.5445  0.4527 -0.6905
 6916SOL    HW122232   2.679   5.877   4.158 -0.4616 -0.1570  2.0481
 6916SOL    HW222233   2.819   5.820   4.156 -0.7989 -0.9557  0.1031
 6917SOL     OW22234   7.332   2.403   7.864  0.2979 -0.2520  0.1032
 6917SOL    HW122235   7.373   2.356   7.936  2.6481  1.8766  0.2305
 6917SOL    HW222236   7.377   2.488   7.862 -0.9519  0.4046 -2.7274
 6918SOL     OW22237   5.048   7.905   4.852  0.4460 -0.2762 -0.5938
 6918SOL    HW122238   5.113   7.835   4.841  0.5167 -0.0593 -1.6225
 6918SOL    HW222239   4.964   7.860   4.861  0.6890 -0.5449  0.4090
 6919SOL     OW22240   4.390   4.437   4.262 -0.0981  0.1619  0.1175
 6919SOL    HW122241   4.460   4.474   4.207 -1.1986  2.6518  0.3495
 6919SOL    HW222242   4.430   4.431   4.349  0.8060 -1.3433 -0.3792
 6920SOL     OW22243   6.069   0.173   7.523  0.2775 -0.3085  0.4505
 6920SOL    HW122244   6.124   0.138   7.453  0.9875  0.4599  0.6188
 6920SOL    HW222245   6.093   0.266   7.529 -1.8562  0.3013 -0.2449
 6921SOL     OW22246   6.677   5.025   8.194 -0.4395  0.0296 -0.2501
 6921SOL    HW122247   6.582   5.026   8.207 -0.2286  0.3455  1.4306
 6921SOL    HW222248   6.703   4.936   8.218 -0.3513 -0.1692 -1.0716
 6922SOL     OW22249   4.167   3.893   0.970 -0.1884  0.3905 -0.1985
 6922SOL    HW122250   4.081   3.920   1.002 -0.0902  1.1319 -0.5461
 6922SOL    HW222251   4.148   3.824   0.907 -0.5254  0.5416 -0.2643
 6923SOL     OW22252   2.236   7.191   2.271  0.1050 -0.5522  0.1838
 6923SOL    HW122253   2.252   7.179   2.177  0.0570  0.8043 -0.0001
 6923SOL    HW222254   2.239   7.285   2.285 -3.4360 -0.4642  0.9084
 6924SOL     OW22255   4.316   3.615   3.495  0.0588  0.0808 -0.3427
 6924SOL    HW122256   4.353   3.676   3.558 -0.9813 -0.2807  0.6437
 6924SOL    HW222257   4.257   3.560   3.547  1.3225 -2.0623 -1.1105
 6925SOL     OW22258   5.543   5.195   7.954  0.3426 -0.5292 -0.2123
 6925SOL    HW122259   5.484   5.145   8.010  0.5150 -0.0940  0.3652
 6925SOL    HW222260   5.497   5.278   7.938  1.0521  0.0596  0.7455
 6926SOL     OW22261   0.910   7.464   8.227 -0.3583  0.6565  0.2608
 6926SOL    HW122262   0.851   7.537   8.249  0.4458  1.3599  0.1090
 6926SOL    HW222263   0.900   7.454   8.133 -0.9066  0.1838  0.3684
 6927SOL     OW22264   7.629   6.409   7.355 -0.2645 -0.7212 -0.0615
 6927SOL    HW122265   7.587   6.439   7.436 -0.5459 -1.7552  0.1781
 6927SOL    HW222266   7.685   6.482   7.329 -0.6650 -0.1294  0.7158
 6928SOL     OW22267   1.655   2.859   4.348  0.4539 -0.0200  0.3456
 6928SOL    HW122268   1.658   2.763   4.342 -0.6160  0.0324 -1.1238
 6928SOL    HW222269   1.572   2.883   4.308 -1.6623  1.2145  5.0878
 6929SOL     OW22270   3.526   2.154   8.236  0.2332 -0.0565  0.0797
 6929SOL    HW122271   3.524   2.231   8.293 -0.6234 -0.1090  0.1264
 6929SOL    HW222272   3.583   2.179   8.164  0.8178  0.2374  0.6377
 6930SOL     OW22273   0.609   7.997   3.429 -0.3609  0.8554 -0.9300
 6930SOL    HW122274   0.660   7.929   3.473  0.7817  1.5709 -1.1409
 6930SOL    HW222275   0.628   7.984   3.336 -0.6461  1.0605 -1.0154
 6931SOL     OW22276   1.701   0.409   6.738  0.3355 -0.1695  0.2125
 6931SOL    HW122277   1.754   0.489   6.735  0.9327 -0.5766 -0.4984
 6931SOL    HW222278   1.611   0.441   6.741  0.5556  0.5450 -0.2892
 6932SOL     OW22279   2.473   5.747   0.752 -0.0379  0.2986  0.1285
 6932SOL    HW122280   2.546   5.706   0.798 -0.1822  0.7058  0.7333
 6932SOL    HW222281   2.438   5.678   0.696 -0.1263 -0.3333  0.9522
 6933SOL     OW22282   7.159   1.361   4.280 -0.6753 -0.4041 -0.1601
 6933SOL    HW122283   7.128   1.418   4.350  1.4287 -1.2416  1.4913
 6933SOL    HW222284   7.105   1.282   4.288 -1.8637  0.3195 -0.8504
 6934SOL     OW22285   5.464   5.400   8.262  0.6651  1.2745 -0.4638
 6934SOL    HW122286   5.451   5.493   8.243 -1.2785  1.0219 -0.5280
 6934SOL    HW222287   5.405   5.383   8.336 -0.9252 -0.4323 -2.0560
 6935SOL     OW22288   6.903   0.244   0.930  0.2123 -0.2393 -0.0558
 6935SOL    HW122289   6.820   0.231   0.975 -0.1312 -0.8792 -0.8630
 6935SOL    HW222290   6.970   0.224   0.996 -0.2680  0.1377  0.5536
 6936SOL     OW22291   2.130   2.868   0.471 -0.5809  0.0721 -0.4861
 6936SOL    HW122292   2.151   2.795   0.413 -2.4971 -0.2368 -0.8197
 6936SOL    HW222293   2.070   2.923   0.420 -1.7192  0.1723  0.9369
 6937SOL     OW22294   2.350   0.133   3.417 -0.4449 -0.7466  0.2204
 6937SOL    HW122295   2.379   0.181   3.339 -3.3125  1.6958  0.5757
 6937SOL    HW222296   2.429   0.086   3.447  1.4229  0.5414 -2.4663
 6938SOL     OW22297   5.666   4.036   0.754  0.2473  0.8284  0.2357
 6938SOL    HW122298   5.739   4.025   0.815 -0.8478  1.3679  1.6604
 6938SOL    HW222299   5.589   4.048   0.810 -0.7640  1.3825 -1.2471
 6939SOL     OW22300   4.105   1.311   3.338  0.2654 -0.2112  0.3979
 6939SOL    HW122301   4.149   1.383   3.294 -0.9082 -0.0349 -0.5037
 6939SOL    HW222302   4.068   1.349   3.417  0.7176 -0.1073  0.5615
 6940SOL     OW22303   4.232   1.299   6.954  0.2142 -0.3464  0.3297
 6940SOL    HW122304   4.300   1.244   6.994  2.2118  0.3847 -1.9172
 6940SOL    HW222305   4.281   1.362   6.901 -2.1855  1.3052  0.0115
 6941SOL     OW22306   0.545   6.622   3.515  0.3997  0.1000 -0.0202
 6941SOL    HW122307   0.634   6.592   3.497  0.1888 -0.7650  0.3479
 6941SOL    HW222308   0.545   6.642   3.609  0.0494 -0.4495  0.0974
 6942SOL     OW22309   6.311   8.235   3.653 -0.0131 -0.6459  0.5134
 6942SOL    HW122310   6.289   8.196   3.568 -1.4969  1.2477 -0.0141
 6942SOL    HW222311   6.266   8.319   3.653  0.8486 -0.1449  2.7605
 6943SOL     OW22312   4.177   7.608   3.887 -0.3038  0.1207  0.0582
 6943SOL    HW122313   4.089   7.619   3.849 -0.4549 -0.6738  0.1698
 6943SOL    HW222314   4.161   7.583   3.978  0.0584  1.8232  0.6047
 6944SOL     OW22315   2.693   2.444   8.191  0.6539 -0.4021 -0.2931
 6944SOL    HW122316   2.704   2.510   8.259  1.3389 -1.4532  0.6307
 6944SOL    HW222317   2.622   2.477   8.137 -1.5663 -0.6891  2.3269
 6945SOL     OW22318   3.537   1.633   2.495 -0.2770 -0.7535 -0.2672
 6945SOL    HW122319   3.468   1.586   2.448 -2.1328  0.2090  1.4779
 6945SOL    HW222320   3.569   1.697   2.432 -3.0994  0.8792 -0.1204
 6946SOL     OW22321   1.523   6.702   8.212  0.3134 -0.1847 -0.1256
 6946SOL    HW122322   1.578   6.780   8.220  0.1142  0.0199 -0.7736
 6946SOL    HW222323   1.510   6.673   8.303  0.0397  0.7806  0.1502
 6947SOL     OW22324   4.003   8.197   1.866  0.2605 -0.7199 -0.0874
 6947SOL    HW122325   3.963   8.120   1.906  2.1882 -1.3400  0.6854
 6947SOL    HW222326   4.008   8.261   1.936 -2.0233  0.4227 -0.9096
 6948SOL     OW22327   0.147   6.488   4.883  0.5324  0.2323 -0.3508
 6948SOL    HW122328   0.081   6.505   4.815  0.4752 -0.0567 -0.3686
 6948SOL    HW222329   0.156   6.393   4.884 -0.1508  0.1865  0.7132
 6949SOL     OW22330   6.117   0.431   7.544 -0.2408 -0.1746  0.0334
 6949SOL    HW122331   6.113   0.448   7.638 -1.2168 -1.7480  0.2830
 6949SOL    HW222332   6.081   0.511   7.504 -2.1829 -0.4874  1.1013
 6950SOL     OW22333   6.816   5.499   8.268 -0.0302  0.1492 -0.2921
 6950SOL    HW122334   6.758   5.494   8.344 -0.6983  0.1108 -0.7947
 6950SOL    HW222335   6.788   5.426   8.212  0.0487  0.5366 -0.8488
 6951SOL     OW22336   7.572   7.495   7.104 -0.1644  0.5402 -0.0979
 6951SOL    HW122337   7.607   7.570   7.055  2.7342 -1.0427 -0.5406
 6951SOL    HW222338   7.495   7.468   7.055  0.0075  1.8741 -1.1461
 6952SOL     OW22339   0.665   3.330   5.238  0.3114  0.3709  0.6878
 6952SOL    HW122340   0.731   3.342   5.171 -0.0002  1.9909  0.6370
 6952SOL    HW222341   0.642   3.419   5.266 -1.9014 -0.1359  0.6296
 6953SOL     OW22342   6.109   6.367   0.054  0.3911  0.9121  0.6463
 6953SOL    HW122343   6.131   6.414  -0.027  0.4740  0.9009  0.6622
 6953SOL    HW222344   6.071   6.433   0.111 -0.4773  0.7361  0.2768
 6954SOL     OW22345   2.169   0.177   3.191  0.6786  0.0827 -0.2158
 6954SOL    HW122346   2.250   0.127   3.184 -0.7588 -2.3521 -0.1279
 6954SOL    HW222347   2.151   0.183   3.284 -0.9067 -2.2512 -0.3295
 6955SOL     OW22348   7.566   7.759   1.050 -0.8143 -0.3391  0.2738
 6955SOL    HW122349   7.536   7.783   0.963  0.6451 -2.4283 -0.8492
 6955SOL    HW222350   7.501   7.797   1.110 -0.3837  3.4438 -1.5259
 6956SOL     OW22351   3.770   5.404   1.283  0.6672 -0.3876 -0.0442
 6956SOL    HW122352   3.765   5.364   1.196 -0.1567  1.9366 -1.1343
 6956SOL    HW222353   3.853   5.374   1.319  1.7744 -0.1335 -2.2935
 6957SOL     OW22354   1.820   1.260   0.765  0.8832 -0.1170  0.5220
 6957SOL    HW122355   1.867   1.337   0.798 -0.0380  0.1086  1.3176
 6957SOL    HW222356   1.844   1.255   0.673  1.6927  0.5752  0.6880
 6958SOL     OW22357   7.888   8.185   4.406 -0.0241  0.0765  0.5276
 6958SOL    HW122358   7.805   8.187   4.453 -0.4667  0.2987 -0.2585
 6958SOL    HW222359   7.902   8.092   4.386 -0.0485  0.0325  0.7109
 6959SOL     OW22360   1.111   4.280   6.169 -0.6599 -0.1601 -0.0833
 6959SOL    HW122361   1.135   4.351   6.228 -2.7010 -0.9540  1.7573
 6959SOL    HW222362   1.190   4.264   6.118  0.7290  1.4509  1.4899
 6960SOL     OW22363   6.901   0.532   4.422 -0.4215 -0.1807  0.8333
 6960SOL    HW122364   6.891   0.450   4.470 -0.8210 -0.4003  0.3725
 6960SOL    HW222365   6.932   0.507   4.335  1.4306  0.3000  1.3269
 6961SOL     OW22366   2.041   5.545   4.012  0.3044 -0.1909 -0.2437
 6961SOL    HW122367   2.059   5.464   3.964  0.4892 -0.4767  0.3055
 6961SOL    HW222368   1.947   5.543   4.029 -0.0062  0.5375 -1.7227
 6962SOL     OW22369   6.390   7.643   0.952  0.0364 -0.2145  0.1920
 6962SOL    HW122370   6.470   7.607   0.914 -1.1615 -1.9487 -0.7908
 6962SOL    HW222371   6.343   7.681   0.878 -0.8834 -0.8258  0.4535
 6963SOL     OW22372   0.133   6.602   7.342  0.1762  0.1499  0.3864
 6963SOL    HW122373   0.045   6.567   7.359  0.6545 -1.3149 -0.0211
 6963SOL    HW222374   0.172   6.614   7.428  0.5337 -1.7859  0.5157
 6964SOL     OW22375   5.468   5.147   3.975  0.0122  0.0239  0.4772
 6964SOL    HW122376   5.440   5.199   3.900 -0.8395  0.1882  0.9011
 6964SOL    HW222377   5.402   5.078   3.982 -1.0699  1.2070  2.3153
 6965SOL     OW22378   3.076   0.548   0.792  0.2288  0.1931  0.5122
 6965SOL    HW122379   3.079   0.495   0.871  0.2723  0.1026  0.4506
 6965SOL    HW222380   3.153   0.605   0.798  1.3327 -1.1601 -0.3959
 6966SOL     OW22381   7.021   5.180   1.774  0.1588 -0.2993  0.3796
 6966SOL    HW122382   7.079   5.254   1.755  2.8071 -2.6617 -1.0384
 6966SOL    HW222383   6.950   5.189   1.709  0.7296  0.6769 -0.1297
 6967SOL     OW22384   7.478   3.271   5.393 -0.1544  0.1838 -0.4592
 6967SOL    HW122385   7.451   3.350   5.345 -1.5063 -0.2837 -0.4793
 6967SOL    HW222386   7.459   3.291   5.484  2.7022  1.1908 -0.0169
 6968SOL     OW22387   5.609   4.698   1.772  0.4975  0.5923  0.3211
 6968SOL    HW122388   5.623   4.789   1.747 -0.0390  0.9635  1.3306
 6968SOL    HW222389   5.573   4.656   1.694  0.1402  1.3970  0.0513
 6969SOL     OW22390   3.348   5.353   2.243 -0.0294  0.3330  0.4754
 6969SOL    HW122391   3.325   5.439   2.279  0.3006  0.4499  0.4130
 6969SOL    HW222392   3.348   5.367   2.148 -4.2194 -0.7991  0.2117
 6970SOL     OW22393   4.466   7.496   5.492 -0.3704 -0.3481  0.4889
 6970SOL    HW122394   4.437   7.576   5.535 -0.0890 -0.0536  0.1293
 6970SOL    HW222395   4.562   7.504   5.488 -0.3057 -0.9009  0.8516
 6971SOL     OW22396   6.864   4.537   5.669 -0.0665 -0.4851  0.0480
 6971SOL    HW122397   6.824   4.624   5.664 -0.2870 -0.6269 -0.6064
 6971SOL    HW222398   6.795   4.477   5.640  0.8967 -0.6525 -1.9724
 6972SOL     OW22399   5.978   0.205   1.685  0.2772 -0.2790 -0.0684
 6972SOL    HW122400   5.891   0.204   1.726 -0.7086  0.9511 -2.0851
 6972SOL    HW222401   6.012   0.292   1.704  0.4606 -0.2451 -0.5515
 6973SOL     OW22402   0.683   6.323   7.099  0.3064 -0.2349 -0.0034
 6973SOL    HW122403   0.771   6.354   7.118  0.4228  0.1202 -1.1095
 6973SOL    HW222404   0.696   6.248   7.041 -0.1415  0.0404 -0.4532
 6974SOL     OW22405   0.961   0.522   3.304  0.0029 -0.4910  0.3162
 6974SOL    HW122406   0.966   0.448   3.244  2.0917 -0.0986 -0.0329
 6974SOL    HW222407   1.015   0.496   3.378 -1.5138 -0.4364  1.4720
 6975SOL     OW22408   2.195   4.602   0.853  0.3750  0.0643 -0.4025
 6975SOL    HW122409   2.128   4.642   0.908 -0.2628  2.4451 -2.8467
 6975SOL    HW222410   2.182   4.507   0.864  0.0370  0.4602  3.1836
 6976SOL     OW22411   7.551   1.537   2.583  0.1678  1.2457 -0.4186
 6976SOL    HW122412   7.645   1.548   2.569  0.3103 -0.9613 -1.3650
 6976SOL    HW222413   7.545   1.488   2.665 -0.1616  1.5670 -0.2514
 6977SOL     OW22414   8.083   5.297   0.269 -0.1483  0.0973 -0.4979
 6977SOL    HW122415   8.109   5.218   0.222  0.0785 -0.3852  0.4318
 6977SOL    HW222416   7.992   5.312   0.243 -1.4613 -2.6407  2.2120
 6978SOL     OW22417   5.748   3.746   3.768  0.6108 -0.4210  0.8043
 6978SOL    HW122418   5.730   3.682   3.699  0.0887  1.3797 -0.7750
 6978SOL    HW222419   5.723   3.702   3.849  0.3129 -2.2256 -0.2448
 6979SOL     OW22420   5.681   7.341   7.936  0.6543  0.1563  0.2709
 6979SOL    HW122421   5.635   7.352   7.852  1.6099  0.1123 -0.2621
 6979SOL    HW222422   5.746   7.273   7.918  1.0231  0.3219  0.9922
 6980SOL     OW22423   3.011   3.423   6.609 -0.0494 -0.2540  0.5579
 6980SOL    HW122424   3.007   3.328   6.600  1.3045 -0.3478  0.8438
 6980SOL    HW222425   3.016   3.438   6.704  0.3060  0.0836  0.4859
 6981SOL     OW22426   2.119   7.530   1.585 -0.0377  0.0377  0.0878
 6981SOL    HW122427   2.048   7.590   1.610  0.9924  1.5329 -0.4999
 6981SOL    HW222428   2.186   7.587   1.547  0.3510 -1.6698 -1.8745
 6982SOL     OW22429   1.536   6.695   5.204 -0.1074  0.5770 -0.4851
 6982SOL    HW122430   1.600   6.741   5.150  0.2522  1.9760  1.1049
 6982SOL    HW222431   1.580   6.682   5.288 -0.8531 -1.0954 -0.3469
 6983SOL     OW22432   2.086   3.100   5.516 -0.1123 -0.7947  0.0042
 6983SOL    HW122433   2.008   3.047   5.524  0.5888 -2.2515 -2.3080
 6983SOL    HW222434   2.123   3.076   5.430  0.2076  3.4098 -1.1517
 6984SOL     OW22435   6.605   5.693   3.816  0.1514 -0.2755  0.2165
 6984SOL    HW122436   6.614   5.706   3.910 -1.1480  0.8716  0.1909
 6984SOL    HW222437   6.551   5.615   3.807 -0.4524  0.1208  0.4234
 6985SOL     OW22438   5.360   0.850   6.527 -0.7830 -0.3234 -0.3457
 6985SOL    HW122439   5.364   0.921   6.463  0.6927 -1.4266 -1.5425
 6985SOL    HW222440   5.337   0.773   6.475 -0.3536 -1.0868  0.5720
 6986SOL     OW22441   2.208   5.902   7.529  0.0798 -0.3919  0.1782
 6986SOL    HW122442   2.124   5.934   7.560 -0.7719  0.3200 -2.6684
 6986SOL    HW222443   2.271   5.967   7.559 -0.6667  0.1119  0.6558
 6987SOL     OW22444   7.084   3.481   4.228 -0.8135  0.2682  0.2301
 6987SOL    HW122445   7.011   3.419   4.239 -0.6926  0.5023  2.6050
 6987SOL    HW222446   7.073   3.544   4.300  1.1443  0.9110 -0.0026
 6988SOL     OW22447   1.277   2.685   6.672 -0.4993 -0.0990  0.1639
 6988SOL    HW122448   1.199   2.635   6.697 -0.1857 -0.2614  0.8506
 6988SOL    HW222449   1.254   2.727   6.589 -0.7787 -1.3616 -0.3998
 6989SOL     OW22450   2.911   4.755   3.805  0.3814 -0.5775 -0.4726
 6989SOL    HW122451   3.006   4.763   3.799  0.4303 -1.1768 -0.4750
 6989SOL    HW222452   2.895   4.661   3.809 -0.1328 -0.4477  0.7265
 6990SOL     OW22453   1.150   5.132   1.141 -0.3534 -0.2459 -0.0964
 6990SOL    HW122454   1.140   5.156   1.233  0.8484 -0.9309  0.2225
 6990SOL    HW222455   1.082   5.182   1.096  0.7618  2.1815  0.8083
 6991SOL     OW22456   1.081   4.903   0.039  0.6279  0.2528 -0.0933
 6991SOL    HW122457   1.152   4.856   0.081  0.7494 -0.0076 -0.5838
 6991SOL    HW222458   1.124   4.974  -0.008  0.6940 -0.6416 -1.4116
 6992SOL     OW22459   1.689   7.551   2.829  0.0207 -0.1002 -0.5820
 6992SOL    HW122460   1.629   7.551   2.904 -1.4913 -1.2391 -1.7613
 6992SOL    HW222461   1.720   7.460   2.823 -0.3499 -0.1575 -1.7015
 6993SOL     OW22462   2.778   2.769   4.101  0.5380 -0.0619 -0.0456
 6993SOL    HW122463   2.776   2.724   4.186 -0.5305 -3.0756 -1.5687
 6993SOL    HW222464   2.709   2.835   4.107 -0.7382 -1.4520  0.8259
 6994SOL     OW22465   7.609   5.511   8.133 -0.2920  0.2759 -0.0101
 6994SOL    HW122466   7.536   5.478   8.081  0.3690 -0.1318 -0.6923
 6994SOL    HW222467   7.682   5.517   8.071  0.4644 -0.0710  0.8300
 6995SOL     OW22468   7.531   6.038   6.068 -0.2918 -0.5507 -0.0525
 6995SOL    HW122469   7.582   6.003   6.142 -0.4770 -0.2701  0.2115
 6995SOL    HW222470   7.444   6.052   6.104 -0.4900 -0.7982 -0.4385
 6996SOL     OW22471   7.151   7.277   2.266  0.3392 -0.1653  0.0831
 6996SOL    HW122472   7.199   7.294   2.347  0.9899 -0.8540 -0.1567
 6996SOL    HW222473   7.090   7.207   2.289  0.4446 -0.2831 -0.0006
 6997SOL     OW22474   4.755   4.800   2.292  0.1295 -0.1725  0.4003
 6997SOL    HW122475   4.799   4.809   2.207  0.7918 -0.5749  0.7017
 6997SOL    HW222476   4.820   4.826   2.356  0.5606 -2.5788  0.9769
 6998SOL     OW22477   2.515   6.043   5.922 -0.3104  0.3545 -0.0742
 6998SOL    HW122478   2.589   6.102   5.930  1.7124 -2.1252  0.1242
 6998SOL    HW222479   2.454   6.088   5.863  2.3526  1.5074 -2.0445
 6999SOL     OW22480   3.965   0.223   1.716 -0.3397  0.3155 -0.3413
 6999SOL    HW122481   3.985   0.316   1.714 -0.2257  0.2930 -0.2845
 6999SOL    HW222482   4.007   0.192   1.797 -2.5125  0.7073  0.9694
 7000SOL     OW22483   7.151   3.943   7.866 -0.3014  0.0026 -0.2489
 7000SOL    HW122484   7.137   3.908   7.779  0.0739  0.1926 -0.3897
 7000SOL    HW222485   7.119   3.876   7.925  0.1128 -0.4340 -0.5206
 7001SOL     OW22486   4.523   5.964   6.480 -0.1108 -0.0334 -0.4143
 7001SOL    HW122487   4.506   5.875   6.451 -1.4906 -0.3341  1.2070
 7001SOL    HW222488   4.521   5.959   6.576  0.2663  1.6444 -0.2968
 7002SOL     OW22489   4.025   1.049   6.655 -0.1922 -0.7706  0.2649
 7002SOL    HW122490   4.015   1.024   6.747  2.5134 -2.3732  0.1780
 7002SOL    HW222491   3.964   1.122   6.644 -0.0083 -0.0180  3.5326
 7003SOL     OW22492   5.785   0.977   5.570 -0.4590 -0.1295  0.0917
 7003SOL    HW122493   5.851   0.988   5.501 -2.0925  0.9968 -1.3123
 7003SOL    HW222494   5.727   0.908   5.536 -0.3889 -0.6649  1.0458
 7004SOL     OW22495   7.566   3.235   1.982  0.5950 -0.0900  0.0628
 7004SOL    HW122496   7.538   3.302   2.045  0.2085 -0.5341  0.3618
 7004SOL    HW222497   7.660   3.249   1.973  0.5331  0.4351  0.1993
 7005SOL     OW22498   5.839   4.355   5.655 -0.7133 -0.3826 -0.0446
 7005SOL    HW122499   5.770   4.381   5.716 -0.9048  2.5713 -1.4142
 7005SOL    HW222500   5.883   4.437   5.633  0.5230 -1.6304 -2.4183
 7006SOL     OW22501   4.963   7.767   3.355 -0.6067  0.2259  0.2582
 7006SOL    HW122502   5.055   7.769   3.380 -0.8634  0.7716  1.1735
 7006SOL    HW222503   4.920   7.829   3.414 -1.3757  0.8633 -0.9288
 7007SOL     OW22504   7.739   6.587   0.869  0.1613 -0.0036 -0.1644
 7007SOL    HW122505   7.782   6.643   0.934 -0.3006  1.0338 -0.7412
 7007SOL    HW222506   7.666   6.547   0.916  0.5233 -0.1601  0.2646
 7008SOL     OW22507   1.632   3.367   5.432  0.0895 -0.0205 -0.3408
 7008SOL    HW122508   1.720   3.335   5.410  0.3794 -0.3984  1.3068
 7008SOL    HW222509   1.584   3.365   5.349  1.7469  0.5655 -1.3440
 7009SOL     OW22510   1.935   5.031   0.730  0.1573 -0.0045 -0.2180
 7009SOL    HW122511   1.933   5.085   0.651 -1.0380  0.5424  0.1749
 7009SOL    HW222512   1.925   4.941   0.698 -1.3089  0.2941 -0.6279
 7010SOL     OW22513   6.864   1.439   7.978  0.1555 -0.0587 -0.4069
 7010SOL    HW122514   6.932   1.466   7.916  2.2056 -2.1690  0.8204
 7010SOL    HW222515   6.875   1.344   7.985 -2.6014 -0.3776  0.2401
 7011SOL     OW22516   2.456   0.852   8.294  0.0663 -0.4490 -0.1309
 7011SOL    HW122517   2.512   0.785   8.255 -0.3876 -1.0745  0.2895
 7011SOL    HW222518   2.393   0.873   8.225 -0.1304 -0.8503 -0.0732
 7012SOL     OW22519   7.940   3.985   2.936 -0.2399  0.5404 -0.0420
 7012SOL    HW122520   7.946   3.900   2.979 -0.1112  0.3839 -0.3715
 7012SOL    HW222521   7.877   4.034   2.989  1.0673  0.8828  1.2531
 7013SOL     OW22522   0.856   5.057   0.210  0.2715 -0.2141  0.4223
 7013SOL    HW122523   0.781   5.038   0.154 -0.7212  2.2116  0.8548
 7013SOL    HW222524   0.924   5.085   0.148  0.6054 -1.7570  0.0844
 7014SOL     OW22525   1.762   6.484   2.434  0.2924 -0.7200 -0.2148
 7014SOL    HW122526   1.754   6.520   2.345  0.9157 -2.5118 -1.0244
 7014SOL    HW222527   1.689   6.422   2.441 -0.8172  0.7161  1.1893
 7015SOL     OW22528   7.699   2.454   4.354  0.0818  0.4045 -0.0222
 7015SOL    HW122529   7.678   2.481   4.443  1.3873  1.0194  0.1188
 7015SOL    HW222530   7.624   2.402   4.326 -0.2002 -0.0754  1.5521
 7016SOL     OW22531   4.874   1.459   5.709  0.1867 -0.4912 -0.0574
 7016SOL    HW122532   4.895   1.454   5.802 -0.1371  0.7830  0.1011
 7016SOL    HW222533   4.781   1.440   5.704  0.4994 -2.0466 -0.3023
 7017SOL     OW22534   6.262   6.271   6.531 -0.0435  0.0234 -0.0840
 7017SOL    HW122535   6.219   6.348   6.567 -0.0143 -0.9007  1.9749
 7017SOL    HW222536   6.213   6.197   6.566  1.7088 -0.9823  0.3057
 7018SOL     OW22537   7.273   0.630   4.175 -0.3891  0.0208  0.4964
 7018SOL    HW122538   7.348   0.676   4.137  0.3040 -1.7855 -0.3387
 7018SOL    HW222539   7.197   0.663   4.126  0.0901  0.2933 -0.0615
 7019SOL     OW22540   1.034   6.350   2.188 -0.4442 -0.1285 -0.0032
 7019SOL    HW122541   0.988   6.402   2.254  0.5407  0.7200  0.0336
 7019SOL    HW222542   1.114   6.400   2.170  0.7691 -1.8994  0.3992
 7020SOL     OW22543   2.380   6.761   5.060 -0.0981 -0.1145 -0.1289
 7020SOL    HW122544   2.412   6.851   5.064  0.6485 -0.3830  0.2240
 7020SOL    HW222545   2.311   6.757   5.126  0.2944  0.0391  0.2927
 7021SOL     OW22546   7.535   8.056   7.016  0.3907  0.1043  0.1435
 7021SOL    HW122547   7.493   8.055   6.930  1.4181  0.5211 -0.3759
 7021SOL    HW222548   7.465   8.077   7.077 -0.4587 -0.7342 -0.5244
 7022SOL     OW22549   4.639   4.690   8.137  0.1460  0.2726  1.0302
 7022SOL    HW122550   4.561   4.743   8.155 -0.8460 -1.4232  1.8134
 7022SOL    HW222551   4.669   4.721   8.052 -2.8635 -0.7246 -0.4936
 7023SOL     OW22552   3.863   2.347   6.413  0.4238  0.3107  0.1040
 7023SOL    HW122553   3.859   2.252   6.416  1.4645  0.1546 -2.4586
 7023SOL    HW222554   3.906   2.372   6.495  0.6679 -1.4433  0.5280
 7024SOL     OW22555   2.450   0.296   2.530 -0.5006  0.6174 -0.0401
 7024SOL    HW122556   2.534   0.253   2.547 -0.0174  1.3027 -0.6736
 7024SOL    HW222557   2.469   0.361   2.462 -2.3621 -1.9692 -3.1419
 7025SOL     OW22558   5.516   3.015   0.648  0.1363 -0.0351 -0.0618
 7025SOL    HW122559   5.445   3.022   0.584 -0.3040  1.4114  0.5665
 7025SOL    HW222560   5.537   3.106   0.670 -0.1335 -0.5070  2.2993
 7026SOL     OW22561   7.965   2.775   3.079  0.1251  0.5176  0.6638
 7026SOL    HW122562   7.954   2.869   3.068  0.3115  0.5252  0.5391
 7026SOL    HW222563   7.877   2.739   3.070  0.3579  0.4439 -1.5807
 7027SOL     OW22564   0.309   4.164   7.259  0.5655 -0.1060 -0.1920
 7027SOL    HW122565   0.221   4.171   7.223 -0.5442 -0.8506  2.2167
 7027SOL    HW222566   0.356   4.239   7.222 -0.6866 -0.4352 -2.5271
 7028SOL     OW22567   7.329   4.160   7.228  0.0176  0.1382 -0.4494
 7028SOL    HW122568   7.274   4.179   7.304  1.1700  2.6847 -0.2170
 7028SOL    HW222569   7.390   4.093   7.260  0.3572  1.0378  0.8397
 7029SOL     OW22570   3.897   1.819   4.431  0.0627  0.0667 -0.1286
 7029SOL    HW122571   3.901   1.830   4.336  2.4393 -1.3106 -0.2459
 7029SOL    HW222572   3.879   1.726   4.444 -0.6252  0.3197  0.7659
 7030SOL     OW22573   0.554   0.994   7.163 -0.7377 -0.2014 -0.5599
 7030SOL    HW122574   0.521   1.000   7.253 -1.9902 -1.1192 -0.9360
 7030SOL    HW222575   0.487   1.039   7.111 -0.2988 -0.1776 -1.0920
 7031SOL     OW22576   5.579   1.875   3.371 -0.0506 -0.1105 -0.1738
 7031SOL    HW122577   5.656   1.933   3.366  0.0997 -0.2945 -0.0077
 7031SOL    HW222578   5.514   1.927   3.419  0.5939 -0.6274  1.3019
 7032SOL     OW22579   3.432   3.779   5.375  0.3102 -0.7702 -0.7760
 7032SOL    HW122580   3.376   3.835   5.429  0.3711 -0.7639 -0.7198
 7032SOL    HW222581   3.409   3.803   5.285 -0.5976 -1.5914 -0.7627
 7033SOL     OW22582   5.074   5.420   6.358  0.6888  0.1996 -0.0793
 7033SOL    HW122583   5.109   5.476   6.427  0.0895  0.2184  0.2082
 7033SOL    HW222584   5.143   5.356   6.341  1.7803  1.5923 -1.0706
 7034SOL     OW22585   4.499   7.646   0.258  0.4621  0.4120 -0.0985
 7034SOL    HW122586   4.478   7.624   0.167 -0.1449  1.5417 -0.2433
 7034SOL    HW222587   4.415   7.637   0.305  0.8875 -0.7202  0.4702
 7035SOL     OW22588   4.588   7.775   5.608  0.4827 -0.2793  0.1875
 7035SOL    HW122589   4.599   7.844   5.674  1.7086 -0.3384  0.0504
 7035SOL    HW222590   4.493   7.766   5.599  0.3054  0.3278  1.3205
 7036SOL     OW22591   2.933   3.667   6.053  0.1503  0.1199  0.0533
 7036SOL    HW122592   2.853   3.620   6.031 -0.2585  0.9103 -0.1777
 7036SOL    HW222593   2.918   3.756   6.020  1.5146  0.0155 -0.8528
 7037SOL     OW22594   6.185   3.117   4.603 -0.9468 -0.5051 -0.2001
 7037SOL    HW122595   6.192   3.022   4.597  1.1953 -0.3753 -0.2169
 7037SOL    HW222596   6.217   3.149   4.519 -1.4291  0.2482 -0.1076
 7038SOL     OW22597   6.817   4.344   0.125  0.0770  0.5047  0.3752
 7038SOL    HW122598   6.859   4.318   0.043 -0.7098 -2.5161  0.8676
 7038SOL    HW222599   6.881   4.400   0.168  1.4692  0.1841 -1.2165
 7039SOL     OW22600   5.112   4.265   4.507  0.2020 -0.0328  0.7059
 7039SOL    HW122601   5.155   4.247   4.423 -1.7518  0.0951 -0.3640
 7039SOL    HW222602   5.046   4.196   4.515 -0.3905  0.6340  1.5976
 7040SOL     OW22603   7.539   7.907   6.076 -0.1023 -0.0578  0.1110
 7040SOL    HW122604   7.522   7.834   6.017 -1.0810  0.6634 -0.5133
 7040SOL    HW222605   7.452   7.937   6.103  0.3205  0.1637  1.2453
 7041SOL     OW22606   8.312   4.085   1.511 -0.5400 -0.1972  0.4962
 7041SOL    HW122607   8.263   4.016   1.465 -1.0611  0.0677  0.6517
 7041SOL    HW222608   8.373   4.119   1.446 -1.3245  0.2291 -0.0268
 7042SOL     OW22609   2.972   1.633   5.144 -0.2529  0.4091 -0.2725
 7042SOL    HW122610   2.964   1.598   5.056 -2.6209 -1.2680  0.5764
 7042SOL    HW222611   3.036   1.704   5.136 -0.6632  0.4736 -3.3692
 7043SOL     OW22612   4.964   1.846   8.008 -0.3951  0.8243  0.1082
 7043SOL    HW122613   4.890   1.878   7.957 -0.7297 -0.2233 -0.0727
 7043SOL    HW222614   4.942   1.867   8.098 -0.3496  1.6099 -0.0600
 7044SOL     OW22615   1.275   2.695   5.671  0.0249  0.1481  0.3720
 7044SOL    HW122616   1.248   2.715   5.581 -1.0089 -1.9652  0.1671
 7044SOL    HW222617   1.236   2.764   5.724 -0.5697  0.6060 -0.6576
 7045SOL     OW22618   1.927   0.621   3.813 -0.6736  0.4413 -0.1837
 7045SOL    HW122619   1.924   0.526   3.807  0.5427  0.3031  1.0979
 7045SOL    HW222620   1.888   0.641   3.898 -1.7032  1.1562 -0.8098
 7046SOL     OW22621   1.574   4.384   0.455 -0.3581 -0.2749 -0.0301
 7046SOL    HW122622   1.548   4.470   0.424  0.4154  0.6891  1.9488
 7046SOL    HW222623   1.668   4.391   0.470 -0.3186 -1.4271  0.3231
 7047SOL     OW22624   1.697   5.969   6.869  0.0613  0.5450  0.2224
 7047SOL    HW122625   1.636   5.904   6.904 -2.1827  1.6650 -1.4725
 7047SOL    HW222626   1.765   5.917   6.825 -1.6759 -0.6660 -1.0829
 7048SOL     OW22627   6.381   6.371   6.283 -0.1321  0.6060  0.8518
 7048SOL    HW122628   6.323   6.343   6.354  0.8136  0.0562  1.4151
 7048SOL    HW222629   6.459   6.405   6.328 -0.5741  2.6498  0.1503
 7049SOL     OW22630   4.237   4.235   2.195  0.2696 -0.0088 -0.1827
 7049SOL    HW122631   4.190   4.228   2.112 -0.4957 -0.9154  0.3246
 7049SOL    HW222632   4.286   4.153   2.203  1.1887  0.5231 -0.2410
 7050SOL     OW22633   2.566   4.936   1.118 -0.0130 -0.3392 -0.2308
 7050SOL    HW122634   2.485   4.885   1.127  1.0338 -1.9650  0.3019
 7050SOL    HW222635   2.601   4.910   1.033  1.1646 -1.4891  0.5846
 7051SOL     OW22636   5.987   0.232   6.438  0.1586  0.3854  0.2080
 7051SOL    HW122637   5.945   0.256   6.356  1.3488 -1.1909 -0.8964
 7051SOL    HW222638   6.018   0.315   6.474  0.1050  1.0378 -1.2028
 7052SOL     OW22639   3.759   5.205   4.315 -0.3668 -0.1257  0.1649
 7052SOL    HW122640   3.773   5.264   4.241  0.4386  0.1578  0.5343
 7052SOL    HW222641   3.785   5.119   4.281 -0.4555 -0.0777 -0.0271
 7053SOL     OW22642   5.457   2.357   7.537 -0.3466  0.7223  0.2544
 7053SOL    HW122643   5.472   2.395   7.450  1.3323  2.3065  1.1876
 7053SOL    HW222644   5.398   2.419   7.580 -0.4221  0.4337  0.5677
 7054SOL     OW22645   1.509   0.090   7.436 -0.1101  0.4955  0.1359
 7054SOL    HW122646   1.591   0.042   7.430  0.6869  1.9945 -1.2408
 7054SOL    HW222647   1.482   0.081   7.528  0.3621 -1.9909  0.0451
 7055SOL     OW22648   1.238   0.958   1.904 -0.1108  0.5165 -0.4508
 7055SOL    HW122649   1.292   0.920   1.973  1.4275  0.2270 -1.8023
 7055SOL    HW222650   1.207   0.883   1.853 -0.5469  0.7856 -0.5907
 7056SOL     OW22651   5.992   2.537   6.681 -0.3379  0.0229  0.3378
 7056SOL    HW122652   5.959   2.518   6.769  1.6198  0.3372  1.1632
 7056SOL    HW222653   5.978   2.631   6.670  1.4489  0.4181  1.2218
 7057SOL     OW22654   2.977   1.493   5.934  0.0248 -0.1731 -0.5644
 7057SOL    HW122655   2.934   1.486   6.019  0.8108 -4.6004 -0.4307
 7057SOL    HW222656   3.069   1.509   5.955 -0.1604  1.0057 -0.6448
 7058SOL     OW22657   3.429   1.110   5.868 -0.3458  0.5217 -0.1550
 7058SOL    HW122658   3.336   1.091   5.879  0.1734 -1.2744  1.4520
 7058SOL    HW222659   3.468   1.087   5.952  1.6979  0.3050 -1.1336
 7059SOL     OW22660   6.015   2.958   3.916  0.3808 -0.0884  0.3487
 7059SOL    HW122661   6.056   2.875   3.895  1.1843  0.1701  0.8592
 7059SOL    HW222662   5.926   2.935   3.944 -0.0083 -0.6038 -1.2937
 7060SOL     OW22663   0.759   2.245   5.685  0.2366  0.1718 -0.1445
 7060SOL    HW122664   0.723   2.235   5.597  0.7365  2.4357 -0.6305
 7060SOL    HW222665   0.797   2.333   5.685  1.0006 -0.1487  2.0604
 7061SOL     OW22666   6.492   0.373   0.886  0.3380 -0.4356 -0.1131
 7061SOL    HW122667   6.425   0.322   0.840  0.7746 -0.1987 -1.0178
 7061SOL    HW222668   6.511   0.447   0.827  1.2738 -0.4098  0.2122
 7062SOL     OW22669   2.052   7.169   5.322 -0.1158 -0.6321 -0.4812
 7062SOL    HW122670   2.103   7.147   5.400  1.5301  0.1079 -1.3275
 7062SOL    HW222671   1.978   7.220   5.355  1.8067  1.6513  0.3932
 7063SOL     OW22672   7.797   0.196   5.585 -0.2972 -0.6440 -0.1226
 7063SOL    HW122673   7.795   0.108   5.547 -0.6135 -0.1980 -1.1512
 7063SOL    HW222674   7.890   0.214   5.599 -0.1213 -0.5375 -1.3515
 7064SOL     OW22675   2.963   7.845   1.357  0.2873 -0.2368 -0.4865
 7064SOL    HW122676   2.958   7.760   1.314  1.2334 -0.3965 -0.2927
 7064SOL    HW222677   3.013   7.829   1.437  0.9805  0.5970 -0.7318
 7065SOL     OW22678   3.344   7.582   2.072 -0.1698  0.5981  0.2561
 7065SOL    HW122679   3.428   7.570   2.028  0.0165  0.6644  0.5944
 7065SOL    HW222680   3.366   7.621   2.156 -0.3610 -1.3077  1.2152
 7066SOL     OW22681   5.589   4.562   0.463  0.3704 -0.0239 -0.0367
 7066SOL    HW122682   5.665   4.504   0.464  0.0737 -0.3959  1.7185
 7066SOL    HW222683   5.585   4.594   0.373  1.2470 -1.7953 -0.7296
 7067SOL     OW22684   4.507   7.228   4.465 -0.4382  0.1031  0.1181
 7067SOL    HW122685   4.588   7.269   4.498  0.3571 -1.7202  0.4692
 7067SOL    HW222686   4.534   7.182   4.386 -1.1790 -0.3968  0.1566
 7068SOL     OW22687   3.889   1.548   6.541  0.5891 -0.3771  0.4019
 7068SOL    HW122688   3.840   1.521   6.618  0.2841 -0.4569  0.1821
 7068SOL    HW222689   3.895   1.468   6.488  0.6777 -0.2892  0.2790
 7069SOL     OW22690   7.108   2.087   0.716  0.3428 -0.3508  0.2713
 7069SOL    HW122691   7.048   2.057   0.648  0.5063 -0.9710  0.3955
 7069SOL    HW222692   7.070   2.055   0.798 -0.0710  0.7410  0.5235
 7070SOL     OW22693   7.685   0.605   2.944  0.2021  0.4725 -0.8085
 7070SOL    HW122694   7.685   0.509   2.946 -1.7554  0.4304  2.1868
 7070SOL    HW222695   7.592   0.628   2.949  0.7781  2.4770  1.4849
 7071SOL     OW22696   6.943   7.359   3.131 -0.6959  0.3091 -0.6821
 7071SOL    HW122697   6.923   7.301   3.058  0.3202  1.4194 -1.8566
 7071SOL    HW222698   7.026   7.400   3.108 -2.0263  3.2673 -0.5673
 7072SOL     OW22699   1.108   4.424   6.696 -0.4935  0.1167  0.6483
 7072SOL    HW122700   1.165   4.369   6.643 -1.7133 -1.5679  1.0477
 7072SOL    HW222701   1.159   4.444   6.774  0.5715  0.9672 -0.2551
 7073SOL     OW22702   3.185   2.493   2.613  0.2493 -0.4432 -0.1436
 7073SOL    HW122703   3.117   2.448   2.563 -0.5280  0.4502  0.0894
 7073SOL    HW222704   3.226   2.425   2.665 -1.1681 -0.8222  0.4910
 7074SOL     OW22705   5.723   7.137   1.003 -0.0289 -0.6387  0.1070
 7074SOL    HW122706   5.749   7.076   0.933 -0.9407 -0.0927 -0.7148
 7074SOL    HW222707   5.671   7.203   0.959 -1.7235 -0.9975  1.5191
 7075SOL     OW22708   5.517   3.885   5.516 -0.4303  0.4985  0.2056
 7075SOL    HW122709   5.547   3.918   5.601  2.0086 -1.0405 -0.0280
 7075SOL    HW222710   5.593   3.892   5.459 -0.7593 -2.5394 -0.6760
 7076SOL     OW22711   7.825   0.292   0.727 -0.1643  0.0138 -0.6438
 7076SOL    HW122712   7.795   0.294   0.637  0.1194  1.8132 -0.7316
 7076SOL    HW222713   7.894   0.226   0.729 -0.1341  0.0134 -1.7595
 7077SOL     OW22714   2.452   3.734   7.948 -0.1040 -0.0200 -0.0278
 7077SOL    HW122715   2.507   3.707   7.874 -0.4284  0.9945 -0.6523
 7077SOL    HW222716   2.504   3.800   7.994  0.4329 -1.2322  1.1350
 7078SOL     OW22717   1.723   3.004   0.700 -0.1136  0.0679  0.5232
 7078SOL    HW122718   1.751   2.929   0.647 -1.3675 -0.4671  0.5814
 7078SOL    HW222719   1.634   2.981   0.728  0.1050  0.8585  1.9061
 7079SOL     OW22720   0.531   5.940   0.545 -0.4393  0.3914 -0.6543
 7079SOL    HW122721   0.466   6.010   0.553 -0.1472  0.4536  1.4124
 7079SOL    HW222722   0.564   5.928   0.633 -0.1570 -2.0599 -1.0561
 7080SOL     OW22723   2.528   3.307   1.683  0.1804 -0.1974  0.3654
 7080SOL    HW122724   2.572   3.356   1.614  0.5792  0.2341  0.9163
 7080SOL    HW222725   2.585   3.317   1.759 -0.9606  0.5207  1.1400
 7081SOL     OW22726   2.755   3.670   6.965  0.2076  0.5762 -0.4003
 7081SOL    HW122727   2.746   3.639   6.875 -1.1599 -1.0696  0.2868
 7081SOL    HW222728   2.850   3.674   6.978  0.4395 -1.6126 -1.1153
 7082SOL     OW22729   1.764   3.613   2.027 -0.6881 -0.1537  0.0921
 7082SOL    HW122730   1.829   3.683   2.021 -0.5263 -0.4461 -1.6674
 7082SOL    HW222731   1.813   3.538   2.062  0.3522 -0.8819 -2.8446
 7083SOL     OW22732   6.696   1.831   0.067  0.4361 -0.5498  0.6305
 7083SOL    HW122733   6.685   1.742   0.101  1.7668 -1.4746 -1.2425
 7083SOL    HW222734   6.623   1.842   0.006 -0.0439 -0.1498  1.2772
 7084SOL     OW22735   7.567   4.834   8.008  0.5082 -0.2625 -0.3903
 7084SOL    HW122736   7.477   4.831   7.977  0.4652  0.6002 -0.3670
 7084SOL    HW222737   7.616   4.874   7.937  0.1686  3.0261  1.1142
 7085SOL     OW22738   0.333   6.264   4.920 -0.7228 -0.7973  0.5521
 7085SOL    HW122739   0.368   6.304   4.999  0.9256  0.1651 -0.6456
 7085SOL    HW222740   0.327   6.170   4.941  2.1182 -0.9292  0.9797
 7086SOL     OW22741   5.616   2.493   5.218  0.2483  0.1745 -0.0663
 7086SOL    HW122742   5.631   2.415   5.272  0.2663  0.6779  0.6665
 7086SOL    HW222743   5.697   2.544   5.227  0.3829  0.1030 -0.8486
 7087SOL     OW22744   8.226   5.306   2.065 -0.0775 -0.2051 -0.1488
 7087SOL    HW122745   8.233   5.399   2.044  0.7787 -0.2668 -0.1589
 7087SOL    HW222746   8.134   5.293   2.088 -0.0056  0.8175  0.7060
 7088SOL     OW22747   0.755   4.026   1.962 -0.0692 -0.5936 -0.3326
 7088SOL    HW122748   0.694   3.992   1.897 -1.0047  0.2298  0.1017
 7088SOL    HW222749   0.731   3.981   2.043  0.5639 -1.0071 -0.3637
 7089SOL     OW22750   2.652   7.026   7.210 -0.3005  0.5204  0.6140
 7089SOL    HW122751   2.661   7.042   7.117 -0.6537  0.0464  0.4909
 7089SOL    HW222752   2.715   7.084   7.252  0.3335  0.2460  0.0423
 7090SOL     OW22753   1.783   6.101   2.699 -0.0318 -0.1182 -0.6613
 7090SOL    HW122754   1.758   6.190   2.725  0.0972  0.0175 -1.0100
 7090SOL    HW222755   1.792   6.105   2.604  3.3535  0.3511 -0.3827
 7091SOL     OW22756   5.777   2.253   3.111 -0.1518  0.0050 -0.3014
 7091SOL    HW122757   5.783   2.222   3.202 -1.1165 -0.5086 -0.4061
 7091SOL    HW222758   5.864   2.238   3.075  0.6407  1.4795  0.9330
 7092SOL     OW22759   3.544   2.024   1.894  0.2409  0.0276  0.1688
 7092SOL    HW122760   3.558   2.101   1.949 -0.9561  0.1744  0.2909
 7092SOL    HW222761   3.477   1.974   1.941 -0.1854 -0.2540 -0.7420
 7093SOL     OW22762   1.519   3.097   2.641 -0.1761  0.0088 -0.1764
 7093SOL    HW122763   1.597   3.045   2.625 -0.1722 -0.2360  0.6308
 7093SOL    HW222764   1.509   3.150   2.561  1.8595  1.4102  0.4517
 7094SOL     OW22765   2.933   6.529   4.483  0.1938 -0.2588  0.5206
 7094SOL    HW122766   2.904   6.527   4.392  1.9887 -0.2414 -0.0786
 7094SOL    HW222767   2.890   6.454   4.524 -1.8693  0.6673  0.0571
 7095SOL     OW22768   5.207   2.207   4.181 -0.3996 -0.5807 -0.0439
 7095SOL    HW122769   5.129   2.262   4.188 -0.1387 -0.2567  0.3641
 7095SOL    HW222770   5.199   2.164   4.096 -0.3791  0.4511 -0.5784
 7096SOL     OW22771   2.578   2.603   7.975 -0.2145 -0.0541 -0.4448
 7096SOL    HW122772   2.495   2.647   7.991 -0.1906 -0.2780  0.3373
 7096SOL    HW222773   2.623   2.658   7.912  0.1457  1.4944  1.1115
 7097SOL     OW22774   4.556   5.411   4.634 -0.3966  0.0705 -0.1548
 7097SOL    HW122775   4.548   5.475   4.562 -1.4418 -1.2818 -1.2833
 7097SOL    HW222776   4.591   5.333   4.592  1.4416  0.0556  1.3329
 7098SOL     OW22777   5.927   7.182   4.522  0.1303  0.4901 -0.2290
 7098SOL    HW122778   5.975   7.115   4.571 -1.8058 -0.8128 -0.0894
 7098SOL    HW222779   5.890   7.135   4.447 -1.1629  1.4193 -0.1866
 7099SOL     OW22780   4.285   0.381   7.566 -0.4310 -0.2203 -0.4281
 7099SOL    HW122781   4.189   0.383   7.569 -0.4011  0.5273  0.2541
 7099SOL    HW222782   4.312   0.454   7.622  0.5728 -2.0250  1.4832
 7100SOL     OW22783   6.398   1.044   7.556 -0.2188  0.4295  0.2894
 7100SOL    HW122784   6.450   1.063   7.635 -0.3128 -0.0492  0.4644
 7100SOL    HW222785   6.439   1.097   7.488  0.8957 -0.4335  0.2849
 7101SOL     OW22786   7.769   4.127   3.113  0.1466 -0.3218  0.2536
 7101SOL    HW122787   7.711   4.055   3.136 -0.6199  0.3518  0.4554
 7101SOL    HW222788   7.800   4.161   3.198  0.8315 -0.6667  0.1495
 7102SOL     OW22789   5.393   2.147   7.305 -0.6519  0.2158  0.5760
 7102SOL    HW122790   5.348   2.065   7.285 -1.2658  0.7055 -0.1025
 7102SOL    HW222791   5.485   2.123   7.315 -0.8583 -0.5841  0.5700
 7103SOL     OW22792   8.091   7.999   7.690 -0.4761  0.0296  0.1859
 7103SOL    HW122793   8.061   8.081   7.650 -0.1816 -0.0115 -0.1188
 7103SOL    HW222794   8.077   8.012   7.784 -2.4505 -0.3892 -0.0341
 7104SOL     OW22795   2.070   7.992   4.934 -0.4472  0.2101 -0.4556
 7104SOL    HW122796   2.140   7.946   4.979 -0.8164 -1.2628 -1.3725
 7104SOL    HW222797   2.030   8.047   5.002 -0.7133 -1.6395  0.9140
 7105SOL     OW22798   3.048   4.986   6.712 -0.1334 -0.1107 -0.0280
 7105SOL    HW122799   3.093   5.061   6.672 -0.1842  0.2956  0.6688
 7105SOL    HW222800   2.959   4.990   6.677 -0.2178  0.3235  0.2385
 7106SOL     OW22801   3.942   0.092   6.365  0.1941 -0.1371  0.0405
 7106SOL    HW122802   4.037   0.082   6.358  0.3687 -1.0840  3.1683
 7106SOL    HW222803   3.907   0.034   6.297  1.8263  1.2418 -2.0439
 7107SOL     OW22804   8.303   5.228   8.255  0.0257 -0.4288  0.2744
 7107SOL    HW122805   8.389   5.251   8.291 -0.2244  0.3234  0.4020
 7107SOL    HW222806   8.251   5.308   8.266 -1.0042 -1.2257  1.1878
 7108SOL     OW22807   4.370   4.439   3.173  0.4557  0.5759  0.3551
 7108SOL    HW122808   4.334   4.496   3.240 -0.7287  0.0426  0.1839
 7108SOL    HW222809   4.302   4.433   3.106  1.3812  0.6132 -0.6055
 7109SOL     OW22810   2.329   4.978   1.608  0.5019 -0.0803  0.2026
 7109SOL    HW122811   2.333   4.999   1.514  0.6791  0.4412  0.3255
 7109SOL    HW222812   2.248   5.019   1.637  0.1098 -0.8047  0.1414
 7110SOL     OW22813   4.731   2.304   1.054 -0.2484 -0.3768 -0.4922
 7110SOL    HW122814   4.673   2.379   1.045 -0.5023 -0.4189  0.7202
 7110SOL    HW222815   4.673   2.233   1.082  0.2826 -0.5620  0.1618
 7111SOL     OW22816   0.994   2.086   7.174  0.4832 -0.1825  0.5247
 7111SOL    HW122817   0.924   2.060   7.114  0.4542  1.8779 -0.3752
 7111SOL    HW222818   0.998   2.016   7.238 -1.6983 -0.8393 -0.0236
 7112SOL     OW22819   6.581   2.747   1.855  0.2981  0.3235  0.4438
 7112SOL    HW122820   6.547   2.667   1.895 -0.8994  0.4694 -0.2418
 7112SOL    HW222821   6.532   2.818   1.898 -0.0269  0.5582 -0.2918
 7113SOL     OW22822   4.551   2.907   4.329 -0.2722 -0.2564 -0.7250
 7113SOL    HW122823   4.628   2.868   4.371  0.0912  0.9585 -0.2336
 7113SOL    HW222824   4.477   2.876   4.382 -0.0281 -0.5991 -0.5800
 7114SOL     OW22825   3.607   3.534   6.290  0.2429  0.1667 -0.2091
 7114SOL    HW122826   3.518   3.506   6.314  0.8293  0.2711  2.1744
 7114SOL    HW222827   3.609   3.628   6.308  0.2335  0.5522 -2.1706
 7115SOL     OW22828   5.007   3.499   0.187 -0.1480  0.5343  0.0989
 7115SOL    HW122829   4.994   3.508   0.093  0.5602  1.1922  0.0635
 7115SOL    HW222830   5.101   3.487   0.197 -0.1243  1.2497  0.7877
 7116SOL     OW22831   0.557   6.934   6.087 -0.1176  0.4392 -0.2054
 7116SOL    HW122832   0.529   6.861   6.031 -0.7598  0.3438  0.2296
 7116SOL    HW222833   0.640   6.905   6.124  1.0412  1.0933 -2.2171
 7117SOL     OW22834   5.800   4.163   7.216 -0.1429 -0.1469  0.0742
 7117SOL    HW122835   5.884   4.129   7.186  0.2651  1.9179 -1.1687
 7117SOL    HW222836   5.822   4.219   7.290 -0.5054 -0.1777  0.2076
 7118SOL     OW22837   1.988   4.002   4.356 -0.3939 -0.1868 -0.2922
 7118SOL    HW122838   1.913   3.976   4.409  0.7442 -3.0442  0.0198
 7118SOL    HW222839   1.998   4.096   4.372 -1.9835 -0.3799  2.0824
 7119SOL     OW22840   0.768   4.715   4.308 -0.8323 -0.0981 -0.1888
 7119SOL    HW122841   0.716   4.723   4.388  0.2169 -1.7996  0.7041
 7119SOL    HW222842   0.835   4.650   4.330  0.5277  0.6966 -1.9068
 7120SOL     OW22843   5.362   0.678   3.259 -0.5313  0.0738  0.2914
 7120SOL    HW122844   5.345   0.696   3.166 -0.4668 -2.8356 -0.3301
 7120SOL    HW222845   5.280   0.638   3.290 -0.2600  0.2832  1.2698
 7121SOL     OW22846   3.836   2.008   2.508  0.3145 -0.5020  0.1011
 7121SOL    HW122847   3.924   2.031   2.537 -0.3989 -0.7858  2.5796
 7121SOL    HW222848   3.828   2.049   2.422  3.1009 -1.0532 -0.4917
 7122SOL     OW22849   7.904   2.215   0.665 -0.0607 -0.2145  0.5730
 7122SOL    HW122850   7.975   2.204   0.729 -0.0751 -1.9009  0.3188
 7122SOL    HW222851   7.949   2.226   0.581 -0.0786 -1.1778  0.4276
 7123SOL     OW22852   1.350   4.001   6.811 -0.0462  0.3843  0.3720
 7123SOL    HW122853   1.364   3.907   6.804  0.4187  0.4626  0.2108
 7123SOL    HW222854   1.297   4.023   6.734  1.5627  0.5705 -0.7139
 7124SOL     OW22855   3.678   1.352   8.227  0.0553  0.0399 -0.3669
 7124SOL    HW122856   3.591   1.319   8.204  0.8233 -2.4564  0.1097
 7124SOL    HW222857   3.666   1.394   8.312 -1.2349  2.3321 -1.6395
 7125SOL     OW22858   7.113   0.908   6.019 -0.2188 -0.1972 -0.1390
 7125SOL    HW122859   7.074   0.825   6.047 -0.7170 -0.5011 -1.6653
 7125SOL    HW222860   7.110   0.963   6.097 -3.5343 -0.2775 -0.1388
 7126SOL     OW22861   3.882   4.895   7.452 -0.4250  0.1394 -0.4873
 7126SOL    HW122862   3.856   4.820   7.399 -4.7260  1.7282 -0.7942
 7126SOL    HW222863   3.917   4.856   7.533 -0.3452 -2.2105 -1.6164
 7127SOL     OW22864   0.611   1.581   3.320 -0.4581  0.1932  0.4254
 7127SOL    HW122865   0.530   1.553   3.278 -0.5194 -0.4999  0.9770
 7127SOL    HW222866   0.679   1.566   3.255 -0.4298 -1.7275  0.8632
 7128SOL     OW22867   3.468   4.011   6.525 -0.7028  0.7123 -0.3834
 7128SOL    HW122868   3.507   4.065   6.594  1.0362 -0.3459 -0.5295
 7128SOL    HW222869   3.497   4.051   6.444  1.5909 -1.1001 -0.5021
 7129SOL     OW22870   0.195   7.924   0.533 -1.1403  0.1311 -0.0805
 7129SOL    HW122871   0.262   7.937   0.600  0.0918 -1.0905 -1.0394
 7129SOL    HW222872   0.159   8.011   0.518 -1.1114  0.4930  1.8279
 7130SOL     OW22873   1.063   4.526   1.894  0.1424 -0.3468  0.0290
 7130SOL    HW122874   1.067   4.596   1.960 -0.4220 -1.6905  1.5427
 7130SOL    HW222875   1.100   4.450   1.938 -1.5785 -1.6402 -0.7078
 7131SOL     OW22876   3.176   3.217   3.304 -0.3179 -0.5541  0.2153
 7131SOL    HW122877   3.096   3.256   3.269  0.4066  0.7785  0.0323
 7131SOL    HW222878   3.206   3.158   3.234  0.5940  1.3744 -1.0650
 7132SOL     OW22879   5.205   0.898   4.045  0.1764 -0.4088 -0.1048
 7132SOL    HW122880   5.192   0.981   3.999 -0.0495 -0.8737 -0.8953
 7132SOL    HW222881   5.295   0.873   4.024  0.7628  0.4064  1.4068
 7133SOL     OW22882   6.776   6.657   5.691 -0.0863 -0.1355 -0.7417
 7133SOL    HW122883   6.801   6.747   5.710 -0.9049  0.1232 -0.8795
 7133SOL    HW222884   6.859   6.613   5.671  0.5174  0.1683  1.0153
 7134SOL     OW22885   6.011   6.306   5.297  0.4310 -0.0561 -0.5590
 7134SOL    HW122886   6.057   6.284   5.378 -2.1842 -0.7195  0.7906
 7134SOL    HW222887   6.002   6.401   5.299  1.2442  0.0253 -0.5760
 7135SOL     OW22888   6.209   3.926   7.321  0.0228  0.4692  0.0093
 7135SOL    HW122889   6.259   3.973   7.253 -0.2555  0.2651 -0.3386
 7135SOL    HW222890   6.131   3.894   7.275 -0.3832  0.7144  0.5375
 7136SOL     OW22891   7.247   0.911   1.312 -0.2024 -0.2575  0.2380
 7136SOL    HW122892   7.157   0.903   1.346 -0.1355  0.4697  0.5884
 7136SOL    HW222893   7.238   0.964   1.233  0.0227  0.4786  0.7056
 7137SOL     OW22894   5.383   4.517   5.405 -0.5424  0.0895  0.5608
 7137SOL    HW122895   5.339   4.501   5.488 -0.5680 -0.8183  0.3758
 7137SOL    HW222896   5.346   4.453   5.345  0.0225  0.2378  0.0458
 7138SOL     OW22897   2.959   0.163   5.832 -0.2047 -0.1807 -0.1671
 7138SOL    HW122898   2.965   0.151   5.737 -1.2174 -0.2911 -0.2291
 7138SOL    HW222899   2.875   0.207   5.845 -0.0525 -0.1309  0.6752
 7139SOL     OW22900   3.204   5.329   6.777  0.2103  0.0461  0.3380
 7139SOL    HW122901   3.192   5.297   6.867 -0.4677  2.5952  1.2082
 7139SOL    HW222902   3.298   5.338   6.768  0.2528  0.3732  1.0307
 7140SOL     OW22903   6.587   4.174   2.460  0.0751 -0.0314 -0.6420
 7140SOL    HW122904   6.499   4.183   2.423 -0.9662 -1.4031  1.4225
 7140SOL    HW222905   6.593   4.244   2.525 -0.7269 -1.9537  1.5307
 7141SOL     OW22906   1.578   3.529   4.618 -0.0373 -0.0775 -0.4201
 7141SOL    HW122907   1.524   3.554   4.693 -0.7038  0.1146 -0.9530
 7141SOL    HW222908   1.667   3.526   4.652 -0.4558 -1.0496  0.6412
 7142SOL     OW22909   4.369   2.639   0.843 -0.2944  0.1101  0.3325
 7142SOL    HW122910   4.287   2.654   0.891  0.3822  0.0241  1.5497
 7142SOL    HW222911   4.345   2.647   0.751 -1.3893  1.4551  0.7220
 7143SOL     OW22912   7.737   4.024   8.028  0.1812 -0.5719  0.4326
 7143SOL    HW122913   7.733   4.109   7.984  1.0379 -1.0371 -0.5731
 7143SOL    HW222914   7.823   4.023   8.070  0.1653 -0.9277  0.4570
 7144SOL     OW22915   2.593   2.861   2.660 -0.0583 -0.2939 -0.3108
 7144SOL    HW122916   2.597   2.932   2.724  0.6912 -1.0462  0.4868
 7144SOL    HW222917   2.501   2.836   2.656 -0.2034  0.2036 -0.0221
 7145SOL     OW22918   2.015   8.124   3.142  0.5290 -0.8269 -0.1213
 7145SOL    HW122919   1.925   8.097   3.162 -0.1000  2.1413  1.3689
 7145SOL    HW222920   2.005   8.203   3.089  2.1826  1.1355  2.3615
 7146SOL     OW22921   0.512   7.557   4.852 -0.3834  0.2251 -0.2051
 7146SOL    HW122922   0.606   7.546   4.867 -0.2781 -0.8565 -1.6335
 7146SOL    HW222923   0.496   7.650   4.869  0.5847  0.0453  1.8963
 7147SOL     OW22924   7.913   4.242   4.676  0.0469 -0.2435 -0.1559
 7147SOL    HW122925   7.908   4.203   4.589 -0.2809 -1.8241  0.5690
 7147SOL    HW222926   7.943   4.172   4.732  0.9220  0.9567  0.9085
 7148SOL     OW22927   8.033   0.552   6.310 -0.0604 -0.2302  0.1825
 7148SOL    HW122928   8.038   0.470   6.360  2.1401 -0.6640 -0.6931
 7148SOL    HW222929   8.120   0.590   6.319 -0.8275  1.6216 -0.1036
 7149SOL     OW22930   8.137   7.962   6.422  0.1532  0.0441 -0.0494
 7149SOL    HW122931   8.057   7.938   6.376 -0.1108  0.2974  0.2758
 7149SOL    HW222932   8.109   7.986   6.510  0.8571 -2.1054  0.7862
 7150SOL     OW22933   5.249   4.111   4.928  0.1378 -0.5260  0.0895
 7150SOL    HW122934   5.324   4.057   4.902  1.1081  0.5560  0.6064
 7150SOL    HW222935   5.253   4.187   4.869  0.4135  0.3252  1.1927
 7151SOL     OW22936   0.313   1.483   0.438 -0.0102 -0.1988 -0.3281
 7151SOL    HW122937   0.283   1.554   0.380 -1.7744 -1.8227 -1.4505
 7151SOL    HW222938   0.233   1.436   0.461  1.0597 -1.3608  1.0478
 7152SOL     OW22939   7.885   0.417   1.183 -0.0272 -0.7403 -0.2660
 7152SOL    HW122940   7.867   0.352   1.115 -0.4064 -0.8163 -0.0921
 7152SOL    HW222941   7.799   0.437   1.221 -0.2476  1.5024 -1.8060
 7153SOL     OW22942   1.471   6.596   1.261 -0.1086  0.3377  0.0983
 7153SOL    HW122943   1.482   6.690   1.274  1.7303  0.0511  0.9192
 7153SOL    HW222944   1.392   6.574   1.310 -0.0954  1.3308  0.5789
 7154SOL     OW22945   5.520   2.486   5.693  0.5226 -0.2899 -0.0506
 7154SOL    HW122946   5.455   2.467   5.624  0.0120  1.2605 -0.0315
 7154SOL    HW222947   5.557   2.401   5.715  0.3339 -0.8808 -1.9017
 7155SOL     OW22948   2.264   2.376   8.288  0.5539  0.0471  0.2344
 7155SOL    HW122949   2.341   2.340   8.331 -0.1433 -0.1782  1.3050
 7155SOL    HW222950   2.194   2.314   8.309 -0.2356  1.0092  0.4709
 7156SOL     OW22951   8.088   6.086   8.008 -0.1532 -0.9878 -0.0356
 7156SOL    HW122952   8.170   6.067   8.054 -0.0308  0.5311  0.4000
 7156SOL    HW222953   8.114   6.139   7.933 -0.6379 -1.3256 -0.4439
 7157SOL     OW22954   2.298   3.226   0.763 -0.1500 -0.2118  0.0690
 7157SOL    HW122955   2.330   3.205   0.851 -0.5994  1.6196  0.6982
 7157SOL    HW222956   2.208   3.256   0.777 -0.0394  0.6183 -0.9468
 7158SOL     OW22957   5.043   8.101   3.248  0.1709  0.2495  0.0531
 7158SOL    HW122958   5.125   8.110   3.297  0.9567 -0.0931 -1.1786
 7158SOL    HW222959   5.019   8.190   3.223 -0.8909  0.5575  2.1050
 7159SOL     OW22960   3.853   4.651   5.222  0.0055 -0.1286 -0.3956
 7159SOL    HW122961   3.817   4.599   5.293  1.1245 -0.3095  0.0495
 7159SOL    HW222962   3.808   4.619   5.144 -1.7926  0.6069  0.3222
 7160SOL     OW22963   0.460   6.264   2.442 -0.2768 -0.0189  0.3850
 7160SOL    HW122964   0.398   6.195   2.465  0.8316 -1.0831  0.2440
 7160SOL    HW222965   0.412   6.345   2.457 -2.1716 -0.8208 -1.0356
 7161SOL     OW22966   7.949   2.689   6.791 -0.2065 -0.1298 -0.4569
 7161SOL    HW122967   7.989   2.690   6.704  1.6550  0.4847  0.3847
 7161SOL    HW222968   7.929   2.781   6.809  0.5352 -0.1002  0.2545
 7162SOL     OW22969   0.233   1.575   0.067  0.4743  0.1524  0.3482
 7162SOL    HW122970   0.220   1.617   0.152  1.6607  0.3915  0.4107
 7162SOL    HW222971   0.145   1.544   0.042 -0.0160  0.7754  1.2850
 7163SOL     OW22972   6.027   3.200   6.654  0.4568  0.0862 -0.1651
 7163SOL    HW122973   5.987   3.117   6.679  2.2405  0.1151  3.1037
 7163SOL    HW222974   6.114   3.175   6.620  0.0684  0.4604 -1.4637
 7164SOL     OW22975   0.121   5.296   5.903  0.1492 -0.0820 -0.4061
 7164SOL    HW122976   0.083   5.268   5.820 -3.1310  0.4220  0.8439
 7164SOL    HW222977   0.176   5.222   5.930 -0.3165 -1.0647 -2.0504
 7165SOL     OW22978   4.562   2.992   5.467 -0.0980  0.3692  0.0217
 7165SOL    HW122979   4.626   2.989   5.538 -0.8027  0.6253  0.6827
 7165SOL    HW222980   4.511   2.912   5.478  0.3325 -0.0009 -0.7086
 7166SOL     OW22981   6.359   1.796   0.232  0.8807  0.2233  0.0014
 7166SOL    HW122982   6.325   1.886   0.228 -0.1322 -0.1160  0.7133
 7166SOL    HW222983   6.377   1.782   0.325  0.7813 -0.4044 -0.0765
 7167SOL     OW22984   0.323   2.631   3.879 -0.0522  0.2372 -0.0566
 7167SOL    HW122985   0.377   2.659   3.805  0.2055 -0.2713 -0.0634
 7167SOL    HW222986   0.334   2.700   3.944  0.1116  0.4433 -0.3035
 7168SOL     OW22987   5.450   5.687   4.562  0.0591 -0.2751  0.0095
 7168SOL    HW122988   5.513   5.724   4.501  2.7232 -1.5747  1.8882
 7168SOL    HW222989   5.395   5.761   4.587  0.9809  0.9460 -1.4643
 7169SOL     OW22990   5.614   2.157   6.001 -0.0192 -0.1847  0.1656
 7169SOL    HW122991   5.698   2.158   6.046 -0.8249 -0.8774  1.7406
 7169SOL    HW222992   5.595   2.249   5.983  1.0984 -0.0307 -0.2428
 7170SOL     OW22993   7.665   8.304   2.943  0.1960  0.3512  0.2004
 7170SOL    HW122994   7.688   8.218   2.906 -1.7666 -0.1816  0.1473
 7170SOL    HW222995   7.662   8.289   3.037 -0.7345  0.1952  0.1534
 7171SOL     OW22996   3.042   1.824   6.594  0.1422 -0.6815  0.4162
 7171SOL    HW122997   3.016   1.880   6.520 -0.6005  0.5327  1.5872
 7171SOL    HW222998   3.000   1.740   6.575  0.1239 -0.4471 -0.6488
 7172SOL     OW22999   8.246   6.354   6.132  0.1690 -0.2110  0.1471
 7172SOL    HW123000   8.251   6.330   6.224 -1.4864  1.2347  0.6500
 7172SOL    HW223001   8.152   6.364   6.115  0.5669  1.5113 -1.1475
 7173SOL     OW23002   8.171   5.451   3.661  0.1628 -0.2306 -0.1384
 7173SOL    HW123003   8.122   5.404   3.593  0.0934 -0.9102  0.3775
 7173SOL    HW223004   8.179   5.388   3.732 -0.3777  0.7107  0.7605
 7174SOL     OW23005   6.547   3.026   7.330 -0.1971  0.3219 -0.2070
 7174SOL    HW123006   6.498   3.080   7.391  0.8717 -0.2914  1.2144
 7174SOL    HW223007   6.611   3.086   7.291 -0.5433  0.5953 -0.3576
 7175SOL     OW23008   2.636   5.458   7.718  0.0953  0.2889 -0.7729
 7175SOL    HW123009   2.613   5.493   7.804  0.4488  1.0896 -0.9973
 7175SOL    HW223010   2.727   5.485   7.705  0.2566 -0.3905 -1.1193
 7176SOL     OW23011   1.175   1.413   0.899  0.2549  0.4259  0.5801
 7176SOL    HW123012   1.221   1.339   0.859 -1.3166  0.1846 -0.8578
 7176SOL    HW223013   1.240   1.454   0.956  1.7924 -0.7498 -0.2867
 7177SOL     OW23014   1.196   0.742   1.711 -0.2041 -0.3130 -0.7384
 7177SOL    HW123015   1.143   0.803   1.659 -0.5539  0.0050 -0.0184
 7177SOL    HW223016   1.138   0.667   1.726 -0.2045 -0.2785 -0.5654
 7178SOL     OW23017   5.642   3.055   5.362 -0.4323  0.2535  0.1541
 7178SOL    HW123018   5.594   3.134   5.336  0.7918  0.6701 -0.8970
 7178SOL    HW223019   5.627   2.994   5.290  2.0224  1.0050 -1.0635
 7179SOL     OW23020   4.006   3.435   4.993  0.2584  0.6446  0.0640
 7179SOL    HW123021   4.058   3.506   4.958 -0.6184  0.2277 -2.1983
 7179SOL    HW223022   3.921   3.474   5.014  0.5656  0.7549  1.1380
 7180SOL     OW23023   1.191   7.626   4.968  0.2410 -0.8021 -0.0005
 7180SOL    HW123024   1.100   7.654   4.972  0.8627  1.3537 -0.1453
 7180SOL    HW223025   1.237   7.685   5.028  1.7668 -0.8325 -1.1024
 7181SOL     OW23026   0.992   3.013   0.436  0.1327 -0.7423  0.1746
 7181SOL    HW123027   1.007   3.085   0.375 -1.0046  1.1428  2.0176
 7181SOL    HW223028   0.903   2.983   0.417  0.0958 -0.7203  0.3054
 7182SOL     OW23029   3.478   2.748   4.631  0.6531 -0.2406 -0.1772
 7182SOL    HW123030   3.486   2.661   4.671 -0.9550 -0.1451  0.3948
 7182SOL    HW223031   3.491   2.733   4.538 -0.6129 -1.2493 -0.1964
 7183SOL     OW23032   3.202   7.847   4.049 -0.2371 -0.5119  0.0860
 7183SOL    HW123033   3.155   7.770   4.081  1.8037 -1.9885 -0.3610
 7183SOL    HW223034   3.206   7.835   3.954 -1.2149  0.9189 -0.1526
 7184SOL     OW23035   5.169   0.547   4.396 -0.6639 -0.3093 -0.8080
 7184SOL    HW123036   5.246   0.532   4.450 -0.4453 -0.7979 -1.2548
 7184SOL    HW223037   5.183   0.494   4.318 -1.3639 -0.2575 -0.9765
 7185SOL     OW23038   4.882   0.313   3.836  0.2506  0.0489  0.7647
 7185SOL    HW123039   4.939   0.390   3.832  0.4858 -0.1495  0.2949
 7185SOL    HW223040   4.801   0.340   3.793  0.3090  0.0538  0.6582
 7186SOL     OW23041   5.252   5.638   0.819 -0.4788  1.0817 -0.1777
 7186SOL    HW123042   5.160   5.628   0.842  0.3859 -0.7631  2.6730
 7186SOL    HW223043   5.293   5.674   0.898  1.0335  3.2589 -1.8775
 7187SOL     OW23044   7.522   5.240   5.359  0.1916  0.0484 -0.5703
 7187SOL    HW123045   7.479   5.295   5.424  0.5130  0.5363 -0.7708
 7187SOL    HW223046   7.577   5.300   5.308 -0.0574 -0.3228 -1.2922
 7188SOL     OW23047   0.951   1.605   8.190 -0.2820  0.0774 -0.2590
 7188SOL    HW123048   0.903   1.547   8.131  1.4393 -1.2267 -0.3921
 7188SOL    HW223049   1.033   1.559   8.208 -0.2772  0.9808  2.2106
 7189SOL     OW23050   1.250   5.003   0.924  0.2405  0.9584 -0.1624
 7189SOL    HW123051   1.179   5.020   0.985  1.2622 -0.4701  1.4667
 7189SOL    HW223052   1.211   4.947   0.856 -0.5727  1.4865 -0.1246
 7190SOL     OW23053   7.066   4.488   1.228 -0.7977 -0.3715 -0.1462
 7190SOL    HW123054   7.111   4.431   1.166  0.4065 -0.6029  0.9087
 7190SOL    HW223055   7.137   4.532   1.275 -1.7042  1.0490 -0.0726
 7191SOL     OW23056   0.569   4.565   5.991 -0.1027 -0.2058 -0.5216
 7191SOL    HW123057   0.552   4.651   5.953 -0.0503  0.4507  0.8972
 7191SOL    HW223058   0.485   4.519   5.987 -0.9248  1.0731  1.6079
 7192SOL     OW23059   6.243   7.376   7.377  0.4996 -0.0436  0.0592
 7192SOL    HW123060   6.167   7.332   7.340  0.4264  0.9863 -1.0182
 7192SOL    HW223061   6.229   7.373   7.472 -0.8510  0.1184 -0.1340
 7193SOL     OW23062   1.285   6.013   6.823 -0.4814 -0.0302  0.1749
 7193SOL    HW123063   1.277   5.965   6.905 -0.6322  1.5031  1.0889
 7193SOL    HW223064   1.358   6.074   6.838 -1.0880  0.8880 -0.5053
 7194SOL     OW23065   6.165   2.059   3.339 -0.1866 -0.0287 -0.0915
 7194SOL    HW123066   6.231   2.124   3.314 -1.1585  0.3068 -1.9032
 7194SOL    HW223067   6.098   2.109   3.385 -0.7523  0.2072 -1.1546
 7195SOL     OW23068   0.331   2.415   5.929  0.8037 -0.3395 -0.0585
 7195SOL    HW123069   0.374   2.376   5.853  2.6585  1.5935 -0.0345
 7195SOL    HW223070   0.348   2.509   5.921 -0.3453  0.0725  1.9070
 7196SOL     OW23071   2.321   0.719   5.033  0.2272  0.0594 -0.0965
 7196SOL    HW123072   2.365   0.803   5.023  0.2039  0.0750 -0.0673
 7196SOL    HW223073   2.274   0.726   5.116  1.2422 -0.4377  0.5283
 7197SOL     OW23074   8.172   2.750   0.593  0.3441 -0.0330  0.3373
 7197SOL    HW123075   8.267   2.746   0.592  0.3551  0.1953  0.4028
 7197SOL    HW223076   8.146   2.690   0.663  0.5189  1.2400  1.5273
 7198SOL     OW23077   2.878   2.882   6.265 -0.5189 -0.0768 -0.6452
 7198SOL    HW123078   2.855   2.965   6.307 -1.7794 -0.5073 -0.4769
 7198SOL    HW223079   2.912   2.907   6.179 -0.0008  0.6696 -0.2267
 7199SOL     OW23080   0.683   7.732   1.516 -0.2111  0.2468 -0.2671
 7199SOL    HW123081   0.683   7.711   1.610  1.1181  1.9856  0.1516
 7199SOL    HW223082   0.608   7.791   1.504  0.0259  0.5690 -0.1650
 7200SOL     OW23083   6.325   5.718   5.192 -0.1029  0.5145 -0.1517
 7200SOL    HW123084   6.334   5.700   5.285 -3.1266 -1.1981 -0.1156
 7200SOL    HW223085   6.301   5.633   5.154 -1.1211  1.6443 -2.1213
 7201SOL     OW23086   3.710   2.506   7.403 -0.2635 -0.2915 -0.1094
 7201SOL    HW123087   3.729   2.516   7.496 -0.7081 -0.3972 -0.0038
 7201SOL    HW223088   3.746   2.584   7.362 -0.1130 -0.2204  0.1590
 7202SOL     OW23089   5.511   2.489   7.006  0.1454 -0.4852  0.0183
 7202SOL    HW123090   5.529   2.582   7.013  0.3021 -0.5346  0.2927
 7202SOL    HW223091   5.435   2.483   6.948 -0.1647 -0.1581  0.3859
 7203SOL     OW23092   5.786   7.090   5.600 -0.0919  0.0192 -0.2095
 7203SOL    HW123093   5.758   7.154   5.535  0.0342  1.5218  1.1695
 7203SOL    HW223094   5.881   7.102   5.606 -0.0707 -0.2971  0.0472
 7204SOL     OW23095   3.243   5.617   4.967  0.2231  0.2567  0.1935
 7204SOL    HW123096   3.235   5.552   5.037  1.2244  0.5489  0.5915
 7204SOL    HW223097   3.266   5.567   4.889 -3.2220 -0.3492 -0.4942
 7205SOL     OW23098   4.725   3.652   1.914 -0.7059 -0.2111  0.4018
 7205SOL    HW123099   4.687   3.713   1.978 -0.1504  0.1661  0.3767
 7205SOL    HW223100   4.810   3.628   1.952  0.3738  1.3136 -0.9866
 7206SOL     OW23101   8.046   2.931   4.722  0.4428  0.3959 -0.3627
 7206SOL    HW123102   8.003   2.963   4.643  0.9757 -0.3002 -0.9408
 7206SOL    HW223103   8.108   3.000   4.745 -0.5379  1.1277  0.1247
 7207SOL     OW23104   2.578   4.471   5.694 -0.1102  0.3805 -0.5164
 7207SOL    HW123105   2.500   4.442   5.647 -0.6758  1.8440 -0.5230
 7207SOL    HW223106   2.545   4.535   5.757  0.7819 -0.7901  1.1601
 7208SOL     OW23107   7.183   7.808   0.017  0.0242  0.1576 -0.0327
 7208SOL    HW123108   7.259   7.854  -0.018 -0.3624  2.4670  2.0136
 7208SOL    HW223109   7.115   7.820  -0.049  0.8303 -0.2073 -0.9478
 7209SOL     OW23110   0.439   3.654   2.256 -0.1864  0.2898  0.2488
 7209SOL    HW123111   0.448   3.664   2.351  1.9823  2.2748 -0.1402
 7209SOL    HW223112   0.523   3.619   2.228 -1.3916 -1.9025 -0.7756
 7210SOL     OW23113   0.752   4.427   6.524 -0.1362 -0.0448 -0.4240
 7210SOL    HW123114   0.823   4.364   6.515 -0.8986 -0.6832 -2.2419
 7210SOL    HW223115   0.685   4.382   6.575  0.6262  0.4625  1.0574
 7211SOL     OW23116   1.931   2.960   0.244  0.1257  0.3160  0.7641
 7211SOL    HW123117   1.870   2.984   0.314 -1.5956 -0.1478 -0.5497
 7211SOL    HW223118   1.901   2.875   0.213  1.1551  0.2886 -0.2350
 7212SOL     OW23119   1.965   5.238   5.130  0.2489  0.4167  0.0240
 7212SOL    HW123120   2.053   5.260   5.099  0.2178  2.2247  1.1432
 7212SOL    HW223121   1.906   5.280   5.067  0.1837 -0.2892 -0.3871
 7213SOL     OW23122   4.244   6.634   2.840  0.2434  0.7120  0.6457
 7213SOL    HW123123   4.213   6.706   2.896 -0.6174 -0.2624  1.4305
 7213SOL    HW223124   4.306   6.586   2.895  0.9169  0.9219  0.0779
 7214SOL     OW23125   5.463   8.076   3.235 -0.0961 -0.2383  0.3785
 7214SOL    HW123126   5.419   8.008   3.183 -0.5939  0.1788  0.2510
 7214SOL    HW223127   5.552   8.043   3.246  0.4441  0.3196 -1.9519
 7215SOL     OW23128   5.486   2.489   2.160 -0.0766 -0.1270  0.1292
 7215SOL    HW123129   5.491   2.549   2.085 -1.1358 -1.4273 -1.0197
 7215SOL    HW223130   5.531   2.410   2.130 -0.2489 -0.5512  0.9763
 7216SOL     OW23131   2.007   3.946   5.905 -0.4085  0.4048  0.0025
 7216SOL    HW123132   2.025   3.857   5.875  0.5343 -0.1103  1.9919
 7216SOL    HW223133   1.967   3.934   5.991 -3.0102  1.8372 -0.9271
 7217SOL     OW23134   4.682   2.447   0.746 -0.1021 -0.0388 -0.0231
 7217SOL    HW123135   4.647   2.370   0.700 -2.9803  0.3746  1.3723
 7217SOL    HW223136   4.711   2.506   0.676 -1.1306 -0.9065 -1.2074
 7218SOL     OW23137   5.361   6.371   6.952  0.1911  0.4823  0.6498
 7218SOL    HW123138   5.415   6.302   6.991 -0.2009  0.3147  0.8942
 7218SOL    HW223139   5.366   6.444   7.014 -0.4347  0.2142  1.0100
 7219SOL     OW23140   6.569   2.232   6.164 -0.0976 -0.5543 -0.0182
 7219SOL    HW123141   6.555   2.326   6.154 -0.1170 -0.7251 -1.7222
 7219SOL    HW223142   6.485   2.199   6.197 -1.3028 -0.4657 -2.8514
 7220SOL     OW23143   6.649   6.558   3.159  0.5887 -0.3008 -0.6589
 7220SOL    HW123144   6.623   6.532   3.071 -1.7640  0.5869 -0.2830
 7220SOL    HW223145   6.669   6.652   3.152 -0.0663 -0.1172 -0.1705
 7221SOL     OW23146   3.582   0.570   6.876  0.6628 -0.1786 -0.3984
 7221SOL    HW123147   3.640   0.512   6.927 -0.0409 -0.3024  0.2704
 7221SOL    HW223148   3.626   0.655   6.878  0.9197 -0.3162 -0.0416
 7222SOL     OW23149   5.486   4.312   2.089  0.3046  0.0294  0.5258
 7222SOL    HW123150   5.485   4.396   2.043  1.4466  0.1037  0.6300
 7222SOL    HW223151   5.532   4.331   2.171 -0.4257 -0.4437  1.0476
 7223SOL     OW23152   6.357   7.273   0.268  0.3246  0.3686 -0.5175
 7223SOL    HW123153   6.344   7.364   0.243 -2.3529  0.1218 -0.1586
 7223SOL    HW223154   6.293   7.224   0.216  0.5457 -1.1051  0.5439
 7224SOL     OW23155   4.198   1.583   6.060  0.7912  0.1418  0.6584
 7224SOL    HW123156   4.117   1.548   6.098  0.6758  0.1675  0.4358
 7224SOL    HW223157   4.187   1.678   6.064  1.1018  0.1563  1.2547
 7225SOL     OW23158   3.083   3.779   7.962 -0.1311  0.2494 -0.4750
 7225SOL    HW123159   3.163   3.745   7.922 -0.1391 -1.2717  0.7596
 7225SOL    HW223160   3.013   3.750   7.904 -0.1973 -2.4654  0.9260
 7226SOL     OW23161   8.273   8.126   0.335 -0.9872 -0.1560  0.7393
 7226SOL    HW123162   8.228   8.178   0.402  1.3326  0.1798  2.1236
 7226SOL    HW223163   8.362   8.163   0.333 -1.3082  0.5399 -3.3428
 7227SOL     OW23164   4.567   1.024   6.117 -0.5028  0.2514  0.0667
 7227SOL    HW123165   4.536   1.047   6.204  1.3936  0.8209  0.6233
 7227SOL    HW223166   4.607   1.105   6.084  0.9802 -0.6295 -0.3376
 7228SOL     OW23167   8.264   3.126   5.752 -0.5535 -0.1632  0.4566
 7228SOL    HW123168   8.321   3.084   5.688 -0.8241 -0.7003  0.5679
 7228SOL    HW223169   8.182   3.077   5.747 -0.7644  0.1494  0.8129
 7229SOL     OW23170   4.692   7.635   2.207 -0.6910 -0.3414 -0.3584
 7229SOL    HW123171   4.699   7.562   2.146 -0.8016 -0.6553  0.0014
 7229SOL    HW223172   4.751   7.612   2.278  1.1950  1.1036 -1.4124
 7230SOL     OW23173   2.626   7.754   4.608  0.8769  0.4167 -0.3163
 7230SOL    HW123174   2.613   7.681   4.548  0.0197  0.4998 -0.2468
 7230SOL    HW223175   2.607   7.832   4.556  0.2790  0.4973  0.0065
 7231SOL     OW23176   0.008   2.857   1.227  0.2894  0.1565  0.1342
 7231SOL    HW123177   0.015   2.899   1.312  0.4715 -2.1858  1.3241
 7231SOL    HW223178   0.081   2.794   1.225  0.3217  0.2215 -1.7663
 7232SOL     OW23179   3.832   2.533   3.511  0.4144 -0.3845  0.2443
 7232SOL    HW123180   3.757   2.583   3.479  0.8726 -0.2751 -0.6543
 7232SOL    HW223181   3.807   2.441   3.501 -0.1834 -0.3478  1.3239
 7233SOL     OW23182   0.158   7.917   4.045  0.3143  0.2055  0.2441
 7233SOL    HW123183   0.141   7.834   4.089  1.1525 -0.9219 -1.5155
 7233SOL    HW223184   0.072   7.952   4.024 -0.0246 -1.1804 -0.7300
 7234SOL     OW23185   7.388   5.549   0.831  0.5166 -0.2495 -0.3319
 7234SOL    HW123186   7.469   5.508   0.800  1.7378 -0.0020  2.3567
 7234SOL    HW223187   7.401   5.643   0.815 -0.2472 -0.4144 -2.0340
 7235SOL     OW23188   4.266   1.563   8.293 -0.4849  0.2681  0.1824
 7235SOL    HW123189   4.302   1.610   8.368 -1.1584  1.2723 -0.1173
 7235SOL    HW223190   4.198   1.620   8.259 -2.7921 -1.8388  1.0881
 7236SOL     OW23191   0.739   2.393   0.317 -0.4636 -0.1575 -0.6585
 7236SOL    HW123192   0.831   2.421   0.323 -0.5651 -0.1095  1.2170
 7236SOL    HW223193   0.695   2.465   0.272  0.3415  0.0448 -1.1308
 7237SOL     OW23194   1.499   1.292   1.377 -0.5505  0.5881  0.3884
 7237SOL    HW123195   1.486   1.211   1.426  1.6426 -0.2240 -0.3463
 7237SOL    HW223196   1.508   1.359   1.445  0.3386 -0.2031  1.0694
 7238SOL     OW23197   2.116   7.558   7.652  0.5454 -0.1050  0.1426
 7238SOL    HW123198   2.081   7.518   7.573 -2.1129  0.6429  0.8757
 7238SOL    HW223199   2.211   7.558   7.640  0.3358 -2.5971 -1.7633
 7239SOL     OW23200   6.296   1.637   3.234 -0.1025  0.4938  0.5596
 7239SOL    HW123201   6.341   1.605   3.156 -1.0078 -1.1474  0.6974
 7239SOL    HW223202   6.241   1.708   3.202 -1.4452 -1.0181 -0.5336
 7240SOL     OW23203   4.786   1.086   1.330  0.0154 -0.4102 -0.3771
 7240SOL    HW123204   4.718   1.138   1.288 -0.7021 -0.7314  0.3541
 7240SOL    HW223205   4.857   1.147   1.348  0.0882 -0.1581 -1.5162
 7241SOL     OW23206   0.853   6.892   6.437 -0.0412 -0.1404 -0.4011
 7241SOL    HW123207   0.856   6.868   6.530  2.2505  1.9344  0.1345
 7241SOL    HW223208   0.812   6.818   6.394 -0.0655 -1.6581  2.1364
 7242SOL     OW23209   1.397   3.178   5.851 -0.0828  0.7478 -0.3008
 7242SOL    HW123210   1.461   3.248   5.851 -0.8286  1.4571  1.3172
 7242SOL    HW223211   1.323   3.213   5.801 -0.5373  1.2100  0.6808
 7243SOL     OW23212   7.662   7.809   2.496 -0.0819  0.4523  0.3210
 7243SOL    HW123213   7.614   7.872   2.442  0.1639  0.3355 -0.0364
 7243SOL    HW223214   7.654   7.726   2.449  0.0230  0.3220  0.5308
 7244SOL     OW23215   1.712   0.727   1.145 -0.1451  0.3501  0.1302
 7244SOL    HW123216   1.785   0.776   1.108 -0.4508  0.7052 -0.0043
 7244SOL    HW223217   1.662   0.697   1.069 -0.5151  0.6817  0.2398
 7245SOL     OW23218   6.807   7.106   3.774 -0.1472 -0.1951 -0.0939
 7245SOL    HW123219   6.849   7.191   3.761 -0.2000 -0.2721 -0.7758
 7245SOL    HW223220   6.717   7.120   3.745 -0.3491 -0.2920  0.4698
 7246SOL     OW23221   5.867   7.198   7.531 -0.4982 -0.3975 -0.2305
 7246SOL    HW123222   5.911   7.279   7.505  0.7101 -0.4096  1.7124
 7246SOL    HW223223   5.931   7.130   7.514  0.1197 -0.4621  2.2044
 7247SOL     OW23224   0.175   4.821   0.303  0.5528 -0.0509 -0.1063
 7247SOL    HW123225   0.085   4.792   0.320  1.0362 -1.1325  0.6154
 7247SOL    HW223226   0.202   4.866   0.383  0.2466  1.3295 -0.7614
 7248SOL     OW23227   0.198   6.887   1.747  0.3362  0.6175  0.1646
 7248SOL    HW123228   0.262   6.823   1.781 -0.5613  0.5225  1.7088
 7248SOL    HW223229   0.135   6.834   1.699  1.3941  0.7085 -1.3476
 7249SOL     OW23230   7.671   1.421   3.067 -0.1343 -0.4407  0.9380
 7249SOL    HW123231   7.698   1.442   2.978 -2.5702  1.2438  0.5613
 7249SOL    HW223232   7.636   1.332   3.061  0.4069 -0.6223  0.3889
 7250SOL     OW23233   6.679   5.190   7.807 -0.3916  0.3597  0.1116
 7250SOL    HW123234   6.593   5.150   7.802 -0.0938 -0.1519 -1.2089
 7250SOL    HW223235   6.740   5.119   7.786  0.3977  0.5504  1.7012
 7251SOL     OW23236   1.971   2.260   8.279 -0.4892  0.0497  0.3985
 7251SOL    HW123237   1.963   2.194   8.348  0.8219  1.7368  2.2275
 7251SOL    HW223238   1.978   2.209   8.199 -0.3205 -2.0295  1.6783
 7252SOL     OW23239   0.600   0.903   7.913  0.6076  0.3892  0.3162
 7252SOL    HW123240   0.512   0.919   7.949  0.4794 -1.0236  0.6450
 7252SOL    HW223241   0.623   0.986   7.871 -0.7173  0.9130  0.5725
 7253SOL     OW23242   4.102   4.570   1.530 -0.9546  0.1381 -0.5062
 7253SOL    HW123243   4.045   4.617   1.591 -0.4164 -0.7157  0.6702
 7253SOL    HW223244   4.077   4.602   1.443 -1.7642  1.3245  0.1631
 7254SOL     OW23245   8.253   1.532   1.985  0.1282 -0.1784 -0.3369
 7254SOL    HW123246   8.241   1.594   1.913 -1.1057 -0.9922 -0.8445
 7254SOL    HW223247   8.184   1.467   1.973  0.7428 -1.0671  0.8121
 7255SOL     OW23248   2.364   0.079   7.730  0.5103 -0.3277 -0.3793
 7255SOL    HW123249   2.374   0.144   7.799 -1.4119 -1.7887  1.3292
 7255SOL    HW223250   2.451   0.040   7.720  1.0370  0.6168  0.4538
 7256SOL     OW23251   4.932   4.707   2.859 -0.2563 -0.1457  0.6996
 7256SOL    HW123252   4.895   4.637   2.805 -0.1229 -0.1447  0.6087
 7256SOL    HW223253   4.858   4.737   2.912 -0.2212 -0.6207  1.0206
 7257SOL     OW23254   6.675   5.450   3.142 -0.0460  0.2251  0.7907
 7257SOL    HW123255   6.635   5.424   3.059  0.3384 -3.2775  1.6255
 7257SOL    HW223256   6.659   5.376   3.201  2.9524  1.0235  2.7253
 7258SOL     OW23257   0.626   3.902   2.185  0.1998 -0.3094 -0.0068
 7258SOL    HW123258   0.658   3.969   2.245 -0.4214 -0.6444  0.7014
 7258SOL    HW223259   0.654   3.820   2.223  0.1261 -0.5055 -0.3699
 7259SOL     OW23260   6.081   2.535   3.565  0.8332  0.2341 -0.1950
 7259SOL    HW123261   6.123   2.609   3.521  1.4351 -0.0522 -0.1006
 7259SOL    HW223262   6.118   2.536   3.654  2.0029 -1.1086 -0.6492
 7260SOL     OW23263   1.863   3.577   5.329  0.0612 -0.1738 -0.1622
 7260SOL    HW123264   1.894   3.570   5.239  0.0548  1.2150 -0.2827
 7260SOL    HW223265   1.925   3.524   5.379  1.1210  0.4749 -0.7557
 7261SOL     OW23266   1.866   4.900   2.965  0.2531 -0.3120  0.2960
 7261SOL    HW123267   1.838   4.814   2.934 -4.2099  0.7822  1.0263
 7261SOL    HW223268   1.905   4.883   3.051  0.2093 -1.6885  0.0516
 7262SOL     OW23269   4.960   0.336   4.594  0.2379 -0.5510 -0.1795
 7262SOL    HW123270   5.014   0.372   4.664 -0.6266 -0.8215  0.6354
 7262SOL    HW223271   4.932   0.412   4.543  0.1561 -0.2728  0.2796
 7263SOL     OW23272   1.064   1.557   5.691 -0.1387  0.1270  0.2874
 7263SOL    HW123273   0.976   1.522   5.679  0.7598 -1.9713 -0.3541
 7263SOL    HW223274   1.098   1.568   5.602 -0.4524  2.8084  0.4726
 7264SOL     OW23275   4.884   4.378   0.351  0.2589  0.0356  0.1319
 7264SOL    HW123276   4.840   4.400   0.268 -0.7290  0.1565  0.6760
 7264SOL    HW223277   4.972   4.351   0.325 -0.0843 -0.0570 -0.9757
 7265SOL     OW23278   4.953   6.141   4.465 -0.1161  0.6210  0.2994
 7265SOL    HW123279   4.933   6.104   4.379 -0.7662 -0.3230  0.8466
 7265SOL    HW223280   5.047   6.129   4.475 -0.4025 -1.4553  0.7086
 7266SOL     OW23281   4.350   1.000   0.375  0.1976  0.3662  0.1053
 7266SOL    HW123282   4.291   0.926   0.363 -1.8144  1.9824 -0.1759
 7266SOL    HW223283   4.308   1.054   0.441  1.8268  1.0981  0.5715
 7267SOL     OW23284   6.991   2.326   1.928  0.3244 -0.0007 -0.1508
 7267SOL    HW123285   6.899   2.331   1.955  0.1483 -1.5673 -0.4412
 7267SOL    HW223286   6.988   2.322   1.833  0.7793  1.4336 -0.2433
 7268SOL     OW23287   7.668   0.179   4.637  0.4394  0.4773  0.2987
 7268SOL    HW123288   7.680   0.175   4.732  0.0229  0.1971  0.3374
 7268SOL    HW223289   7.578   0.207   4.625 -0.2713 -1.8356 -0.0171
 7269SOL     OW23290   6.270   6.183   1.072 -0.1438  0.0781 -0.2964
 7269SOL    HW123291   6.350   6.156   1.118 -0.9431 -0.0764  1.0282
 7269SOL    HW223292   6.292   6.267   1.032  1.0535 -0.5328 -0.9527
 7270SOL     OW23293   6.338   0.534   5.228  0.1886  0.4379 -1.0774
 7270SOL    HW123294   6.372   0.541   5.139  0.8652 -0.0050 -0.8595
 7270SOL    HW223295   6.335   0.440   5.245  1.8596  0.5734  0.0468
 7271SOL     OW23296   3.914   3.217   3.408  0.2372 -0.5433 -0.2475
 7271SOL    HW123297   3.838   3.275   3.417  0.6014  0.2847 -2.2082
 7271SOL    HW223298   3.989   3.276   3.418  0.6159 -1.0090 -0.3567
 7272SOL     OW23299   1.037   1.250   7.020  0.7038 -0.1616  0.1913
 7272SOL    HW123300   0.982   1.234   6.944 -2.8744  0.5150  2.5172
 7272SOL    HW223301   1.027   1.344   7.037  3.5392  0.2123 -0.0049
 7273SOL     OW23302   2.403   4.464   5.263 -0.3600 -0.0075 -0.5150
 7273SOL    HW123303   2.477   4.426   5.312 -2.2393 -0.7002  1.8939
 7273SOL    HW223304   2.402   4.556   5.289 -0.9573 -0.2298  0.2769
 7274SOL     OW23305   5.455   7.229   3.947 -0.4716 -0.2279  0.1284
 7274SOL    HW123306   5.375   7.282   3.946 -0.2389  0.1135 -0.5720
 7274SOL    HW223307   5.453   7.182   3.864  1.0680  1.2905 -0.7838
 7275SOL     OW23308   1.075   3.431   4.235  0.8491  0.3775  0.0720
 7275SOL    HW123309   1.024   3.430   4.316  0.6878  1.5998  0.0010
 7275SOL    HW223310   1.023   3.484   4.174  3.0784  3.3542  0.6359
 7276SOL     OW23311   6.406   4.394   2.643 -0.4630  0.1494  0.8143
 7276SOL    HW123312   6.326   4.371   2.690  0.5266 -1.3666  1.8103
 7276SOL    HW223313   6.445   4.465   2.695 -0.5113  0.0212  1.0250
 7277SOL     OW23314   2.567   1.940   7.207 -0.4006 -0.6143 -0.0276
 7277SOL    HW123315   2.621   2.018   7.208 -1.1128 -0.1114 -0.2378
 7277SOL    HW223316   2.512   1.950   7.129 -1.7932 -0.4224  0.9696
 7278SOL     OW23317   1.539   2.097   2.064  0.7941 -0.2748  0.0087
 7278SOL    HW123318   1.497   2.013   2.084 -0.0891 -0.2574 -1.6473
 7278SOL    HW223319   1.504   2.121   1.978 -1.0201  3.0918  1.6048
 7279SOL     OW23320   2.368   1.751   7.784 -0.4730 -0.0796  0.6608
 7279SOL    HW123321   2.412   1.832   7.811 -0.1276 -0.6857  1.9166
 7279SOL    HW223322   2.438   1.688   7.772 -0.8421 -0.4968  0.7027
 7280SOL     OW23323   0.515   0.594   3.220  0.2464 -0.1201  0.8532
 7280SOL    HW123324   0.488   0.608   3.130  2.6848 -0.0801  0.1057
 7280SOL    HW223325   0.440   0.623   3.272 -0.4383  1.7283 -1.0855
 7281SOL     OW23326   3.792   8.013   1.795 -0.3513  0.4295  0.2522
 7281SOL    HW123327   3.815   7.943   1.855 -1.0349  1.0913  1.3055
 7281SOL    HW223328   3.720   8.060   1.838  1.8366  3.3937  0.8310
 7282SOL     OW23329   6.320   0.860   3.040 -0.4822 -0.1014  0.0450
 7282SOL    HW123330   6.300   0.888   3.129 -2.0249 -2.6016  0.5458
 7282SOL    HW223331   6.250   0.899   2.987  0.6188  1.6499 -0.1284
 7283SOL     OW23332   2.530   6.348   1.588 -0.1373  0.2544 -0.0568
 7283SOL    HW123333   2.552   6.426   1.538  0.8516  0.1787  0.2545
 7283SOL    HW223334   2.613   6.320   1.627 -0.5537 -0.7384  0.1287
 7284SOL     OW23335   3.916   5.672   5.255  0.2787 -0.3633 -0.2745
 7284SOL    HW123336   3.975   5.739   5.291  1.7508 -1.7192 -0.1014
 7284SOL    HW223337   3.831   5.692   5.293  0.9002  0.8623  0.5103
 7285SOL     OW23338   6.184   3.756   0.445 -0.3445  0.0680 -0.0948
 7285SOL    HW123339   6.229   3.825   0.493  1.0780  0.7273 -2.3019
 7285SOL    HW223340   6.254   3.699   0.413 -1.3735 -1.2715  0.0129
 7286SOL     OW23341   3.164   1.150   2.312 -0.3600 -0.0992 -0.2156
 7286SOL    HW123342   3.087   1.200   2.286 -1.4255 -2.2370 -1.3320
 7286SOL    HW223343   3.128   1.070   2.351  1.2895 -0.3747  0.7698
 7287SOL     OW23344   1.351   4.657   0.598  0.5750  0.0078  0.5155
 7287SOL    HW123345   1.342   4.752   0.607  0.5048  0.0757 -0.2190
 7287SOL    HW223346   1.445   4.643   0.589  0.7001 -0.1268  2.0550
 7288SOL     OW23347   5.597   3.583   3.593 -0.1606 -0.2502  0.3820
 7288SOL    HW123348   5.562   3.547   3.675  0.0976  0.6904  0.9115
 7288SOL    HW223349   5.575   3.517   3.527 -1.7407 -0.3077  0.9315
 7289SOL     OW23350   6.959   8.072   5.281  0.8658 -0.2613 -0.0975
 7289SOL    HW123351   6.919   8.023   5.209 -0.7847  1.2053 -0.2111
 7289SOL    HW223352   7.016   8.009   5.324 -1.0052 -2.2220 -0.4027
 7290SOL     OW23353   3.326   8.041   3.123  0.1039  0.0194  0.1745
 7290SOL    HW123354   3.378   7.973   3.166  0.6859  0.0513 -0.4782
 7290SOL    HW223355   3.259   7.993   3.075  0.5929 -0.1054 -0.3912
 7291SOL     OW23356   2.666   6.997   0.465  0.0760 -0.2199  0.1532
 7291SOL    HW123357   2.753   6.983   0.429  0.3368  0.5833  0.4584
 7291SOL    HW223358   2.635   7.077   0.421 -0.2385 -0.1346  0.5295
 7292SOL     OW23359   8.147   6.417   8.025  0.6266  0.2213 -0.0685
 7292SOL    HW123360   8.142   6.347   7.959 -2.4447 -0.8105  1.1365
 7292SOL    HW223361   8.127   6.497   7.977 -1.9596 -0.5734 -0.4021
 7293SOL     OW23362   7.800   0.911   5.283  0.2560  0.1239 -0.9425
 7293SOL    HW123363   7.722   0.961   5.257 -1.7907 -2.2592  0.3070
 7293SOL    HW223364   7.810   0.845   5.213  0.4891 -0.2615 -0.5489
 7294SOL     OW23365   2.139   4.579   5.786 -0.1205 -0.0291  0.1215
 7294SOL    HW123366   2.197   4.570   5.862 -0.4395  1.2328  0.5200
 7294SOL    HW223367   2.065   4.632   5.818  0.2010  1.3176 -1.3161
 7295SOL     OW23368   4.457   7.915   1.088  0.4428 -0.1398 -0.4091
 7295SOL    HW123369   4.493   7.899   1.001  1.6371 -1.3947  0.3010
 7295SOL    HW223370   4.465   8.009   1.100  0.6155 -0.0069 -1.4981
 7296SOL     OW23371   4.515   3.952   3.899  0.1975 -0.2365  0.0823
 7296SOL    HW123372   4.454   4.020   3.871  0.0600 -0.5878 -0.4781
 7296SOL    HW223373   4.601   3.993   3.892  0.2413 -0.6013 -1.7363
 7297SOL     OW23374   1.916   6.452   0.202  0.4843  0.1366 -0.3642
 7297SOL    HW123375   1.910   6.415   0.290 -1.0120 -0.4322 -0.6885
 7297SOL    HW223376   1.977   6.395   0.156  1.3416  0.4906  0.3225
 7298SOL     OW23377   4.018   5.548   2.632  0.3626  0.0793  0.2440
 7298SOL    HW123378   3.972   5.470   2.661 -0.1110  0.6479  1.0458
 7298SOL    HW223379   3.961   5.621   2.657  0.2389  0.6276 -1.5295
 7299SOL     OW23380   6.051   0.489   3.016 -0.3389 -0.1438  0.2742
 7299SOL    HW123381   6.001   0.464   3.094  0.3057  2.4111  1.5806
 7299SOL    HW223382   6.140   0.457   3.034 -0.6471 -1.3924 -0.3719
 7300SOL     OW23383   3.071   7.391   7.415 -0.0339  0.2790 -0.7812
 7300SOL    HW123384   3.160   7.421   7.435 -0.5534  1.3831 -0.0358
 7300SOL    HW223385   3.074   7.296   7.425  0.9230  0.3666 -0.1955
 7301SOL     OW23386   7.268   7.674   2.998 -0.5334  0.1139  0.5806
 7301SOL    HW123387   7.269   7.742   2.931 -2.1459 -0.0336  0.4043
 7301SOL    HW223388   7.341   7.697   3.056  0.8969  0.2368 -1.1986
 7302SOL     OW23389   0.516   7.577   7.357  0.1127 -0.2763 -0.0932
 7302SOL    HW123390   0.609   7.576   7.338 -0.3041  0.7422 -2.3883
 7302SOL    HW223391   0.477   7.528   7.285 -1.1916 -0.1085  0.4805
 7303SOL     OW23392   5.465   5.981   5.343  0.0376  0.0016  0.1459
 7303SOL    HW123393   5.499   5.980   5.432  2.0283 -2.5467 -0.5916
 7303SOL    HW223394   5.476   5.891   5.312 -1.4336  0.6428 -2.3802
 7304SOL     OW23395   7.812   3.377   1.973  0.0399 -0.2743  0.1873
 7304SOL    HW123396   7.905   3.373   1.951 -0.2224 -1.0449 -0.7678
 7304SOL    HW223397   7.809   3.435   2.050  1.0206  1.7689 -1.2806
 7305SOL     OW23398   7.903   1.465   4.669 -0.0686 -0.3009 -0.1672
 7305SOL    HW123399   7.910   1.560   4.666  1.6636 -0.4398 -0.9142
 7305SOL    HW223400   7.981   1.436   4.716 -0.3373 -1.3845 -0.3715
 7306SOL     OW23401   6.848   7.648   7.796  0.4603 -0.4758 -0.0115
 7306SOL    HW123402   6.813   7.638   7.885 -0.8722  1.5270 -0.2763
 7306SOL    HW223403   6.788   7.597   7.741 -0.0009  0.0795 -0.0280
 7307SOL     OW23404   8.212   5.212   6.691  0.1509  0.4020  0.1576
 7307SOL    HW123405   8.180   5.150   6.625 -1.2382  0.4588  0.7510
 7307SOL    HW223406   8.176   5.296   6.665  1.8249  0.9390 -0.4997
 7308SOL     OW23407   4.106   0.080   3.731  0.2321 -0.8036  0.2787
 7308SOL    HW123408   4.179   0.141   3.723 -1.0238  0.5716 -0.9391
 7308SOL    HW223409   4.081   0.061   3.641 -0.8958 -1.3030  0.6920
 7309SOL     OW23410   0.473   1.023   2.602  0.4493  1.0996  0.0349
 7309SOL    HW123411   0.420   1.095   2.568 -1.5090  0.1088  0.9232
 7309SOL    HW223412   0.528   1.063   2.669  1.5702  2.3282 -1.5892
 7310SOL     OW23413   5.932   6.402   2.268 -0.2460 -0.7423 -0.7356
 7310SOL    HW123414   5.845   6.435   2.243 -1.5128 -1.5556  2.2849
 7310SOL    HW223415   5.957   6.344   2.196 -1.8082  0.1919 -2.0787
 7311SOL     OW23416   3.489   6.779   4.696 -0.2921 -0.5274 -0.2315
 7311SOL    HW123417   3.518   6.861   4.736  1.6813 -1.2013 -0.2524
 7311SOL    HW223418   3.396   6.795   4.675 -0.0266  1.5919  0.0304
 7312SOL     OW23419   0.096   4.909   3.383  0.0813 -0.0742 -0.1946
 7312SOL    HW123420   0.011   4.922   3.341  0.7329  2.8204 -0.7208
 7312SOL    HW223421   0.152   4.977   3.346  2.5633 -1.7097  0.4052
 7313SOL     OW23422   1.023   3.568   3.197 -0.4051 -0.2158  0.7898
 7313SOL    HW123423   0.962   3.638   3.217  0.9819  0.7401  1.8156
 7313SOL    HW223424   1.090   3.609   3.142 -0.8556 -1.3314 -0.6311
 7314SOL     OW23425   8.206   6.973   8.053  0.7524 -0.1901 -0.1164
 7314SOL    HW123426   8.200   6.881   8.076 -1.1028 -0.3011 -0.9729
 7314SOL    HW223427   8.264   6.975   7.976  1.1155 -0.5857  0.1472
 7315SOL     OW23428   6.233   6.754   1.674 -0.5743  0.5138 -0.1947
 7315SOL    HW123429   6.190   6.839   1.664  0.4008  0.9743 -0.6061
 7315SOL    HW223430   6.321   6.777   1.706 -0.0016 -0.2842 -1.1879
 7316SOL     OW23431   1.542   3.124   0.147 -0.3152  0.1585 -0.1298
 7316SOL    HW123432   1.483   3.062   0.104  1.4406 -0.7556 -1.3022
 7316SOL    HW223433   1.510   3.210   0.121  0.4006 -0.3684 -2.8961
 7317SOL     OW23434   6.836   3.583   1.452 -0.8430 -0.1734  0.0566
 7317SOL    HW123435   6.840   3.645   1.525 -0.9570  0.0929 -0.1656
 7317SOL    HW223436   6.745   3.554   1.450 -1.5361  1.9511 -1.7580
 7318SOL     OW23437   6.222   2.072   2.211 -0.4882 -0.0484 -0.0743
 7318SOL    HW123438   6.279   2.014   2.261  0.3225  0.7890 -0.0308
 7318SOL    HW223439   6.189   2.134   2.276  0.1933  0.7497 -0.4850
 7319SOL     OW23440   5.561   7.025   1.987 -0.3008 -0.2060 -0.5163
 7319SOL    HW123441   5.512   7.105   1.973 -0.2169  0.0562  0.5998
 7319SOL    HW223442   5.498   6.954   1.971 -0.3240  0.0757 -1.6717
 7320SOL     OW23443   6.621   0.100   2.368 -0.1176 -0.2754 -0.1581
 7320SOL    HW123444   6.576   0.018   2.350 -0.9335 -0.0797  0.9442
 7320SOL    HW223445   6.681   0.080   2.440 -1.8758  0.5865  1.5960
 7321SOL     OW23446   0.831   6.869   2.594 -0.4866  0.2513  0.0832
 7321SOL    HW123447   0.802   6.951   2.555  0.8519  1.6700  1.9506
 7321SOL    HW223448   0.891   6.831   2.530 -1.5635  0.4444 -1.0399
 7322SOL     OW23449   5.938   3.220   4.645  0.0685 -0.0961  0.4238
 7322SOL    HW123450   5.890   3.179   4.717  2.5179 -2.3825  0.8728
 7322SOL    HW223451   6.014   3.163   4.633  0.1572  0.7305 -3.4218
 7323SOL     OW23452   8.000   4.111   3.545  0.6800 -0.2437 -0.6230
 7323SOL    HW123453   8.006   4.035   3.487 -0.9922 -0.3316 -0.7220
 7323SOL    HW223454   7.996   4.075   3.633  2.0487 -0.1646 -0.5237
 7324SOL     OW23455   3.207   6.265   1.746  0.1485  0.5726  0.6244
 7324SOL    HW123456   3.294   6.264   1.786  0.1305  2.4639  0.7508
 7324SOL    HW223457   3.164   6.186   1.779  1.3366  0.3370  1.6339
 7325SOL     OW23458   6.901   8.159   3.945  0.0746 -0.1077 -0.2559
 7325SOL    HW123459   6.812   8.182   3.971  0.3136 -0.4445  0.9275
 7325SOL    HW223460   6.924   8.222   3.878  0.1562  2.1731  1.8389
 7326SOL     OW23461   1.858   6.251   3.328 -0.4289  0.2112  0.2675
 7326SOL    HW123462   1.948   6.279   3.346 -0.3526  0.7208 -0.8638
 7326SOL    HW223463   1.866   6.162   3.295 -0.4168 -0.0488  0.9607
 7327SOL     OW23464   1.266   7.727   1.817 -0.1978 -0.3034  0.3170
 7327SOL    HW123465   1.359   7.716   1.794 -0.6369 -0.5966 -1.3556
 7327SOL    HW223466   1.265   7.720   1.912  1.6086  0.4222  0.4251
 7328SOL     OW23467   0.837   3.421   0.294 -0.7808 -0.0144  0.5458
 7328SOL    HW123468   0.868   3.512   0.297  2.4195 -1.0395  0.0871
 7328SOL    HW223469   0.750   3.425   0.335 -0.5244  3.1698  0.9540
 7329SOL     OW23470   3.003   6.028   0.737  0.5880 -0.9494 -0.3411
 7329SOL    HW123471   2.997   5.944   0.691  0.4844 -0.0900 -1.9429
 7329SOL    HW223472   3.067   6.013   0.806  0.9996 -2.1988 -0.9834
 7330SOL     OW23473   4.586   3.234   5.130 -0.3951  0.2678  0.2808
 7330SOL    HW123474   4.665   3.248   5.078 -0.4559  0.7191  0.3069
 7330SOL    HW223475   4.601   3.152   5.176 -0.0444  0.2278  0.0921
 7331SOL     OW23476   0.494   8.199   4.898  0.2478  0.4656  0.4144
 7331SOL    HW123477   0.567   8.204   4.837 -1.5704 -1.5189 -2.0098
 7331SOL    HW223478   0.423   8.248   4.856 -0.0895  1.7567  2.3993
 7332SOL     OW23479   3.542   3.988   1.123 -0.2291  0.0815 -0.1609
 7332SOL    HW123480   3.582   3.978   1.210 -0.4115 -0.6146 -0.1493
 7332SOL    HW223481   3.520   4.081   1.117  0.2474  0.2296  0.3357
 7333SOL     OW23482   3.734   6.779   3.424  0.0659  0.5155  0.3044
 7333SOL    HW123483   3.807   6.749   3.371 -1.5491 -1.7777 -0.6893
 7333SOL    HW223484   3.737   6.725   3.503 -0.8097  0.1301  0.0757
 7334SOL     OW23485   0.078   3.009   3.323  0.4022  0.0162  0.0023
 7334SOL    HW123486   0.063   3.101   3.301 -2.6355 -0.4374 -0.0298
 7334SOL    HW223487   0.007   2.962   3.280  0.6475 -2.1197  1.8301
 7335SOL     OW23488   3.290   5.235   3.411 -0.3548 -0.4815  0.3875
 7335SOL    HW123489   3.358   5.197   3.356  0.3657 -0.0245  0.9643
 7335SOL    HW223490   3.250   5.303   3.356 -0.7244 -1.1187 -0.1446
 7336SOL     OW23491   0.742   7.981   0.774  0.2699  0.2185  0.0764
 7336SOL    HW123492   0.681   7.965   0.703 -0.9822  0.5286  1.0770
 7336SOL    HW223493   0.739   8.076   0.787  3.3765  0.6714 -2.0115
 7337SOL     OW23494   5.232   2.672   4.618 -0.1220  0.0724  0.4706
 7337SOL    HW123495   5.149   2.634   4.588 -0.1192 -0.0493  0.6143
 7337SOL    HW223496   5.220   2.683   4.712 -0.3338  0.9581  0.3378
 7338SOL     OW23497   8.225   1.465   0.733  0.1574 -1.1295  0.4872
 7338SOL    HW123498   8.285   1.437   0.664 -1.0465 -1.0123 -0.6293
 7338SOL    HW223499   8.277   1.522   0.789  0.3990  1.2097 -2.0026
 7339SOL     OW23500   0.843   4.819   0.364 -0.1878 -0.2392  0.1971
 7339SOL    HW123501   0.766   4.800   0.311  0.9266 -2.7655 -0.6227
 7339SOL    HW223502   0.871   4.906   0.337 -0.8256 -0.6629 -1.9100
 7340SOL     OW23503   7.455   5.924   4.967 -0.1953 -0.2458  0.1541
 7340SOL    HW123504   7.442   5.899   5.059  0.9952  0.6351  0.5805
 7340SOL    HW223505   7.399   6.001   4.956 -2.5156 -1.9878 -0.6735
 7341SOL     OW23506   4.255   3.657   3.120  0.0171 -0.0292 -0.3431
 7341SOL    HW123507   4.320   3.724   3.141 -0.2818  0.3134 -0.5039
 7341SOL    HW223508   4.301   3.598   3.060  0.4524 -0.2743  0.2306
 7342SOL     OW23509   3.377   0.099   6.737  0.2179  0.2662  0.4866
 7342SOL    HW123510   3.439   0.119   6.667 -2.2149  4.6848 -0.5752
 7342SOL    HW223511   3.366   0.004   6.733  2.1815  0.1062 -3.3065
 7343SOL     OW23512   3.615   2.476   1.088  0.5692 -0.0357 -0.6416
 7343SOL    HW123513   3.555   2.490   1.161  0.2530 -0.9055 -0.7241
 7343SOL    HW223514   3.592   2.389   1.055  3.1301 -1.1730  0.5005
 7344SOL     OW23515   4.850   2.057   7.240  0.2710 -0.3785 -0.3422
 7344SOL    HW123516   4.900   2.137   7.229  3.1101 -2.1558 -0.9227
 7344SOL    HW223517   4.813   2.039   7.153  1.9307 -1.1346 -0.9115
 7345SOL     OW23518   1.897   4.262   2.008  0.0244  0.2209  0.2771
 7345SOL    HW123519   1.845   4.324   2.059  0.3782 -0.4074  1.4088
 7345SOL    HW223520   1.837   4.232   1.939 -0.5334  0.8803  0.4637
 7346SOL     OW23521   8.267   4.379   1.775 -0.5243 -0.1950  0.1978
 7346SOL    HW123522   8.286   4.468   1.745  1.4543 -1.2877 -1.9891
 7346SOL    HW223523   8.198   4.348   1.715  1.2961 -1.3247 -1.3855
 7347SOL     OW23524   2.819   3.681   3.271  0.1912  0.1238 -0.3726
 7347SOL    HW123525   2.764   3.684   3.350  0.1948 -1.0190 -0.3087
 7347SOL    HW223526   2.881   3.752   3.282 -0.0488  0.2117  0.4831
 7348SOL     OW23527   0.238   7.470   5.075  0.3900 -0.4272 -0.1517
 7348SOL    HW123528   0.255   7.432   4.989 -0.2085 -0.9292 -0.0511
 7348SOL    HW223529   0.144   7.460   5.087  0.6103 -1.2452  0.9787
 7349SOL     OW23530   7.173   6.906   6.249  0.2209 -0.4424 -0.1533
 7349SOL    HW123531   7.211   6.967   6.186  0.1460  0.1076  0.3245
 7349SOL    HW223532   7.177   6.952   6.333 -2.9435  0.3029 -0.3317
 7350SOL     OW23533   7.085   7.410   2.672  0.6527 -0.5996  0.2142
 7350SOL    HW123534   7.167   7.425   2.626  0.5138 -0.5615 -0.0244
 7350SOL    HW223535   7.106   7.423   2.764  0.4844  1.3020  0.0082
 7351SOL     OW23536   8.026   5.010   2.159  0.0207 -0.8721  0.5234
 7351SOL    HW123537   8.033   4.945   2.230  1.0076 -0.5080  0.7708
 7351SOL    HW223538   8.036   5.094   2.203 -0.8364 -0.5701  0.1416
 7352SOL     OW23539   1.899   8.168   2.794  0.1532 -0.6279 -0.3330
 7352SOL    HW123540   1.923   8.249   2.839  1.3776  0.6571 -3.1885
 7352SOL    HW223541   1.980   8.117   2.792 -0.1275 -1.0819 -0.2838
 7353SOL     OW23542   0.100   7.298   8.157  0.3600  0.1250 -0.1034
 7353SOL    HW123543   0.038   7.264   8.221 -0.3996  1.2376 -0.2208
 7353SOL    HW223544   0.071   7.388   8.142  1.3921  0.3287 -0.9352
 7354SOL     OW23545   1.367   0.709   4.932 -0.2201 -0.4755 -0.1204
 7354SOL    HW123546   1.303   0.722   4.862 -0.9804 -1.3872  0.3985
 7354SOL    HW223547   1.321   0.732   5.012  1.0458  1.8122 -0.0196
 7355SOL     OW23548   2.201   8.162   2.017 -0.3126  0.3708 -0.0032
 7355SOL    HW123549   2.268   8.097   2.039  0.2687  0.9538 -0.0358
 7355SOL    HW223550   2.198   8.160   1.921 -0.5073  0.1799  0.0067
 7356SOL     OW23551   5.629   4.375   5.815  0.1061 -0.4936 -0.9207
 7356SOL    HW123552   5.634   4.294   5.865 -0.7732 -0.5243 -0.8702
 7356SOL    HW223553   5.564   4.429   5.862  1.1486  0.4948 -0.5913
 7357SOL     OW23554   7.429   1.959   5.252 -0.2701 -0.4920  0.2143
 7357SOL    HW123555   7.362   1.948   5.318  0.5617  1.1257  1.3573
 7357SOL    HW223556   7.507   1.917   5.289 -0.9370 -3.5632 -1.6677
 7358SOL     OW23557   7.071   6.674   7.667 -0.3687 -0.2751 -0.7116
 7358SOL    HW123558   7.032   6.745   7.719 -0.0499 -1.5667  1.2965
 7358SOL    HW223559   7.095   6.717   7.584 -2.3317  1.4454 -0.4465
 7359SOL     OW23560   1.651   3.673   7.629 -0.0557  0.1055  0.1418
 7359SOL    HW123561   1.696   3.736   7.685 -0.5413  0.3448  0.2562
 7359SOL    HW223562   1.600   3.619   7.689 -0.2955  0.1318 -0.0386
 7360SOL     OW23563   1.404   0.923   2.322 -0.3322  0.0682  0.0592
 7360SOL    HW123564   1.477   0.959   2.372  0.5386 -2.1134  0.3896
 7360SOL    HW223565   1.326   0.946   2.373  0.3877 -0.3239  1.3528
 7361SOL     OW23566   3.401   5.422   1.087 -0.0321  0.1408 -0.4812
 7361SOL    HW123567   3.407   5.504   1.137  1.0021 -0.0738 -0.2487
 7361SOL    HW223568   3.332   5.372   1.131 -2.0903  1.7186 -1.8461
 7362SOL     OW23569   6.786   6.398   3.359 -0.4915  0.2772 -0.3471
 7362SOL    HW123570   6.770   6.483   3.399 -2.8986 -0.9300  1.4005
 7362SOL    HW223571   6.733   6.400   3.278  0.3419  0.8287 -0.8887
 7363SOL     OW23572   0.937   0.633   3.989 -0.1344  0.2161 -0.0481
 7363SOL    HW123573   1.002   0.702   4.002 -0.1700  0.3917 -0.7963
 7363SOL    HW223574   0.910   0.642   3.898 -0.5631 -0.4191  0.0131
 7364SOL     OW23575   8.002   6.404   6.008  0.2972  0.2784 -0.4538
 7364SOL    HW123576   8.045   6.341   5.950 -0.9690 -0.6248 -0.4297
 7364SOL    HW223577   7.909   6.394   5.989 -0.1708 -0.2906  1.9786
 7365SOL     OW23578   2.437   4.602   3.134 -0.0312  0.6633  0.8146
 7365SOL    HW123579   2.407   4.556   3.212  0.3886 -0.6469  0.2140
 7365SOL    HW223580   2.359   4.650   3.104 -1.1127 -1.4042  0.2101
 7366SOL     OW23581   1.096   6.625   6.478 -0.5922 -0.5610 -0.0342
 7366SOL    HW123582   1.015   6.620   6.530  0.8914 -1.4281  2.2950
 7366SOL    HW223583   1.082   6.565   6.406 -1.9284 -0.9256  0.5109
 7367SOL     OW23584   7.909   8.064   1.172  0.0453 -0.0940 -0.5491
 7367SOL    HW123585   7.942   8.048   1.083 -0.1937  2.2504 -1.0942
 7367SOL    HW223586   7.842   8.131   1.160 -2.0389 -1.8421  1.0651
 7368SOL     OW23587   2.718   7.590   5.961 -0.0582  0.4757 -0.3546
 7368SOL    HW123588   2.651   7.548   5.908  0.3799 -0.7543  0.0442
 7368SOL    HW223589   2.786   7.523   5.970  0.5853  1.2286  0.4045
 7369SOL     OW23590   2.227   2.274   4.226 -0.0171  0.1422 -0.1485
 7369SOL    HW123591   2.146   2.232   4.196  0.1940 -1.9440  2.0219
 7369SOL    HW223592   2.294   2.206   4.215  0.5672  0.2546  2.3293
 7370SOL     OW23593   4.136   2.607   1.018 -0.2726 -0.9479 -0.0876
 7370SOL    HW123594   4.041   2.602   1.004 -0.3911 -1.6609  0.9299
 7370SOL    HW223595   4.156   2.533   1.075  0.6693  0.0385  0.8849
 7371SOL     OW23596   4.159   2.837   7.960 -0.2765 -0.4236 -0.2871
 7371SOL    HW123597   4.103   2.789   8.021 -2.0631  0.2153 -1.4130
 7371SOL    HW223598   4.214   2.769   7.920 -1.8653 -1.3693 -0.8875
 7372SOL     OW23599   7.533   3.059   1.370  0.2851 -0.2529 -0.0187
 7372SOL    HW123600   7.581   3.076   1.289  0.8165 -1.5294  0.0118
 7372SOL    HW223601   7.454   3.012   1.342  1.1689 -1.9780  0.3162
 7373SOL     OW23602   8.299   3.181   1.467 -0.0944 -0.0454  0.1537
 7373SOL    HW123603   8.298   3.247   1.397  0.9323 -2.9538 -2.7643
 7373SOL    HW223604   8.207   3.156   1.477 -0.1462 -0.3721 -0.9887
 7374SOL     OW23605   0.868   8.292   3.237  0.3260 -0.2168  0.1066
 7374SOL    HW123606   0.838   8.376   3.203 -1.1171 -1.1074 -0.9242
 7374SOL    HW223607   0.810   8.274   3.311  0.5019 -0.4048  0.1990
 7375SOL     OW23608   2.762   1.669   6.280  0.2507 -0.8684 -0.0787
 7375SOL    HW123609   2.751   1.764   6.273  1.6897 -0.8838 -3.0631
 7375SOL    HW223610   2.695   1.643   6.343 -1.7059  1.8378 -0.9123
 7376SOL     OW23611   3.209   0.699   8.007 -0.4310  0.2142 -0.0935
 7376SOL    HW123612   3.189   0.739   7.922  0.0721 -1.0360 -0.8063
 7376SOL    HW223613   3.246   0.614   7.986 -0.2209 -0.0796  1.3884
 7377SOL     OW23614   6.697   2.766   4.868  0.2932 -0.1650  0.5320
 7377SOL    HW123615   6.603   2.757   4.854  0.1281  1.0391  0.8336
 7377SOL    HW223616   6.726   2.828   4.801  0.9341 -0.7746  0.2309
 7378SOL     OW23617   8.274   4.158   4.025  0.2296 -0.5477 -0.1398
 7378SOL    HW123618   8.251   4.179   4.116  0.9060 -0.1382 -0.0600
 7378SOL    HW223619   8.229   4.075   4.008  0.6602 -0.9873  0.8020
 7379SOL     OW23620   5.797   3.502   8.249 -0.0732 -0.7260 -0.4351
 7379SOL    HW123621   5.846   3.431   8.291  0.9121  0.5580  0.6150
 7379SOL    HW223622   5.864   3.559   8.212 -0.7641  0.8667  0.7116
 7380SOL     OW23623   3.940   4.839   7.775  0.3947 -0.0178 -0.2863
 7380SOL    HW123624   3.852   4.802   7.777  0.1690  0.5510  0.9701
 7380SOL    HW223625   3.988   4.790   7.842  0.6707  0.5334 -0.0764
 7381SOL     OW23626   2.620   1.587   1.691 -0.0770  0.0345 -0.0574
 7381SOL    HW123627   2.545   1.536   1.660  0.0267  0.5404 -1.1838
 7381SOL    HW223628   2.674   1.599   1.613  0.3031  1.1635  0.3709
 7382SOL     OW23629   0.034   6.191   2.844 -0.2554 -0.1331 -0.5525
 7382SOL    HW123630  -0.033   6.260   2.850 -0.1176 -0.2201  3.7416
 7382SOL    HW223631   0.117   6.237   2.854 -0.0837 -0.7461  0.9080
 7383SOL     OW23632   1.649   4.127   1.707 -0.4638 -0.0844  0.3618
 7383SOL    HW123633   1.669   4.220   1.719 -0.0055  0.0088 -1.0201
 7383SOL    HW223634   1.595   4.104   1.782 -3.3315  2.1245 -0.9163
 7384SOL     OW23635   3.747   6.019   5.355  0.4086  0.5700 -0.1008
 7384SOL    HW123636   3.779   5.992   5.269  0.2152 -1.5361  0.4829
 7384SOL    HW223637   3.677   6.082   5.335  0.5679  0.3421 -1.4701
 7385SOL     OW23638   5.820   4.537   8.228 -0.0716  0.4420  0.1902
 7385SOL    HW123639   5.888   4.503   8.170 -1.7045 -2.0436 -0.3834
 7385SOL    HW223640   5.862   4.545   8.314  0.7663 -1.8936  0.0345
 7386SOL     OW23641   3.199   5.567   6.348  0.4228  0.3946 -0.1770
 7386SOL    HW123642   3.232   5.585   6.436 -2.4619  0.3013  0.9741
 7386SOL    HW223643   3.106   5.547   6.360  0.1902 -0.6249 -3.1383
 7387SOL     OW23644   5.781   5.992   3.258 -0.1519 -0.8698 -0.4396
 7387SOL    HW123645   5.819   5.946   3.183 -1.2152 -1.4736 -0.6111
 7387SOL    HW223646   5.857   6.024   3.307  0.6423  2.9624 -3.8085
 7388SOL     OW23647   6.665   3.710   6.045 -1.0906 -0.9406  0.6225
 7388SOL    HW123648   6.719   3.725   5.967 -1.6350 -0.3067  0.3699
 7388SOL    HW223649   6.715   3.646   6.097 -0.3568 -0.7625  0.1320
 7389SOL     OW23650   2.133   6.456   5.564 -0.2383  0.3431  0.1393
 7389SOL    HW123651   2.107   6.441   5.474  0.0480 -1.0424  0.2822
 7389SOL    HW223652   2.224   6.427   5.568  0.4573  2.4061  0.3637
 7390SOL     OW23653   2.005   3.843   7.090  0.5585  0.2813  0.1191
 7390SOL    HW123654   2.016   3.770   7.150  1.1586 -0.3537 -0.7595
 7390SOL    HW223655   1.912   3.845   7.071  0.2267  1.0521  1.7808
 7391SOL     OW23656   4.013   1.694   2.030  0.4079 -0.7170  0.4425
 7391SOL    HW123657   4.001   1.630   2.100  0.5846 -1.0964  0.1232
 7391SOL    HW223658   4.066   1.763   2.070  0.5569 -0.9607  0.6631
 7392SOL     OW23659   6.144   2.778   0.836 -0.3690 -0.3996 -0.9607
 7392SOL    HW123660   6.186   2.692   0.843  2.1723  0.8541  0.0666
 7392SOL    HW223661   6.192   2.821   0.765  0.3236  1.1655  0.4163
 7393SOL     OW23662   4.557   4.127   6.072  0.5734  0.0822  0.4805
 7393SOL    HW123663   4.547   4.035   6.098 -1.7626  0.6068  1.4675
 7393SOL    HW223664   4.516   4.132   5.986  2.7505 -0.2690 -0.6185
 7394SOL     OW23665   7.332   5.969   3.952 -0.2430 -0.3469 -0.3154
 7394SOL    HW123666   7.408   5.991   4.005 -1.0098 -2.4732  1.7927
 7394SOL    HW223667   7.355   5.996   3.863  2.4285  0.2294  0.5122
 7395SOL     OW23668   8.301   2.969   6.312  0.2874 -0.3234 -0.2128
 7395SOL    HW123669   8.229   2.907   6.305 -1.4054  1.7067 -1.4350
 7395SOL    HW223670   8.263   3.046   6.353  1.9855  0.4495 -0.0216
 7396SOL     OW23671   5.062   1.747   1.922  0.1514 -0.0762 -0.5634
 7396SOL    HW123672   4.983   1.791   1.954  0.7870  0.1714  0.6868
 7396SOL    HW223673   5.133   1.808   1.941  1.1032 -1.7736  1.5412
 7397SOL     OW23674   8.302   5.584   2.148 -0.8903  0.6302  0.6112
 7397SOL    HW123675   8.391   5.605   2.120 -0.9361  0.8787  0.6487
 7397SOL    HW223676   8.249   5.597   2.069 -0.7550 -0.4795  0.3260
 7398SOL     OW23677   8.237   6.764   0.805 -0.0472  0.5525  0.3324
 7398SOL    HW123678   8.280   6.721   0.731  0.1454  1.8853 -0.3497
 7398SOL    HW223679   8.154   6.718   0.814  0.2554 -0.1265 -0.2190
 7399SOL     OW23680   0.443   2.032   4.337 -0.0961  0.4151  0.4713
 7399SOL    HW123681   0.462   1.948   4.297 -0.3623 -0.3757  1.9936
 7399SOL    HW223682   0.459   2.096   4.267  0.4663 -0.8535 -0.5722
 7400SOL     OW23683   1.843   0.773   8.290  0.3385 -0.3916 -0.0847
 7400SOL    HW123684   1.850   0.768   8.386  2.5675 -2.2879 -0.3140
 7400SOL    HW223685   1.812   0.686   8.264  3.2536 -1.1237 -1.3223
 7401SOL     OW23686   8.017   0.675   0.275  0.2347  0.2444 -0.3251
 7401SOL    HW123687   8.021   0.627   0.358 -1.9891  0.9274  0.2037
 7401SOL    HW223688   8.106   0.669   0.240  0.0406 -4.4720 -0.4051
 7402SOL     OW23689   5.624   5.120   2.446  0.5370  0.1093  0.8042
 7402SOL    HW123690   5.552   5.161   2.398  0.9586  0.9600  0.8785
 7402SOL    HW223691   5.580   5.065   2.512 -0.0347 -1.3022 -0.7239
 7403SOL     OW23692   5.164   5.046   0.611 -0.9679  0.7770  0.0638
 7403SOL    HW123693   5.195   5.029   0.522 -0.8742 -0.2672  0.2935
 7403SOL    HW223694   5.125   5.134   0.606  0.3509  1.3337 -0.6601
 7404SOL     OW23695   5.171   7.158   1.912 -0.1617  0.4489 -0.4046
 7404SOL    HW123696   5.093   7.107   1.890  0.5158  0.0146 -1.8492
 7404SOL    HW223697   5.240   7.092   1.926 -0.1431  0.8072  1.2814
 7405SOL     OW23698   0.227   6.443   4.541  0.2543 -0.0396  0.9974
 7405SOL    HW123699   0.187   6.519   4.583 -0.4349 -0.0146  0.2998
 7405SOL    HW223700   0.313   6.473   4.512  0.2254  0.3014  1.2644
 7406SOL     OW23701   1.287   2.069   5.826 -0.3756  0.2834 -0.4366
 7406SOL    HW123702   1.267   2.113   5.744 -4.5005 -0.6270 -0.0059
 7406SOL    HW223703   1.280   2.138   5.892  2.3263  0.8760 -0.6860
 7407SOL     OW23704   2.624   4.543   0.114  0.0409  0.2145  0.1226
 7407SOL    HW123705   2.711   4.521   0.147 -0.1262  0.1953  0.5544
 7407SOL    HW223706   2.587   4.459   0.085 -0.5838 -0.0862  1.7402
 7408SOL     OW23707   6.549   3.691   5.301 -0.0193  0.0998 -0.4964
 7408SOL    HW123708   6.486   3.697   5.372  2.5490  0.9979  1.8176
 7408SOL    HW223709   6.509   3.632   5.237 -2.2250 -1.0399  1.8657
 7409SOL     OW23710   2.557   1.977   0.416 -0.1416 -0.2660  0.1647
 7409SOL    HW123711   2.545   1.941   0.504  1.9315  1.9685  1.4110
 7409SOL    HW223712   2.591   1.903   0.365  0.4193 -1.0931  1.6897
 7410SOL     OW23713   0.987   2.562   0.233 -0.0663  0.3037 -0.1271
 7410SOL    HW123714   1.059   2.571   0.171 -1.1471 -0.1352 -1.4780
 7410SOL    HW223715   1.023   2.592   0.316  2.3788 -2.1403 -0.2514
 7411SOL     OW23716   0.004   0.501   4.598 -0.0604 -0.7956 -0.5759
 7411SOL    HW123717   0.044   0.419   4.570  2.3329 -0.5842  2.0717
 7411SOL    HW223718   0.075   0.566   4.592 -0.8896  0.2927  0.9485
 7412SOL     OW23719   4.764   1.518   0.439  0.1250  0.1998  0.2981
 7412SOL    HW123720   4.729   1.429   0.437 -1.6016  0.8736 -0.6465
 7412SOL    HW223721   4.844   1.511   0.491 -0.4247 -1.7392  0.9345
 7413SOL     OW23722   1.611   6.420   3.768  0.2513 -0.5224  0.3010
 7413SOL    HW123723   1.576   6.385   3.686 -0.4221  0.6951  0.0540
 7413SOL    HW223724   1.597   6.514   3.762  2.4871 -0.1187  0.7238
 7414SOL     OW23725   6.344   1.581   1.915 -0.2928 -0.4443  0.1837
 7414SOL    HW123726   6.333   1.487   1.929  2.3817 -0.5384  1.8965
 7414SOL    HW223727   6.332   1.620   2.002 -1.3875  0.8254 -0.5138
 7415SOL     OW23728   3.964   5.854   7.152  0.1196  0.1717 -0.0695
 7415SOL    HW123729   4.028   5.915   7.117  1.2698 -0.9745 -0.0021
 7415SOL    HW223730   4.013   5.802   7.216 -1.3116  0.4747  1.3100
 7416SOL     OW23731   7.813   5.648   1.405  0.1623 -1.0346  0.3281
 7416SOL    HW123732   7.834   5.640   1.312  2.2176  0.4118  0.6424
 7416SOL    HW223733   7.879   5.594   1.449 -0.2674 -1.0131  1.0069
 7417SOL     OW23734   4.742   3.570   1.638 -0.0766  0.3047 -0.7853
 7417SOL    HW123735   4.726   3.613   1.722  0.8925  0.9436 -0.9211
 7417SOL    HW223736   4.667   3.594   1.584 -0.4284  0.3517 -0.2787
 7418SOL     OW23737   3.763   1.200   5.260  0.1310  0.1962 -0.1515
 7418SOL    HW123738   3.740   1.241   5.177 -0.5105 -1.1072 -0.6388
 7418SOL    HW223739   3.697   1.231   5.321  0.1420  0.5440 -0.3164
 7419SOL     OW23740   0.509   1.348   3.042 -0.3005 -0.4838 -0.0133
 7419SOL    HW123741   0.442   1.359   2.974  2.2830  1.6368 -2.2925
 7419SOL    HW223742   0.521   1.253   3.047 -1.8540 -0.7766 -1.1575
 7420SOL     OW23743   1.847   0.232   7.930  0.3485 -0.0811 -0.5227
 7420SOL    HW123744   1.922   0.291   7.925  0.1273  0.1859 -0.7632
 7420SOL    HW223745   1.815   0.241   8.019 -0.0627  0.6441 -0.7330
 7421SOL     OW23746   7.915   3.351   0.323 -0.2991  0.1932  0.4475
 7421SOL    HW123747   7.821   3.365   0.314 -0.2697 -0.1171 -0.3673
 7421SOL    HW223748   7.954   3.410   0.259  0.0787  0.4941  0.9463
 7422SOL     OW23749   8.063   6.168   7.555 -0.0688  0.6421  0.0989
 7422SOL    HW123750   8.128   6.119   7.505  0.7004 -1.0594  2.6623
 7422SOL    HW223751   7.989   6.108   7.563 -0.4787  1.1821  0.4047
 7423SOL     OW23752   0.035   2.894   1.520  0.1738 -0.0314 -0.3906
 7423SOL    HW123753   0.041   2.987   1.543 -2.4966 -0.0135  0.3781
 7423SOL    HW223754  -0.052   2.867   1.550  1.2178 -3.0011  0.1402
 7424SOL     OW23755   8.213   6.719   7.561 -0.4540  0.2240  0.2029
 7424SOL    HW123756   8.171   6.780   7.500 -0.0945  0.6035  0.3324
 7424SOL    HW223757   8.194   6.633   7.525  0.3914  0.4706 -0.8707
 7425SOL     OW23758   3.917   5.155   4.777  0.2908  0.1844 -0.2209
 7425SOL    HW123759   4.005   5.143   4.743  0.6268  0.7621  0.4285
 7425SOL    HW223760   3.926   5.222   4.845 -0.4476 -0.6173  0.6922
 7426SOL     OW23761   8.046   1.984   2.116 -0.1812  0.2182 -0.0511
 7426SOL    HW123762   8.044   1.899   2.159 -1.1943 -0.1884 -0.8586
 7426SOL    HW223763   7.964   1.987   2.065  0.4592  1.1330 -1.0596
 7427SOL     OW23764   5.200   3.878   5.423  0.3229 -0.5994  0.1411
 7427SOL    HW123765   5.287   3.855   5.456  0.5772  0.9732  0.6294
 7427SOL    HW223766   5.181   3.813   5.356  1.8641 -0.9883  0.0759
 7428SOL     OW23767   3.127   2.302   2.374 -0.1443 -0.7770 -0.2161
 7428SOL    HW123768   3.180   2.273   2.300 -1.3669 -0.0554 -1.3864
 7428SOL    HW223769   3.056   2.238   2.379  1.6557 -2.6959  2.3635
 7429SOL     OW23770   6.291   3.555   6.069 -0.1954  0.6192  0.4003
 7429SOL    HW123771   6.333   3.527   6.151  1.6736 -0.0024 -0.7147
 7429SOL    HW223772   6.243   3.477   6.039  1.0246  0.0969 -0.2446
 7430SOL     OW23773   2.277   7.149   1.487 -0.0489  0.1472  0.4517
 7430SOL    HW123774   2.341   7.077   1.491 -0.5879 -0.4125 -0.8908
 7430SOL    HW223775   2.246   7.149   1.397 -1.3182  0.9804  0.8752
 7431SOL     OW23776   3.183   1.550   3.147 -0.0652  0.5216 -0.5617
 7431SOL    HW123777   3.097   1.536   3.186 -0.9782 -0.4789 -2.8529
 7431SOL    HW223778   3.169   1.617   3.080  0.9620  0.4262 -0.8850
 7432SOL     OW23779   0.329   4.567   7.807  0.3257  0.1059 -0.3386
 7432SOL    HW123780   0.380   4.510   7.749 -1.7499  0.8420 -2.9632
 7432SOL    HW223781   0.288   4.631   7.749 -2.1918  0.6233  1.8900
 7433SOL     OW23782   6.750   3.634   0.320 -0.0907  0.2027 -0.1690
 7433SOL    HW123783   6.837   3.660   0.349 -0.2277 -0.7043  1.1017
 7433SOL    HW223784   6.743   3.542   0.345 -0.4369 -0.4749 -2.6072
 7434SOL     OW23785   8.173   1.091   4.955 -0.1640  0.2950 -0.2428
 7434SOL    HW123786   8.215   1.019   5.002  1.9723  1.1423 -0.7992
 7434SOL    HW223787   8.126   1.048   4.883  1.5997 -0.5222 -0.9340
 7435SOL     OW23788   7.824   4.891   5.234  0.4842  0.1951 -0.2541
 7435SOL    HW123789   7.886   4.915   5.166  1.3961  1.0859  0.8611
 7435SOL    HW223790   7.870   4.911   5.316 -0.3294 -1.4537  0.6463
 7436SOL     OW23791   5.797   5.647   3.183 -0.2815  0.2078 -0.5563
 7436SOL    HW123792   5.824   5.555   3.189 -1.6891 -0.2206 -0.7567
 7436SOL    HW223793   5.743   5.661   3.260 -0.5530  0.7097 -0.8403
 7437SOL     OW23794   7.237   0.479   0.853 -0.3623  0.6916 -0.6261
 7437SOL    HW123795   7.246   0.384   0.856 -0.0586  0.7411 -0.1013
 7437SOL    HW223796   7.146   0.493   0.825 -0.2323  0.2476 -1.2878
 7438SOL     OW23797   3.472   5.307   5.773  0.2109 -0.4566  0.4143
 7438SOL    HW123798   3.437   5.264   5.850  0.2419  1.4812  1.5396
 7438SOL    HW223799   3.510   5.389   5.805 -3.7092  2.5796 -2.1339
 7439SOL     OW23800   4.071   1.945   2.356  0.1905  0.4768  0.2163
 7439SOL    HW123801   4.117   1.934   2.439 -1.0331  0.6348  0.9193
 7439SOL    HW223802   3.996   1.886   2.362 -0.0554  0.6905 -0.6651
 7440SOL     OW23803   0.753   0.165   5.936  0.0215  0.7654 -0.2485
 7440SOL    HW123804   0.746   0.109   5.859 -0.4257  1.7604 -0.9512
 7440SOL    HW223805   0.775   0.106   6.008  0.1400 -0.2130 -1.0865
 7441SOL     OW23806   3.932   1.031   5.547 -0.4632 -0.2611 -0.9319
 7441SOL    HW123807   3.839   1.014   5.531 -1.2349  2.5495  0.2125
 7441SOL    HW223808   3.973   0.945   5.542 -3.1722 -1.6041 -1.1661
 7442SOL     OW23809   5.001   1.818   4.506 -0.5579  0.2770 -0.0677
 7442SOL    HW123810   4.936   1.888   4.505 -0.0119  0.7810 -1.2739
 7442SOL    HW223811   5.058   1.839   4.580 -1.1907  0.3759  0.3896
 7443SOL     OW23812   3.950   2.387   4.240  0.3795 -0.2561 -0.4741
 7443SOL    HW123813   3.931   2.472   4.202  1.2796 -0.3964 -1.2598
 7443SOL    HW223814   4.045   2.380   4.236  0.4464 -0.5899  1.1295
 7444SOL     OW23815   1.922   1.795   3.164 -0.0891  0.1364 -0.5963
 7444SOL    HW123816   2.005   1.750   3.181  0.1942  0.9847  0.3393
 7444SOL    HW223817   1.938   1.885   3.191 -0.5425  0.8929 -2.7763
 7445SOL     OW23818   1.324   3.273   0.337  0.2329 -0.3588  0.6722
 7445SOL    HW123819   1.347   3.181   0.355  0.5454 -0.7408 -1.4905
 7445SOL    HW223820   1.274   3.269   0.256  1.5780  1.5519 -0.2834
 7446SOL     OW23821   4.721   2.997   8.212  0.5634 -0.1477  0.3195
 7446SOL    HW123822   4.633   2.976   8.243  0.1987  2.0479  0.8340
 7446SOL    HW223823   4.738   2.933   8.142 -1.4079 -0.5884  0.2272
 7447SOL     OW23824   5.116   6.252   7.021  0.7221  0.4527 -0.0358
 7447SOL    HW123825   5.192   6.310   7.012  0.5773  0.7458  0.6012
 7447SOL    HW223826   5.094   6.256   7.114  0.2396 -0.0309 -0.1294
 7448SOL     OW23827   6.898   1.420   6.983 -0.3261  0.0575 -0.1947
 7448SOL    HW123828   6.817   1.368   6.974 -1.1754  1.2150  0.7380
 7448SOL    HW223829   6.944   1.380   7.056  0.7861 -1.6722 -1.7768
 7449SOL     OW23830   3.311   3.474   7.818 -0.0178  0.6094  0.2511
 7449SOL    HW123831   3.382   3.511   7.872 -0.7289  1.8240  0.3793
 7449SOL    HW223832   3.232   3.489   7.869 -0.4327 -0.2479 -0.1400
 7450SOL     OW23833   0.749   7.329   6.584 -0.4557 -0.4891 -0.7287
 7450SOL    HW123834   0.787   7.393   6.524  0.0669 -1.0190 -0.9530
 7450SOL    HW223835   0.723   7.256   6.529  0.5897 -1.2378 -0.2290
 7451SOL     OW23836   6.690   7.628   8.019  0.9416  0.0142  0.3056
 7451SOL    HW123837   6.641   7.546   8.016  0.3573  0.3516  0.6099
 7451SOL    HW223838   6.759   7.612   8.083  0.8199 -0.2402  0.3740
 7452SOL     OW23839   0.456   0.298   6.543 -1.0157 -0.1974 -0.0988
 7452SOL    HW123840   0.546   0.271   6.561 -0.8798  1.6880  2.2332
 7452SOL    HW223841   0.461   0.345   6.460  0.1308 -0.1655 -0.0118
 7453SOL     OW23842   5.498   3.073   1.072 -0.0512 -0.3917  0.0856
 7453SOL    HW123843   5.590   3.046   1.073 -0.0006 -0.2110  0.2299
 7453SOL    HW223844   5.451   2.998   1.109  0.1665  0.0072  1.1813
 7454SOL     OW23845   2.437   3.933   0.434  0.0877 -0.5047 -0.0069
 7454SOL    HW123846   2.366   3.928   0.498 -0.6236 -1.3879 -0.8420
 7454SOL    HW223847   2.393   3.933   0.349  1.0843 -1.4419 -0.5440
 7455SOL     OW23848   4.431   6.539   4.448 -0.3625  0.4312 -0.4853
 7455SOL    HW123849   4.470   6.458   4.416 -1.7172 -0.5813  0.3855
 7455SOL    HW223850   4.487   6.566   4.521 -1.6577 -1.3794  1.2035
 7456SOL     OW23851   4.539   0.676   1.148 -0.2986  0.1690  0.4703
 7456SOL    HW123852   4.522   0.651   1.057 -1.4906  0.4943  0.5921
 7456SOL    HW223853   4.626   0.717   1.145  0.9874 -2.4691  0.0080
 7457SOL     OW23854   4.458   7.389   5.217  0.1370 -0.6124 -0.1239
 7457SOL    HW123855   4.481   7.419   5.305  1.2240  0.0506 -0.6163
 7457SOL    HW223856   4.365   7.366   5.223  0.6708 -2.4170  1.6789
 7458SOL     OW23857   2.378   6.085   2.185  0.1562  0.4248 -0.1615
 7458SOL    HW123858   2.317   6.111   2.254  1.9447  0.6995  1.3595
 7458SOL    HW223859   2.324   6.083   2.105 -1.5137  2.0861  0.8669
 7459SOL     OW23860   0.751   7.510   7.585  0.0294  0.0798  0.4027
 7459SOL    HW123861   0.746   7.474   7.496 -2.0483 -1.0907  0.9590
 7459SOL    HW223862   0.701   7.592   7.580  0.4317  0.3236  0.3565
 7460SOL     OW23863   1.209   4.455   3.487  0.2603 -0.6769  0.0057
 7460SOL    HW123864   1.212   4.441   3.393 -2.1251 -0.7409 -0.0783
 7460SOL    HW223865   1.243   4.373   3.525  0.0414 -1.1211 -0.7614
 7461SOL     OW23866   4.550   5.202   4.248 -0.2622  0.0588 -0.4853
 7461SOL    HW123867   4.497   5.123   4.252  0.1107 -0.1456  0.5301
 7461SOL    HW223868   4.504   5.259   4.186  0.2568 -1.5274 -2.3562
 7462SOL     OW23869   8.284   6.002   1.055  0.1693 -0.2914 -0.6621
 7462SOL    HW123870   8.304   6.096   1.062  0.2671 -0.3623 -0.0212
 7462SOL    HW223871   8.313   5.965   1.138 -0.6748 -0.7458 -0.5684
 7463SOL     OW23872   0.842   4.081   4.002  0.9252  0.1035  0.3076
 7463SOL    HW123873   0.913   4.016   4.007  2.2415  1.4904 -0.0603
 7463SOL    HW223874   0.786   4.060   4.076  1.3080 -1.4883  0.1751
 7464SOL     OW23875   3.338   2.879   6.817  0.4543 -0.0190  0.3563
 7464SOL    HW123876   3.386   2.816   6.764  0.5886  0.2207  0.1900
 7464SOL    HW223877   3.248   2.845   6.819  0.1233  0.6614 -1.1768
 7465SOL     OW23878   1.720   6.590   6.323  0.0379 -0.4590 -0.1745
 7465SOL    HW123879   1.712   6.517   6.262 -0.1759  0.7728 -1.6564
 7465SOL    HW223880   1.699   6.553   6.408  2.9692 -2.8452 -0.4157
 7466SOL     OW23881   2.142   1.226   3.712 -0.0810 -0.3002  0.0688
 7466SOL    HW123882   2.148   1.142   3.758  0.9590 -0.0516  0.3965
 7466SOL    HW223883   2.171   1.291   3.776  2.0869 -0.0265 -1.1298
 7467SOL     OW23884   4.138   2.702   3.993 -0.6082  0.0612  0.1970
 7467SOL    HW123885   4.123   2.615   3.956  0.7998  0.2560 -0.8742
 7467SOL    HW223886   4.155   2.686   4.086 -0.2220 -0.8277 -0.0209
 7468SOL     OW23887   0.502   4.376   4.154  0.8619  0.0932 -0.4335
 7468SOL    HW123888   0.435   4.322   4.111  2.1175 -1.0260 -1.0106
 7468SOL    HW223889   0.509   4.454   4.100 -0.0921  0.2949 -0.2745
 7469SOL     OW23890   4.379   0.515   7.785 -0.1026 -0.4344 -0.1232
 7469SOL    HW123891   4.448   0.477   7.840  0.3157  0.5886  0.0718
 7469SOL    HW223892   4.299   0.504   7.837  0.3191  0.6948  0.8108
 7470SOL     OW23893   3.594   5.539   2.834  0.2707 -0.2876  0.4777
 7470SOL    HW123894   3.525   5.593   2.873 -0.0718 -0.1668 -0.2807
 7470SOL    HW223895   3.550   5.458   2.808  0.5450 -0.4618  0.5490
 7471SOL     OW23896   1.101   4.422   5.569 -0.0113 -0.1565 -0.6444
 7471SOL    HW123897   1.080   4.485   5.500 -0.0749  0.4179 -0.1124
 7471SOL    HW223898   1.178   4.459   5.612 -0.3153 -0.2121 -0.0433
 7472SOL     OW23899   4.982   6.064   4.971  0.1558 -0.1113 -1.0098
 7472SOL    HW123900   4.951   6.050   4.882 -0.6956  0.5783 -0.8342
 7472SOL    HW223901   4.972   6.158   4.985 -1.7644 -0.5037  0.5363
 7473SOL     OW23902   5.122   2.239   3.200 -0.1203  0.3920 -0.1568
 7473SOL    HW123903   5.148   2.268   3.287 -0.0060  3.4823 -1.1404
 7473SOL    HW223904   5.077   2.314   3.162 -1.2370 -1.3081 -2.3361
 7474SOL     OW23905   7.350   7.783   6.916 -0.4510  0.1980  0.1438
 7474SOL    HW123906   7.379   7.698   6.949  0.3498 -0.0445 -1.1529
 7474SOL    HW223907   7.275   7.762   6.861 -0.7824  0.4244  0.5120
 7475SOL     OW23908   7.447   1.754   0.968  0.2867 -0.1963 -0.1447
 7475SOL    HW123909   7.418   1.725   0.882  0.8783  0.7691 -0.6831
 7475SOL    HW223910   7.542   1.760   0.961  0.2903  0.5105  0.3652
 7476SOL     OW23911   2.934   0.216   0.125  0.2038 -0.2349  0.1511
 7476SOL    HW123912   2.920   0.304   0.091  0.3728 -0.7989 -1.4408
 7476SOL    HW223913   2.985   0.229   0.205  0.4822  1.0942 -0.2233
 7477SOL     OW23914   6.704   0.803   6.117 -0.4768 -0.8903  0.2182
 7477SOL    HW123915   6.757   0.879   6.094 -0.6981 -1.0234 -0.7672
 7477SOL    HW223916   6.646   0.834   6.186 -1.1673  0.0911 -0.7882
 7478SOL     OW23917   2.595   2.551   1.425  0.2630 -0.1317 -0.0613
 7478SOL    HW123918   2.638   2.571   1.509  0.1070 -1.6464  0.3943
 7478SOL    HW223919   2.530   2.620   1.416  0.3211  0.0914  1.0394
 7479SOL     OW23920   8.028   5.165   1.037  0.2594  0.3069  0.6492
 7479SOL    HW123921   8.011   5.081   0.994  2.5420 -0.4620  1.1658
 7479SOL    HW223922   7.981   5.159   1.120 -0.5477  0.0085  0.1719
 7480SOL     OW23923   0.660   1.864   7.327  0.2491 -0.1032  0.6548
 7480SOL    HW123924   0.569   1.889   7.345  0.6432  1.2041  0.9375
 7480SOL    HW223925   0.655   1.774   7.295 -1.3454  0.6502 -1.2875
 7481SOL     OW23926   1.465   6.856   3.353 -0.5358 -0.3608 -0.1663
 7481SOL    HW123927   1.469   6.864   3.448  1.0441 -2.5237 -0.0024
 7481SOL    HW223928   1.479   6.946   3.321  0.7092  0.1059  1.6092
 7482SOL     OW23929   4.126   0.131   1.966  0.0470  0.2340 -0.2516
 7482SOL    HW123930   4.071   0.124   2.044 -1.3209  1.2730 -1.1046
 7482SOL    HW223931   4.174   0.212   1.977 -2.3002  1.9008 -1.8024
 7483SOL     OW23932   3.299   2.674   2.454 -0.1128  0.1601  0.4456
 7483SOL    HW123933   3.274   2.628   2.535 -1.3161  1.7583  1.0104
 7483SOL    HW223934   3.230   2.652   2.392 -0.8272  1.3834  0.7933
 7484SOL     OW23935   7.265   1.557   3.139 -0.4570 -0.2855 -0.2320
 7484SOL    HW123936   7.199   1.608   3.187  1.2134 -0.5382  2.4212
 7484SOL    HW223937   7.252   1.467   3.170  2.4239 -0.0279  1.9194
 7485SOL     OW23938   8.013   1.760   8.025 -0.3696 -0.6109  0.4741
 7485SOL    HW123939   7.986   1.839   8.072 -3.0343 -1.1391 -0.0409
 7485SOL    HW223940   7.985   1.775   7.935  1.6804 -0.9878 -0.2411
 7486SOL     OW23941   6.508   2.281   0.720 -0.4892  0.7234  0.4486
 7486SOL    HW123942   6.413   2.291   0.726 -0.3125  0.7934  4.3699
 7486SOL    HW223943   6.523   2.187   0.734  0.0295  0.6509 -0.5290
 7487SOL     OW23944   5.443   3.595   2.118  0.2497 -0.1125  0.2657
 7487SOL    HW123945   5.391   3.589   2.198 -0.7851 -0.3251 -0.4165
 7487SOL    HW223946   5.474   3.686   2.116 -1.2593  0.4087 -0.0321
 7488SOL     OW23947   0.637   3.363   5.879 -0.0388 -0.2807  0.4954
 7488SOL    HW123948   0.716   3.311   5.864  0.4099  0.4639  0.2563
 7488SOL    HW223949   0.661   3.422   5.950 -0.4233 -0.1436  0.5111
 7489SOL     OW23950   7.654   4.254   0.838  0.0843  0.2205 -0.4837
 7489SOL    HW123951   7.620   4.203   0.764  0.1921  2.5773 -2.2075
 7489SOL    HW223952   7.635   4.345   0.815  0.2294  1.0034  2.3653
 7490SOL     OW23953   0.264   1.342   2.231  0.2187  0.2450 -0.2024
 7490SOL    HW123954   0.171   1.322   2.217  0.2706 -0.0748 -0.0884
 7490SOL    HW223955   0.273   1.432   2.201 -0.3879  0.6896  0.9134
 7491SOL     OW23956   7.851   2.057   2.555 -0.0436 -0.0497 -0.0825
 7491SOL    HW123957   7.888   2.090   2.473 -0.6266  2.2807  0.5638
 7491SOL    HW223958   7.781   1.997   2.528  2.4045 -2.5151 -1.2908
 7492SOL     OW23959   6.013   1.403   4.872  0.1854 -0.4350 -0.2704
 7492SOL    HW123960   5.939   1.435   4.924  1.6498  1.0259  0.9442
 7492SOL    HW223961   6.041   1.323   4.917  1.5217  0.8854  1.2978
 7493SOL     OW23962   5.743   0.965   2.075  0.5331  0.3338 -0.6140
 7493SOL    HW123963   5.830   0.933   2.100  1.4459  1.6490 -2.0684
 7493SOL    HW223964   5.702   0.991   2.157  1.3631 -0.6416  0.1185
 7494SOL     OW23965   5.811   0.189   3.056  0.0720  0.1940  0.9408
 7494SOL    HW123966   5.891   0.159   3.013 -0.2748  1.4480 -0.6136
 7494SOL    HW223967   5.760   0.109   3.069 -0.8985  0.0207 -3.2957
 7495SOL     OW23968   7.214   6.915   2.406 -0.3676 -0.6777  0.1671
 7495SOL    HW123969   7.206   6.880   2.317  0.8402 -1.5910  0.4092
 7495SOL    HW223970   7.123   6.930   2.434 -0.8086 -1.5234 -0.7779
 7496SOL     OW23971   3.299   4.656   5.514  0.5946  0.0842  0.1584
 7496SOL    HW123972   3.322   4.707   5.592  0.7458  1.3319 -0.7005
 7496SOL    HW223973   3.209   4.628   5.531  0.5635  0.4949  0.7066
 7497SOL     OW23974   6.635   5.322   2.167 -0.0942 -0.2943  0.2726
 7497SOL    HW123975   6.704   5.365   2.116 -0.8269  1.4346  0.6886
 7497SOL    HW223976   6.562   5.312   2.105 -0.2414 -0.1097  0.4146
 7498SOL     OW23977   6.441   6.861   7.627 -0.1252 -0.6933 -0.3633
 7498SOL    HW123978   6.428   6.938   7.572  0.0157  0.3807  1.0700
 7498SOL    HW223979   6.512   6.813   7.585  2.5100  1.9953  0.8335
 7499SOL     OW23980   0.079   5.810   5.407  0.0249 -0.3807  0.1730
 7499SOL    HW123981   0.009   5.871   5.385 -0.8874 -0.7840  1.8848
 7499SOL    HW223982   0.038   5.724   5.404  0.9568 -0.8046 -0.8283
 7500SOL     OW23983   7.801   6.769   2.548  0.3155 -0.4780 -0.2359
 7500SOL    HW123984   7.785   6.858   2.517  0.0633 -0.2944  0.4019
 7500SOL    HW223985   7.785   6.773   2.642  2.0540 -0.7867  0.0823
 7501SOL     OW23986   8.009   2.939   1.343  0.2702  0.1018 -0.4857
 7501SOL    HW123987   7.999   2.984   1.259  1.0867  0.2777 -0.4887
 7501SOL    HW223988   7.951   2.863   1.336  2.0904 -1.1693 -2.1123
 7502SOL     OW23989   6.700   0.507   2.626 -0.7741  0.0365 -0.1959
 7502SOL    HW123990   6.617   0.469   2.656 -0.4655  0.6931  1.5965
 7502SOL    HW223991   6.742   0.537   2.707  1.6355 -1.1172 -0.9734
 7503SOL     OW23992   6.977   3.093   1.728 -0.4150 -0.0894 -0.5536
 7503SOL    HW123993   7.037   3.116   1.657 -1.8470 -1.9527 -2.4452
 7503SOL    HW223994   6.890   3.104   1.690 -1.2236 -0.4273  1.1412
 7504SOL     OW23995   2.441   0.231   4.921 -0.0483  0.0983  0.6242
 7504SOL    HW123996   2.476   0.256   4.836 -1.2828 -0.2745 -0.0186
 7504SOL    HW223997   2.464   0.139   4.930 -0.9605 -0.1910  0.1276
 7505SOL     OW23998   5.112   4.141   5.453  0.2182  0.0964 -0.0679
 7505SOL    HW123999   5.112   4.048   5.472  0.1774  0.2227  0.5873
 7505SOL    HW224000   5.202   4.161   5.426  0.4820  0.0558  0.7698
 7506SOL     OW24001   0.096   4.124   1.766  0.1065 -0.1862  0.3968
 7506SOL    HW124002   0.070   4.083   1.683  1.2146  0.6384 -0.3836
 7506SOL    HW224003   0.049   4.208   1.767 -0.5449 -0.5586  0.9956
 7507SOL     OW24004   0.418   1.236   4.066  0.5819 -0.6284  0.2783
 7507SOL    HW124005   0.412   1.162   4.006  0.8927 -0.2495 -0.2204
 7507SOL    HW224006   0.495   1.284   4.037 -0.2844  0.5323 -0.1238
 7508SOL     OW24007   5.063   7.491   2.059 -0.2551 -0.2912  0.2901
 7508SOL    HW124008   5.019   7.519   1.978  0.7322 -2.1268 -0.9169
 7508SOL    HW224009   4.991   7.465   2.117 -0.9563  0.5730 -0.1774
 7509SOL     OW24010   2.754   2.023   7.678 -0.1329 -0.3547  0.1620
 7509SOL    HW124011   2.794   1.971   7.608 -0.7368 -1.0368  0.3245
 7509SOL    HW224012   2.820   2.090   7.698  0.4947 -0.8256 -0.3017
 7510SOL     OW24013   1.759   8.075   0.820 -0.7416 -0.3182  0.3741
 7510SOL    HW124014   1.797   8.142   0.762  0.7725 -1.4893 -0.0372
 7510SOL    HW224015   1.667   8.070   0.794 -0.5473  0.6154 -0.5410
 7511SOL     OW24016   1.271   1.260   4.762 -0.1407 -0.5886  0.1257
 7511SOL    HW124017   1.306   1.181   4.722  0.2423 -0.8212  0.9055
 7511SOL    HW224018   1.334   1.282   4.831  0.0602  0.7258 -0.4671
 7512SOL     OW24019   4.170   1.909   2.106 -0.0232  0.2762 -0.9391
 7512SOL    HW124020   4.263   1.929   2.117  0.2252 -0.4437 -1.6327
 7512SOL    HW224021   4.131   1.925   2.192  0.9454 -0.5237 -0.3409
 7513SOL     OW24022   7.629   6.244   3.365  0.0160 -0.1046  0.4658
 7513SOL    HW124023   7.691   6.207   3.428 -0.9059  0.0175  1.4690
 7513SOL    HW224024   7.569   6.295   3.419  0.6019  1.9307 -0.7923
 7514SOL     OW24025   8.166   6.651   4.062  0.5269  0.0012 -0.1325
 7514SOL    HW124026   8.087   6.630   4.013  0.8626 -0.6140 -0.4102
 7514SOL    HW224027   8.224   6.577   4.047  0.7578 -0.0300  0.9297
 7515SOL     OW24028   6.036   5.150   0.513 -0.1100  0.6328 -0.7755
 7515SOL    HW124029   5.960   5.142   0.570  2.3645 -3.7766  2.2150
 7515SOL    HW224030   6.003   5.134   0.425 -2.9810  1.2230  0.1658
 7516SOL     OW24031   0.748   2.066   3.669  0.0350 -0.0345 -0.1993
 7516SOL    HW124032   0.800   1.999   3.625 -0.0172  0.3169 -0.8108
 7516SOL    HW224033   0.700   2.109   3.598 -1.8958 -1.0319  0.4743
 7517SOL     OW24034   2.159   5.536   6.071  0.4595  0.1984 -0.6127
 7517SOL    HW124035   2.212   5.464   6.037  0.0239 -0.0621 -0.7474
 7517SOL    HW224036   2.091   5.548   6.004  0.0904  0.2362 -0.2293
 7518SOL     OW24037   7.387   3.244   1.511  0.9886 -0.1759  0.6569
 7518SOL    HW124038   7.465   3.195   1.482  1.3279 -0.6848  2.4062
 7518SOL    HW224039   7.313   3.190   1.482  1.2532  0.3908 -1.1615
 7519SOL     OW24040   2.707   7.759   1.815 -0.1675  0.6081 -0.3480
 7519SOL    HW124041   2.723   7.743   1.908  2.1966  2.5342 -0.3571
 7519SOL    HW224042   2.766   7.698   1.770 -0.7899  0.1696 -0.5680
 7520SOL     OW24043   4.079   6.895   2.909 -0.3457  1.1150 -0.2236
 7520SOL    HW124044   4.138   6.877   2.983 -1.1994 -1.9949 -0.2288
 7520SOL    HW224045   4.002   6.936   2.950 -0.0466  1.0997  0.3620
 7521SOL     OW24046   0.267   4.773   7.605 -0.6256  0.1682  0.5136
 7521SOL    HW124047   0.265   4.736   7.516 -0.9587  0.2781  0.4746
 7521SOL    HW224048   0.284   4.866   7.592  1.2040 -0.1312  0.6620
 7522SOL     OW24049   3.378   6.012   3.659  0.7816  0.0724 -0.1248
 7522SOL    HW124050   3.472   5.996   3.645  1.0153  0.4633  0.9569
 7522SOL    HW224051   3.358   5.967   3.741  0.1928  0.6065  0.0309
 7523SOL     OW24052   1.447   3.417   1.054 -0.1110  0.0591  0.1374
 7523SOL    HW124053   1.509   3.391   1.122  0.3935  1.2569  0.1599
 7523SOL    HW224054   1.445   3.344   0.993  0.8123 -0.2760  0.5003
 7524SOL     OW24055   6.637   8.176   5.207 -0.1488  0.6253 -0.3620
 7524SOL    HW124056   6.677   8.210   5.288 -1.0401 -3.1401  1.8076
 7524SOL    HW224057   6.703   8.116   5.172 -1.6622 -1.4776  0.2924
 7525SOL     OW24058   6.662   2.792   5.961  0.0480  0.5701  0.2618
 7525SOL    HW124059   6.704   2.877   5.972  1.0099  0.2704 -0.9439
 7525SOL    HW224060   6.636   2.790   5.869  0.6951 -0.7337  0.0981
 7526SOL     OW24061   5.044   1.897   6.732 -0.0797 -0.4457 -0.1795
 7526SOL    HW124062   5.120   1.954   6.735 -0.2360 -0.2926  1.7475
 7526SOL    HW224063   5.068   1.827   6.672  0.4118  1.1919 -1.9628
 7527SOL     OW24064   2.101   6.963   1.184  0.0350 -0.0861 -0.6020
 7527SOL    HW124065   2.071   7.021   1.114  0.7235 -0.5636 -1.3068
 7527SOL    HW224066   2.111   6.877   1.141  0.3142 -0.4141  0.1172
 7528SOL     OW24067   6.298   3.269   5.270 -0.0262 -0.1395 -0.3919
 7528SOL    HW124068   6.290   3.208   5.344 -0.0771 -0.7613 -0.9071
 7528SOL    HW224069   6.391   3.266   5.247  0.5004  1.9985  1.2819
 7529SOL     OW24070   7.360   3.485   1.698  0.3094 -0.5944  0.3386
 7529SOL    HW124071   7.378   3.406   1.647  0.4623 -0.3752  0.0466
 7529SOL    HW224072   7.265   3.496   1.694  0.3201 -0.5856  0.1092
 7530SOL     OW24073   7.907   6.593   6.344  0.2815  0.2823 -0.2732
 7530SOL    HW124074   7.905   6.651   6.267 -0.0704  0.0383 -0.4481
 7530SOL    HW224075   7.839   6.627   6.401  0.9633  0.8457  0.2105
 7531SOL     OW24076   3.222   4.819   4.283 -0.6049  0.3356 -0.0303
 7531SOL    HW124077   3.295   4.789   4.229 -1.8987  1.2903 -2.3957
 7531SOL    HW224078   3.263   4.868   4.354  1.1410 -0.7205 -0.2723
 7532SOL     OW24079   7.769   0.953   7.349  0.0165  0.3241  0.4421
 7532SOL    HW124080   7.812   1.035   7.328 -0.3863  0.0174 -1.6683
 7532SOL    HW224081   7.679   0.977   7.371 -0.8706  0.2321 -2.8577
 7533SOL     OW24082   0.807   2.899   2.127  0.1073  0.3976 -0.1788
 7533SOL    HW124083   0.718   2.931   2.119 -0.1894  0.2390  2.0571
 7533SOL    HW224084   0.855   2.971   2.168  0.8847  0.2890 -0.8753
 7534SOL     OW24085   7.846   1.530   2.057  0.4942 -0.0332  0.0434
 7534SOL    HW124086   7.754   1.550   2.076  0.3051 -0.6976 -0.1404
 7534SOL    HW224087   7.883   1.507   2.142  0.5843  0.6110  0.1760
 7535SOL     OW24088   5.598   7.899   0.797  0.1826  0.1281 -0.4864
 7535SOL    HW124089   5.573   7.891   0.705  2.0640 -0.3057 -0.9884
 7535SOL    HW224090   5.601   7.994   0.813  0.6850  0.2177 -1.1089
 7536SOL     OW24091   2.631   6.413   4.272 -0.4380 -0.3581 -0.3310
 7536SOL    HW124092   2.578   6.335   4.257 -1.9064  0.8536 -1.6646
 7536SOL    HW224093   2.691   6.417   4.197  1.0611 -1.3058  0.7846
 7537SOL     OW24094   1.379   2.453   6.963  0.0959  0.9230 -0.4887
 7537SOL    HW124095   1.309   2.391   6.942  0.1367  0.3666  0.9311
 7537SOL    HW224096   1.441   2.444   6.891 -0.2727 -0.1420 -0.6939
 7538SOL     OW24097   8.002   4.737   4.022  0.1336 -0.0676 -0.2877
 7538SOL    HW124098   7.939   4.809   4.027  0.5609  0.2978 -0.1661
 7538SOL    HW224099   7.974   4.686   3.946 -0.3639  0.0396 -0.1793
 7539SOL     OW24100   4.616   7.253   5.014 -0.5854 -0.6544  0.2624
 7539SOL    HW124101   4.576   7.314   4.951  1.0253  0.0443 -0.1157
 7539SOL    HW224102   4.589   7.285   5.100  0.5933  0.8847  0.0847
 7540SOL     OW24103   2.808   0.667   7.954  0.2571 -0.3434 -1.0005
 7540SOL    HW124104   2.873   0.729   7.921  0.6295 -0.0910  0.1766
 7540SOL    HW224105   2.849   0.581   7.942  0.4851 -0.2373 -0.9874
 7541SOL     OW24106   7.069   8.086   3.533 -0.2176  0.3193 -0.4128
 7541SOL    HW124107   7.154   8.084   3.489  0.8823  1.2539  1.5871
 7541SOL    HW224108   7.056   7.996   3.563 -0.7150 -0.1946 -2.1323
 7542SOL     OW24109   4.068   0.597   3.511  0.0230 -0.0873 -0.6105
 7542SOL    HW124110   3.988   0.644   3.535 -0.1269 -1.0194  0.7833
 7542SOL    HW224111   4.121   0.662   3.465 -0.8489  0.9986 -0.1005
 7543SOL     OW24112   3.948   0.606   7.680 -0.2305  0.3204  0.0826
 7543SOL    HW124113   3.876   0.636   7.735  0.3925  2.1877 -0.0805
 7543SOL    HW224114   4.002   0.684   7.667  1.7025 -1.0054  0.0260
 7544SOL     OW24115   5.056   2.278   5.124  0.1620  0.4379 -0.5723
 7544SOL    HW124116   5.124   2.311   5.183 -0.2694 -0.9157  0.6975
 7544SOL    HW224117   5.092   2.198   5.087  0.3211  1.1343 -1.9826
 7545SOL     OW24118   2.751   6.168   6.016  0.5794 -0.5297 -0.0740
 7545SOL    HW124119   2.747   6.102   6.085  1.2699 -1.1195 -0.5998
 7545SOL    HW224120   2.843   6.174   5.993  0.5604  0.8214  0.1656
 7546SOL     OW24121   3.448   5.919   4.537 -0.0633  0.0041 -0.2974
 7546SOL    HW124122   3.359   5.946   4.513  1.0873  2.3937 -2.0853
 7546SOL    HW224123   3.455   5.941   4.629 -0.8832  1.0781 -0.4736
 7547SOL     OW24124   5.567   4.229   4.739  0.0004 -0.4679  0.1147
 7547SOL    HW124125   5.596   4.297   4.678 -0.2733 -1.4083 -1.0617
 7547SOL    HW224126   5.495   4.271   4.788 -1.8352 -0.6776 -2.3066
 7548SOL     OW24127   3.709   3.807   5.322  0.5255  0.2978 -0.5438
 7548SOL    HW124128   3.700   3.829   5.415  1.7543 -0.0261 -0.3444
 7548SOL    HW224129   3.620   3.786   5.294  0.4230 -1.5097  1.0473
 7549SOL     OW24130   7.480   0.779   7.864 -0.4384  0.2557  0.3700
 7549SOL    HW124131   7.546   0.847   7.882 -1.5086  1.0501  1.3252
 7549SOL    HW224132   7.528   0.697   7.875  0.3018  0.8189  1.5199
 7550SOL     OW24133   7.122   0.110   1.754  0.1459  0.4455 -0.4751
 7550SOL    HW124134   7.048   0.064   1.794  0.9903 -0.1317  0.4706
 7550SOL    HW224135   7.111   0.201   1.782  1.4647 -0.1795  2.3029
 7551SOL     OW24136   1.089   7.555   3.641  0.0900  0.3050  0.3543
 7551SOL    HW124137   1.052   7.605   3.714 -0.2962 -2.5226  2.1597
 7551SOL    HW224138   1.015   7.507   3.604  0.9852 -1.3186  0.6221
 7552SOL     OW24139   6.064   3.151   5.838  0.2711 -0.1564 -0.4966
 7552SOL    HW124140   5.970   3.138   5.855  0.0453  0.7286 -1.0391
 7552SOL    HW224141   6.083   3.096   5.762 -0.2483  1.1379 -1.5864
 7553SOL     OW24142   2.024   4.519   4.662 -0.3587 -0.2341 -0.6059
 7553SOL    HW124143   1.949   4.532   4.721  0.6397 -0.1994  0.6842
 7553SOL    HW224144   2.050   4.428   4.676 -0.9582 -0.6285 -2.0133
 7554SOL     OW24145   8.235   6.619   7.827  0.5145  0.5349 -0.4010
 7554SOL    HW124146   8.140   6.611   7.826  0.5472  0.1449 -0.4710
 7554SOL    HW224147   8.257   6.657   7.742  0.5866 -1.4236 -1.2941
 7555SOL     OW24148   2.341   1.633   4.995  0.1500  0.5433 -0.1345
 7555SOL    HW124149   2.374   1.600   4.911  1.8603 -0.9105  1.0670
 7555SOL    HW224150   2.374   1.571   5.060 -0.4092  2.1378  1.7267
 7556SOL     OW24151   5.128   7.348   6.305 -0.1163  0.5903 -0.4882
 7556SOL    HW124152   5.186   7.414   6.344 -0.3127 -0.5195  1.7903
 7556SOL    HW224153   5.186   7.277   6.278 -0.3934 -0.7708  2.3127
 7557SOL     OW24154   1.062   0.899   6.436 -0.5863 -0.2332 -0.1735
 7557SOL    HW124155   1.147   0.920   6.397  0.1072 -0.7393  1.0589
 7557SOL    HW224156   1.056   0.955   6.513 -0.8396 -1.0795  0.4264
 7558SOL     OW24157   6.912   5.545   0.998 -0.1175  0.1272  0.1995
 7558SOL    HW124158   6.889   5.551   0.905  1.7185  0.5786 -0.2422
 7558SOL    HW224159   6.910   5.635   1.029  0.3666  0.0899  0.3303
 7559SOL     OW24160   5.407   8.286   5.042  0.2132 -0.0992 -0.0914
 7559SOL    HW124161   5.334   8.235   5.007  0.5742 -1.0662  0.5641
 7559SOL    HW224162   5.389   8.376   5.013 -1.2435 -0.3224  0.0747
 7560SOL     OW24163   7.907   6.900   5.188  0.7622  0.0112  0.3184
 7560SOL    HW124164   7.993   6.861   5.175  0.9860  1.3878 -2.5630
 7560SOL    HW224165   7.846   6.837   5.148  0.7962  0.8739 -1.1058
 7561SOL     OW24166   5.820   0.286   7.888 -0.5932  0.0540 -0.9186
 7561SOL    HW124167   5.781   0.360   7.842 -1.4702 -0.4428 -1.0022
 7561SOL    HW224168   5.884   0.325   7.947 -0.8751  0.8553 -1.1319
 7562SOL     OW24169   5.552   3.324   3.358  0.3448 -0.4613 -0.0524
 7562SOL    HW124170   5.503   3.249   3.323 -1.8008  0.8708 -0.0162
 7562SOL    HW224171   5.487   3.395   3.360  2.5951  1.6930 -1.1123
 7563SOL     OW24172   3.246   3.286   8.176  0.1468 -0.6562  0.6880
 7563SOL    HW124173   3.275   3.210   8.125 -1.2425 -0.9108  0.2753
 7563SOL    HW224174   3.219   3.250   8.260  1.1022 -0.3993  1.1208
 7564SOL     OW24175   2.030   6.522   8.138 -0.2023 -0.1610 -0.2452
 7564SOL    HW124176   1.954   6.471   8.166  0.0422 -1.0110 -1.0765
 7564SOL    HW224177   2.103   6.485   8.186 -0.0553 -0.4731 -0.7025
 7565SOL     OW24178   4.233   7.166   4.069 -0.2380 -0.2540  0.1848
 7565SOL    HW124179   4.318   7.163   4.113  1.2193  2.1877 -2.3339
 7565SOL    HW224180   4.202   7.075   4.072  1.6277 -0.8661  2.6527
 7566SOL     OW24181   4.316   5.554   4.254 -0.2687  0.1221  0.3875
 7566SOL    HW124182   4.355   5.496   4.189 -2.0639 -0.0951 -0.5549
 7566SOL    HW224183   4.373   5.548   4.330  1.9012  0.3956 -1.1692
 7567SOL     OW24184   7.949   7.427   4.244 -0.1074 -0.5825  0.1348
 7567SOL    HW124185   8.033   7.474   4.248 -0.0592 -0.4255 -2.2610
 7567SOL    HW224186   7.885   7.490   4.278  0.4857 -0.0671  0.3115
 7568SOL     OW24187   4.715   3.211   2.338 -0.1705 -0.2421 -0.4827
 7568SOL    HW124188   4.789   3.153   2.319  0.2455 -0.0335  0.4875
 7568SOL    HW224189   4.723   3.282   2.274  3.3072  2.3522  2.5673
 7569SOL     OW24190   4.940   3.767   4.943  0.0128 -0.0495  0.1221
 7569SOL    HW124191   4.877   3.769   4.871  0.4253 -2.6374 -0.3390
 7569SOL    HW224192   4.920   3.846   4.994 -2.3459  0.1608 -1.0625
 7570SOL     OW24193   1.951   5.256   4.728  0.7346  0.2630 -0.0366
 7570SOL    HW124194   2.031   5.265   4.676 -0.8118 -1.2651 -2.8158
 7570SOL    HW224195   1.937   5.161   4.736  0.0517  0.4846  1.8307
 7571SOL     OW24196   3.392   0.204   5.043  0.8281  0.3269 -0.4266
 7571SOL    HW124197   3.431   0.144   5.106 -0.1294 -0.1805 -0.2947
 7571SOL    HW224198   3.382   0.286   5.091 -0.8195 -0.3439  0.4179
 7572SOL     OW24199   1.884   5.635   2.055 -0.0402 -0.2904 -0.1880
 7572SOL    HW124200   1.877   5.689   2.134  2.6772 -0.7465  0.4027
 7572SOL    HW224201   1.863   5.694   1.983 -0.7613  0.5925  0.7387
 7573SOL     OW24202   7.892   7.632   5.865 -0.3582  0.4941 -0.8637
 7573SOL    HW124203   7.802   7.610   5.888 -0.0778  0.1894 -0.0489
 7573SOL    HW224204   7.926   7.680   5.940  0.0904  0.8148 -1.2615
 7574SOL     OW24205   5.442   7.004   1.367  0.6126 -0.0998 -0.3916
 7574SOL    HW124206   5.472   7.087   1.329 -0.3944  0.0795 -0.8167
 7574SOL    HW224207   5.497   6.992   1.444  0.9711  0.8151 -0.4893
 7575SOL     OW24208   7.481   4.306   2.484  0.0006 -0.1881 -0.7274
 7575SOL    HW124209   7.531   4.380   2.518  0.4564 -0.9280  0.2304
 7575SOL    HW224210   7.422   4.345   2.420 -0.5875  1.1943  0.6044
 7576SOL     OW24211   2.577   7.808   3.241  0.5210 -0.2673 -0.2720
 7576SOL    HW124212   2.500   7.753   3.255  1.1628 -0.9909  0.4988
 7576SOL    HW224213   2.637   7.754   3.191  1.6744 -0.7694  1.5753
 7577SOL     OW24214   5.052   0.821   2.466 -0.2580  0.4753 -0.4583
 7577SOL    HW124215   5.049   0.764   2.389 -1.2286 -1.0271  0.6619
 7577SOL    HW224216   5.142   0.813   2.497 -0.4061 -0.5597 -0.2524
 7578SOL     OW24217   8.085   1.756   6.037  0.3900 -0.0177  0.3090
 7578SOL    HW124218   8.169   1.712   6.022 -0.1927 -1.4067  0.9806
 7578SOL    HW224219   8.107   1.848   6.051  1.8534 -0.4846  1.1473
 7579SOL     OW24220   1.981   1.737   0.827  0.0291 -0.0546  0.1354
 7579SOL    HW124221   2.050   1.671   0.833  0.7107  0.6908  0.5328
 7579SOL    HW224222   1.929   1.711   0.750 -1.0696 -2.3551  1.5852
 7580SOL     OW24223   1.242   6.265   3.034 -0.1946 -0.6719 -0.1611
 7580SOL    HW124224   1.270   6.242   3.122 -0.4386 -0.4079 -0.0103
 7580SOL    HW224225   1.302   6.219   2.976  0.0995 -0.6778  0.1466
 7581SOL     OW24226   0.913   7.839   0.619 -0.0558  0.3040 -0.4071
 7581SOL    HW124227   0.983   7.894   0.583  0.6703 -0.1606  0.2650
 7581SOL    HW224228   0.869   7.895   0.683  0.0161  0.4348 -0.4732
 7582SOL     OW24229   5.517   6.086   3.309  0.1505 -0.0483  0.1805
 7582SOL    HW124230   5.566   6.166   3.328  0.9920 -0.1205 -1.5533
 7582SOL    HW224231   5.584   6.017   3.309 -0.4275 -0.6141  0.7738
 7583SOL     OW24232   3.631   6.785   3.800  0.0144 -0.3351  0.0884
 7583SOL    HW124233   3.553   6.811   3.850 -1.0004  2.0615 -2.5973
 7583SOL    HW224234   3.693   6.856   3.814  0.7134 -0.9525  0.0961
 7584SOL     OW24235   3.745   3.595   1.701  0.5951  0.2597 -0.6543
 7584SOL    HW124236   3.774   3.505   1.716  0.2015  0.1784 -0.3859
 7584SOL    HW224237   3.650   3.591   1.705  0.5889  0.7646 -0.2004
 7585SOL     OW24238   2.295   3.036   5.038  0.2162 -0.3267 -0.1631
 7585SOL    HW124239   2.369   2.993   5.081 -0.2623 -0.1059  0.8925
 7585SOL    HW224240   2.233   3.053   5.109 -1.9684 -2.7997 -1.3782
 7586SOL     OW24241   4.287   5.041   5.453 -0.6379 -0.1514  0.1113
 7586SOL    HW124242   4.353   5.046   5.383 -1.1114 -0.2780 -0.3467
 7586SOL    HW224243   4.288   5.127   5.493  1.8980 -1.0074  2.0195
 7587SOL     OW24244   1.507   8.242   5.255  0.1876  0.2565 -0.3334
 7587SOL    HW124245   1.557   8.287   5.188  1.2682 -1.6397 -0.8164
 7587SOL    HW224246   1.419   8.233   5.218  0.7008 -0.5185 -1.3632
 7588SOL     OW24247   2.481   1.826   1.708 -0.3986  0.4974  0.0219
 7588SOL    HW124248   2.422   1.805   1.636 -0.3205  1.7314 -0.4199
 7588SOL    HW224249   2.540   1.751   1.713 -1.3767 -0.2963 -0.1808
 7589SOL     OW24250   3.329   3.255   7.186  0.3808 -0.1781  0.1407
 7589SOL    HW124251   3.401   3.211   7.232  1.4303  1.0949 -0.2574
 7589SOL    HW224252   3.345   3.237   7.094  1.6302  2.2198 -0.1285
 7590SOL     OW24253   4.794   7.959   5.693 -0.0559  0.0262 -0.0859
 7590SOL    HW124254   4.738   8.008   5.633  0.0824 -1.2840 -1.3129
 7590SOL    HW224255   4.809   7.876   5.650 -0.6335 -1.2890  2.1638
 7591SOL     OW24256   7.440   2.667   7.800 -0.4398 -0.3607  0.0048
 7591SOL    HW124257   7.481   2.726   7.863  0.6338 -1.1341  0.0401
 7591SOL    HW224258   7.375   2.722   7.755  0.2372  0.7278  0.3283
 7592SOL     OW24259   3.006   6.559   2.116  0.2604 -0.2455  0.0945
 7592SOL    HW124260   2.923   6.575   2.072 -0.5776 -0.0185  1.7292
 7592SOL    HW224261   3.066   6.626   2.080 -0.4543  0.0541 -0.5450
 7593SOL     OW24262   2.133   4.501   7.321  0.0505 -0.0642 -0.1077
 7593SOL    HW124263   2.215   4.528   7.278  1.0549  1.4689  2.6439
 7593SOL    HW224264   2.106   4.578   7.371 -1.8599 -1.3197  0.8410
 7594SOL     OW24265   5.373   2.154   6.178 -0.3073 -0.5492 -0.3246
 7594SOL    HW124266   5.450   2.140   6.122 -0.1268 -2.2555  0.3245
 7594SOL    HW224267   5.407   2.151   6.267 -1.1060 -1.2433 -0.0383
 7595SOL     OW24268   5.080   4.517   5.470 -0.0040 -0.5007 -0.1534
 7595SOL    HW124269   5.132   4.514   5.550  0.0411 -1.1757 -0.2062
 7595SOL    HW224270   5.135   4.477   5.403  0.0802  0.3384 -0.5991
 7596SOL     OW24271   0.708   8.249   0.083 -0.1098 -0.4517  0.0886
 7596SOL    HW124272   0.710   8.305   0.005 -1.1860 -0.5162  0.0074
 7596SOL    HW224273   0.787   8.196   0.077  0.2350  0.1268 -0.5292
 7597SOL     OW24274   2.894   1.013   4.463  0.3187  0.5268 -0.3488
 7597SOL    HW124275   2.926   1.030   4.374 -0.9502  0.6567 -0.7990
 7597SOL    HW224276   2.849   0.929   4.457 -0.8268  1.1021 -0.1330
 7598SOL     OW24277   2.606   4.409   6.344  0.0768 -0.3948  0.0624
 7598SOL    HW124278   2.636   4.419   6.254  0.1436 -0.4426  0.0790
 7598SOL    HW224279   2.605   4.314   6.358 -2.5941 -0.5305 -0.7879
 7599SOL     OW24280   4.728   4.117   0.141  0.3102  0.3756  0.3395
 7599SOL    HW124281   4.702   4.208   0.156  0.9582  0.4618  0.9673
 7599SOL    HW224282   4.755   4.085   0.227  1.3370 -0.0100 -0.1235
 7600SOL     OW24283   0.986   5.857   6.853  0.1607 -0.4164  0.0924
 7600SOL    HW124284   0.947   5.855   6.940  0.1629  2.1451  0.2104
 7600SOL    HW224285   1.000   5.951   6.835 -1.9094 -0.6806 -3.5434
 7601SOL     OW24286   0.898   3.679   5.233  0.6915 -0.0635 -0.0168
 7601SOL    HW124287   0.927   3.762   5.197 -0.4877 -0.1237 -1.1279
 7601SOL    HW224288   0.950   3.613   5.188  0.4717 -0.0289 -0.3203
 7602SOL     OW24289   3.086   8.104   4.758 -0.5517 -0.1960  0.0955
 7602SOL    HW124290   3.098   8.199   4.766 -0.5402 -0.3663  2.4220
 7602SOL    HW224291   3.003   8.086   4.802 -0.3025 -1.3290  0.1210
 7603SOL     OW24292   6.767   1.138   3.526 -0.2490  0.3983  0.0760
 7603SOL    HW124293   6.845   1.123   3.579  0.2812  0.5614 -0.6550
 7603SOL    HW224294   6.785   1.092   3.443 -0.8735  0.5390 -0.1393
 7604SOL     OW24295   5.114   6.058   1.290  0.2364  0.0829 -0.0411
 7604SOL    HW124296   5.044   6.048   1.355  0.3676 -1.7750 -0.1486
 7604SOL    HW224297   5.103   6.147   1.256 -1.1334  0.3385  1.0153
 7605SOL     OW24298   4.194   7.780   0.982 -0.3046  0.5648  0.1637
 7605SOL    HW124299   4.161   7.856   0.935 -2.5109  0.2981  1.1894
 7605SOL    HW224300   4.282   7.805   1.011 -0.3335  2.0512 -0.9952
 7606SOL     OW24301   0.028   6.547   8.224  0.4299  0.2975 -0.4100
 7606SOL    HW124302   0.020   6.481   8.154 -0.0644  0.0155 -0.0922
 7606SOL    HW224303  -0.008   6.504   8.301  0.8522  0.6616 -0.0091
 7607SOL     OW24304   4.932   6.804   4.782 -0.0415 -0.5243  0.0757
 7607SOL    HW124305   5.011   6.853   4.802  0.7052 -1.0326 -1.5006
 7607SOL    HW224306   4.890   6.855   4.712 -1.9533  0.5979  1.9903
 7608SOL     OW24307   0.384   3.913   3.487  0.4784  0.2554 -0.1851
 7608SOL    HW124308   0.407   3.821   3.492 -0.4696  0.0165 -0.1419
 7608SOL    HW224309   0.414   3.940   3.400 -1.0986 -0.6109 -1.0065
 7609SOL     OW24310   0.021   1.460   7.381 -0.4313 -0.6327 -0.1666
 7609SOL    HW124311  -0.034   1.410   7.441 -1.8046  1.5019  0.4275
 7609SOL    HW224312   0.082   1.506   7.438  0.1743 -0.8696 -0.6274
 7610SOL     OW24313   4.939   2.944   0.340 -0.5591 -0.4688  0.5680
 7610SOL    HW124314   5.009   2.990   0.295 -2.8690 -0.5089 -3.3481
 7610SOL    HW224315   4.890   3.012   0.385  0.1955 -0.0458  0.7446
 7611SOL     OW24316   0.305   2.472   5.080 -0.3151  0.3168 -0.0956
 7611SOL    HW124317   0.262   2.402   5.031 -0.1562 -0.2310  0.5281
 7611SOL    HW224318   0.386   2.490   5.032  1.1504 -2.0525  1.3636
 7612SOL     OW24319   6.610   7.036   2.968 -0.1435  0.3173  0.5733
 7612SOL    HW124320   6.627   6.941   2.965 -0.5488  0.2680 -0.4972
 7612SOL    HW224321   6.542   7.050   2.902 -0.5094  1.2749  1.1490
 7613SOL     OW24322   8.272   3.983   2.028 -0.1123 -0.2056 -0.4813
 7613SOL    HW124323   8.312   4.069   2.037  0.2548 -0.5798  1.9262
 7613SOL    HW224324   8.343   3.926   1.999  0.0890 -0.0374 -0.3222
 7614SOL     OW24325   2.360   3.585   1.558  0.9257 -0.2661  0.2787
 7614SOL    HW124326   2.382   3.613   1.647 -1.5783  0.6411  0.6376
 7614SOL    HW224327   2.326   3.496   1.568 -1.8292  0.7850  0.6015
 7615SOL     OW24328   7.037   3.327   4.624  0.0695  0.1775  0.3923
 7615SOL    HW124329   6.965   3.379   4.588 -1.1927 -0.5369  1.8399
 7615SOL    HW224330   7.086   3.388   4.679  1.4558  1.0354 -1.7170
 7616SOL     OW24331   6.271   4.447   3.525 -0.3759 -0.0585 -0.4295
 7616SOL    HW124332   6.192   4.439   3.471 -1.0226  0.3265  0.4440
 7616SOL    HW224333   6.252   4.396   3.604  0.8376 -1.2083 -0.8509
 7617SOL     OW24334   4.409   4.000   0.525  0.5551 -0.2139  0.3048
 7617SOL    HW124335   4.401   4.057   0.602 -0.4204 -0.7676  0.6213
 7617SOL    HW224336   4.339   4.031   0.466  0.6311 -0.4709  0.0825
 7618SOL     OW24337   0.803   2.639   2.684  0.4925  0.0083  0.0104
 7618SOL    HW124338   0.863   2.610   2.616  0.7224 -1.4457  0.8220
 7618SOL    HW224339   0.717   2.607   2.656  0.8844 -2.3200  1.3632
 7619SOL     OW24340   2.206   5.538   2.929 -0.1414  0.3171 -0.1241
 7619SOL    HW124341   2.295   5.566   2.952  0.1621  0.8371 -1.8554
 7619SOL    HW224342   2.219   5.459   2.876 -0.7411  0.2527 -0.1815
 7620SOL     OW24343   2.758   7.692   2.068 -0.3377 -0.0733  0.8252
 7620SOL    HW124344   2.802   7.677   2.152  0.4627  1.1089  0.6391
 7620SOL    HW224345   2.672   7.652   2.078  0.2622 -1.1709  1.7137
 7621SOL     OW24346   6.342   6.373   7.472 -0.1671 -0.7629 -0.4576
 7621SOL    HW124347   6.324   6.464   7.495  0.6452 -0.8661  0.5929
 7621SOL    HW224348   6.275   6.351   7.407 -0.4391  0.5453 -0.6242
 7622SOL     OW24349   5.797   6.208   1.307 -0.2133 -0.2076  0.0819
 7622SOL    HW124350   5.857   6.182   1.237 -0.6085 -1.0022  0.0345
 7622SOL    HW224351   5.828   6.159   1.384 -0.7218 -0.5188  0.0884
 7623SOL     OW24352   6.082   4.262   0.483 -0.2118  0.2203 -0.5195
 7623SOL    HW124353   6.054   4.182   0.528  0.6988 -1.8705 -3.5147
 7623SOL    HW224354   6.166   4.239   0.444  0.6039  3.0365 -0.5663
 7624SOL     OW24355   7.442   1.718   4.254 -0.2097 -0.3810  0.0563
 7624SOL    HW124356   7.526   1.759   4.273 -1.0836  2.0237 -1.0786
 7624SOL    HW224357   7.464   1.629   4.227  1.8296 -0.2945  1.3295
 7625SOL     OW24358   0.312   7.572   8.260  0.1613 -0.5256  0.2394
 7625SOL    HW124359   0.288   7.616   8.179  1.8648 -1.0010 -0.5295
 7625SOL    HW224360   0.251   7.499   8.267 -1.0889  0.5077  0.2774
 7626SOL     OW24361   6.544   2.001   2.676  0.2588 -0.2944 -0.3309
 7626SOL    HW124362   6.457   1.971   2.653 -0.8636  1.2209  1.6793
 7626SOL    HW224363   6.571   1.944   2.748  0.7447 -0.4745 -0.6525
 7627SOL     OW24364   2.934   6.540   3.012  0.2401  0.3290  0.0440
 7627SOL    HW124365   2.917   6.616   2.956  0.8048 -0.5554 -1.3529
 7627SOL    HW224366   3.005   6.568   3.069  1.0494  0.5727 -1.0596
 7628SOL     OW24367   1.723   3.845   1.835 -0.4642 -0.4875  0.3445
 7628SOL    HW124368   1.669   3.844   1.757 -0.6457 -1.6876  0.4631
 7628SOL    HW224369   1.710   3.758   1.874  1.1804 -0.6260  0.6242
 7629SOL     OW24370   0.351   5.239   0.552 -0.1090  0.0816  0.5381
 7629SOL    HW124371   0.391   5.176   0.493 -2.4017 -0.3734 -0.5738
 7629SOL    HW224372   0.353   5.322   0.504 -1.4580 -0.1691  0.0394
 7630SOL     OW24373   8.090   1.489   1.149 -0.2778 -0.1124 -0.0296
 7630SOL    HW124374   8.062   1.446   1.068  2.0702 -0.7373 -0.5519
 7630SOL    HW224375   8.108   1.579   1.124  3.0103 -0.9249 -0.8672
 7631SOL     OW24376   6.884   3.451   4.966 -0.4769  0.1700 -0.5661
 7631SOL    HW124377   6.848   3.365   4.947  1.3655 -0.7926  0.2362
 7631SOL    HW224378   6.844   3.477   5.049 -0.8455 -0.0044 -0.6896
 7632SOL     OW24379   3.655   0.735   4.658  0.1485  0.7755  0.9733
 7632SOL    HW124380   3.562   0.722   4.638  0.0827  1.5249  0.7741
 7632SOL    HW224381   3.700   0.674   4.600 -0.2835 -0.6423  2.1078
 7633SOL     OW24382   6.321   6.214   3.637  0.9143 -0.2994  0.4115
 7633SOL    HW124383   6.397   6.155   3.639 -0.6678 -2.3847  0.8608
 7633SOL    HW224384   6.316   6.243   3.546  0.3102 -2.8001 -0.4043
 7634SOL     OW24385   1.033   6.778   3.344  0.3356 -0.4049  0.2133
 7634SOL    HW124386   1.038   6.688   3.313 -2.7673 -0.5419 -0.0500
 7634SOL    HW224387   0.992   6.826   3.271 -0.1021  0.7592  1.2029
 7635SOL     OW24388   5.177   2.307   3.459  0.4017  0.1453 -0.0634
 7635SOL    HW124389   5.129   2.372   3.510  1.1519  0.7045 -0.0618
 7635SOL    HW224390   5.258   2.293   3.508  0.4892 -0.3818 -0.3544
 7636SOL     OW24391   4.414   5.294   7.001  0.1569 -0.3548 -0.4782
 7636SOL    HW124392   4.474   5.349   6.950  0.8222 -1.5158 -0.9622
 7636SOL    HW224393   4.333   5.345   7.007  1.1084  1.1286 -0.0145
 7637SOL     OW24394   8.286   3.380   3.521 -0.2134  0.0199  0.1538
 7637SOL    HW124395   8.306   3.352   3.432 -1.4820  2.4360 -0.9367
 7637SOL    HW224396   8.191   3.376   3.527 -0.2594  1.7330  0.7646
 7638SOL     OW24397   3.377   6.936   5.634 -0.0090 -0.3017  0.6515
 7638SOL    HW124398   3.353   6.989   5.558 -0.4397 -1.3244  0.0686
 7638SOL    HW224399   3.473   6.930   5.629  0.0809  0.7254  0.9381
 7639SOL     OW24400   6.621   2.411   0.466 -0.5016  0.0613 -0.0433
 7639SOL    HW124401   6.619   2.346   0.536 -0.5625 -0.3865 -0.4604
 7639SOL    HW224402   6.712   2.441   0.463 -0.6019  0.4202  0.5386
 7640SOL     OW24403   6.983   0.386   5.526  0.2842 -0.3647 -0.1715
 7640SOL    HW124404   7.065   0.348   5.495 -0.3745 -1.4282 -0.6305
 7640SOL    HW224405   6.992   0.390   5.621 -0.0818 -2.7106 -0.0185
 7641SOL     OW24406   3.239   6.209   4.027  0.1762 -0.1808  0.6169
 7641SOL    HW124407   3.261   6.287   4.078 -1.1230 -0.1831  1.2062
 7641SOL    HW224408   3.300   6.143   4.058  0.8520  0.4290  0.5895
 7642SOL     OW24409   4.167   5.064   4.640  0.7339 -0.1614  0.1804
 7642SOL    HW124410   4.263   5.059   4.640  0.7141 -0.6201 -0.2613
 7642SOL    HW224411   4.147   5.134   4.579  0.7288 -1.7869 -1.7526
 7643SOL     OW24412   1.985   4.774   7.376 -0.1767  0.0021  0.0134
 7643SOL    HW124413   1.947   4.759   7.289 -2.4859 -2.2370  1.3366
 7643SOL    HW224414   1.917   4.824   7.422  1.0686  1.2332  0.5237
 7644SOL     OW24415   5.635   7.916   5.065 -0.5563 -0.6134  0.2539
 7644SOL    HW124416   5.615   7.994   5.014  0.2463 -0.8018 -0.3534
 7644SOL    HW224417   5.565   7.854   5.042 -0.4060 -0.5670 -0.3470
 7645SOL     OW24418   6.330   4.937   0.947 -0.3347 -0.7085 -0.0487
 7645SOL    HW124419   6.291   4.984   0.874 -2.7497 -1.6513  0.5906
 7645SOL    HW224420   6.365   4.857   0.908  0.4581 -0.1474 -0.5178
 7646SOL     OW24421   0.865   1.471   7.723 -0.1694 -0.0189  0.2102
 7646SOL    HW124422   0.886   1.524   7.646 -0.6943 -1.0254 -0.6542
 7646SOL    HW224423   0.915   1.390   7.710 -1.2469 -0.7082  0.2706
 7647SOL     OW24424   7.506   2.693   2.807 -0.3512  0.7936 -0.2117
 7647SOL    HW124425   7.538   2.768   2.756 -0.7184  0.0836 -1.4982
 7647SOL    HW224426   7.411   2.697   2.797 -0.3705  0.1542 -0.2805
 7648SOL     OW24427   0.440   6.995   4.944  0.6231  0.2867  0.1557
 7648SOL    HW124428   0.412   6.971   4.855 -0.0646  1.4236  0.0655
 7648SOL    HW224429   0.370   6.963   5.001  1.6062 -1.4743  0.4125
 7649SOL     OW24430   7.074   3.882   6.468 -0.3238 -0.1076  0.7043
 7649SOL    HW124431   7.075   3.913   6.558 -0.4312 -0.3805  0.7991
 7649SOL    HW224432   7.065   3.962   6.416  3.4691  0.4261  0.7405
 7650SOL     OW24433   5.074   2.475   3.689 -0.2949 -0.0512 -0.7361
 7650SOL    HW124434   5.031   2.560   3.685 -0.9852 -0.4383 -1.5239
 7650SOL    HW224435   5.125   2.478   3.771 -0.2721  1.1256 -0.7857
 7651SOL     OW24436   1.230   4.518   1.563  0.6394 -0.3333  0.4537
 7651SOL    HW124437   1.235   4.582   1.492  1.7817 -0.7985  0.0951
 7651SOL    HW224438   1.321   4.497   1.583  0.2966 -1.1762  1.1797
 7652SOL     OW24439   5.795   5.901   4.683  0.0474 -0.5208  0.1520
 7652SOL    HW124440   5.809   5.995   4.671  0.5425 -0.7833 -1.3396
 7652SOL    HW224441   5.876   5.870   4.722  0.2934 -0.5108 -0.3477
 7653SOL     OW24442   7.589   4.901   0.715 -0.8129  0.3265 -0.3459
 7653SOL    HW124443   7.653   4.895   0.644  1.4725  1.9894  1.5087
 7653SOL    HW224444   7.624   4.845   0.784 -0.9341  1.8555  0.9704
 7654SOL     OW24445   5.653   1.899   5.057  0.2288 -0.4296  0.3153
 7654SOL    HW124446   5.747   1.904   5.044 -0.0743 -0.5231 -2.2274
 7654SOL    HW224447   5.642   1.849   5.138  2.3552 -0.5657  0.5385
 7655SOL     OW24448   4.624   4.583   0.336  0.0450  0.1586  0.1732
 7655SOL    HW124449   4.640   4.582   0.431  1.1097  0.4062  0.0006
 7655SOL    HW224450   4.655   4.669   0.308 -2.6547  1.0998 -0.0006
 7656SOL     OW24451   1.931   2.936   5.188 -0.6217 -0.5982 -0.0615
 7656SOL    HW124452   1.950   2.870   5.121 -0.1518  0.6292 -1.1642
 7656SOL    HW224453   1.835   2.942   5.190 -0.6480 -0.9352 -0.3267
 7657SOL     OW24454   7.813   2.221   7.816  0.4186 -0.1791 -0.3106
 7657SOL    HW124455   7.873   2.247   7.886  0.8030 -1.2796 -0.2261
 7657SOL    HW224456   7.735   2.191   7.861  0.1721  0.3380 -0.3936
 7658SOL     OW24457   1.386   0.608   1.569 -0.0449  0.5246  0.0185
 7658SOL    HW124458   1.319   0.611   1.637  0.5609 -0.1870  0.6537
 7658SOL    HW224459   1.337   0.607   1.487 -0.8271 -0.5319  0.4839
 7659SOL     OW24460   8.121   7.545   0.547 -0.6811  0.0505 -0.0333
 7659SOL    HW124461   8.072   7.569   0.626 -0.3409  0.7920 -0.0491
 7659SOL    HW224462   8.203   7.594   0.553 -0.5904 -0.0059 -0.7805
 7660SOL     OW24463   7.883   4.016   2.446 -0.0583 -0.0741 -0.0747
 7660SOL    HW124464   7.970   4.005   2.408 -0.4446 -0.0219 -0.9638
 7660SOL    HW224465   7.847   4.093   2.403 -0.4429  0.0647  0.4880
 7661SOL     OW24466   3.489   4.353   5.995  0.1733 -0.3534  0.0274
 7661SOL    HW124467   3.394   4.352   6.009  0.3187 -0.2497  1.0572
 7661SOL    HW224468   3.523   4.405   6.067  1.0095 -0.2817 -0.4188
 7662SOL     OW24469   6.810   5.572   2.369 -0.1680  0.0279 -0.3670
 7662SOL    HW124470   6.753   5.497   2.388  1.2624 -1.2727 -1.0592
 7662SOL    HW224471   6.822   5.616   2.453 -0.7312 -0.7372  0.1179
 7663SOL     OW24472   5.262   0.928   5.913 -0.2323 -0.3994  0.1269
 7663SOL    HW124473   5.338   0.929   5.855 -0.4832 -1.6426 -0.2420
 7663SOL    HW224474   5.292   0.879   5.990 -1.3402 -3.0211 -1.0247
 7664SOL     OW24475   0.080   7.825   4.580 -0.4881 -0.3382  0.0363
 7664SOL    HW124476   0.049   7.735   4.568  0.8978 -0.9227  0.6891
 7664SOL    HW224477   0.063   7.868   4.496  1.0644 -1.8987 -1.1017
 7665SOL     OW24478   6.268   3.148   5.529 -0.5090 -0.0152  0.3842
 7665SOL    HW124479   6.355   3.112   5.542 -0.0315  0.4845 -1.3896
 7665SOL    HW224480   6.209   3.073   5.538  0.3581 -0.9544 -1.6854
 7666SOL     OW24481   4.846   1.465   5.094  0.3303 -0.0194 -0.0520
 7666SOL    HW124482   4.902   1.393   5.065 -0.9839 -1.4992  0.9490
 7666SOL    HW224483   4.764   1.452   5.047 -0.5981 -0.3679  1.6084
 7667SOL     OW24484   4.633   0.381   0.413  0.4116  0.1139  0.6191
 7667SOL    HW124485   4.716   0.350   0.376  0.1518  1.7554 -1.4489
 7667SOL    HW224486   4.656   0.412   0.501  1.7708 -0.4477  0.4757
 7668SOL     OW24487   1.074   7.353   0.999  0.2924  0.4534 -0.1876
 7668SOL    HW124488   0.999   7.359   0.940 -0.1503 -0.3850  0.2834
 7668SOL    HW224489   1.148   7.335   0.941  0.4343  2.9749 -0.8388
 7669SOL     OW24490   4.740   2.015   7.860 -0.0535 -0.0050  0.0155
 7669SOL    HW124491   4.730   2.046   7.770 -0.2317  0.5676  0.2305
 7669SOL    HW224492   4.652   1.992   7.888  0.0898 -0.8118 -0.1743
 7670SOL     OW24493   0.062   8.123   1.764 -0.0172 -0.3925  0.1265
 7670SOL    HW124494   0.122   8.190   1.795  0.6707  0.0885 -2.1478
 7670SOL    HW224495   0.119   8.050   1.737 -0.6226 -1.0528  0.6153
 7671SOL     OW24496   2.474   4.637   3.724  0.3241 -0.1185 -0.4505
 7671SOL    HW124497   2.520   4.651   3.806 -1.1629  0.8055  0.2518
 7671SOL    HW224498   2.432   4.721   3.705 -2.3345 -1.3472 -0.2419
 7672SOL     OW24499   6.351   4.667   7.648 -0.1297  0.1414  0.2708
 7672SOL    HW124500   6.397   4.691   7.568  1.8954  1.2362  1.7353
 7672SOL    HW224501   6.391   4.584   7.674 -1.0572 -0.4119 -0.0405
 7673SOL     OW24502   3.705   6.638   5.230  0.2371  0.1593  0.4876
 7673SOL    HW124503   3.753   6.721   5.232 -0.5124  0.6337 -0.8084
 7673SOL    HW224504   3.687   6.619   5.322  0.4721  1.4103  0.8037
 7674SOL     OW24505   0.371   4.825   5.890 -0.0932  0.3053 -0.4352
 7674SOL    HW124506   0.398   4.900   5.837 -0.6878  1.4174  0.7989
 7674SOL    HW224507   0.291   4.793   5.847 -0.2186  0.8099 -0.5829
 7675SOL     OW24508   7.844   4.433   5.631 -0.0261 -0.5084 -0.1608
 7675SOL    HW124509   7.778   4.460   5.567 -0.8349 -1.2262  0.3529
 7675SOL    HW224510   7.821   4.482   5.710  0.5727 -0.1219 -0.2252
 7676SOL     OW24511   4.976   3.927   6.637 -0.2103 -0.2669  1.1217
 7676SOL    HW124512   5.037   3.995   6.608  0.5388 -1.3243  0.1792
 7676SOL    HW224513   4.892   3.953   6.600  0.1414 -0.0584  0.4667
 7677SOL     OW24514   7.510   7.728   0.016 -0.5831 -0.1100 -0.2899
 7677SOL    HW124515   7.454   7.795  -0.024  0.8328  1.5203  0.4100
 7677SOL    HW224516   7.583   7.719  -0.046  0.4388  0.7316  0.7924
 7678SOL     OW24517   4.929   3.831   5.576  0.1818 -0.3006  0.1914
 7678SOL    HW124518   4.893   3.896   5.637 -1.2718 -1.6456  0.7971
 7678SOL    HW224519   5.006   3.796   5.621  0.4064  0.3057  0.2824
 7679SOL     OW24520   2.863   2.678   5.022 -0.1185  0.4402  0.0276
 7679SOL    HW124521   2.932   2.671   4.956 -0.5211 -0.8542 -0.2553
 7679SOL    HW224522   2.804   2.745   4.988  0.1683  0.4432 -0.4758
 7680SOL     OW24523   1.822   5.595   5.197 -0.0305  0.0336  0.0769
 7680SOL    HW124524   1.917   5.610   5.190 -0.1666  0.3559 -1.1486
 7680SOL    HW224525   1.795   5.647   5.272  0.7742 -0.0922  0.4562
 7681SOL     OW24526   1.820   7.281   5.356 -0.0128  0.3114  0.7768
 7681SOL    HW124527   1.785   7.329   5.282 -0.8478 -1.7294 -0.1993
 7681SOL    HW224528   1.745   7.233   5.392  1.0956 -1.5530  0.6712
 7682SOL     OW24529   0.058   4.893   6.616  0.3655  0.7441  0.6523
 7682SOL    HW124530   0.152   4.910   6.606  0.6036 -0.6533  0.3663
 7682SOL    HW224531   0.023   4.902   6.527  0.0103  2.4525  0.9516
 7683SOL     OW24532   3.072   3.730   0.281  0.8693  0.2179  0.0164
 7683SOL    HW124533   3.117   3.799   0.330  1.3855  0.1079 -0.2948
 7683SOL    HW224534   3.125   3.719   0.202  0.2082  0.1847 -0.4222
 7684SOL     OW24535   4.343   2.997   3.930  0.3867 -0.2429  0.0900
 7684SOL    HW124536   4.358   3.061   3.999 -4.2111 -0.3380  1.3926
 7684SOL    HW224537   4.326   3.049   3.852  1.6570 -0.0152 -0.0333
 7685SOL     OW24538   1.590   7.481   7.128  0.3017 -0.3456 -0.1559
 7685SOL    HW124539   1.516   7.541   7.131 -0.0063 -0.7966  2.7078
 7685SOL    HW224540   1.656   7.527   7.075 -1.1647  1.0217 -0.8356
 7686SOL     OW24541   1.333   2.980   3.845 -0.5260  0.5069 -0.2520
 7686SOL    HW124542   1.377   3.053   3.801  1.7443  0.4418  1.8478
 7686SOL    HW224543   1.341   2.907   3.784  0.2247  1.1085 -0.8921
 7687SOL     OW24544   3.637   2.564   0.242 -0.1297 -0.2611  0.1294
 7687SOL    HW124545   3.567   2.578   0.307 -1.0166 -2.3098 -0.3573
 7687SOL    HW224546   3.690   2.493   0.278  0.2794 -0.3686 -0.6689
 7688SOL     OW24547   5.421   5.582   7.517  0.7381 -0.5253  0.9723
 7688SOL    HW124548   5.439   5.490   7.536 -0.5483 -0.7915  0.9506
 7688SOL    HW224549   5.351   5.606   7.578  1.4266  0.5886  1.3301
 7689SOL     OW24550   2.007   2.133   4.442 -0.0908 -0.5976 -0.1867
 7689SOL    HW124551   2.019   2.046   4.481 -0.6605  0.0720  1.5255
 7689SOL    HW224552   2.095   2.161   4.418  0.1737 -1.3579 -0.1144
 7690SOL     OW24553   5.051   7.127   3.808 -0.5471  0.4901 -0.3698
 7690SOL    HW124554   5.064   7.162   3.720  0.3044 -0.5176 -0.6594
 7690SOL    HW224555   4.968   7.079   3.804  1.5804 -3.2993 -1.8831
 7691SOL     OW24556   4.826   0.507   6.289  0.1863  0.2074 -0.3834
 7691SOL    HW124557   4.873   0.590   6.298 -0.8314  0.6827  0.7371
 7691SOL    HW224558   4.888   0.440   6.317  0.5643  0.7294  0.0323
 7692SOL     OW24559   3.765   1.623   3.077 -0.1870  0.0100 -0.3537
 7692SOL    HW124560   3.680   1.580   3.077  0.6799 -1.7526 -0.2666
 7692SOL    HW224561   3.812   1.584   3.003  0.4044  1.2692 -0.6612
 7693SOL     OW24562   5.211   7.678   1.451 -0.3848  0.3050 -0.3886
 7693SOL    HW124563   5.196   7.586   1.471  1.3507  0.1816  0.4019
 7693SOL    HW224564   5.284   7.678   1.389 -0.9473  1.1123 -1.0743
 7694SOL     OW24565   7.603   7.598   0.788  0.7699 -0.1578 -0.5003
 7694SOL    HW124566   7.652   7.628   0.712  0.3054  2.5807  0.2444
 7694SOL    HW224567   7.557   7.676   0.820 -0.6500 -1.7110  1.3748
 7695SOL     OW24568   5.018   0.152   1.670  0.0072 -0.1143 -0.0793
 7695SOL    HW124569   5.042   0.105   1.590 -0.0793  0.2122 -0.2966
 7695SOL    HW224570   5.007   0.243   1.643 -0.8886 -0.1535  0.1257
 7696SOL     OW24571   2.673   4.905   3.373 -0.3739 -0.1838  0.1977
 7696SOL    HW124572   2.679   4.816   3.337  4.9160  0.5093 -1.1728
 7696SOL    HW224573   2.701   4.896   3.464  1.8817  0.2346 -0.4200
 7697SOL     OW24574   0.563   7.414   1.669 -0.4998  0.1080  0.1034
 7697SOL    HW124575   0.485   7.431   1.723 -0.2527  0.3254  0.3957
 7697SOL    HW224576   0.538   7.446   1.582 -0.5003  0.8090  0.3538
 7698SOL     OW24577   5.612   7.242   4.878  0.1964  0.6790  0.4082
 7698SOL    HW124578   5.620   7.319   4.934  0.4754  0.0268  1.2806
 7698SOL    HW224579   5.660   7.174   4.925 -3.1387 -1.0196  1.4899
 7699SOL     OW24580   3.073   5.517   0.596  0.0153  0.0383  0.1130
 7699SOL    HW124581   3.002   5.463   0.560  0.1988 -0.9437  1.1856
 7699SOL    HW224582   3.091   5.478   0.682  1.7239  0.3900 -0.0638
 7700SOL     OW24583   7.878   7.074   4.591  0.3749  0.0657 -0.0266
 7700SOL    HW124584   7.875   7.138   4.520  0.9701 -0.8254 -0.8641
 7700SOL    HW224585   7.938   7.006   4.561 -0.4787 -1.0527  0.7121
 7701SOL     OW24586   6.843   4.745   7.311  0.1043  0.2835  0.0241
 7701SOL    HW124587   6.804   4.746   7.224 -1.3510 -1.5327  0.6265
 7701SOL    HW224588   6.768   4.754   7.371  0.8509 -0.8189  1.1393
 7702SOL     OW24589   2.520   7.289   6.991  0.4131 -0.4764 -0.0941
 7702SOL    HW124590   2.430   7.318   7.004  0.8334  0.1154  1.6858
 7702SOL    HW224591   2.565   7.367   6.958 -0.0531 -1.2234 -2.6126
 7703SOL     OW24592   3.340   4.039   5.794 -0.0415 -0.0728  0.3883
 7703SOL    HW124593   3.403   4.002   5.732  0.5716 -1.0549  1.5637
 7703SOL    HW224594   3.352   4.133   5.788  2.0301 -0.2559  1.0565
 7704SOL     OW24595   5.451   7.708   5.029  0.1551 -0.0949 -0.1025
 7704SOL    HW124596   5.409   7.706   4.943  0.8926 -0.9316 -0.4451
 7704SOL    HW224597   5.380   7.695   5.091 -0.5943  1.8370 -0.5006
 7705SOL     OW24598   1.744   5.110   0.491  0.4182 -0.1762  0.1802
 7705SOL    HW124599   1.676   5.086   0.554 -1.0525 -0.9485 -1.6579
 7705SOL    HW224600   1.765   5.028   0.447  0.1812  0.6542 -1.5145
 7706SOL     OW24601   3.145   5.964   3.466 -0.5529  0.5754  0.4469
 7706SOL    HW124602   3.154   5.886   3.412 -0.3782  0.8736  0.0332
 7706SOL    HW224603   3.104   6.029   3.407  2.1126  1.7558 -0.1846
 7707SOL     OW24604   7.495   7.428   8.281  0.4155  0.0480 -0.4907
 7707SOL    HW124605   7.540   7.502   8.323 -0.5054 -0.1480  0.8870
 7707SOL    HW224606   7.550   7.353   8.299  1.2662  0.3564 -1.7442
 7708SOL     OW24607   3.607   6.652   1.335 -0.1983  0.3963  0.3251
 7708SOL    HW124608   3.528   6.662   1.281 -1.0118  0.0554  1.4212
 7708SOL    HW224609   3.600   6.564   1.371  0.4222  0.5509  0.8331
 7709SOL     OW24610   6.496   3.258   1.782 -0.1882 -0.4879 -0.1601
 7709SOL    HW124611   6.553   3.247   1.858 -0.7097  1.3411  0.5040
 7709SOL    HW224612   6.408   3.240   1.815 -0.9271  4.1755  0.6792
 7710SOL     OW24613   0.966   2.503   7.805  0.2423  0.4348 -0.0956
 7710SOL    HW124614   0.928   2.441   7.867 -0.5322 -0.4493 -1.4394
 7710SOL    HW224615   1.057   2.511   7.832  0.3529 -1.2996  0.0983
 7711SOL     OW24616   4.885   3.194   0.111  0.1226 -0.4668  0.5085
 7711SOL    HW124617   4.807   3.169   0.061  0.6808 -1.3069  0.0377
 7711SOL    HW224618   4.958   3.163   0.058  0.7533 -0.4923  1.3743
 7712SOL     OW24619   1.706   1.622   3.205  0.0895  0.7551 -0.9077
 7712SOL    HW124620   1.686   1.631   3.298  0.6748  0.4373 -0.7509
 7712SOL    HW224621   1.776   1.685   3.189  2.1010 -1.2881 -0.4615
 7713SOL     OW24622   2.861   7.557   6.301 -0.4761  0.0756  0.1827
 7713SOL    HW124623   2.782   7.507   6.280  1.3568 -1.7550 -2.7802
 7713SOL    HW224624   2.835   7.649   6.293 -1.6449 -0.5313 -3.5210
 7714SOL     OW24625   4.588   1.250   5.355  0.2520  0.0438 -0.1223
 7714SOL    HW124626   4.527   1.322   5.370 -0.1081 -0.6238  1.8284
 7714SOL    HW224627   4.561   1.214   5.270 -2.6153 -0.7095  1.0234
 7715SOL     OW24628   7.311   7.354   3.483 -0.5543  0.0265 -0.5964
 7715SOL    HW124629   7.258   7.318   3.554  1.5729  0.7526  1.4487
 7715SOL    HW224630   7.332   7.279   3.429  0.2878 -1.1242  1.2594
 7716SOL     OW24631   5.574   3.915   7.005 -0.1287  0.2925  0.0239
 7716SOL    HW124632   5.513   3.972   7.051 -1.4171 -1.5141  0.6345
 7716SOL    HW224633   5.642   3.974   6.971 -0.7160  2.0010  1.7181
 7717SOL     OW24634   5.785   0.070   2.704 -0.0175 -0.0042 -0.3869
 7717SOL    HW124635   5.849  -0.001   2.697 -0.7358 -1.0158  2.3991
 7717SOL    HW224636   5.837   0.146   2.729  0.1465 -0.8352  1.9280
 7718SOL     OW24637   4.811   3.307   7.908 -0.4099  0.1389  0.2325
 7718SOL    HW124638   4.760   3.329   7.986 -0.7534 -1.1211  0.3700
 7718SOL    HW224639   4.900   3.298   7.940 -0.6112 -0.7556  0.5588
 7719SOL     OW24640   3.807   1.040   2.914 -0.0110  0.0174 -0.6664
 7719SOL    HW124641   3.763   1.122   2.892 -0.4408 -0.4016 -1.3723
 7719SOL    HW224642   3.758   0.972   2.867 -1.1402 -0.9351  1.7776
 7720SOL     OW24643   2.430   2.495   0.645  0.2672 -0.4264  0.1793
 7720SOL    HW124644   2.504   2.554   0.638 -0.3873  0.3223 -0.5715
 7720SOL    HW224645   2.353   2.552   0.640 -0.3944 -1.4323 -1.6384
 7721SOL     OW24646   3.149   5.305   4.203 -0.1556  0.0643  0.2946
 7721SOL    HW124647   3.227   5.352   4.173 -1.0048  1.2882 -0.0361
 7721SOL    HW224648   3.108   5.272   4.122  1.1511 -2.4599  0.5996
 7722SOL     OW24649   2.819   1.345   0.055 -0.1122  0.2681  0.3799
 7722SOL    HW124650   2.892   1.286   0.035 -0.0198 -0.0117  1.4972
 7722SOL    HW224651   2.820   1.409  -0.015  1.6467  0.6638  0.7467
 7723SOL     OW24652   1.309   5.968   7.286  0.3496  0.0021 -0.0587
 7723SOL    HW124653   1.299   5.939   7.195 -1.0824  0.4696 -0.0535
 7723SOL    HW224654   1.296   6.063   7.282  1.8096  0.2411  0.4187
 7724SOL     OW24655   3.968   2.107   0.311  0.4906 -0.4050  0.4953
 7724SOL    HW124656   3.911   2.090   0.236  0.7462 -0.7518  0.3794
 7724SOL    HW224657   4.043   2.050   0.297  1.1768  0.5288  0.2976
 7725SOL     OW24658   5.775   2.616   5.771 -0.5699 -0.2045 -0.0812
 7725SOL    HW124659   5.841   2.557   5.736 -0.1669  0.6324 -0.7479
 7725SOL    HW224660   5.692   2.582   5.739 -0.3727 -0.6561 -0.1048
 7726SOL     OW24661   2.008   6.090   8.271 -0.2677 -0.5243 -0.0861
 7726SOL    HW124662   1.916   6.113   8.258 -0.1541 -0.3057 -0.5307
 7726SOL    HW224663   2.023   6.102   8.365 -1.2640 -2.7419  0.3646
 7727SOL     OW24664   5.322   5.999   2.160 -0.4848  0.2642  0.4436
 7727SOL    HW124665   5.229   5.991   2.184 -1.0248 -0.1711 -1.6817
 7727SOL    HW224666   5.353   5.909   2.154 -0.0026  0.4025  0.8292
 7728SOL     OW24667   4.550   1.089   4.295 -0.2627  0.2148 -0.4309
 7728SOL    HW124668   4.467   1.042   4.303  0.0742 -0.0551  1.8731
 7728SOL    HW224669   4.614   1.020   4.276 -0.5806  0.4657 -2.5701
 7729SOL     OW24670   3.068   1.681   6.236  0.0333 -0.1698 -0.0514
 7729SOL    HW124671   3.042   1.654   6.324 -0.9788  2.8363  0.6325
 7729SOL    HW224672   2.987   1.675   6.184 -0.6008  2.8443  0.4862
 7730SOL     OW24673   7.465   4.550   3.548  0.6780  0.7434  0.4815
 7730SOL    HW124674   7.514   4.494   3.488 -0.5425  0.7607 -0.5493
 7730SOL    HW224675   7.507   4.537   3.633  0.0042 -2.2337  0.3996
 7731SOL     OW24676   1.366   1.220   2.666 -0.0369  0.3702  0.1290
 7731SOL    HW124677   1.446   1.187   2.707  1.1408 -1.5856 -3.5182
 7731SOL    HW224678   1.303   1.149   2.675 -0.5819  0.9117  0.6984
 7732SOL     OW24679   2.993   6.548   2.422 -0.0300 -0.3399 -0.1581
 7732SOL    HW124680   3.026   6.561   2.333  1.9614  0.7627  0.7169
 7732SOL    HW224681   2.992   6.453   2.434  0.7367 -0.4530 -0.9791
 7733SOL     OW24682   7.999   4.599   2.907  0.2019 -0.5354  0.1322
 7733SOL    HW124683   8.053   4.536   2.860  0.7741  1.6548 -2.3277
 7733SOL    HW224684   7.913   4.593   2.865  0.3353  0.4543 -0.3163
 7734SOL     OW24685   2.756   2.629   2.759  0.7338  0.1718  0.7258
 7734SOL    HW124686   2.708   2.710   2.743  0.3494  0.1355  1.7224
 7734SOL    HW224687   2.693   2.571   2.800  0.8519 -0.8356 -0.4873
 7735SOL     OW24688   1.731   1.113   5.112  0.1424  0.1445  0.1043
 7735SOL    HW124689   1.671   1.041   5.128 -0.4812  0.8550  0.9642
 7735SOL    HW224690   1.788   1.081   5.041 -0.8594 -0.7425 -0.3107
 7736SOL     OW24691   0.175   7.326   2.510 -0.0980  0.7765  0.4229
 7736SOL    HW124692   0.231   7.303   2.435  0.4895  1.7179  0.5593
 7736SOL    HW224693   0.137   7.243   2.538 -0.3469  0.4215 -0.9380
 7737SOL     OW24694   0.385   5.800   4.851  0.0693 -0.3057  0.3990
 7737SOL    HW124695   0.426   5.745   4.917  0.9444 -0.0759  0.0635
 7737SOL    HW224696   0.323   5.743   4.807  1.0976 -1.0862 -0.0645
 7738SOL     OW24697   0.850   4.714   0.615  0.2214  0.1494 -0.3041
 7738SOL    HW124698   0.861   4.745   0.526 -0.2911  2.8492  0.5329
 7738SOL    HW224699   0.763   4.744   0.641  0.8430  0.4926  1.5039
 7739SOL     OW24700   2.640   8.253   7.638  0.0420  0.2453 -0.6852
 7739SOL    HW124701   2.570   8.234   7.576  1.1304 -1.4369 -1.4355
 7739SOL    HW224702   2.697   8.176   7.635  1.6640  1.3615  0.2876
 7740SOL     OW24703   8.029   5.688   5.307 -0.0900  0.5631  0.0874
 7740SOL    HW124704   7.988   5.720   5.387  0.1218 -1.8705  1.2159
 7740SOL    HW224705   8.061   5.601   5.330  0.8837  0.2403 -2.3585
 7741SOL     OW24706   5.714   2.304   2.410 -0.3069  0.5717  0.1388
 7741SOL    HW124707   5.745   2.301   2.319  0.9232  1.0578  0.5315
 7741SOL    HW224708   5.620   2.290   2.403 -0.0167 -0.8974 -1.0864
 7742SOL     OW24709   6.132   6.786   4.870 -0.4008 -0.0952 -0.1186
 7742SOL    HW124710   6.215   6.738   4.863 -0.2572  0.1983 -0.4523
 7742SOL    HW224711   6.145   6.845   4.944 -1.3479 -2.0821  1.6685
 7743SOL     OW24712   4.222   4.102   7.967  0.3959  0.3760 -0.2914
 7743SOL    HW124713   4.243   4.039   7.898  1.5126  0.4755 -0.0582
 7743SOL    HW224714   4.127   4.106   7.968  0.3563  0.1011 -1.5870
 7744SOL     OW24715   1.531   6.903   4.398  0.0381  0.4064  0.5225
 7744SOL    HW124716   1.469   6.943   4.459  0.5628  0.2512  1.1664
 7744SOL    HW224717   1.606   6.878   4.453  1.6927  2.7448 -0.6009
 7745SOL     OW24718   2.987   6.157   0.080 -0.2648  0.0461 -0.1431
 7745SOL    HW124719   2.968   6.206   0.160  1.0961  0.4526 -0.0508
 7745SOL    HW224720   3.029   6.221   0.023  0.6891 -0.7851 -0.3801
 7746SOL     OW24721   8.279   1.492   4.476 -0.5451 -0.0096  0.3033
 7746SOL    HW124722   8.193   1.513   4.512 -0.8117 -0.3198 -0.1453
 7746SOL    HW224723   8.338   1.556   4.515 -1.3696  1.7473 -1.2356
 7747SOL     OW24724   4.660   5.745   3.309  0.0728  0.4017 -0.0555
 7747SOL    HW124725   4.629   5.812   3.249  0.6495 -0.8057 -1.7450
 7747SOL    HW224726   4.641   5.662   3.265 -1.1956 -0.5851  2.2659
 7748SOL     OW24727   7.247   3.028   7.385  0.6577 -0.2582 -0.0110
 7748SOL    HW124728   7.212   2.945   7.415  1.5129 -0.6967 -0.1988
 7748SOL    HW224729   7.338   3.027   7.414  0.1956  1.3905  1.5434
 7749SOL     OW24730   7.417   5.603   6.194  0.5652  0.0574 -0.5446
 7749SOL    HW124731   7.472   5.598   6.272 -1.6736  1.2514  1.1591
 7749SOL    HW224732   7.479   5.614   6.122  2.7583 -2.2809  0.8780
 7750SOL     OW24733   6.866   0.254   3.144  0.4322  0.6329 -0.7476
 7750SOL    HW124734   6.831   0.169   3.170  1.4617  0.3463 -0.3047
 7750SOL    HW224735   6.805   0.317   3.183 -0.3135  0.1128 -1.0404
 7751SOL     OW24736   1.428   8.181   1.150  0.3294  0.7752 -0.2738
 7751SOL    HW124737   1.351   8.196   1.205  0.8172 -1.7563  1.1354
 7751SOL    HW224738   1.464   8.098   1.180  2.7791  1.1922 -1.9196
 7752SOL     OW24739   6.988   7.662   2.995  0.7878 -0.5092  0.2855
 7752SOL    HW124740   6.954   7.745   2.961  0.0623 -1.2877 -0.9365
 7752SOL    HW224741   7.081   7.663   2.974  0.7957  0.0271  0.3472
 7753SOL     OW24742   3.429   4.003   8.138 -0.1159  0.4610  0.1942
 7753SOL    HW124743   3.345   4.047   8.123  0.0828  1.2664  1.3443
 7753SOL    HW224744   3.425   3.973   8.229  1.5712  2.2062  0.8803
 7754SOL     OW24745   5.190   7.347   3.939 -0.1642 -0.2589  0.2291
 7754SOL    HW124746   5.143   7.428   3.919 -0.1712 -0.5241 -0.8482
 7754SOL    HW224747   5.138   7.278   3.898  0.6797 -0.6505 -0.1902
 7755SOL     OW24748   8.175   6.172   2.434  0.3499 -0.0293 -0.0803
 7755SOL    HW124749   8.208   6.171   2.345 -0.5132 -1.2262 -0.4082
 7755SOL    HW224750   8.251   6.154   2.489  0.9328  0.9828 -0.5471
 7756SOL     OW24751   6.177   3.673   0.813 -0.6109  0.1693  0.7260
 7756SOL    HW124752   6.220   3.645   0.732 -0.6679 -0.7139  1.0017
 7756SOL    HW224753   6.213   3.760   0.829  0.5047 -0.2436  0.5355
 7757SOL     OW24754   5.392   3.018   1.890 -0.0977 -0.5599  0.2651
 7757SOL    HW124755   5.471   2.964   1.887  1.0251  1.1083 -3.0279
 7757SOL    HW224756   5.329   2.971   1.835  0.0793  0.2499 -0.6431
 7758SOL     OW24757   7.949   7.842   0.479 -0.1977 -0.5242  0.4486
 7758SOL    HW124758   7.904   7.918   0.514  0.9099 -0.2086  1.1908
 7758SOL    HW224759   7.970   7.866   0.389  1.2223  0.5267  1.0502
 7759SOL     OW24760   7.077   0.934   0.411 -0.6008 -0.6040 -0.1902
 7759SOL    HW124761   7.127   0.855   0.431 -0.6465 -0.3012  1.1368
 7759SOL    HW224762   7.134   1.006   0.437  0.6976 -0.0531 -4.1452
 7760SOL     OW24763   1.857   0.668   3.400 -0.0689  0.1242 -0.2116
 7760SOL    HW124764   1.918   0.635   3.466 -0.1249 -1.1900 -0.8057
 7760SOL    HW224765   1.771   0.639   3.429 -0.0216 -1.0277 -1.2061
 7761SOL     OW24766   7.167   2.609   7.756 -0.2487  0.0522 -0.0031
 7761SOL    HW124767   7.121   2.539   7.711 -0.9679  0.0028  0.7850
 7761SOL    HW224768   7.243   2.567   7.796 -0.3481 -0.1583 -0.0385
 7762SOL     OW24769   3.037   3.818   3.676 -0.1137  0.6729 -0.0946
 7762SOL    HW124770   2.976   3.891   3.669 -1.7307 -0.7633 -1.7858
 7762SOL    HW224771   2.982   3.740   3.666  1.9629 -0.6774 -1.5086
 7763SOL     OW24772   5.733   2.429   0.109 -0.8728  0.1000 -0.2474
 7763SOL    HW124773   5.766   2.355   0.160  2.1200  1.1362 -0.5815
 7763SOL    HW224774   5.681   2.389   0.039  0.6938 -1.6925 -0.4147
 7764SOL     OW24775   2.986   0.308   2.389 -0.2335 -0.5270  0.6465
 7764SOL    HW124776   2.952   0.384   2.436  1.0242 -0.1231  0.9405
 7764SOL    HW224777   2.914   0.245   2.389 -0.4543 -0.3223  2.6347
 7765SOL     OW24778   5.303   6.625   8.005  0.2364 -0.9307  0.0564
 7765SOL    HW124779   5.363   6.580   7.946  1.3397 -1.1801  1.3235
 7765SOL    HW224780   5.353   6.700   8.037 -0.5836 -0.4233  0.1464
 7766SOL     OW24781   8.249   1.573   5.908 -0.1288 -0.1584 -0.3400
 7766SOL    HW124782   8.335   1.602   5.878 -1.2177  2.4995 -1.0645
 7766SOL    HW224783   8.223   1.505   5.846 -0.0225  1.4807 -2.2150
 7767SOL     OW24784   5.147   1.796   4.102 -0.0413  0.6080 -0.1879
 7767SOL    HW124785   5.238   1.783   4.125  0.0768  0.0688 -0.9556
 7767SOL    HW224786   5.145   1.880   4.056 -0.3555  1.9421  2.1678
 7768SOL     OW24787   7.653   2.233   5.592  0.2594 -0.7457 -0.8028
 7768SOL    HW124788   7.597   2.297   5.547 -1.0027 -2.5460 -1.8263
 7768SOL    HW224789   7.727   2.220   5.533  1.5901  1.2820  0.3412
 7769SOL     OW24790   5.230   5.851   7.487  0.4849  0.5544  0.0742
 7769SOL    HW124791   5.208   5.911   7.417  1.4282 -1.5612 -2.1026
 7769SOL    HW224792   5.154   5.794   7.496  1.2005 -0.5268 -0.6989
 7770SOL     OW24793   7.970   4.432   0.478 -0.0983 -0.3930  0.0364
 7770SOL    HW124794   7.965   4.468   0.390 -0.3803 -1.0243 -0.2151
 7770SOL    HW224795   7.893   4.375   0.484 -0.9805  0.8928  1.2629
 7771SOL     OW24796   2.348   6.255   5.456 -0.4184  0.1333  0.5365
 7771SOL    HW124797   2.407   6.324   5.486  1.5022 -0.8245 -0.9177
 7771SOL    HW224798   2.386   6.175   5.491 -1.3626 -0.3957  0.3442
 7772SOL     OW24799   7.982   7.583   6.766  0.3230  0.3949  0.0800
 7772SOL    HW124800   8.035   7.523   6.818  0.3265 -0.5877 -1.0520
 7772SOL    HW224801   7.978   7.544   6.679 -2.5595  0.2345  0.2064
 7773SOL     OW24802   6.432   3.283   4.019  0.2455  0.1724  0.2484
 7773SOL    HW124803   6.494   3.300   3.949  0.2776  1.8447  0.6562
 7773SOL    HW224804   6.486   3.272   4.097  0.1287 -0.0477  0.2973
 7774SOL     OW24805   6.514   5.690   2.042 -0.0402 -0.4611  0.4038
 7774SOL    HW124806   6.581   5.730   2.098 -0.7803  1.7486 -0.2766
 7774SOL    HW224807   6.544   5.707   1.953 -0.6803 -0.8902  0.1064
 7775SOL     OW24808   0.311   6.097   3.956 -0.3663  0.2563 -0.2438
 7775SOL    HW124809   0.262   6.082   3.876  1.2852  0.3469 -1.2986
 7775SOL    HW224810   0.379   6.029   3.956 -0.3873  0.2279  1.0941
 7776SOL     OW24811   2.858   7.805   0.696 -0.4669  0.2115  0.0133
 7776SOL    HW124812   2.854   7.854   0.614  0.4868  0.7359  0.2787
 7776SOL    HW224813   2.931   7.744   0.684  1.2327  1.9355  1.3676
 7777SOL     OW24814   6.842   7.480   3.610  0.4166 -0.3533 -0.5383
 7777SOL    HW124815   6.840   7.505   3.518  2.4767  0.4628 -0.3838
 7777SOL    HW224816   6.918   7.422   3.618 -0.2833 -1.1470  0.4672
 7778SOL     OW24817   6.876   4.662   1.150 -0.0039  0.1142 -0.0800
 7778SOL    HW124818   6.801   4.671   1.208 -1.2839 -3.1062 -1.1376
 7778SOL    HW224819   6.930   4.593   1.190  2.2802  2.1184  0.4700
 7779SOL     OW24820   1.769   0.187   0.269  0.4545 -0.2867  0.2131
 7779SOL    HW124821   1.688   0.139   0.254  0.1788  0.7975 -1.9753
 7779SOL    HW224822   1.837   0.134   0.227  0.0881  1.3416 -2.6021
 7780SOL     OW24823   2.474   3.679   1.792  0.0395  0.2387  0.1441
 7780SOL    HW124824   2.435   3.766   1.795 -1.0534 -0.2148 -0.6078
 7780SOL    HW224825   2.568   3.694   1.796 -0.1427  1.4558 -0.1047
 7781SOL     OW24826   3.381   2.826   7.898 -0.7815 -0.3076  0.2600
 7781SOL    HW124827   3.325   2.813   7.821 -0.1857 -1.3916 -0.0090
 7781SOL    HW224828   3.470   2.818   7.865 -0.4882  0.4031  0.8626
 7782SOL     OW24829   7.743   5.881   6.943  0.2366  0.2419  0.1702
 7782SOL    HW124830   7.678   5.912   6.881  1.3673 -0.0433 -1.1738
 7782SOL    HW224831   7.700   5.889   7.029 -1.1066  1.2063 -0.5768
 7783SOL     OW24832   7.062   6.887   1.304  0.2888  0.4005 -0.2764
 7783SOL    HW124833   6.987   6.888   1.364  0.3270  1.2384 -0.2306
 7783SOL    HW224834   7.063   6.975   1.265  0.1928 -0.1827 -1.6020
 7784SOL     OW24835   7.779   5.111   2.435  0.5193  0.1967  0.4641
 7784SOL    HW124836   7.753   5.048   2.369  1.0666 -0.8889  1.2668
 7784SOL    HW224837   7.860   5.076   2.471  0.5347  1.0686  1.3117
 7785SOL     OW24838   4.043   3.981   2.422  0.0571  0.3540 -0.0687
 7785SOL    HW124839   3.954   3.952   2.400  0.6568 -1.3859 -0.2801
 7785SOL    HW224840   4.100   3.915   2.382  1.3958  0.7862  1.0963
 7786SOL     OW24841   4.740   4.966   2.649 -0.2453 -0.3629 -0.5359
 7786SOL    HW124842   4.802   4.921   2.592  0.3792 -0.9564  0.5986
 7786SOL    HW224843   4.681   4.898   2.680  0.7930 -0.4438  1.2983
 7787SOL     OW24844   2.015   5.721   2.630  0.3448  0.1602  0.2478
 7787SOL    HW124845   1.992   5.714   2.722 -0.7755  0.1053 -0.0301
 7787SOL    HW224846   2.097   5.673   2.622  0.4960  0.2465  1.2299
 7788SOL     OW24847   1.066   6.553   7.712 -0.1779 -0.4252 -0.0250
 7788SOL    HW124848   0.972   6.544   7.722  0.0383 -0.8842  1.7210
 7788SOL    HW224849   1.094   6.469   7.674 -0.3916 -0.5335  0.0578
 7789SOL     OW24850   4.661   7.030   1.037 -0.6285 -0.0282  0.0297
 7789SOL    HW124851   4.689   6.988   1.119 -2.1709  0.4167  0.7990
 7789SOL    HW224852   4.586   7.083   1.062 -1.4573 -0.3164 -1.8071
 7790SOL     OW24853   2.427   2.077   5.372  0.1500 -0.4161  0.2755
 7790SOL    HW124854   2.416   1.984   5.392 -0.5122 -0.1131  1.3462
 7790SOL    HW224855   2.368   2.092   5.298  0.1493 -0.8125  0.1906
 7791SOL     OW24856   6.630   1.397   6.288 -0.8008 -0.1218  0.3401
 7791SOL    HW124857   6.604   1.486   6.265  0.6527  0.1632 -0.2764
 7791SOL    HW224858   6.692   1.372   6.219 -0.8642 -1.4567  0.7451
 7792SOL     OW24859   1.170   6.336   5.074 -0.0827 -0.5007  0.3575
 7792SOL    HW124860   1.254   6.330   5.119  0.1682  1.4593  0.2016
 7792SOL    HW224861   1.181   6.279   4.997  1.5602  0.6854 -0.3309
 7793SOL     OW24862   4.515   6.307   4.719  0.3162 -0.4915 -0.0117
 7793SOL    HW124863   4.606   6.330   4.699  0.2211 -0.6487 -0.6443
 7793SOL    HW224864   4.522   6.230   4.775  0.5946  0.0684  0.7225
 7794SOL     OW24865   6.313   2.952   6.814  0.2069  0.3750 -0.5652
 7794SOL    HW124866   6.365   2.882   6.775  0.6803  0.9785 -1.0261
 7794SOL    HW224867   6.284   3.005   6.740 -1.9367 -0.5353 -0.3997
 7795SOL     OW24868   7.728   2.383   5.800 -0.1383  0.0721 -0.2171
 7795SOL    HW124869   7.701   2.336   5.721  0.7359  1.0505 -1.1068
 7795SOL    HW224870   7.654   2.373   5.860 -0.2368 -1.8726 -0.6174
 7796SOL     OW24871   4.128   7.295   1.237 -0.6182 -0.0501 -0.0596
 7796SOL    HW124872   4.176   7.301   1.320 -1.2412 -0.1274  0.3179
 7796SOL    HW224873   4.147   7.378   1.192 -1.9963  0.9386  1.1251
 7797SOL     OW24874   1.847   2.181   3.391 -0.1600 -0.3052  0.4681
 7797SOL    HW124875   1.824   2.105   3.444 -1.1329 -0.7164 -0.5149
 7797SOL    HW224876   1.906   2.146   3.324  1.5571  0.3251  1.6096
 7798SOL     OW24877   1.399   2.237   4.798  0.1744 -0.0899 -0.5715
 7798SOL    HW124878   1.461   2.166   4.816  0.0813  0.2624  1.3034
 7798SOL    HW224879   1.314   2.193   4.798  0.2581 -0.2512 -1.1001
 7799SOL     OW24880   0.921   7.075   7.958  0.5380  0.7449 -0.0413
 7799SOL    HW124881   1.005   7.030   7.962 -0.8938 -1.9413  2.7262
 7799SOL    HW224882   0.876   7.036   7.883  1.0776  0.8705 -0.4284
 7800SOL     OW24883   7.152   1.882   1.116  0.2982 -0.3246 -0.3289
 7800SOL    HW124884   7.183   1.804   1.068 -0.1318 -0.8425  0.2235
 7800SOL    HW224885   7.125   1.848   1.201  0.7010  0.5395  0.1454
 7801SOL     OW24886   6.215   6.718   5.194 -0.1207 -0.8053  0.1338
 7801SOL    HW124887   6.228   6.797   5.141 -1.9899  0.4399  1.4444
 7801SOL    HW224888   6.297   6.670   5.187  0.3129  0.2459 -2.3630
 7802SOL     OW24889   1.059   4.992   3.735 -0.2103  0.4026  0.0283
 7802SOL    HW124890   1.038   4.945   3.654 -1.2947 -0.4563  0.7787
 7802SOL    HW224891   1.136   4.946   3.769  0.7239  1.2580 -0.8970
 7803SOL     OW24892   5.334   0.966   4.334  0.1965  0.3425 -0.7118
 7803SOL    HW124893   5.270   0.929   4.394  1.8878 -0.7795  0.4228
 7803SOL    HW224894   5.281   1.004   4.263 -1.6430 -2.5528 -0.9529
 7804SOL     OW24895   4.287   1.185   8.053 -0.1059 -0.3768  0.3936
 7804SOL    HW124896   4.351   1.240   8.098  1.0462 -1.4175  0.0875
 7804SOL    HW224897   4.241   1.245   7.994 -0.2919  0.6240  1.5514
 7805SOL     OW24898   5.767   6.620   8.039  0.0075 -1.2894 -0.1025
 7805SOL    HW124899   5.861   6.635   8.049 -0.4015  1.0459  0.3533
 7805SOL    HW224900   5.742   6.674   7.964 -0.8811 -2.3731 -0.6027
 7806SOL     OW24901   3.221   5.233   1.207 -0.1880 -0.3455 -0.5383
 7806SOL    HW124902   3.141   5.279   1.182  0.9379  1.8713 -0.2317
 7806SOL    HW224903   3.216   5.226   1.303  0.0881  0.0521 -0.4900
 7807SOL     OW24904   8.268   5.520   0.851 -0.5200  0.0739 -0.4133
 7807SOL    HW124905   8.285   5.612   0.834 -1.0460  0.5338  1.4001
 7807SOL    HW224906   8.201   5.520   0.920 -1.8134 -1.6673 -1.6238
 7808SOL     OW24907   2.275   6.931   8.011 -0.2713 -0.1612  0.6790
 7808SOL    HW124908   2.228   6.856   7.976 -0.4097  1.4659 -2.8308
 7808SOL    HW224909   2.206   6.991   8.040 -0.2588  0.0444  0.2920
 7809SOL     OW24910   5.986   5.327   0.044  0.1307  0.4056  0.0666
 7809SOL    HW124911   5.908   5.326  -0.012  0.3466  2.4198 -0.3387
 7809SOL    HW224912   6.025   5.413   0.027 -0.1138  1.3281  3.7667
 7810SOL     OW24913   8.028   0.681   1.162 -0.2698  0.0429  0.4890
 7810SOL    HW124914   7.988   0.675   1.075 -1.1784 -1.9743  1.0173
 7810SOL    HW224915   8.003   0.600   1.206  0.3437  0.9396  2.5783
 7811SOL     OW24916   7.526   0.936   6.112 -0.0753  0.2610 -0.3024
 7811SOL    HW124917   7.470   0.871   6.155  0.9733 -0.5214 -0.1068
 7811SOL    HW224918   7.586   0.965   6.182  1.3639 -0.7078 -1.1117
 7812SOL     OW24919   4.996   4.965   7.430  0.2339 -0.2666  0.2107
 7812SOL    HW124920   4.981   5.028   7.501 -1.6372  0.6642 -0.9626
 7812SOL    HW224921   5.033   4.888   7.473 -0.0165  0.6136  2.0523
 7813SOL     OW24922   6.001   0.727   0.681 -0.2271 -0.2028  0.4099
 7813SOL    HW124923   6.016   0.689   0.767  1.4408 -0.0310  0.2007
 7813SOL    HW224924   6.054   0.675   0.621 -1.1292 -0.1204 -0.4801
 7814SOL     OW24925   3.696   3.820   4.338 -0.1183 -0.1982 -0.4957
 7814SOL    HW124926   3.755   3.887   4.373  0.6802 -0.4326 -1.3576
 7814SOL    HW224927   3.695   3.837   4.244 -1.2094 -0.3788 -0.5165
 7815SOL     OW24928   5.560   6.449   7.490  0.4924 -0.0296 -0.2153
 7815SOL    HW124929   5.572   6.499   7.410  1.4041  0.3017  0.1322
 7815SOL    HW224930   5.528   6.363   7.460 -0.4576  0.5353 -0.8388
 7816SOL     OW24931   7.743   4.275   7.910  0.0260 -0.2438 -0.7065
 7816SOL    HW124932   7.695   4.333   7.851 -0.4743  1.9804  1.8034
 7816SOL    HW224933   7.817   4.328   7.941 -0.1264 -1.1179  1.2117
 7817SOL     OW24934   7.885   7.590   6.341 -0.2909 -0.7699 -0.6371
 7817SOL    HW124935   7.849   7.635   6.417  2.9965  0.4448  0.3039
 7817SOL    HW224936   7.901   7.500   6.371  1.0493 -0.2810  0.1946
 7818SOL     OW24937   0.497   0.227   8.115 -0.6745 -0.9448 -0.2489
 7818SOL    HW124938   0.443   0.258   8.042  1.4362 -0.8447 -1.8341
 7818SOL    HW224939   0.532   0.307   8.154  0.2645 -1.0814 -0.7858
 7819SOL     OW24940   5.627   7.173   4.626  0.3468  0.2001  0.3397
 7819SOL    HW124941   5.647   7.264   4.608  0.7829  0.0564  0.0797
 7819SOL    HW224942   5.605   7.170   4.719  0.5118  0.5370  0.3886
 7820SOL     OW24943   4.546   8.248   2.880 -0.6775 -0.1190 -0.4381
 7820SOL    HW124944   4.609   8.211   2.819 -0.0908  0.6926 -0.3381
 7820SOL    HW224945   4.570   8.211   2.965 -0.1337  0.4206 -0.3490
 7821SOL     OW24946   6.266   4.841   1.818 -0.1621  0.4573  0.1850
 7821SOL    HW124947   6.256   4.781   1.893 -1.0629  0.1696 -0.1572
 7821SOL    HW224948   6.360   4.847   1.804  0.0985  1.5144  2.1625
 7822SOL     OW24949   4.616   1.580   0.163  0.4832 -0.2379 -0.0284
 7822SOL    HW124950   4.647   1.576   0.254  1.9086 -1.3230 -0.5375
 7822SOL    HW224951   4.615   1.489   0.134 -0.2218  0.0753 -1.0219
 7823SOL     OW24952   0.717   2.467   6.152 -0.3268  0.1376 -0.3594
 7823SOL    HW124953   0.770   2.413   6.210 -0.1912  0.4139 -0.2262
 7823SOL    HW224954   0.646   2.499   6.207 -0.9968 -0.7460 -0.6867
 7824SOL     OW24955   3.302   3.945   0.318  0.1782  0.1738  0.7388
 7824SOL    HW124956   3.326   4.037   0.323  0.1141  0.3117 -1.0947
 7824SOL    HW224957   3.370   3.899   0.367  0.4896  1.1506  1.2278
 7825SOL     OW24958   8.259   7.481   5.104  0.1193 -0.1967 -0.6033
 7825SOL    HW124959   8.267   7.566   5.148 -0.5438  0.0969 -1.0523
 7825SOL    HW224960   8.187   7.438   5.150  0.0220 -0.2485 -0.8046
 7826SOL     OW24961   1.970   7.440   6.110 -0.3544 -0.2562  0.5188
 7826SOL    HW124962   2.055   7.437   6.155 -0.9998  2.4769  2.0934
 7826SOL    HW224963   1.911   7.393   6.168 -0.5741  0.7177  1.1018
 7827SOL     OW24964   1.534   0.734   2.587 -0.1962  0.0544 -0.2751
 7827SOL    HW124965   1.458   0.708   2.535 -1.6485  2.2669  0.6320
 7827SOL    HW224966   1.604   0.745   2.524 -0.4628 -2.5175 -1.0778
 7828SOL     OW24967   6.010   3.735   2.142  0.2188  0.4146  0.1365
 7828SOL    HW124968   5.932   3.777   2.106 -0.9283 -2.0579 -0.3767
 7828SOL    HW224969   6.056   3.700   2.066  0.7609  0.1161  0.5977
 7829SOL     OW24970   1.902   5.195   6.251  0.2899 -0.3697  0.3834
 7829SOL    HW124971   1.956   5.129   6.296 -1.1439 -0.8183  1.4836
 7829SOL    HW224972   1.839   5.144   6.200 -0.8369  0.1116  1.2585
 7830SOL     OW24973   6.950   0.454   4.175 -0.5761 -0.1844  0.4687
 7830SOL    HW124974   6.938   0.531   4.119 -2.4251 -1.1601 -0.5115
 7830SOL    HW224975   6.952   0.380   4.115  0.9377 -0.9492  1.4387
 7831SOL     OW24976   2.439   2.110   3.581 -0.0916  0.4335  0.3537
 7831SOL    HW124977   2.483   2.126   3.497  1.2961 -1.3665  0.7145
 7831SOL    HW224978   2.356   2.070   3.557  0.6968 -0.9280 -0.1357
 7832SOL     OW24979   4.889   0.267   2.106 -0.5177  0.2534  1.1249
 7832SOL    HW124980   4.859   0.210   2.176  1.6795 -1.8362  0.4592
 7832SOL    HW224981   4.874   0.218   2.026 -0.1942  1.3256  0.3829
 7833SOL     OW24982   1.919   3.698   7.482 -0.3988 -0.4943 -0.0907
 7833SOL    HW124983   1.835   3.690   7.527 -0.5484  0.1779 -0.2555
 7833SOL    HW224984   1.913   3.781   7.435  0.3180 -0.4970 -0.1829
 7834SOL     OW24985   5.625   4.685   7.913 -0.4098  0.2229  0.1646
 7834SOL    HW124986   5.620   4.693   7.818  1.4171 -1.8026 -0.1483
 7834SOL    HW224987   5.534   4.680   7.942 -0.9423 -2.1225 -1.7735
 7835SOL     OW24988   7.889   2.972   8.105  0.5229  0.2560  0.3035
 7835SOL    HW124989   7.833   3.034   8.059  0.7338 -0.1030 -0.4531
 7835SOL    HW224990   7.978   3.002   8.086  0.5957  0.4578  0.9734
 7836SOL     OW24991   4.896   4.265   2.811  0.0079  0.1334 -0.1849
 7836SOL    HW124992   4.879   4.224   2.726  1.0220  0.3239 -0.4818
 7836SOL    HW224993   4.987   4.244   2.831  0.5888  2.3093 -0.3973
 7837SOL     OW24994   4.863   5.542   2.969 -0.3650  0.1074 -0.3598
 7837SOL    HW124995   4.939   5.566   3.022 -0.1785 -0.2034 -0.4799
 7837SOL    HW224996   4.841   5.622   2.922  0.5742 -0.0871 -1.1526
 7838SOL     OW24997   4.170   4.911   1.601  0.4927 -0.1229  0.2736
 7838SOL    HW124998   4.083   4.882   1.573  0.2144  1.1929 -0.2204
 7838SOL    HW224999   4.216   4.930   1.519  1.0175 -0.1407  0.5637
 7839SOL     OW25000   8.094   6.786   4.745 -0.7284  0.4223 -0.4883
 7839SOL    HW125001   8.163   6.852   4.751 -2.1623  1.9054  0.0748
 7839SOL    HW225002   8.102   6.736   4.827 -0.1266  0.3828 -0.5679
 7840SOL     OW25003   6.103   5.203   5.414  0.1456  0.0802  0.3439
 7840SOL    HW125004   6.051   5.131   5.451  0.0704  0.1816  0.4323
 7840SOL    HW225005   6.176   5.214   5.474  0.6075 -0.4817 -0.1080
 7841SOL     OW25006   7.254   2.043   7.945 -0.1784 -0.0910  0.2687
 7841SOL    HW125007   7.205   2.027   7.864  3.2438 -2.8726 -1.4057
 7841SOL    HW225008   7.216   1.982   8.008 -0.4042 -0.6092 -0.3568
 7842SOL     OW25009   2.228   5.625   4.912 -0.3061 -0.0349  0.4551
 7842SOL    HW125010   2.134   5.644   4.909  0.0319  1.5014 -1.1714
 7842SOL    HW225011   2.244   5.571   4.835 -0.0349 -1.2602  1.3513
 7843SOL     OW25012   5.497   0.401   1.018  0.3093 -0.0645  0.1096
 7843SOL    HW125013   5.461   0.428   0.933  1.3104  2.6541  0.5228
 7843SOL    HW225014   5.442   0.446   1.082  0.5639 -0.8558  0.8857
 7844SOL     OW25015   7.362   6.678   0.392 -0.2719 -0.1289 -0.2523
 7844SOL    HW125016   7.323   6.635   0.316 -1.2645 -0.3919  0.4038
 7844SOL    HW225017   7.324   6.633   0.467  2.8630 -1.7937  0.4049
 7845SOL     OW25018   4.437   0.168   4.729 -0.4270 -0.1803  0.3810
 7845SOL    HW125019   4.448   0.150   4.636  0.6045 -0.1214  0.4773
 7845SOL    HW225020   4.357   0.220   4.735 -0.4108 -0.0498 -0.4928
 7846SOL     OW25021   4.741   7.565   3.219  0.8841  0.1304  0.4495
 7846SOL    HW125022   4.804   7.504   3.181 -0.1490 -0.6802 -0.0202
 7846SOL    HW225023   4.723   7.530   3.306 -0.3977 -0.8000 -0.1563
 7847SOL     OW25024   6.978   0.205   8.111  0.1011 -0.0334 -0.3765
 7847SOL    HW125025   7.060   0.200   8.062 -0.4916  0.7497 -1.4654
 7847SOL    HW225026   6.954   0.298   8.108 -1.0858 -0.3340 -0.4920
 7848SOL     OW25027   0.135   0.996   5.826 -0.4958  0.5056 -0.5257
 7848SOL    HW125028   0.192   1.058   5.781 -2.3551  2.0011 -0.9049
 7848SOL    HW225029   0.055   1.046   5.844 -0.5004 -0.6233  2.7958
 7849SOL     OW25030   5.881   0.388   3.207  0.0951 -0.6283 -0.2245
 7849SOL    HW125031   5.809   0.413   3.265  0.5317  0.0095  0.0423
 7849SOL    HW225032   5.849   0.310   3.162 -0.9808 -0.0397 -0.5018
 7850SOL     OW25033   1.777   6.815   2.091  0.1194 -0.3036 -0.0764
 7850SOL    HW125034   1.696   6.866   2.097  0.6741  0.4970  0.8296
 7850SOL    HW225035   1.824   6.854   2.017  0.3692  0.2752  0.3751
 7851SOL     OW25036   8.134   3.912   4.716 -0.0446  0.2568 -0.2623
 7851SOL    HW125037   8.107   3.820   4.706 -1.9621  0.8303 -0.5603
 7851SOL    HW225038   8.120   3.931   4.808  1.6330 -0.1334  0.0795
 7852SOL     OW25039   2.090   0.823   2.682  0.0953 -0.0412  0.3249
 7852SOL    HW125040   2.166   0.879   2.700  1.5097 -1.2004 -1.8654
 7852SOL    HW225041   2.020   0.885   2.659  0.5958  0.9907  1.4839
 7853SOL     OW25042   2.252   5.357   4.368  0.2644  0.1846  0.5047
 7853SOL    HW125043   2.277   5.383   4.280  1.0714  2.0123  1.2403
 7853SOL    HW225044   2.289   5.269   4.379  1.0652  0.3729 -0.6014
 7854SOL     OW25045   1.163   3.967   6.174 -0.0443  0.2674  0.1701
 7854SOL    HW125046   1.088   3.951   6.116  0.1926  0.5855 -0.2270
 7854SOL    HW225047   1.174   4.062   6.173  0.9282  0.1517 -0.4835
 7855SOL     OW25048   7.611   0.999   6.965  0.4064  0.0379 -0.0979
 7855SOL    HW125049   7.655   0.925   7.007  0.2909 -0.1430 -0.2938
 7855SOL    HW225050   7.621   1.071   7.027  1.6324  0.1982 -0.4796
 7856SOL     OW25051   1.937   4.836   6.129  0.1646 -0.5456 -0.1154
 7856SOL    HW125052   1.957   4.893   6.203  3.4472 -0.4774 -0.9742
 7856SOL    HW225053   1.947   4.747   6.164  0.9713 -0.5171 -0.2564
 7857SOL     OW25054   4.767   5.777   6.667  0.0151 -0.4291 -0.0246
 7857SOL    HW125055   4.858   5.804   6.649  0.6971 -1.7404  1.3546
 7857SOL    HW225056   4.727   5.854   6.706  0.6320  0.0777 -0.3794
 7858SOL     OW25057   1.912   5.396   2.734 -0.5821 -0.3359  0.1652
 7858SOL    HW125058   1.886   5.326   2.674 -0.1033 -1.3433  1.0968
 7858SOL    HW225059   1.983   5.441   2.689 -0.1713 -1.1338  0.0033
 7859SOL     OW25060   2.720   7.573   7.825  0.1657  0.0498 -0.7715
 7859SOL    HW125061   2.720   7.606   7.735 -1.3627  0.0244 -0.7957
 7859SOL    HW225062   2.764   7.488   7.820  1.6584  0.8362 -1.1831
 7860SOL     OW25063   2.516   8.147   2.096 -0.6215 -0.1347 -0.0140
 7860SOL    HW125064   2.463   8.067   2.090 -1.4374  0.3205  0.9105
 7860SOL    HW225065   2.602   8.117   2.124 -1.4598 -0.5398  2.3151
 7861SOL     OW25066   2.847   7.826   3.946  0.2046 -0.4372 -0.4223
 7861SOL    HW125067   2.771   7.837   4.003 -0.4014  2.3606 -1.6439
 7861SOL    HW225068   2.816   7.771   3.874  0.5570 -2.7284  1.1162
 7862SOL     OW25069   5.334   6.795   6.389 -0.0136 -0.5861 -0.1364
 7862SOL    HW125070   5.348   6.747   6.307  1.3383  1.1055 -0.9369
 7862SOL    HW225071   5.262   6.749   6.432  0.2692 -2.4169 -1.5632
 7863SOL     OW25072   3.368   5.157   5.985 -0.4617 -0.4358 -0.1200
 7863SOL    HW125073   3.290   5.100   5.988 -0.1546 -0.8277  0.5122
 7863SOL    HW225074   3.418   5.133   6.063 -1.0664  1.7673  0.9709
 7864SOL     OW25075   5.186   2.211   2.035  0.1298  0.3045 -0.5720
 7864SOL    HW125076   5.098   2.195   2.068  0.1088 -0.9110 -1.2010
 7864SOL    HW225077   5.175   2.224   1.941  0.8628 -2.1788 -1.0449
 7865SOL     OW25078   4.301   7.504   0.823  0.1010  0.0071 -0.5805
 7865SOL    HW125079   4.341   7.565   0.762 -1.2053  0.7933 -0.6563
 7865SOL    HW225080   4.348   7.518   0.905  0.8442  0.0054 -1.0041
 7866SOL     OW25081   6.003   6.839   2.360 -0.2624  0.4265  0.0872
 7866SOL    HW125082   6.022   6.926   2.325  0.0963  0.1889 -0.2964
 7866SOL    HW225083   5.912   6.846   2.391 -1.3726 -0.0538 -2.9743
 7867SOL     OW25084   5.881   3.693   1.660  0.2351  0.8832  0.2234
 7867SOL    HW125085   5.858   3.619   1.716  2.2568 -0.5552 -0.7622
 7867SOL    HW225086   5.816   3.692   1.590 -0.0566  0.3396  0.4993
 7868SOL     OW25087   5.692   5.502   2.444 -0.2613 -0.7554 -0.5175
 7868SOL    HW125088   5.721   5.423   2.490 -0.7850 -0.0105  1.1037
 7868SOL    HW225089   5.766   5.561   2.448 -0.6583 -0.3021  0.2846
 7869SOL     OW25090   7.837   7.959   7.526 -0.1793 -0.5791 -0.2094
 7869SOL    HW125091   7.804   7.899   7.459  1.8825 -0.8388 -1.0131
 7869SOL    HW225092   7.873   7.901   7.594 -0.7140 -0.2826  0.3355
 7870SOL     OW25093   4.080   6.950   4.152 -0.2680 -0.1722  0.5189
 7870SOL    HW125094   4.063   6.877   4.092  0.7190  0.2263 -0.2465
 7870SOL    HW225095   4.163   6.928   4.194 -1.1009 -0.6079  2.0186
 7871SOL     OW25096   0.736   6.348   0.569 -0.0238 -0.3456  0.0080
 7871SOL    HW125097   0.801   6.366   0.637 -0.5867 -0.8727  0.6921
 7871SOL    HW225098   0.747   6.255   0.550 -1.6219 -0.8166  1.2475
 7872SOL     OW25099   6.036   1.026   6.185 -0.4790 -0.6363  0.5098
 7872SOL    HW125100   6.129   1.019   6.167 -0.1866  1.3345  1.1224
 7872SOL    HW225101   6.023   0.983   6.269  0.0365 -0.1472  0.8415
 7873SOL     OW25102   0.401   2.948   2.190  0.1735  0.0481  0.3497
 7873SOL    HW125103   0.364   2.892   2.259 -0.0768 -0.7631 -0.4299
 7873SOL    HW225104   0.328   2.962   2.129  0.9646 -1.0128 -0.8537
 7874SOL     OW25105   4.731   3.977   1.289  1.1280 -0.1933 -0.6030
 7874SOL    HW125106   4.724   4.018   1.203 -2.0145 -2.6300 -1.5886
 7874SOL    HW225107   4.705   4.046   1.350 -4.4947 -0.6222 -2.2524
 7875SOL     OW25108   7.528   0.094   1.794  0.0272 -0.3045 -0.4327
 7875SOL    HW125109   7.592   0.150   1.749 -0.6202  1.2833  0.5875
 7875SOL    HW225110   7.575   0.012   1.810  1.2413  0.2159 -1.2398
 7876SOL     OW25111   5.004   5.769   6.038  0.4590 -0.0108  0.3741
 7876SOL    HW125112   5.022   5.815   6.120 -0.1672 -0.7018  0.9008
 7876SOL    HW225113   5.026   5.677   6.056  0.1811 -0.1884 -0.1875
 7877SOL     OW25114   0.721   7.138   4.062  0.2279 -0.0607 -0.2131
 7877SOL    HW125115   0.666   7.112   4.135 -0.6737 -1.7341 -1.4591
 7877SOL    HW225116   0.666   7.196   4.009  0.7009  0.7204  0.1401
 7878SOL     OW25117   2.884   0.467   3.572 -0.0072  0.4608 -0.3568
 7878SOL    HW125118   2.910   0.377   3.591  0.2400  0.2247 -1.7593
 7878SOL    HW225119   2.815   0.486   3.635  0.0538 -0.6527  0.0550
 7879SOL     OW25120   5.850   3.375   7.504  0.3636  0.5547 -0.5129
 7879SOL    HW125121   5.913   3.311   7.471  0.7306  0.1088  0.9835
 7879SOL    HW225122   5.764   3.336   7.486  0.5904 -0.5538  0.7002
 7880SOL     OW25123   4.417   0.807   2.343  0.2014  0.6010  0.1499
 7880SOL    HW125124   4.402   0.714   2.362 -1.3597  0.6046 -0.9299
 7880SOL    HW225125   4.496   0.829   2.391  1.3409 -1.6258 -0.6151
 7881SOL     OW25126   6.506   2.862   3.532 -0.4333  0.4087 -0.8041
 7881SOL    HW125127   6.541   2.874   3.444 -1.0763  3.7562 -0.6348
 7881SOL    HW225128   6.579   2.884   3.590 -0.6725  0.3554 -0.4817
 7882SOL     OW25129   4.114   6.725   3.588 -0.1225  0.2117  0.0832
 7882SOL    HW125130   4.056   6.737   3.513  1.3895  0.3592 -1.0744
 7882SOL    HW225131   4.129   6.631   3.592 -1.3748  0.0457  1.1055
 7883SOL     OW25132   2.273   5.611   7.527  0.1138 -0.0566 -0.0873
 7883SOL    HW125133   2.270   5.707   7.527  0.0202 -0.0377 -1.4429
 7883SOL    HW225134   2.213   5.586   7.456  1.4541 -1.0597 -0.8981
 7884SOL     OW25135   7.822   3.540   6.315 -0.1303  0.2468  0.3230
 7884SOL    HW125136   7.812   3.479   6.242 -0.4484  0.1285  0.4628
 7884SOL    HW225137   7.739   3.534   6.363  0.3870 -0.3167  1.1768
 7885SOL     OW25138   6.867   2.775   6.230 -0.0016 -0.1109  0.3308
 7885SOL    HW125139   6.911   2.851   6.191 -0.0399 -0.6310 -0.7509
 7885SOL    HW225140   6.797   2.813   6.283 -1.5570  0.5759 -2.1042
 7886SOL     OW25141   1.991   7.174   0.572 -0.5692 -0.1863  0.0595
 7886SOL    HW125142   2.030   7.262   0.570  0.9493 -0.8690 -0.5024
 7886SOL    HW225143   1.924   7.176   0.503 -1.0221  0.7428  0.5144
 7887SOL     OW25144   4.499   5.117   2.577 -0.2848  0.7597 -0.0878
 7887SOL    HW125145   4.580   5.066   2.570 -1.6903 -1.4848 -0.6782
 7887SOL    HW225146   4.499   5.150   2.667  2.1337  2.3254 -0.6041
 7888SOL     OW25147   6.256   7.907   7.966  0.5674  0.0489  0.3210
 7888SOL    HW125148   6.242   8.001   7.978 -0.9278  0.0015 -0.9573
 7888SOL    HW225149   6.179   7.866   8.006 -1.3426 -0.3828 -3.6082
 7889SOL     OW25150   5.631   5.574   6.926  0.5271 -0.5028  0.0025
 7889SOL    HW125151   5.685   5.617   6.859 -0.1963  0.0346 -0.2308
 7889SOL    HW225152   5.652   5.620   7.007 -1.9973  1.8657 -0.6445
 7890SOL     OW25153   0.583   2.479   2.704 -0.1674  0.6817 -0.1604
 7890SOL    HW125154   0.630   2.412   2.753 -0.4250  1.0980  0.6566
 7890SOL    HW225155   0.529   2.430   2.641 -1.5854  0.0487  1.5190
 7891SOL     OW25156   3.410   0.402   5.901 -0.0442 -0.2436 -0.1678
 7891SOL    HW125157   3.440   0.483   5.942  0.5842 -0.2211 -0.6721
 7891SOL    HW225158   3.487   0.345   5.900 -0.5429 -0.9374  0.3952
 7892SOL     OW25159   2.986   6.041   4.912 -0.4385 -0.1211  0.0503
 7892SOL    HW125160   2.996   6.064   5.004  4.6592  1.5201 -0.7785
 7892SOL    HW225161   3.049   5.971   4.897 -0.1592  0.6074 -2.4730
 7893SOL     OW25162   4.761   5.069   7.288  0.3642  0.5545 -0.6188
 7893SOL    HW125163   4.837   5.073   7.345  0.7004 -0.1223 -1.0160
 7893SOL    HW225164   4.711   4.994   7.320 -1.7446  2.8451  1.6330
 7894SOL     OW25165   6.338   6.190   4.519  0.0965  0.3729  0.3948
 7894SOL    HW125166   6.338   6.278   4.556 -0.8467 -0.6021  2.8599
 7894SOL    HW225167   6.316   6.133   4.593  3.2721 -2.1940 -0.5087
 7895SOL     OW25168   0.612   4.968   5.566 -0.2308 -0.0850 -0.1263
 7895SOL    HW125169   0.640   4.949   5.476 -1.9864  0.9875 -0.9369
 7895SOL    HW225170   0.671   4.917   5.621  2.4938  1.1635 -1.7825
 7896SOL     OW25171   6.838   8.220   5.705 -0.0252 -0.1478  0.2096
 7896SOL    HW125172   6.889   8.157   5.757  1.4575  0.0931 -0.9313
 7896SOL    HW225173   6.875   8.305   5.728  0.2768  0.0064 -0.8252
 7897SOL     OW25174   2.143   1.727   5.218  0.0636 -0.6294  0.0413
 7897SOL    HW125175   2.067   1.746   5.163  0.9582  0.4224 -0.8666
 7897SOL    HW225176   2.195   1.665   5.167  0.7644  0.1412 -0.1843
 7898SOL     OW25177   2.295   2.712   0.868 -0.7165  0.0140 -0.3876
 7898SOL    HW125178   2.309   2.803   0.842 -0.0088 -0.5072 -1.9712
 7898SOL    HW225179   2.238   2.677   0.799 -0.9693 -0.7381  0.2071
 7899SOL     OW25180   3.886   3.193   7.086  0.2284  0.3418  0.4813
 7899SOL    HW125181   3.839   3.118   7.052 -0.5971  0.7774  0.6555
 7899SOL    HW225182   3.818   3.256   7.109  0.9279  1.4683 -0.4315
 7900SOL     OW25183   5.854   1.394   5.271 -0.2691  0.1250  0.4592
 7900SOL    HW125184   5.783   1.331   5.272  0.2512 -0.4538  1.2455
 7900SOL    HW225185   5.897   1.384   5.356  1.6181 -0.5356 -0.5268
 7901SOL     OW25186   6.814   4.308   0.667 -0.3012  0.4044  0.0517
 7901SOL    HW125187   6.885   4.248   0.639  0.3837  1.9288 -1.5834
 7901SOL    HW225188   6.748   4.299   0.598  0.6146  2.8712 -1.2057
 7902SOL     OW25189   6.111   1.383   2.580  0.1224 -0.1370  0.2418
 7902SOL    HW125190   6.109   1.289   2.564 -0.5445 -0.1302  0.2725
 7902SOL    HW225191   6.140   1.392   2.671 -2.1474 -0.4099  1.0192
 7903SOL     OW25192   1.233   8.200   7.422 -0.6737  0.6400 -0.2573
 7903SOL    HW125193   1.253   8.111   7.395 -0.7632  0.9088 -1.2167
 7903SOL    HW225194   1.286   8.214   7.501 -0.5247 -0.1928 -0.2075
 7904SOL     OW25195   3.918   1.898   5.197  0.6153  0.2544  0.6141
 7904SOL    HW125196   3.843   1.843   5.220 -0.1149  0.3183 -1.5637
 7904SOL    HW225197   3.987   1.869   5.257 -1.0430  0.0283  2.4918
 7905SOL     OW25198   1.411   2.273   3.656 -0.4090 -0.3254 -0.0634
 7905SOL    HW125199   1.471   2.236   3.720 -0.3820  0.1746  0.1977
 7905SOL    HW225200   1.359   2.198   3.626 -0.6024 -0.5120  0.7407
 7906SOL     OW25201   0.291   0.326   6.212 -0.0075 -0.1460  0.2719
 7906SOL    HW125202   0.381   0.308   6.239 -0.1080 -0.7666  0.1913
 7906SOL    HW225203   0.265   0.250   6.160 -0.5193  0.1084  0.1499
 7907SOL     OW25204   2.846   1.773   2.108  0.1332 -0.0072  0.5694
 7907SOL    HW125205   2.938   1.759   2.133 -0.3569 -0.7494  2.0182
 7907SOL    HW225206   2.835   1.722   2.027  1.5101  1.7064 -0.7324
 7908SOL     OW25207   7.094   2.011   6.104  0.1834 -0.1941  0.1713
 7908SOL    HW125208   7.062   1.964   6.027  0.6390  0.9007 -0.7043
 7908SOL    HW225209   7.142   2.086   6.068  0.1074  0.5219  1.5280
 7909SOL     OW25210   7.422   7.783   3.347 -0.1588 -0.4821 -0.0779
 7909SOL    HW125211   7.482   7.717   3.381  0.9780  0.7872  0.4375
 7909SOL    HW225212   7.336   7.744   3.355  0.4555 -1.7049  0.6835
 7910SOL     OW25213   0.844   1.436   8.011  0.1762  0.4353  0.0060
 7910SOL    HW125214   0.884   1.350   8.012  1.8344  1.1873 -0.1881
 7910SOL    HW225215   0.860   1.470   7.923 -1.5763  0.4587 -0.3384
 7911SOL     OW25216   6.367   2.084   5.032  0.3353  0.6580 -0.1215
 7911SOL    HW125217   6.294   2.106   4.974 -0.6241 -0.2107  0.7250
 7911SOL    HW225218   6.329   2.083   5.120  0.7754 -2.1526  0.1075
 7912SOL     OW25219   1.554   0.617   3.130  0.8516  0.0318 -0.4235
 7912SOL    HW125220   1.510   0.669   3.062  0.1761 -1.4360 -1.1461
 7912SOL    HW225221   1.531   0.660   3.212  0.2053  0.7990 -0.9954
 7913SOL     OW25222   8.269   0.260   2.996  0.8108  0.7721 -0.5837
 7913SOL    HW125223   8.186   0.233   3.037  1.0495  1.4406  0.3569
 7913SOL    HW225224   8.326   0.184   3.006  0.8604  0.9175  0.3283
 7914SOL     OW25225   8.152   6.820   5.407  0.3598  0.2359 -0.2171
 7914SOL    HW125226   8.223   6.773   5.449  0.0847  0.5888  0.6447
 7914SOL    HW225227   8.077   6.762   5.414 -0.0821  0.9645  1.2115
 7915SOL     OW25228   7.826   6.506   2.871 -0.2221 -0.1681  0.6216
 7915SOL    HW125229   7.759   6.439   2.860  1.0544 -1.5263  1.0418
 7915SOL    HW225230   7.890   6.487   2.802  0.0238  0.7839  0.5811
 7916SOL     OW25231   1.161   2.116   3.118  0.1641 -0.1839  0.0446
 7916SOL    HW125232   1.217   2.152   3.186  0.2822  0.2546 -0.2776
 7916SOL    HW225233   1.138   2.192   3.063  0.5044 -0.6197 -0.7061
 7917SOL     OW25234   3.659   2.334   0.082 -0.2450 -0.0988 -0.7850
 7917SOL    HW125235   3.595   2.401   0.103 -0.5036 -1.0082  1.5304
 7917SOL    HW225236   3.741   2.366   0.118 -0.9861 -2.3450  3.2673
 7918SOL     OW25237   3.071   5.618   1.410  0.5225 -0.4716  0.0618
 7918SOL    HW125238   3.077   5.699   1.359  1.5816  0.1044  1.0833
 7918SOL    HW225239   3.162   5.598   1.434  0.2861 -2.0239 -0.2597
 7919SOL     OW25240   7.284   6.856   4.049  0.1627  0.3558  0.2202
 7919SOL    HW125241   7.233   6.925   4.092 -0.7711 -0.7026  0.8587
 7919SOL    HW225242   7.238   6.839   3.967 -0.7120 -0.8055  0.9313
 7920SOL     OW25243   6.059   1.350   4.149  0.0669 -0.4266  0.6996
 7920SOL    HW125244   6.112   1.334   4.072 -0.1310 -3.0325  1.0510
 7920SOL    HW225245   6.120   1.343   4.223 -0.0667  0.3509  0.8949
 7921SOL     OW25246   2.245   4.476   1.956  0.0409  0.5701  0.2382
 7921SOL    HW125247   2.182   4.415   1.918 -0.9968  0.9101  1.4113
 7921SOL    HW225248   2.310   4.419   1.998 -0.1994  0.2449  0.1711
 7922SOL     OW25249   1.776   3.128   0.970 -0.2113  0.3780  0.2833
 7922SOL    HW125250   1.735   3.192   0.912  0.0974  0.2359 -0.0914
 7922SOL    HW225251   1.735   3.045   0.947 -1.8250  0.6812  1.9044
 7923SOL     OW25252   5.619   4.139   2.900  0.4352 -0.2721 -0.6908
 7923SOL    HW125253   5.653   4.071   2.842 -2.1234  1.0764 -3.8576
 7923SOL    HW225254   5.694   4.197   2.914  1.6817 -1.8193 -0.8012
 7924SOL     OW25255   4.724   0.568   3.534 -0.7405 -0.0849 -0.2239
 7924SOL    HW125256   4.726   0.574   3.629  0.4625  0.2621 -0.2582
 7924SOL    HW225257   4.705   0.475   3.516 -1.9794  0.0515  0.3372
 7925SOL     OW25258   7.377   2.596   2.002  0.2755 -0.1890 -0.1107
 7925SOL    HW125259   7.450   2.601   1.940  0.6765 -1.0181  0.2822
 7925SOL    HW225260   7.313   2.539   1.961 -0.4756  1.1015 -0.7665
 7926SOL     OW25261   1.238   4.582   2.392 -0.1095  0.0723 -0.0106
 7926SOL    HW125262   1.167   4.537   2.345 -1.9722  0.4158  2.3654
 7926SOL    HW225263   1.221   4.675   2.375 -1.4158  0.2533  2.1272
 7927SOL     OW25264   2.632   6.395   2.517 -0.5286  0.0373  0.1855
 7927SOL    HW125265   2.698   6.373   2.583 -2.8537  1.2493  2.9683
 7927SOL    HW225266   2.605   6.310   2.482  1.8362 -0.5327 -0.3883
 7928SOL     OW25267   1.001   7.048   6.291 -0.2182  1.0122  0.1718
 7928SOL    HW125268   1.055   7.101   6.350  1.0266 -0.7789  0.6890
 7928SOL    HW225269   0.960   6.983   6.347 -0.1386  0.1749 -0.7255
 7929SOL     OW25270   3.747   3.273   7.808  0.1880 -0.2702  0.1119
 7929SOL    HW125271   3.832   3.260   7.848  0.9177  2.7362 -0.3930
 7929SOL    HW225272   3.684   3.251   7.877  1.2530 -3.9851  0.0383
 7930SOL     OW25273   0.261   6.962   0.532 -0.2653 -0.0926  0.0093
 7930SOL    HW125274   0.234   6.967   0.441  0.4112 -0.8212 -0.2434
 7930SOL    HW225275   0.341   6.909   0.530  0.2790  0.6912  0.9109
 7931SOL     OW25276   4.743   4.530   3.307  0.5080  0.1905 -0.4720
 7931SOL    HW125277   4.671   4.590   3.288 -0.1061 -0.0220  1.1354
 7931SOL    HW225278   4.749   4.474   3.229  0.3300  1.5732 -1.4849
 7932SOL     OW25279   3.874   5.669   3.377  0.1773 -0.1506  0.1042
 7932SOL    HW125280   3.833   5.636   3.457  0.1228 -0.1120  0.0926
 7932SOL    HW225281   3.922   5.746   3.404 -1.4973  1.0482 -0.2537
 7933SOL     OW25282   8.017   7.302   0.486  0.0044  0.2644  0.1968
 7933SOL    HW125283   8.072   7.379   0.500  1.6107 -1.0433  1.1791
 7933SOL    HW225284   7.974   7.288   0.571  1.4001 -1.1952  0.6912
 7934SOL     OW25285   7.122   5.096   7.832  0.5982  0.1969 -0.1644
 7934SOL    HW125286   7.050   5.135   7.883  0.1029 -0.8114 -0.0825
 7934SOL    HW225287   7.079   5.054   7.758  1.3519  1.9432 -1.6222
 7935SOL     OW25288   6.831   5.653   3.243  0.2696 -0.0023  0.2683
 7935SOL    HW125289   6.787   5.727   3.201 -0.8163 -0.1830  1.0552
 7935SOL    HW225290   6.777   5.578   3.221  0.4554 -0.3050  0.8404
 7936SOL     OW25291   4.316   1.847   1.232  0.0856 -0.3458 -0.4449
 7936SOL    HW125292   4.317   1.772   1.292 -0.9905  0.6101  0.8104
 7936SOL    HW225293   4.400   1.890   1.247  0.0258 -0.3879  0.0469
 7937SOL     OW25294   3.735   4.281   6.837  0.0063  0.3574 -0.3831
 7937SOL    HW125295   3.673   4.311   6.904 -1.1851  1.2316 -1.8366
 7937SOL    HW225296   3.792   4.219   6.883 -1.3393  0.2740  1.2261
 7938SOL     OW25297   3.675   1.776   3.543  0.6638  0.2355 -0.0511
 7938SOL    HW125298   3.647   1.842   3.605 -0.7585 -1.0317  0.6864
 7938SOL    HW225299   3.765   1.755   3.568  0.7492  1.0997  0.3703
 7939SOL     OW25300   8.289   6.980   5.243 -0.6054  0.2866  0.2985
 7939SOL    HW125301   8.240   6.933   5.311  0.6249  0.0638  1.0406
 7939SOL    HW225302   8.223   7.004   5.178 -1.3803 -1.7383  0.3151
 7940SOL     OW25303   8.295   2.165   3.241  0.5158 -0.8178  0.4714
 7940SOL    HW125304   8.200   2.165   3.227  0.7593  0.6645 -1.3006
 7940SOL    HW225305   8.320   2.257   3.234  1.8402 -0.9574  2.8203
 7941SOL     OW25306   1.636   2.973   3.433 -0.1734 -0.2094 -0.1481
 7941SOL    HW125307   1.547   2.967   3.466 -0.2327  1.2143 -0.0208
 7941SOL    HW225308   1.626   2.987   3.339 -0.0709 -0.5640 -0.2133
 7942SOL     OW25309   0.996   0.710   1.521 -0.3384 -0.4271  0.6547
 7942SOL    HW125310   1.012   0.626   1.477 -0.6599  0.2003 -0.6938
 7942SOL    HW225311   0.971   0.769   1.450 -2.2818  0.2445  1.8696
 7943SOL     OW25312   3.768   5.180   1.841 -0.2897  0.3851 -0.2061
 7943SOL    HW125313   3.706   5.111   1.819 -1.1230  0.5359  1.5251
 7943SOL    HW225314   3.850   5.134   1.861 -0.5779 -0.0253  0.0293
 7944SOL     OW25315   7.336   0.999   5.104 -0.1335 -0.2958 -0.2267
 7944SOL    HW125316   7.249   0.961   5.089 -0.6177  0.9970 -0.7868
 7944SOL    HW225317   7.396   0.943   5.054 -0.5041 -1.7285  0.8776
 7945SOL     OW25318   3.408   4.971   5.674 -0.1544 -0.1124 -0.2359
 7945SOL    HW125319   3.312   4.976   5.674 -0.1847 -0.3434 -1.8721
 7945SOL    HW225320   3.429   4.911   5.746 -1.0861  1.9236  1.7966
 7946SOL     OW25321   4.772   5.253   0.133 -0.1542  0.1338  0.0979
 7946SOL    HW125322   4.742   5.343   0.124  0.6665  0.9899  4.7350
 7946SOL    HW225323   4.697   5.206   0.171  0.8920 -0.0430  2.0028
 7947SOL     OW25324   8.305   7.534   8.223  0.1470 -0.0165 -1.0226
 7947SOL    HW125325   8.288   7.628   8.217  0.9602  0.1449 -0.8004
 7947SOL    HW225326   8.254   7.505   8.299 -0.0584  0.2503 -1.0577
 7948SOL     OW25327   4.612   1.880   2.965  0.0464  0.2410  0.2299
 7948SOL    HW125328   4.615   1.851   3.057  0.4412  0.6826  0.3626
 7948SOL    HW225329   4.559   1.960   2.967 -0.0152  0.2029  0.0614
 7949SOL     OW25330   1.527   1.951   3.449  0.0672 -0.3786  0.2277
 7949SOL    HW125331   1.502   1.935   3.358 -0.0159  0.6528  0.0611
 7949SOL    HW225332   1.619   1.978   3.444 -0.8785  3.0941  0.0541
 7950SOL     OW25333   3.153   0.065   1.980  0.0132  0.4037 -0.4297
 7950SOL    HW125334   3.170   0.126   1.908 -1.0926 -0.1685 -1.1899
 7950SOL    HW225335   3.062   0.083   2.006  0.3196  0.4399  0.6737
 7951SOL     OW25336   2.208   2.605   3.354  0.2154  0.1647  0.0118
 7951SOL    HW125337   2.156   2.532   3.387  1.9823 -0.3990  1.6809
 7951SOL    HW225338   2.259   2.568   3.282 -0.2133  0.2242 -0.3271
 7952SOL     OW25339   6.341   6.377   0.460  0.2094  0.4641  0.3659
 7952SOL    HW125340   6.354   6.404   0.369  0.9971  0.7751  0.5689
 7952SOL    HW225341   6.247   6.358   0.466  0.0924  0.7727 -0.4200
 7953SOL     OW25342   0.269   8.169   5.743 -0.6959  0.0286 -0.7672
 7953SOL    HW125343   0.363   8.183   5.757 -0.6487  0.2963 -1.3529
 7953SOL    HW225344   0.263   8.127   5.658 -0.9628 -2.1094  0.2854
 7954SOL     OW25345   5.411   3.442   4.651 -0.3447  0.3804  0.1788
 7954SOL    HW125346   5.497   3.484   4.648 -0.0405 -0.2509  0.0895
 7954SOL    HW225347   5.429   3.350   4.636 -0.9703  0.1540  0.8033
 7955SOL     OW25348   5.861   0.816   0.208 -0.1108 -0.2851  0.3161
 7955SOL    HW125349   5.920   0.789   0.278  0.7928  0.4621 -0.1385
 7955SOL    HW225350   5.868   0.912   0.206 -0.5683 -0.2620 -0.4025
 7956SOL     OW25351   7.000   2.354   6.295 -0.4107 -0.3636 -0.1569
 7956SOL    HW125352   6.937   2.405   6.244  1.6893  1.2062 -1.2718
 7956SOL    HW225353   7.060   2.318   6.230  0.4978 -0.8810  0.9625
 7957SOL     OW25354   6.250   7.664   8.272  0.0221 -0.0979  0.2571
 7957SOL    HW125355   6.261   7.576   8.236 -0.2625 -0.3363  0.7576
 7957SOL    HW225356   6.160   7.689   8.247  0.0427 -0.0152  0.2640
 7958SOL     OW25357   1.051   4.521   0.461  0.2435 -0.0614 -0.4923
 7958SOL    HW125358   0.982   4.581   0.487  1.6170  1.1600  0.3959
 7958SOL    HW225359   1.064   4.465   0.538  1.3331  0.7553 -0.0666
 7959SOL     OW25360   4.617   2.348   7.250  0.5832 -0.1684 -0.0313
 7959SOL    HW125361   4.712   2.359   7.250  0.5079  0.5642 -1.0971
 7959SOL    HW225362   4.585   2.417   7.307  0.6506 -0.0539 -0.1314
 7960SOL     OW25363   0.296   1.832   7.283  0.1776  0.0718  0.3211
 7960SOL    HW125364   0.320   1.852   7.193 -0.1308 -0.7012  0.0580
 7960SOL    HW225365   0.210   1.791   7.276 -0.1877  0.7156  1.0408
 7961SOL     OW25366   6.295   7.567   3.581 -0.1519 -0.1314 -0.3708
 7961SOL    HW125367   6.390   7.568   3.568  0.1380  0.2702  1.5810
 7961SOL    HW225368   6.283   7.598   3.670 -2.2545  1.7869 -1.2862
 7962SOL     OW25369   5.204   0.383   2.681  0.0597  0.1183 -0.3069
 7962SOL    HW125370   5.290   0.342   2.689  2.1135  3.9378 -1.5116
 7962SOL    HW225371   5.172   0.389   2.771  1.3487 -0.6799  0.2231
 7963SOL     OW25372   4.322   7.697   5.645  0.2019  0.3242  0.2258
 7963SOL    HW125373   4.249   7.758   5.657  0.4757  0.6170  0.4298
 7963SOL    HW225374   4.299   7.621   5.698 -0.0928  0.2936  0.0565
 7964SOL     OW25375   6.511   0.709   3.493 -0.2614 -0.8495 -0.6384
 7964SOL    HW125376   6.553   0.795   3.481 -0.6895 -0.7967 -1.8506
 7964SOL    HW225377   6.417   0.728   3.487 -0.4572 -1.0499  1.5028
 7965SOL     OW25378   6.123   6.151   2.958 -0.3975 -0.3509 -0.2937
 7965SOL    HW125379   6.042   6.168   3.006  0.5332  0.9470  0.8734
 7965SOL    HW225380   6.187   6.211   2.997  1.8367 -3.2516  0.6897
 7966SOL     OW25381   4.131   5.813   4.256 -0.1609  0.5161 -0.2572
 7966SOL    HW125382   4.207   5.761   4.230 -1.1938 -0.8494 -0.5871
 7966SOL    HW225383   4.091   5.763   4.326  0.3002  2.1827  1.2522
 7967SOL     OW25384   7.619   2.634   1.902  0.3177 -0.0360  0.1867
 7967SOL    HW125385   7.699   2.660   1.949  1.8232 -1.6081 -1.4010
 7967SOL    HW225386   7.638   2.654   1.810 -0.2678 -2.3441 -0.4805
 7968SOL     OW25387   5.844   0.904   3.818 -0.1860 -0.8417 -0.8461
 7968SOL    HW125388   5.833   0.884   3.911 -0.5524 -0.9606 -0.9139
 7968SOL    HW225389   5.926   0.860   3.794 -0.5724 -1.6085 -0.8037
 7969SOL     OW25390   6.527   7.258   4.569 -0.4289  0.3125  0.2929
 7969SOL    HW125391   6.461   7.274   4.501  1.1697  3.4892 -0.6126
 7969SOL    HW225392   6.592   7.202   4.526 -0.2958  0.8614 -0.2196
 7970SOL     OW25393   0.255   4.475   1.830 -0.0579  0.1411  0.1026
 7970SOL    HW125394   0.195   4.458   1.902 -1.0652 -0.3949 -0.8410
 7970SOL    HW225395   0.293   4.390   1.810  0.6913  0.4052  0.4238
 7971SOL     OW25396   6.992   0.797   1.335 -0.1563  1.2919 -1.0232
 7971SOL    HW125397   6.926   0.833   1.275 -1.3694  1.1214  0.1916
 7971SOL    HW225398   7.002   0.706   1.308 -1.1379  1.0541 -0.5967
 7972SOL     OW25399   6.525   4.112   0.295 -0.1764 -0.3650  0.4421
 7972SOL    HW125400   6.520   4.114   0.391 -0.3396  0.2139  0.4265
 7972SOL    HW225401   6.499   4.024   0.271  0.0967 -0.5832  0.9471
 7973SOL     OW25402   3.622   7.746   2.532  0.3151 -0.3163  0.7058
 7973SOL    HW125403   3.646   7.802   2.458 -1.9067  0.1758  0.3104
 7973SOL    HW225404   3.697   7.750   2.591  1.9392 -0.3399 -1.2876
 7974SOL     OW25405   1.492   6.096   2.337 -0.2525  0.6164  0.6673
 7974SOL    HW125406   1.418   6.122   2.282 -2.0047 -3.8258  0.7300
 7974SOL    HW225407   1.546   6.041   2.279  0.4613 -0.1305  2.0296
 7975SOL     OW25408   5.273   4.477   5.652 -0.7879 -0.0279  0.1739
 7975SOL    HW125409   5.277   4.572   5.665 -0.3248 -0.0946  0.5596
 7975SOL    HW225410   5.279   4.441   5.740  0.3134 -0.4442 -0.0648
 7976SOL     OW25411   0.115   4.429   2.057 -1.0772  0.3128 -0.0788
 7976SOL    HW125412   0.150   4.414   2.145  1.2862 -1.3434 -1.2484
 7976SOL    HW225413   0.022   4.405   2.064 -1.1985  1.3632  2.2353
 7977SOL     OW25414   2.946   3.071   4.952  0.4619 -0.0248  0.2614
 7977SOL    HW125415   2.939   2.982   4.916 -0.0456  0.0030  0.2880
 7977SOL    HW225416   2.856   3.095   4.972  0.8208 -0.3039  2.2393
 7978SOL     OW25417   6.463   1.580   1.633  0.2456  0.0891 -0.9826
 7978SOL    HW125418   6.413   1.518   1.685 -2.4924  1.2029 -2.2230
 7978SOL    HW225419   6.530   1.526   1.590 -1.5969 -1.9038 -1.4537
 7979SOL     OW25420   7.141   3.783   1.536 -0.3825 -0.0662  0.0660
 7979SOL    HW125421   7.049   3.772   1.560 -0.3661  0.0159  0.1670
 7979SOL    HW225422   7.157   3.715   1.471 -1.0243  1.0583 -1.3134
 7980SOL     OW25423   2.637   6.049   7.137  0.7404 -0.2195  0.3244
 7980SOL    HW125424   2.646   5.965   7.092 -1.6560 -0.8066  0.8529
 7980SOL    HW225425   2.699   6.044   7.210  2.5446 -0.4285 -1.2101
 7981SOL     OW25426   8.135   1.756   4.254  0.1891 -0.0728  0.5644
 7981SOL    HW125427   8.210   1.801   4.292 -0.7095  1.2449  0.8104
 7981SOL    HW225428   8.134   1.785   4.162  1.3160 -1.8776 -0.0471
 7982SOL     OW25429   5.341   5.045   8.063 -0.1608 -0.3674  0.7721
 7982SOL    HW125430   5.313   4.978   8.001 -2.0927 -0.3337  1.5669
 7982SOL    HW225431   5.330   5.005   8.149  0.8597  0.1852  1.1701
 7983SOL     OW25432   2.212   4.462   0.063  0.1179  0.3683  0.7177
 7983SOL    HW125433   2.127   4.505   0.070  1.0988  2.4129  0.1848
 7983SOL    HW225434   2.276   4.533   0.065  1.7193 -0.9757 -1.1935
 7984SOL     OW25435   4.010   7.520   0.089  0.2477 -0.0928 -0.0085
 7984SOL    HW125436   4.056   7.581   0.031  0.3008 -1.7286 -1.7278
 7984SOL    HW225437   3.980   7.574   0.162 -2.2398  2.5966 -2.8795
 7985SOL     OW25438   1.278   5.353   4.856  0.5403 -0.3106 -0.0321
 7985SOL    HW125439   1.342   5.311   4.798  0.0068  0.8771 -1.5231
 7985SOL    HW225440   1.314   5.440   4.872 -0.0773 -0.0937  0.1730
 7986SOL     OW25441   1.596   7.364   3.425  0.4596  0.0732 -0.2603
 7986SOL    HW125442   1.553   7.373   3.340  1.8588  2.4323 -0.7805
 7986SOL    HW225443   1.550   7.426   3.481  0.5571 -0.3395  0.2756
 7987SOL     OW25444   7.740   8.080   6.514 -0.3402 -0.4244  0.4019
 7987SOL    HW125445   7.762   7.988   6.507  0.7617 -0.1892  0.6243
 7987SOL    HW225446   7.688   8.099   6.437  0.7670 -0.8626 -0.4683
 7988SOL     OW25447   2.012   4.854   5.043  0.7284 -0.4552  0.2353
 7988SOL    HW125448   2.051   4.767   5.032  2.3818  0.1981  0.8013
 7988SOL    HW225449   2.018   4.871   5.137 -0.7665 -0.2529  0.3120
 7989SOL     OW25450   6.483   3.208   7.578 -0.3863  0.3457 -0.2796
 7989SOL    HW125451   6.479   3.304   7.575 -1.6239  0.3576  1.0306
 7989SOL    HW225452   6.392   3.181   7.568  0.1451 -0.7753 -2.3661
 7990SOL     OW25453   3.262   3.419   6.350  0.1666 -0.1071 -0.4709
 7990SOL    HW125454   3.185   3.468   6.321 -0.2752 -0.7562 -0.4168
 7990SOL    HW225455   3.274   3.352   6.283  0.3183 -0.3901 -0.1583
 7991SOL     OW25456   2.132   7.085   6.726  0.2636 -0.0407  0.7338
 7991SOL    HW125457   2.186   7.090   6.804  0.6722 -1.6090  0.5794
 7991SOL    HW225458   2.050   7.044   6.755 -0.0267  0.4060  0.5565
 7992SOL     OW25459   6.292   0.051   2.225  0.3629  0.5071 -0.0601
 7992SOL    HW125460   6.320   0.075   2.137 -1.9023  0.8412 -0.7183
 7992SOL    HW225461   6.355  -0.016   2.253  1.0819  0.3794 -1.9411
 7993SOL     OW25462   5.048   4.788   1.432  0.2379 -0.6481 -0.0174
 7993SOL    HW125463   5.116   4.721   1.422  0.0479 -0.9606  0.7750
 7993SOL    HW225464   5.097   4.870   1.441  0.4707 -0.6857 -0.8994
 7994SOL     OW25465   4.848   4.974   4.562  0.5500  0.1086 -0.3912
 7994SOL    HW125466   4.788   4.901   4.575 -0.6491  1.0224 -0.7427
 7994SOL    HW225467   4.792   5.050   4.550  1.7999  1.2561  0.8423
 7995SOL     OW25468   7.953   3.422   7.879 -0.1861  0.4387  0.5231
 7995SOL    HW125469   7.987   3.491   7.822 -0.5612 -1.3227 -1.9261
 7995SOL    HW225470   8.001   3.433   7.961  1.1785  2.3740 -0.4974
 7996SOL     OW25471   1.264   0.675   6.287  0.5464  0.2402  0.5150
 7996SOL    HW125472   1.197   0.685   6.219  0.0624  3.1638  1.3523
 7996SOL    HW225473   1.218   0.630   6.359 -0.0003  0.5713  0.3762
 7997SOL     OW25474   0.061   2.671   4.116 -0.5178  0.2999  0.2825
 7997SOL    HW125475   0.068   2.609   4.043  1.6188 -0.1513  0.8248
 7997SOL    HW225476   0.033   2.618   4.191  0.8798  0.0551  0.6424
 7998SOL     OW25477   6.854   5.881   1.848 -0.3554 -0.1669  0.0569
 7998SOL    HW125478   6.882   5.823   1.919 -0.1818  2.1420  1.9481
 7998SOL    HW225479   6.928   5.883   1.787  0.5539 -0.1311  1.1520
 7999SOL     OW25480   3.831   3.697   7.536  0.2988  0.0252 -0.0213
 7999SOL    HW125481   3.786   3.736   7.462  1.7764  1.6893 -0.0745
 7999SOL    HW225482   3.776   3.716   7.612  0.8097  1.8826 -0.1069
 8000SOL     OW25483   7.270   6.699   5.680  0.3231 -0.0345  0.4305
 8000SOL    HW125484   7.279   6.794   5.693  2.4442 -0.2338  0.4916
 8000SOL    HW225485   7.348   6.661   5.720  0.5504 -1.6500 -1.4619
 8001SOL     OW25486   5.803   3.502   1.871  0.0600 -0.0807 -0.2710
 8001SOL    HW125487   5.716   3.467   1.891 -2.0436  3.1975 -3.2503
 8001SOL    HW225488   5.847   3.507   1.957 -3.5322  0.5255  1.6174
 8002SOL     OW25489   0.865   0.170   3.827 -0.3678 -0.0267 -0.0921
 8002SOL    HW125490   0.780   0.126   3.832 -0.3330  0.0307  1.2445
 8002SOL    HW225491   0.856   0.245   3.885 -0.0446  1.1038 -1.4767
 8003SOL     OW25492   4.278   1.970   6.447 -0.0778  0.1898  0.4913
 8003SOL    HW125493   4.265   1.878   6.425  0.3456  0.3407 -0.4038
 8003SOL    HW225494   4.207   1.990   6.508 -0.4192 -0.6176  0.3668
 8004SOL     OW25495   1.704   4.223   8.248  0.8396 -0.0929 -0.1427
 8004SOL    HW125496   1.701   4.302   8.303 -0.9550 -1.6828  2.1296
 8004SOL    HW225497   1.619   4.221   8.204  0.2336 -1.5943  1.0563
 8005SOL     OW25498   0.747   3.073   0.857  0.3608 -0.4380  0.0689
 8005SOL    HW125499   0.834   3.034   0.845  0.5126  0.2613 -1.1169
 8005SOL    HW225500   0.748   3.108   0.946  1.0409 -1.0655  0.3107
 8006SOL     OW25501   5.411   0.090   0.712  0.0761  0.0449  0.1608
 8006SOL    HW125502   5.361   0.151   0.767 -0.8476  1.3524 -2.0459
 8006SOL    HW225503   5.487   0.141   0.684 -0.2503 -0.0777 -0.9796
 8007SOL     OW25504   5.059   7.142   5.046  0.3659  0.1781 -0.1934
 8007SOL    HW125505   5.074   7.124   4.953 -0.2165  0.2469 -0.3051
 8007SOL    HW225506   5.118   7.083   5.092  1.3278  0.7939 -0.6194
 8008SOL     OW25507   2.178   3.824   5.266  0.3836 -0.0696  0.8897
 8008SOL    HW125508   2.182   3.903   5.320 -1.9200  0.1855  0.7236
 8008SOL    HW225509   2.140   3.758   5.324 -1.8651  0.1337 -0.3191
 8009SOL     OW25510   6.169   3.051   7.751 -0.1088 -0.1910 -0.0839
 8009SOL    HW125511   6.200   3.088   7.668 -1.4017  1.6883  0.2395
 8009SOL    HW225512   6.076   3.072   7.754 -0.1361 -0.4746  1.7329
 8010SOL     OW25513   3.835   2.873   1.524 -0.5755 -0.4992 -0.1588
 8010SOL    HW125514   3.753   2.862   1.572 -0.4670 -0.6181 -0.0031
 8010SOL    HW225515   3.820   2.949   1.468 -0.3008  0.3297  0.8844
 8011SOL     OW25516   6.983   4.826   0.426 -0.0892 -0.0304 -0.4765
 8011SOL    HW125517   7.019   4.835   0.514 -0.1154  1.2004 -0.5794
 8011SOL    HW225518   7.018   4.902   0.378  0.1816 -0.8631 -1.6050
 8012SOL     OW25519   7.041   1.479   7.781 -0.3425 -0.5528  0.3964
 8012SOL    HW125520   7.128   1.468   7.743 -0.3247 -0.1569  0.3180
 8012SOL    HW225521   6.982   1.436   7.719 -0.2040 -0.8167  0.4475
 8013SOL     OW25522   2.571   3.521   3.802 -0.3296 -0.4457 -0.0773
 8013SOL    HW125523   2.576   3.596   3.862  0.1695  0.6584 -1.4568
 8013SOL    HW225524   2.591   3.559   3.716 -2.1585 -1.7852 -1.1119
 8014SOL     OW25525   1.723   4.839   0.369 -0.2402 -0.3947 -0.6871
 8014SOL    HW125526   1.803   4.803   0.331 -0.1763  0.6838 -1.5976
 8014SOL    HW225527   1.688   4.897   0.301 -0.1651  1.5261  0.8569
 8015SOL     OW25528   1.475   5.716   2.534  0.2094 -0.4647 -0.5439
 8015SOL    HW125529   1.464   5.643   2.595 -1.6611  1.2694  1.2716
 8015SOL    HW225530   1.460   5.794   2.587  1.0936  1.1983 -2.6888
 8016SOL     OW25531   6.939   5.531   3.525 -0.1866  0.1686 -0.1897
 8016SOL    HW125532   6.920   5.568   3.610 -0.1115 -0.6062  0.1702
 8016SOL    HW225533   6.965   5.440   3.543  0.0710  0.0709 -1.0061
 8017SOL     OW25534   3.080   1.617   4.293 -0.4059 -0.1790 -0.2684
 8017SOL    HW125535   3.039   1.679   4.232  1.2798  0.6228 -0.6046
 8017SOL    HW225536   3.111   1.671   4.365 -0.3959 -0.8491  0.2267
 8018SOL     OW25537   0.912   1.897   3.484  0.3442 -0.0168 -0.2205
 8018SOL    HW125538   0.926   1.834   3.413 -1.2192 -0.8507  0.1978
 8018SOL    HW225539   0.954   1.978   3.452  0.3979 -0.6213 -1.7237
 8019SOL     OW25540   8.288   0.021   1.607  0.2104  0.4248  0.4694
 8019SOL    HW125541   8.289  -0.066   1.647  1.4078  0.4323  0.4944
 8019SOL    HW225542   8.266   0.080   1.678  1.1193  0.3123  0.8579
 8020SOL     OW25543   2.837   5.168   7.119 -0.1625  0.1892 -1.0523
 8020SOL    HW125544   2.801   5.093   7.166  1.3977  0.2074  0.1967
 8020SOL    HW225545   2.846   5.137   7.029  0.3875 -1.1191 -0.5664
 8021SOL     OW25546   2.919   3.206   3.223 -0.3633 -0.0011 -0.0263
 8021SOL    HW125547   2.902   3.123   3.181  0.1239  0.1514 -0.5346
 8021SOL    HW225548   2.850   3.216   3.288 -0.4107 -0.8059  0.0414
 8022SOL     OW25549   3.886   8.264   6.110 -0.3117 -0.5046  0.1976
 8022SOL    HW125550   3.931   8.222   6.037 -0.3673  1.8191 -1.2137
 8022SOL    HW225551   3.800   8.287   6.075 -0.0112  1.4447  0.7037
 8023SOL     OW25552   0.787   4.918   3.148 -0.6411  0.3253  0.3796
 8023SOL    HW125553   0.776   4.939   3.241 -0.6819  2.0945 -0.0000
 8023SOL    HW225554   0.882   4.907   3.137 -0.6259  0.2237  0.6102
 8024SOL     OW25555   8.218   6.794   2.259  0.6937 -0.5543  0.1991
 8024SOL    HW125556   8.127   6.800   2.286  0.0380 -2.1385 -1.5719
 8024SOL    HW225557   8.250   6.884   2.263 -1.4820  0.3133 -0.9272
 8025SOL     OW25558   0.050   8.155   0.680  0.2199  0.0963 -0.4257
 8025SOL    HW125559   0.081   8.135   0.769 -1.4058 -1.4115 -0.1676
 8025SOL    HW225560  -0.026   8.210   0.694  0.7408  0.9531 -0.9420
 8026SOL     OW25561   8.002   3.646   3.454 -0.6994  0.0273  0.3354
 8026SOL    HW125562   8.035   3.611   3.538 -0.1056 -0.2727 -0.0154
 8026SOL    HW225563   7.958   3.571   3.413 -1.3412  0.2835  0.5594
 8027SOL     OW25564   0.845   1.010   6.048 -0.6163 -0.0539 -0.0343
 8027SOL    HW125565   0.766   1.038   6.095 -0.1462 -0.0682  0.7705
 8027SOL    HW225566   0.865   0.924   6.085  0.3898  0.4171  0.5155
 8028SOL     OW25567   6.684   6.773   2.137 -0.1887  0.3498 -0.3603
 8028SOL    HW125568   6.674   6.683   2.105 -0.5546  0.1447  0.3361
 8028SOL    HW225569   6.669   6.827   2.060 -1.5459 -0.1292 -0.4382
 8029SOL     OW25570   4.147   8.177   5.490 -0.1173 -0.1809  0.2212
 8029SOL    HW125571   4.055   8.167   5.514 -0.2703  1.8910  0.5855
 8029SOL    HW225572   4.150   8.257   5.438  1.5748  0.1208  0.7457
 8030SOL     OW25573   2.659   5.570   5.247  0.7851 -0.2629 -0.1166
 8030SOL    HW125574   2.602   5.587   5.172  0.6793  0.1022  0.0464
 8030SOL    HW225575   2.735   5.526   5.209  1.5480  1.5351 -0.6894
 8031SOL     OW25576   8.143   4.019   6.644 -0.0010 -0.3466 -0.4957
 8031SOL    HW125577   8.200   3.999   6.719 -1.0950  2.0250  1.0190
 8031SOL    HW225578   8.202   4.056   6.578  0.8149 -1.5694 -0.4687
 8032SOL     OW25579   3.329   7.053   2.308  0.0014 -0.1900 -0.2051
 8032SOL    HW125580   3.257   7.025   2.364 -0.0547 -1.0980 -0.7334
 8032SOL    HW225581   3.292   7.126   2.257 -0.4960 -0.5561 -0.3720
 8033SOL     OW25582   1.154   6.557   4.892 -0.2150 -0.0008  0.4173
 8033SOL    HW125583   1.208   6.512   4.957 -0.3482  0.9600  1.2099
 8033SOL    HW225584   1.097   6.614   4.944 -2.2289 -1.2210 -0.3688
 8034SOL     OW25585   3.065   4.898   5.593  0.4245 -0.0801 -0.0648
 8034SOL    HW125586   3.053   4.964   5.525 -1.4521 -0.1427  0.1746
 8034SOL    HW225587   2.987   4.843   5.587  0.7428 -0.7169  1.4447
 8035SOL     OW25588   6.483   2.150   0.147 -0.3650 -0.2645  0.3964
 8035SOL    HW125589   6.505   2.242   0.163 -1.5838  0.2748 -1.0023
 8035SOL    HW225590   6.433   2.124   0.225 -1.9316  0.9078 -0.1909
 8036SOL     OW25591   3.316   2.038   5.526  0.3225 -0.0561  0.4593
 8036SOL    HW125592   3.271   1.965   5.567  2.1227 -0.9581  0.8866
 8036SOL    HW225593   3.380   2.066   5.592  0.0303  1.5325  0.0804
 8037SOL     OW25594   7.149   1.533   1.497 -0.4282  0.2646 -0.3800
 8037SOL    HW125595   7.105   1.526   1.582  0.1376 -1.8166 -0.2367
 8037SOL    HW225596   7.089   1.493   1.435 -0.5446  1.1740 -0.8553
 8038SOL     OW25597   5.108   0.321   0.360  0.3114 -0.0042 -0.6841
 8038SOL    HW125598   5.158   0.326   0.279  0.3921  1.4381 -0.5614
 8038SOL    HW225599   5.138   0.396   0.411 -1.4287  0.4570 -0.2969
 8039SOL     OW25600   4.548   2.352   1.741  0.3451 -0.1513  0.5457
 8039SOL    HW125601   4.535   2.411   1.667 -0.9786 -0.0159  0.8644
 8039SOL    HW225602   4.633   2.311   1.724  0.4781  0.5461 -0.5752
 8040SOL     OW25603   3.386   2.143   0.621 -0.3784 -0.5195 -0.4929
 8040SOL    HW125604   3.432   2.178   0.545  0.3171  0.2985  0.2792
 8040SOL    HW225605   3.297   2.178   0.614 -1.1133 -2.6821 -2.3690
 8041SOL     OW25606   6.041   5.953   4.937 -0.6144 -0.1903 -0.1712
 8041SOL    HW125607   5.947   5.972   4.932 -0.5045  0.4514  0.1703
 8041SOL    HW225608   6.073   6.006   5.010 -0.0578 -0.7166 -0.0210
 8042SOL     OW25609   3.517   5.902   6.257  0.7099 -0.2747  0.3236
 8042SOL    HW125610   3.522   5.889   6.351 -0.4331  1.0435  0.5772
 8042SOL    HW225611   3.492   5.816   6.222  0.1048 -0.5071  1.3120
 8043SOL     OW25612   7.872   3.708   3.734 -0.0830  0.0668 -0.6934
 8043SOL    HW125613   7.835   3.794   3.714 -0.1218 -0.0318 -1.0543
 8043SOL    HW225614   7.960   3.709   3.696  0.1606  0.1839 -0.1193
 8044SOL     OW25615   6.473   1.916   7.038  0.2922 -0.1202  0.5229
 8044SOL    HW125616   6.461   1.856   6.964  1.7856 -0.0737  0.2105
 8044SOL    HW225617   6.472   2.003   6.998 -1.2866  0.0364  0.8939
 8045SOL     OW25618   5.773   6.819   1.622 -0.1023 -0.6648  0.1809
 8045SOL    HW125619   5.853   6.869   1.633 -0.0062 -0.5861 -0.7938
 8045SOL    HW225620   5.760   6.775   1.706  0.3506  0.1988  0.7101
 8046SOL     OW25621   2.951   3.522   7.591  0.5321  0.7820 -0.3923
 8046SOL    HW125622   2.964   3.596   7.533  0.1361  1.0850 -0.0953
 8046SOL    HW225623   3.025   3.464   7.574 -0.2202  0.2855 -2.0802
 8047SOL     OW25624   0.645   1.157   3.882 -0.4111  0.0385  0.1483
 8047SOL    HW125625   0.575   1.101   3.847 -0.5685  0.7153 -0.6295
 8047SOL    HW225626   0.689   1.102   3.946 -1.3082 -0.5886  0.2446
 8048SOL     OW25627   4.351   1.011   1.026  0.1843 -0.1557 -0.0052
 8048SOL    HW125628   4.271   1.047   0.987 -0.1101 -1.0398 -0.2306
 8048SOL    HW225629   4.422   1.065   0.991 -0.2237  0.0164 -0.5718
 8049SOL     OW25630   1.742   1.449   2.863 -0.7547  0.2524 -0.6083
 8049SOL    HW125631   1.655   1.415   2.844 -0.6568 -0.1957 -0.2663
 8049SOL    HW225632   1.749   1.447   2.959 -0.2660  0.0155 -0.6457
 8050SOL     OW25633   6.089   5.639   2.891 -0.0710 -0.1968 -0.2741
 8050SOL    HW125634   6.078   5.731   2.870 -1.3656 -0.8294 -2.5834
 8050SOL    HW225635   6.181   5.621   2.871  0.0764  0.4957 -0.2240
 8051SOL     OW25636   6.686   6.408   1.709 -0.3204 -0.3382 -0.2942
 8051SOL    HW125637   6.604   6.358   1.710 -0.4778 -0.1392 -2.3098
 8051SOL    HW225638   6.712   6.410   1.617  0.2398  2.4003 -0.1077
 8052SOL     OW25639   3.248   8.199   3.779  0.1313 -0.2979 -0.3525
 8052SOL    HW125640   3.185   8.271   3.777  1.3195  0.7940  0.3445
 8052SOL    HW225641   3.196   8.122   3.801 -1.1736  0.3251 -1.1953
 8053SOL     OW25642   5.454   4.816   2.218 -0.1332 -0.4188 -0.7215
 8053SOL    HW125643   5.550   4.806   2.213 -0.1044 -0.1565 -0.6961
 8053SOL    HW225644   5.426   4.747   2.278 -0.4198 -3.2800 -4.0145
 8054SOL     OW25645   5.181   4.360   5.254 -0.5021  0.1425  0.2092
 8054SOL    HW125646   5.127   4.281   5.260  0.0994 -0.2289  0.8555
 8054SOL    HW225647   5.231   4.349   5.173 -1.7085  0.6985 -0.6299
 8055SOL     OW25648   3.116   1.831   5.633  0.6606 -0.0075 -0.1702
 8055SOL    HW125649   3.046   1.788   5.683  0.1213  1.9630  0.8351
 8055SOL    HW225650   3.128   1.777   5.555 -1.0724 -1.0991  0.3119
 8056SOL     OW25651   8.222   3.398   2.760  0.6666  0.1997 -0.1530
 8056SOL    HW125652   8.231   3.305   2.782  0.4672 -0.0028 -0.8848
 8056SOL    HW225653   8.269   3.407   2.677  2.8513  1.2958  1.1647
 8057SOL     OW25654   1.160   3.359   6.109  0.3115  0.1808 -0.2731
 8057SOL    HW125655   1.153   3.265   6.097 -0.3254  0.2362 -0.3614
 8057SOL    HW225656   1.103   3.378   6.184  1.2182  0.3635  0.3781
 8058SOL     OW25657   5.110   1.118   3.049 -0.1777  0.3014  0.0869
 8058SOL    HW125658   5.198   1.087   3.067  0.0232  1.1312  0.5980
 8058SOL    HW225659   5.071   1.130   3.135 -0.7345  0.0939 -0.1335
 8059SOL     OW25660   7.045   1.354   0.324 -0.2641 -0.0801  0.1972
 8059SOL    HW125661   6.952   1.330   0.326 -0.6418  1.4881  1.6320
 8059SOL    HW225662   7.082   1.316   0.404  0.0898  0.2747  0.2047
 8060SOL     OW25663   1.570   1.311   8.078  0.5264  0.4755  0.4815
 8060SOL    HW125664   1.611   1.266   8.004 -0.0268  1.5319 -0.4988
 8060SOL    HW225665   1.561   1.402   8.048 -0.5574  0.7137  1.4839
 8061SOL     OW25666   8.039   5.644   5.597 -0.1698  0.0379  0.3829
 8061SOL    HW125667   8.086   5.666   5.678  0.7174 -0.6511  0.0651
 8061SOL    HW225668   7.998   5.559   5.616  0.5286 -0.4097 -0.0828
 8062SOL     OW25669   8.021   5.887   2.345  0.0029 -0.3609  0.4803
 8062SOL    HW125670   8.038   5.868   2.437 -0.5682 -0.6751  0.5267
 8062SOL    HW225671   8.106   5.882   2.302  0.1448 -1.0304  0.8476
 8063SOL     OW25672   5.074   0.864   4.371  0.7373 -0.5510  0.1971
 8063SOL    HW125673   5.067   0.941   4.314  1.2638 -0.3183  0.4430
 8063SOL    HW225674   5.096   0.792   4.312 -0.2812 -0.6261 -0.1093
 8064SOL     OW25675   2.254   3.581   4.299 -0.3711  0.4043  0.6522
 8064SOL    HW125676   2.187   3.646   4.320 -1.5150 -0.2630 -0.8783
 8064SOL    HW225677   2.324   3.631   4.257 -1.0872  0.7206 -0.1873
 8065SOL     OW25678   1.464   4.551   7.304 -0.2489  0.3364  0.3188
 8065SOL    HW125679   1.439   4.595   7.223  0.2135 -0.1527 -0.0958
 8065SOL    HW225680   1.557   4.570   7.313  0.1092 -1.1285 -0.2311
 8066SOL     OW25681   2.571   1.183   1.973  0.1467  0.0611  0.4518
 8066SOL    HW125682   2.485   1.175   1.931 -0.0048  3.2562  0.0809
 8066SOL    HW225683   2.565   1.125   2.049 -1.4286 -1.7024 -0.9525
 8067SOL     OW25684   6.592   0.620   5.350 -0.3757 -0.5874 -0.2101
 8067SOL    HW125685   6.554   0.696   5.394 -2.2057 -1.9805  0.7057
 8067SOL    HW225686   6.516   0.574   5.313  0.7780 -1.5632 -1.4113
 8068SOL     OW25687   2.816   2.616   7.263 -0.4714  0.1221 -0.0554
 8068SOL    HW125688   2.882   2.562   7.307 -1.5396  0.5151  2.1381
 8068SOL    HW225689   2.867   2.677   7.210  0.9517  0.2886  1.4571
 8069SOL     OW25690   7.693   3.394   0.139  0.2944 -0.0117 -0.4196
 8069SOL    HW125691   7.627   3.462   0.142 -0.2133 -0.4538 -1.5168
 8069SOL    HW225692   7.736   3.405   0.054  1.4821  0.1382  0.1920
 8070SOL     OW25693   0.743   0.175   2.030  0.1341  0.1973 -0.0331
 8070SOL    HW125694   0.704   0.187   2.116 -0.1206 -0.6942 -0.0171
 8070SOL    HW225695   0.779   0.086   2.032 -0.2856 -0.0082 -0.9946
 8071SOL     OW25696   2.586   3.608   0.857  0.1526  0.6186 -0.1412
 8071SOL    HW125697   2.676   3.607   0.823 -0.0161  0.6368 -0.5761
 8071SOL    HW225698   2.539   3.544   0.803 -0.3488  1.3464 -0.5709
 8072SOL     OW25699   5.751   8.222   7.634  0.6460  0.0316 -0.0091
 8072SOL    HW125700   5.842   8.209   7.609  0.4766 -0.3173 -0.4428
 8072SOL    HW225701   5.723   8.137   7.669  0.4418  0.0929 -0.0228
 8073SOL     OW25702   2.946   6.513   3.469  0.0918 -0.0987 -0.0131
 8073SOL    HW125703   2.889   6.566   3.414  0.6191  1.5786  1.0234
 8073SOL    HW225704   2.911   6.424   3.461 -0.6950  0.3715 -1.9005
 8074SOL     OW25705   7.957   6.381   8.237  0.5881 -0.1890 -0.2627
 8074SOL    HW125706   8.031   6.407   8.182  0.0460  0.2911 -0.7771
 8074SOL    HW225707   7.929   6.297   8.201  0.9483 -0.4121 -0.0113
 8075SOL     OW25708   6.128   0.797   5.079  0.1953  0.0660 -0.0682
 8075SOL    HW125709   6.091   0.713   5.104  1.2883 -0.3398  0.2185
 8075SOL    HW225710   6.175   0.827   5.157 -1.2923  1.5812  0.2854
 8076SOL     OW25711   7.727   0.782   1.725  0.0380 -0.0326  0.0040
 8076SOL    HW125712   7.800   0.767   1.785  0.2687  0.2170 -0.2082
 8076SOL    HW225713   7.737   0.873   1.698  2.2275 -1.1800 -3.4104
 8077SOL     OW25714   0.071   2.221   0.420 -0.0118  0.1873  0.3887
 8077SOL    HW125715   0.141   2.206   0.483  0.8742 -0.0963 -0.6626
 8077SOL    HW225716   0.094   2.168   0.345 -0.2311  1.7589 -0.8181
 8078SOL     OW25717   3.024   7.251   3.955  0.3054 -0.2291 -0.6519
 8078SOL    HW125718   2.978   7.271   4.036 -0.0680 -2.6408 -0.2266
 8078SOL    HW225719   3.095   7.315   3.951  1.7636 -1.5009  2.7827
 8079SOL     OW25720   3.073   4.680   7.708 -0.1167 -0.2144 -0.1138
 8079SOL    HW125721   3.116   4.619   7.648  2.3199  0.0944  1.2577
 8079SOL    HW225722   3.027   4.625   7.771  1.0324 -0.6119  0.3769
 8080SOL     OW25723   2.463   6.767   1.800 -0.3439 -0.5611  0.4020
 8080SOL    HW125724   2.503   6.758   1.713  0.4940  1.1643  0.5862
 8080SOL    HW225725   2.524   6.724   1.859  0.5657  0.8724  0.5100
 8081SOL     OW25726   7.891   0.704   1.414 -0.0510 -0.0822 -0.1268
 8081SOL    HW125727   7.912   0.726   1.323  0.6645  1.9513  0.5090
 8081SOL    HW225728   7.796   0.696   1.415 -0.3669  3.1718 -0.3855
 8082SOL     OW25729   6.480   6.090   4.940  0.0583 -0.4426  0.0470
 8082SOL    HW125730   6.397   6.123   4.974 -0.2973 -0.6867 -0.5905
 8082SOL    HW225731   6.525   6.167   4.906  0.7345 -0.0697  1.7118
 8083SOL     OW25732   5.155   1.179   3.956 -0.3032  0.5333  0.4565
 8083SOL    HW125733   5.232   1.235   3.961  0.0300  0.0617  0.6967
 8083SOL    HW225734   5.081   1.239   3.952  0.1510  1.0192 -1.4105
 8084SOL     OW25735   3.952   4.340   2.842  0.0674 -0.2901  0.2225
 8084SOL    HW125736   3.875   4.378   2.801 -1.5416 -0.7682  2.6638
 8084SOL    HW225737   3.998   4.295   2.772 -0.8376  1.6432 -1.6510
 8085SOL     OW25738   3.896   0.653   0.663  0.0849 -0.0028 -0.1846
 8085SOL    HW125739   3.848   0.572   0.679  1.4059 -0.6520  0.6180
 8085SOL    HW225740   3.924   0.682   0.750  0.0466  1.0569 -0.5147
 8086SOL     OW25741   0.288   3.023   5.186  0.1140 -0.1059  0.1570
 8086SOL    HW125742   0.318   2.964   5.118 -1.5204 -0.1395 -0.5557
 8086SOL    HW225743   0.313   3.110   5.155 -2.3406  0.0644 -1.4486
 8087SOL     OW25744   2.344   2.991   6.590  0.6083  0.0544  0.2015
 8087SOL    HW125745   2.315   2.901   6.574 -0.4980  0.0078  2.2665
 8087SOL    HW225746   2.323   3.038   6.510 -0.4053 -1.1496 -0.2555
 8088SOL     OW25747   5.760   3.874   4.613 -0.8071 -1.1164  0.1838
 8088SOL    HW125748   5.837   3.818   4.601  0.2300  0.0508  1.1864
 8088SOL    HW225749   5.796   3.963   4.619 -2.3879 -0.3796 -1.0457
 8089SOL     OW25750   6.159   3.601   4.721  0.0576  0.0860 -0.7423
 8089SOL    HW125751   6.188   3.511   4.712 -1.4670 -0.5271  0.3161
 8089SOL    HW225752   6.211   3.636   4.794  1.0282  0.2466 -1.4939
 8090SOL     OW25753   4.370   7.048   4.611  0.4299  0.0298 -1.0491
 8090SOL    HW125754   4.374   7.080   4.701 -1.2686  0.2544 -1.0213
 8090SOL    HW225755   4.429   7.105   4.562  0.1883  0.9126 -0.3421
 8091SOL     OW25756   0.962   0.081   3.533 -0.5760 -0.4277  0.6133
 8091SOL    HW125757   0.954   0.142   3.605 -1.2939 -0.1027  0.2686
 8091SOL    HW225758   0.919   0.125   3.459  0.5122 -0.5746 -0.1260
 8092SOL     OW25759   4.434   6.286   1.802  0.1092 -0.1597  0.2042
 8092SOL    HW125760   4.504   6.297   1.867  0.7908  0.4157 -0.6093
 8092SOL    HW225761   4.390   6.205   1.828  1.0386 -0.5021  0.7645
 8093SOL     OW25762   0.148   4.204   7.662  0.5189 -0.1284  0.3920
 8093SOL    HW125763   0.098   4.128   7.634 -0.9194  0.6285  0.8516
 8093SOL    HW225764   0.082   4.273   7.675  1.4889  0.4098  2.6433
 8094SOL     OW25765   4.280   2.180   4.531 -0.2324 -0.6943 -0.1863
 8094SOL    HW125766   4.207   2.129   4.496 -0.7462 -0.0836 -0.0020
 8094SOL    HW225767   4.246   2.269   4.539  0.9434 -0.1281 -1.3312
 8095SOL     OW25768   5.357   3.586   2.368 -0.5600 -0.0373 -0.1553
 8095SOL    HW125769   5.355   3.631   2.452  1.7042 -0.4645  0.1452
 8095SOL    HW225770   5.379   3.496   2.389 -3.0748 -0.8661 -0.9398
 8096SOL     OW25771   5.710   0.600   2.181  0.1024  0.4102  0.2624
 8096SOL    HW125772   5.618   0.571   2.182  0.1892  0.1294  0.1603
 8096SOL    HW225773   5.748   0.555   2.106  0.7288 -0.7223  1.2307
 8097SOL     OW25774   0.463   6.380   6.066 -0.0378  0.1739  0.3721
 8097SOL    HW125775   0.505   6.299   6.093 -0.0479  0.6787  1.9415
 8097SOL    HW225776   0.517   6.413   5.995  0.8564 -0.4062  0.7811
 8098SOL     OW25777   1.048   3.830   6.474  0.9944 -0.1095  0.4455
 8098SOL    HW125778   1.028   3.879   6.553  0.6209  1.2180 -0.4593
 8098SOL    HW225779   1.073   3.896   6.409 -0.8335 -0.9819 -1.2001
 8099SOL     OW25780   4.674   2.597   1.336  0.2857 -0.3496 -1.3289
 8099SOL    HW125781   4.658   2.691   1.347 -2.8952 -0.7327 -2.0769
 8099SOL    HW225782   4.716   2.589   1.251 -0.1147  0.3446 -1.5954
 8100SOL     OW25783   7.423   7.132   5.112  0.8975 -0.3478 -0.3588
 8100SOL    HW125784   7.477   7.150   5.189  1.8000 -1.4266 -0.7183
 8100SOL    HW225785   7.386   7.216   5.088 -0.6700 -0.2610  2.2088
 8101SOL     OW25786   4.784   4.062   3.924 -0.0816  0.1741 -0.1134
 8101SOL    HW125787   4.802   4.066   4.018  1.9066  1.0025 -0.4964
 8101SOL    HW225788   4.835   4.135   3.888  1.1338 -1.6522 -2.1210
 8102SOL     OW25789   4.378   3.826   2.508 -0.8778  0.0538 -0.2341
 8102SOL    HW125790   4.313   3.834   2.578 -1.3187  2.0948 -0.8222
 8102SOL    HW225791   4.325   3.818   2.428 -0.3872 -0.3850 -0.5168
 8103SOL     OW25792   0.768   3.503   6.447 -0.4297 -0.3577 -0.9321
 8103SOL    HW125793   0.718   3.539   6.520  1.1620 -0.3421  0.1810
 8103SOL    HW225794   0.713   3.433   6.412 -1.5057  0.0917 -0.1522
 8104SOL     OW25795   2.250   5.830   7.209  0.2554 -0.0500  0.5163
 8104SOL    HW125796   2.281   5.895   7.271 -1.0537  0.5599  0.5446
 8104SOL    HW225797   2.155   5.828   7.220  0.1528 -1.0691 -0.3540
 8105SOL     OW25798   4.659   1.667   4.677  0.2042 -0.1685 -0.7714
 8105SOL    HW125799   4.697   1.700   4.759 -1.1964  0.4375 -0.3460
 8105SOL    HW225800   4.696   1.724   4.609 -1.2879  1.5770 -0.1713
 8106SOL     OW25801   1.685   2.340   0.158 -0.1078 -0.2860 -0.0360
 8106SOL    HW125802   1.759   2.311   0.105  0.0428 -1.0820  0.5986
 8106SOL    HW225803   1.609   2.299   0.118 -0.3242  1.2371 -1.2180
 8107SOL     OW25804   4.274   0.595   3.787 -0.1019 -0.2061 -0.0865
 8107SOL    HW125805   4.184   0.585   3.816 -0.4681  2.3524 -0.2206
 8107SOL    HW225806   4.326   0.549   3.852 -1.4126 -0.5024  0.7616
 8108SOL     OW25807   2.002   4.331   3.661 -0.4586  0.4672 -0.2447
 8108SOL    HW125808   2.065   4.261   3.645 -0.9602  0.1358 -0.8184
 8108SOL    HW225809   1.928   4.310   3.603 -0.7013  1.3498 -0.2641
 8109SOL     OW25810   7.992   5.421   8.113  0.1109 -0.3915  0.8993
 8109SOL    HW125811   7.942   5.405   8.192 -0.6065 -0.9748  0.3314
 8109SOL    HW225812   8.080   5.442   8.144 -0.8510  2.2260  1.9588
 8110SOL     OW25813   7.650   2.488   5.002  0.1172 -0.5925  0.0594
 8110SOL    HW125814   7.734   2.455   4.971  0.2604 -0.0730 -0.1158
 8110SOL    HW225815   7.661   2.583   5.002 -0.4459 -0.5294  0.1040
 8111SOL     OW25816   6.408   2.968   1.226  0.0288  0.7569 -0.0804
 8111SOL    HW125817   6.468   2.922   1.167  0.8123 -0.3883  1.5844
 8111SOL    HW225818   6.400   2.911   1.302 -1.3079  2.0192  0.7563
 8112SOL     OW25819   6.463   6.007   5.407  0.1034  0.0462 -0.2936
 8112SOL    HW125820   6.402   5.977   5.475  2.0494 -0.6277  1.2132
 8112SOL    HW225821   6.515   5.930   5.386  2.1038  1.1959  0.2909
 8113SOL     OW25822   6.041   2.018   7.610 -0.0841 -0.2577 -0.0749
 8113SOL    HW125823   5.970   2.045   7.668 -0.2226  0.4701 -0.5697
 8113SOL    HW225824   6.091   1.955   7.661 -0.7252 -0.3076  0.5046
 8114SOL     OW25825   5.205   3.720   1.594  0.1745  0.4254 -0.4186
 8114SOL    HW125826   5.189   3.633   1.558  1.3541  0.1526 -0.2815
 8114SOL    HW225827   5.117   3.753   1.615 -0.1884 -1.2320  0.7212
 8115SOL     OW25828   0.382   1.967   5.757 -0.3870 -0.3352 -0.3628
 8115SOL    HW125829   0.425   2.037   5.806 -0.9540  1.2664 -2.1121
 8115SOL    HW225830   0.429   1.963   5.674 -1.2564 -1.1023 -0.8293
 8116SOL     OW25831   1.946   2.654   3.575 -0.4384  0.1543  0.3222
 8116SOL    HW125832   1.948   2.737   3.622  1.3727  0.2595  0.0971
 8116SOL    HW225833   1.929   2.677   3.484 -0.9100  0.2006  0.4233
 8117SOL     OW25834   3.427   7.789   7.365 -0.1691 -0.1829  0.1138
 8117SOL    HW125835   3.349   7.795   7.421  0.0060 -1.0685  0.4561
 8117SOL    HW225836   3.451   7.697   7.367 -0.2292 -0.2399 -1.5366
 8118SOL     OW25837   2.220   5.794   6.480 -0.0775  1.2843 -0.4283
 8118SOL    HW125838   2.226   5.702   6.504 -0.8695  0.6633 -2.5037
 8118SOL    HW225839   2.270   5.840   6.547  3.0913 -0.9590 -1.1528
 8119SOL     OW25840   5.564   1.546   0.728  0.5252 -0.4640 -0.2950
 8119SOL    HW125841   5.596   1.458   0.750 -0.5768 -0.6422  0.6704
 8119SOL    HW225842   5.641   1.601   0.732  0.9591 -1.1190  0.7058
 8120SOL     OW25843   0.773   1.710   0.569 -0.2029 -0.0918  0.5327
 8120SOL    HW125844   0.802   1.693   0.479 -0.0805  0.2626  0.5055
 8120SOL    HW225845   0.815   1.642   0.621 -1.4940 -1.2463  0.1084
 8121SOL     OW25846   7.098   3.831   3.405  0.1516  0.3700 -0.0327
 8121SOL    HW125847   7.063   3.751   3.367  0.2747  0.5125 -0.4461
 8121SOL    HW225848   7.079   3.899   3.341  1.8116  0.3257 -0.6043
 8122SOL     OW25849   3.694   1.203   4.121  0.1478  0.2165 -0.3708
 8122SOL    HW125850   3.610   1.214   4.077  0.9241 -1.5600 -2.4477
 8122SOL    HW225851   3.673   1.201   4.214 -2.0032  0.6161 -0.8200
 8123SOL     OW25852   0.864   2.337   8.007  0.0080 -0.1084  0.0198
 8123SOL    HW125853   0.786   2.282   8.004 -0.3754  0.4557 -0.4741
 8123SOL    HW225854   0.862   2.378   8.093 -0.0366 -0.3881  0.1501
 8124SOL     OW25855   3.798   3.946   2.712 -0.0257  0.6620 -0.7958
 8124SOL    HW125856   3.753   4.028   2.692  1.2531  1.1531 -1.7554
 8124SOL    HW225857   3.864   3.970   2.777 -0.8447  0.0293  0.2870
 8125SOL     OW25858   5.734   0.094   0.049  0.4328 -0.2744 -0.3478
 8125SOL    HW125859   5.671   0.131   0.111  0.8992 -1.5187  0.8609
 8125SOL    HW225860   5.774   0.171   0.008  0.8032  0.5850  1.5632
 8126SOL     OW25861   5.421   6.595   7.664  0.5488 -0.2493  0.0857
 8126SOL    HW125862   5.457   6.582   7.752  2.0366 -0.6344 -0.5742
 8126SOL    HW225863   5.484   6.555   7.606 -0.6637 -0.4044 -1.1496
 8127SOL     OW25864   5.401   2.878   7.643  0.2704 -0.0563  0.1720
 8127SOL    HW125865   5.428   2.840   7.559  1.2993 -0.1673  0.5427
 8127SOL    HW225866   5.443   2.823   7.709  0.1737  0.5479  0.7449
 8128SOL     OW25867   5.430   1.391   5.468 -0.4768 -0.3259 -0.0161
 8128SOL    HW125868   5.485   1.468   5.452  0.1705 -0.9013 -0.6137
 8128SOL    HW225869   5.490   1.326   5.505 -0.7926 -0.8912 -0.4896
 8129SOL     OW25870   2.556   0.043   6.435  0.2406  0.4536  0.8586
 8129SOL    HW125871   2.617   0.050   6.509  0.8538 -0.4533  0.4490
 8129SOL    HW225872   2.591  -0.029   6.382  0.0132  1.3163 -0.5019
 8130SOL     OW25873   2.339   4.706   6.398 -0.0080  0.2404  0.1175
 8130SOL    HW125874   2.351   4.617   6.431 -0.7728  0.9641  2.4932
 8130SOL    HW225875   2.296   4.752   6.470  0.2455  2.4972 -1.1318
 8131SOL     OW25876   3.534   6.456   5.565 -0.6084  0.0190  0.3169
 8131SOL    HW125877   3.488   6.433   5.485 -1.1525 -1.4802  1.0380
 8131SOL    HW225878   3.566   6.545   5.550  0.6254 -0.7930 -2.1501
 8132SOL     OW25879   4.399   5.412   5.291 -0.7309  0.6621 -0.1738
 8132SOL    HW125880   4.461   5.466   5.339  0.7246  0.8084 -2.1663
 8132SOL    HW225881   4.343   5.475   5.246 -1.4397  0.5146  0.4833
 8133SOL     OW25882   7.065   3.300   8.183  0.1364 -0.8345  0.0411
 8133SOL    HW125883   6.990   3.242   8.195 -1.2994  0.5540 -1.9000
 8133SOL    HW225884   7.138   3.241   8.165 -0.4519 -2.2099  1.9814
 8134SOL     OW25885   4.067   2.954   3.883 -0.4988 -0.3233  0.6707
 8134SOL    HW125886   4.090   2.874   3.930 -0.3166  0.3447  1.7280
 8134SOL    HW225887   4.144   3.010   3.892 -1.4889  0.8566  1.8938
 8135SOL     OW25888   7.999   1.346   6.259  0.0824 -0.5775  0.5733
 8135SOL    HW125889   8.009   1.412   6.327 -0.1469 -0.3556  0.3926
 8135SOL    HW225890   8.071   1.363   6.198 -0.9214  0.5325 -0.3221
 8136SOL     OW25891   0.137   1.263   8.114 -0.0174 -0.3221 -0.3239
 8136SOL    HW125892   0.196   1.202   8.070 -2.2823 -2.1092 -0.9530
 8136SOL    HW225893   0.177   1.278   8.199  1.5443 -1.1839 -0.8852
 8137SOL     OW25894   4.012   5.106   1.852 -0.5171 -0.2209 -0.2881
 8137SOL    HW125895   4.045   5.152   1.928  0.0981  0.2850 -0.8600
 8137SOL    HW225896   4.036   5.014   1.867  3.0575  0.4093 -1.6814
 8138SOL     OW25897   6.020   5.040   2.080 -0.1332 -0.3447  0.1739
 8138SOL    HW125898   6.094   5.038   2.020 -2.5048  0.5749 -2.9780
 8138SOL    HW225899   5.974   4.957   2.065 -0.4472 -0.3487  1.1154
 8139SOL     OW25900   6.810   4.238   4.607  0.5684 -0.1611  0.7120
 8139SOL    HW125901   6.716   4.221   4.614  0.0500  1.9786 -0.6584
 8139SOL    HW225902   6.839   4.248   4.698 -0.1929 -2.3147  1.2428
 8140SOL     OW25903   2.363   4.730   1.686 -0.3934  0.6371  0.2745
 8140SOL    HW125904   2.281   4.688   1.659 -2.3281  3.4381  1.6139
 8140SOL    HW225905   2.352   4.822   1.663  3.1608  0.7669 -1.2284
 8141SOL     OW25906   8.046   4.889   0.464  0.0062  0.4678 -0.0393
 8141SOL    HW125907   8.034   4.895   0.370  2.5960  2.7587 -0.3066
 8141SOL    HW225908   7.997   4.963   0.500  1.2468  1.2377  0.1218
 8142SOL     OW25909   2.462   7.841   2.569  0.3313  0.3412  0.0750
 8142SOL    HW125910   2.512   7.846   2.650 -0.2939 -1.1339  0.5714
 8142SOL    HW225911   2.422   7.754   2.570  0.4343  0.2397 -1.8922
 8143SOL     OW25912   6.776   7.421   6.019  0.8870 -0.0017 -0.6187
 8143SOL    HW125913   6.814   7.335   6.004  0.6166 -0.5032  1.4228
 8143SOL    HW225914   6.697   7.422   5.965  0.7932 -1.1048 -0.5147
 8144SOL     OW25915   5.777   6.244   3.800 -0.0197 -0.3905  0.1252
 8144SOL    HW125916   5.810   6.194   3.725  2.2464 -0.2259  0.9509
 8144SOL    HW225917   5.730   6.318   3.760 -0.2813 -1.1986 -1.1101
 8145SOL     OW25918   6.440   0.077   7.282 -0.0903 -0.5230 -0.0272
 8145SOL    HW125919   6.514   0.129   7.253 -0.0625 -1.2213 -1.2749
 8145SOL    HW225920   6.476  -0.011   7.295 -0.4186 -0.5565  0.7073
 8146SOL     OW25921   7.275   5.967   6.201  0.1025 -0.1139  0.1945
 8146SOL    HW125922   7.311   5.916   6.274 -1.0575  0.5190  1.2245
 8146SOL    HW225923   7.186   5.990   6.230  0.0393  1.0864 -0.9543
 8147SOL     OW25924   8.017   7.743   1.201  0.0303  0.3161  0.1982
 8147SOL    HW125925   7.985   7.833   1.189  1.3199  0.7912  0.2675
 8147SOL    HW225926   8.106   7.744   1.167  0.3325 -0.7420  0.9275
 8148SOL     OW25927   6.737   6.789   2.946  0.4291  0.0779  0.1987
 8148SOL    HW125928   6.824   6.756   2.969 -1.4652 -3.8849  2.1698
 8148SOL    HW225929   6.716   6.746   2.863  0.1674  0.7059 -0.0636
 8149SOL     OW25930   0.037   0.032   4.523  0.0688  0.6643  0.6984
 8149SOL    HW125931  -0.056   0.049   4.512 -0.1009 -1.4686 -1.2805
 8149SOL    HW225932   0.044  -0.009   4.609 -1.1128 -1.2796 -0.1201
 8150SOL     OW25933   3.127   2.408   0.345 -0.5923 -0.1618  0.4636
 8150SOL    HW125934   3.106   2.449   0.261 -0.0074 -1.6257 -0.4184
 8150SOL    HW225935   3.095   2.318   0.336 -3.1602  0.4169  2.8750
 8151SOL     OW25936   1.177   1.273   5.338  0.4841 -0.2450  0.1248
 8151SOL    HW125937   1.219   1.310   5.260  0.7357  1.4324  1.0357
 8151SOL    HW225938   1.092   1.240   5.307  0.0411  1.5673 -0.6224
 8152SOL     OW25939   2.932   6.449   1.248  0.6553  0.9810  0.2178
 8152SOL    HW125940   2.939   6.532   1.296  1.2269  1.2742 -0.3759
 8152SOL    HW225941   2.932   6.382   1.316 -0.5056  1.5055  0.7424
 8153SOL     OW25942   4.195   0.205   2.284 -0.0575  0.1944  0.6418
 8153SOL    HW125943   4.255   0.265   2.239 -0.4633 -0.8122 -1.3004
 8153SOL    HW225944   4.109   0.227   2.248 -0.4026 -0.5746  0.9863
 8154SOL     OW25945   3.161   4.739   4.706 -0.2680 -0.5370 -0.3013
 8154SOL    HW125946   3.117   4.667   4.662 -1.1791  0.6192 -1.3168
 8154SOL    HW225947   3.209   4.784   4.637  2.4269 -1.6804  0.7582
 8155SOL     OW25948   3.482   1.447   4.111 -0.6009  0.0160 -0.0162
 8155SOL    HW125949   3.522   1.493   4.186 -1.7226 -1.5050  1.5569
 8155SOL    HW225950   3.390   1.439   4.135 -0.8791 -0.8790 -1.3870
 8156SOL     OW25951   3.599   0.766   1.935 -0.1339 -0.0622 -0.0025
 8156SOL    HW125952   3.532   0.766   2.003 -0.0804 -0.0239  0.0506
 8156SOL    HW225953   3.681   0.782   1.982 -0.3340  2.0083 -0.3199
 8157SOL     OW25954   2.195   2.964   1.044 -0.1304  0.4443 -0.0111
 8157SOL    HW125955   2.276   3.014   1.051  0.3864 -0.4475  0.4782
 8157SOL    HW225956   2.201   2.898   1.114 -1.4014  0.5591  0.2270
 8158SOL     OW25957   5.361   6.714   4.834 -0.2187 -0.1362 -0.1917
 8158SOL    HW125958   5.391   6.726   4.924  0.1595 -0.3731 -0.2875
 8158SOL    HW225959   5.427   6.759   4.781 -0.4904  0.0824 -0.3474
 8159SOL     OW25960   1.515   6.091   0.172  0.1087 -0.0214  0.2414
 8159SOL    HW125961   1.525   6.017   0.232 -0.6401 -0.0865  0.2893
 8159SOL    HW225962   1.429   6.127   0.193 -1.4876 -1.8973 -2.8414
 8160SOL     OW25963   2.588   0.775   4.092  0.0486  0.7285 -0.5025
 8160SOL    HW125964   2.587   0.680   4.105 -2.5968  0.7661 -0.3093
 8160SOL    HW225965   2.510   0.807   4.137  1.1020  3.0560 -0.2442
 8161SOL     OW25966   3.774   1.680   5.326  0.5476 -0.0478  0.0218
 8161SOL    HW125967   3.680   1.663   5.319  0.6881 -1.0999  0.6817
 8161SOL    HW225968   3.785   1.714   5.415  0.7959  0.0668 -0.0528
 8162SOL     OW25969   0.168   7.638   7.309 -0.0509 -0.3377  0.0269
 8162SOL    HW125970   0.236   7.579   7.277 -1.2656 -1.7414 -0.0388
 8162SOL    HW225971   0.209   7.687   7.380  1.8929  0.9332 -1.8904
 8163SOL     OW25972   1.916   1.447   0.970  0.3814  0.0607 -0.4713
 8163SOL    HW125973   1.872   1.380   1.022 -0.9395  2.0933  1.1052
 8163SOL    HW225974   1.987   1.479   1.026  0.6619  0.3624 -0.9934
 8164SOL     OW25975   0.358   7.397   7.954 -0.0976 -0.0711  0.2522
 8164SOL    HW125976   0.301   7.454   7.903 -1.3055 -0.9358  0.6217
 8164SOL    HW225977   0.430   7.454   7.983 -0.4687  0.8864 -0.6913
 8165SOL     OW25978   3.656   0.691   5.087 -0.2006 -0.3342 -0.6553
 8165SOL    HW125979   3.664   0.599   5.063 -0.0181 -0.0770 -1.6206
 8165SOL    HW225980   3.700   0.738   5.016 -0.3759  0.5011 -0.2204
 8166SOL     OW25981   3.953   2.268   0.957 -0.0984  0.9179 -0.4224
 8166SOL    HW125982   4.038   2.225   0.973  0.8828  3.1477  0.5719
 8166SOL    HW225983   3.901   2.247   1.034 -0.8955 -1.4154 -1.5495
 8167SOL     OW25984   1.017   4.803   6.333 -0.0285 -0.2548 -0.0301
 8167SOL    HW125985   1.063   4.765   6.258  1.1740  1.2905 -0.0985
 8167SOL    HW225986   1.041   4.747   6.406  0.1308 -0.8082 -0.5030
 8168SOL     OW25987   2.425   6.087   0.433 -0.1608  0.3047  0.8017
 8168SOL    HW125988   2.452   6.107   0.523 -0.1077  1.1196  0.6071
 8168SOL    HW225989   2.438   5.993   0.424  1.3187  0.4785  1.1347
 8169SOL     OW25990   4.400   3.881   6.100  0.0045  0.0566 -0.0837
 8169SOL    HW125991   4.408   3.826   6.178  0.8481  0.2578 -0.0228
 8169SOL    HW225992   4.308   3.904   6.097 -0.2703 -0.9807  0.1527
 8170SOL     OW25993   4.926   5.602   3.580 -0.2081  0.6509 -0.0215
 8170SOL    HW125994   5.009   5.638   3.611  0.2744 -0.9343  0.5699
 8170SOL    HW225995   4.903   5.536   3.646 -1.9256  1.0664 -0.1919
 8171SOL     OW25996   1.011   5.684   3.777 -0.0070 -0.2229  0.1490
 8171SOL    HW125997   0.968   5.753   3.828 -1.3169 -0.2492 -0.9128
 8171SOL    HW225998   1.092   5.667   3.825  0.7898  2.6992 -0.0649
 8172SOL     OW25999   2.345   7.153   7.214  0.2450 -0.5920  0.4212
 8172SOL    HW126000   2.433   7.190   7.203  0.1802 -0.5824 -0.0621
 8172SOL    HW226001   2.302   7.212   7.276  0.1397  0.1456 -0.3479
 8173SOL     OW26002   4.402   5.788   5.098  0.4098 -0.1140 -0.2497
 8173SOL    HW126003   4.374   5.870   5.058 -1.7385 -0.7457 -0.1123
 8173SOL    HW226004   4.449   5.742   5.029  0.6528  0.7526 -0.6678
 8174SOL     OW26005   2.352   2.288   1.908  0.7575  0.3616  0.1601
 8174SOL    HW126006   2.391   2.348   1.844 -1.2806 -1.2957 -2.7701
 8174SOL    HW226007   2.394   2.204   1.891  0.9367  0.1332  1.7232
 8175SOL     OW26008   7.696   1.595   4.271 -0.0665 -0.5034  0.6789
 8175SOL    HW126009   7.702   1.534   4.345  5.0787 -0.2124  0.7327
 8175SOL    HW226010   7.724   1.679   4.307 -0.6501  0.3688 -0.8690
 8176SOL     OW26011   4.570   4.527   2.933 -0.4141 -0.2344  0.1641
 8176SOL    HW126012   4.526   4.604   2.969  1.1767  0.0093  1.6864
 8176SOL    HW226013   4.632   4.500   3.002 -1.2947 -3.1937 -0.1093
 8177SOL     OW26014   7.561   2.503   0.991 -0.3109  0.0946 -0.2254
 8177SOL    HW126015   7.595   2.512   0.902 -0.0313 -0.1039 -0.1378
 8177SOL    HW226016   7.520   2.588   1.009 -1.2068 -0.1966 -0.8936
 8178SOL     OW26017   2.434   0.059   3.136 -0.5933  0.6605 -0.3437
 8178SOL    HW126018   2.506   0.088   3.080 -1.1458 -0.5780 -1.7295
 8178SOL    HW226019   2.477   0.004   3.202 -0.2082  0.2509 -0.9251
 8179SOL     OW26020   7.667   1.573   4.017 -0.0906  0.7403 -0.0513
 8179SOL    HW126021   7.682   1.661   3.985 -1.5985  1.1724  0.3810
 8179SOL    HW226022   7.670   1.581   4.113  1.6395 -0.0268 -0.0319
 8180SOL     OW26023   2.361   5.376   7.633  0.2848  0.3293 -0.1708
 8180SOL    HW126024   2.316   5.453   7.601  1.1631  0.6544 -0.6289
 8180SOL    HW226025   2.444   5.409   7.668 -0.1870 -0.1533  1.4310
 8181SOL     OW26026   3.370   5.951   0.826  0.2352 -0.5612  0.1413
 8181SOL    HW126027   3.407   5.864   0.837  0.9885 -0.4452 -1.4386
 8181SOL    HW226028   3.296   5.938   0.766  1.0560  0.0646 -1.0119
 8182SOL     OW26029   3.418   3.476   3.588 -0.5443 -0.2113 -0.1256
 8182SOL    HW126030   3.438   3.513   3.674 -0.4631  0.8510 -0.5968
 8182SOL    HW226031   3.324   3.458   3.590 -0.7670  0.8990 -0.2162
 8183SOL     OW26032   1.085   6.934   0.626 -1.0581 -0.1566 -0.1247
 8183SOL    HW126033   1.066   7.019   0.664 -1.0814  0.1769 -0.8778
 8183SOL    HW226034   1.169   6.946   0.581 -0.5006 -0.8330  0.7136
 8184SOL     OW26035   5.490   1.264   2.226  0.2872  0.0185 -0.1156
 8184SOL    HW126036   5.550   1.300   2.291  0.7281 -2.2336  0.7644
 8184SOL    HW226037   5.405   1.260   2.271 -0.3729  2.4778 -1.1059
 8185SOL     OW26038   0.388   8.312   8.047 -0.5003 -0.3875  0.2666
 8185SOL    HW126039   0.357   8.294   8.136 -0.4174 -0.0374  0.3693
 8185SOL    HW226040   0.455   8.380   8.059 -0.8704  0.0473 -0.1150
 8186SOL     OW26041   1.821   7.989   2.209  0.1666  0.5699  0.3562
 8186SOL    HW126042   1.727   7.997   2.194  0.4262 -0.6291 -2.0886
 8186SOL    HW226043   1.860   8.057   2.154  0.8544 -0.4381 -0.4089
 8187SOL     OW26044   7.694   4.641   3.347 -0.2398  0.2662 -0.0166
 8187SOL    HW126045   7.692   4.624   3.253 -0.2717  1.2347 -0.1978
 8187SOL    HW226046   7.685   4.736   3.354  0.8678  0.3041  0.9229
 8188SOL     OW26047   1.294   5.901   4.649  0.0481  0.0658  0.0752
 8188SOL    HW126048   1.379   5.865   4.674  0.5659 -0.4112 -2.2327
 8188SOL    HW226049   1.288   5.984   4.696  2.7389  1.1407 -1.3630
 8189SOL     OW26050   2.058   5.273   7.904  0.1113  0.5341  0.2067
 8189SOL    HW126051   2.133   5.219   7.880 -0.5818 -0.5606  0.4508
 8189SOL    HW226052   2.014   5.223   7.974  0.7044  2.4508  2.0158
 8190SOL     OW26053   1.972   4.615   0.041 -0.2728 -0.4792  0.0509
 8190SOL    HW126054   1.878   4.599   0.045 -0.1345 -1.0888  0.9204
 8190SOL    HW226055   1.993   4.613  -0.053 -1.3309  0.8974 -0.2242
 8191SOL     OW26056   7.541   6.765   1.111 -0.5258  0.2389  0.0826
 8191SOL    HW126057   7.463   6.756   1.165 -1.0847  1.2761 -0.5590
 8191SOL    HW226058   7.573   6.675   1.101 -1.5335 -0.1735  0.4808
 8192SOL     OW26059   1.798   6.887   1.722  0.1395  0.2109 -0.3553
 8192SOL    HW126060   1.718   6.840   1.700  0.3738  0.1331 -1.0566
 8192SOL    HW226061   1.867   6.821   1.714  0.2399  0.1928  0.5712
 8193SOL     OW26062   7.522   5.544   5.125 -0.3504 -0.5277  0.4202
 8193SOL    HW126063   7.584   5.592   5.180  1.7870 -1.1545 -1.3520
 8193SOL    HW226064   7.517   5.596   5.045 -3.6526  0.5370  1.2404
 8194SOL     OW26065   8.082   1.110   8.269 -0.7001  0.4226  0.6200
 8194SOL    HW126066   8.148   1.146   8.328 -0.3787  0.8037  0.0298
 8194SOL    HW226067   8.107   1.142   8.182  0.6452 -2.7284 -0.2117
 8195SOL     OW26068   5.871   2.200   6.105 -0.2181 -0.0245  0.1235
 8195SOL    HW126069   5.914   2.118   6.130 -0.1492 -0.9793 -2.8944
 8195SOL    HW226070   5.927   2.268   6.142  0.2529 -1.3090  1.8681
 8196SOL     OW26071   0.466   5.388   0.207 -0.0974 -0.3108  0.2714
 8196SOL    HW126072   0.542   5.439   0.179  0.3970 -1.3082 -0.2401
 8196SOL    HW226073   0.429   5.438   0.280  1.0012  0.2242  0.4757
 8197SOL     OW26074   6.125   4.456   0.790  0.3121 -0.1980  0.0730
 8197SOL    HW126075   6.109   4.374   0.836 -1.0988  0.3780  0.6705
 8197SOL    HW226076   6.102   4.438   0.699  1.3476 -0.8440 -0.0610
 8198SOL     OW26077   4.736   3.706   3.160 -0.1820 -0.4978  0.6053
 8198SOL    HW126078   4.766   3.778   3.105 -2.8187  0.4634  0.3554
 8198SOL    HW226079   4.771   3.726   3.247  1.8887 -0.7093 -0.1460
 8199SOL     OW26080   3.450   5.459   3.524  0.6344  0.2067  0.4253
 8199SOL    HW126081   3.402   5.389   3.479 -0.8187 -1.1541  3.9309
 8199SOL    HW226082   3.426   5.539   3.477  0.3445 -1.3107 -2.0949
 8200SOL     OW26083   7.014   1.499   1.995 -0.1840  0.1932  0.1349
 8200SOL    HW126084   6.962   1.578   1.982 -2.0599 -1.2072 -1.0794
 8200SOL    HW226085   7.024   1.492   2.090 -0.5588  1.5218  0.2776
 8201SOL     OW26086   5.624   0.660   1.399  0.0437 -0.0862  0.0297
 8201SOL    HW126087   5.535   0.689   1.384  0.0136 -0.9630 -1.6581
 8201SOL    HW226088   5.635   0.585   1.339  0.9839 -1.7728  2.2270
 8202SOL     OW26089   5.976   8.161   0.147  0.1784 -0.0086  0.0903
 8202SOL    HW126090   6.030   8.176   0.069  0.0801  0.5297  0.1237
 8202SOL    HW226091   5.904   8.223   0.139  0.0567 -0.0916  0.5089
 8203SOL     OW26092   6.634   2.304   1.372 -0.0213  0.4109  0.4163
 8203SOL    HW126093   6.626   2.314   1.466 -0.7928  0.6161  0.3329
 8203SOL    HW226094   6.688   2.225   1.360 -0.8049 -0.2171  1.0197
 8204SOL     OW26095   3.354   2.893   7.272  0.1937  0.5287 -0.0364
 8204SOL    HW126096   3.357   2.867   7.364 -0.6005 -1.1246 -0.4731
 8204SOL    HW226097   3.434   2.858   7.234 -0.0110  0.2700 -0.2271
 8205SOL     OW26098   0.616   6.945   0.762  0.0753 -0.4716  0.1549
 8205SOL    HW126099   0.642   6.909   0.677  1.3799  2.6303 -0.8432
 8205SOL    HW226100   0.583   7.033   0.741 -0.8632 -0.1761  2.7263
 8206SOL     OW26101   6.577   2.832   2.940 -0.1605 -0.1272  0.0916
 8206SOL    HW126102   6.508   2.828   2.873 -1.1548  0.9021  1.0274
 8206SOL    HW226103   6.531   2.817   3.023  0.8099  0.1297  0.6841
 8207SOL     OW26104   3.718   2.011   4.528 -0.3318 -0.2153 -0.0979
 8207SOL    HW126105   3.790   1.948   4.527 -0.5773 -0.4893 -1.8814
 8207SOL    HW226106   3.749   2.083   4.473 -0.6926  0.5125  0.6399
 8208SOL     OW26107   3.872   4.158   3.417  0.1833 -0.2916  0.6091
 8208SOL    HW126108   3.861   4.226   3.350  0.8854  0.0177  0.8030
 8208SOL    HW226109   3.956   4.179   3.459  1.5328 -2.6305 -0.8652
 8209SOL     OW26110   1.045   6.394   4.694 -0.4193 -0.4486 -0.0254
 8209SOL    HW126111   1.084   6.472   4.734 -0.2752  0.3898 -1.7414
 8209SOL    HW226112   1.076   6.321   4.748  1.4085  0.4487  0.1852
 8210SOL     OW26113   6.773   0.558   1.138  0.5850 -0.3878 -0.3561
 8210SOL    HW126114   6.781   0.646   1.101  0.6774 -0.5328 -0.6920
 8210SOL    HW226115   6.861   0.536   1.168  0.4410 -0.1476  0.2324
 8211SOL     OW26116   4.216   4.694   2.065 -0.5733  0.3139 -0.1015
 8211SOL    HW126117   4.297   4.737   2.095 -0.8656  1.1780 -0.5306
 8211SOL    HW226118   4.206   4.619   2.124 -0.3343  1.1304  1.0097
 8212SOL     OW26119   5.983   7.332   0.836 -0.5680 -0.2657  0.1257
 8212SOL    HW126120   5.925   7.256   0.844 -1.0431  0.1177  0.3596
 8212SOL    HW226121   5.930   7.406   0.865  0.5855 -0.1459  2.0424
 8213SOL     OW26122   1.317   3.951   7.893  0.0831  0.1888 -0.5740
 8213SOL    HW126123   1.340   3.945   7.801  1.7656 -2.4631 -0.0172
 8213SOL    HW226124   1.250   3.884   7.907  0.1586  0.2642  0.2238
 8214SOL     OW26125   4.353   4.923   1.786 -0.1483  0.9213 -0.3293
 8214SOL    HW126126   4.290   4.922   1.714 -1.1577  2.3205  0.5048
 8214SOL    HW226127   4.359   5.015   1.811  0.6725  0.5340  0.9626
 8215SOL     OW26128   5.124   7.460   4.899 -0.2146 -0.2387  0.2709
 8215SOL    HW126129   5.051   7.457   4.837 -0.5177 -3.8328  0.6575
 8215SOL    HW226130   5.092   7.512   4.972 -1.3990  0.5152 -0.7714
 8216SOL     OW26131   1.328   5.161   5.387  0.2592  0.9815 -0.2371
 8216SOL    HW126132   1.279   5.238   5.358 -1.5721 -0.0763 -0.0384
 8216SOL    HW226133   1.262   5.093   5.400  1.6176 -0.0824  1.4635
 8217SOL     OW26134   7.059   7.597   4.981  0.2515  0.3740 -0.1296
 8217SOL    HW126135   7.079   7.625   4.891 -0.9999  1.1256 -0.1801
 8217SOL    HW226136   7.074   7.676   5.034 -2.2740  0.9092 -0.1384
 8218SOL     OW26137   5.879   6.720   4.181  0.0799 -0.0678  0.0014
 8218SOL    HW126138   5.838   6.798   4.142 -1.8483 -0.4941  1.0797
 8218SOL    HW226139   5.861   6.729   4.275  0.3355 -1.5353  0.1936
 8219SOL     OW26140   7.133   4.942   4.651  0.4970 -0.5167 -0.4265
 8219SOL    HW126141   7.101   4.852   4.648 -1.1038  0.0647 -0.7656
 8219SOL    HW226142   7.156   4.956   4.743 -0.5889 -0.7960 -0.1134
 8220SOL     OW26143   3.003   0.071   2.557 -0.0074 -0.1300 -0.2117
 8220SOL    HW126144   3.039  -0.003   2.508  0.6336  0.6823 -0.9808
 8220SOL    HW226145   3.056   0.146   2.530 -1.9534  1.0103 -0.9769
 8221SOL     OW26146   2.251   4.219   2.806  0.6791  0.8450 -0.1956
 8221SOL    HW126147   2.338   4.205   2.842  0.2278 -0.8505  0.2514
 8221SOL    HW226148   2.264   4.220   2.711  0.9854 -0.8562 -0.1846
 8222SOL     OW26149   7.144   3.556   6.346 -0.3888 -0.2979 -0.1773
 8222SOL    HW126150   7.177   3.521   6.264 -0.5451 -1.0869  0.0901
 8222SOL    HW226151   7.080   3.623   6.320 -0.7458 -0.8366 -0.7033
 8223SOL     OW26152   5.215   3.455   1.528 -0.1764  0.2695 -0.1094
 8223SOL    HW126153   5.194   3.401   1.452 -0.3535  1.1855 -0.7284
 8223SOL    HW226154   5.218   3.394   1.602  0.5025 -0.7083 -0.9333
 8224SOL     OW26155   1.241   3.426   1.296  0.0524  0.3309 -0.0376
 8224SOL    HW126156   1.169   3.396   1.240 -0.6629 -0.3654  1.2387
 8224SOL    HW226157   1.315   3.436   1.236 -0.5361 -1.0160 -1.0110
 8225SOL     OW26158   6.871   1.688   4.720  0.0716 -0.0309 -0.5010
 8225SOL    HW126159   6.851   1.594   4.725  2.2033 -0.3659  2.8387
 8225SOL    HW226160   6.965   1.691   4.700  0.0858  1.3991 -0.2379
 8226SOL     OW26161   6.304   3.935   8.233 -0.0599 -0.0636 -0.4373
 8226SOL    HW126162   6.220   3.905   8.267  0.1273 -0.5626 -0.4163
 8226SOL    HW226163   6.325   3.875   8.161  1.3152 -1.2892  0.9431
 8227SOL     OW26164   2.012   5.282   1.089 -0.2678  0.1021 -0.3443
 8227SOL    HW126165   2.091   5.229   1.087 -0.1028  0.3500 -0.3633
 8227SOL    HW226166   1.949   5.230   1.139 -0.5408 -0.7326 -1.5242
 8228SOL     OW26167   4.413   6.719   7.857  0.3345  0.2083  0.3870
 8228SOL    HW126168   4.426   6.757   7.944 -1.0359  1.6654 -0.0111
 8228SOL    HW226169   4.397   6.795   7.801 -1.3553 -0.8954 -0.6570
 8229SOL     OW26170   0.736   2.954   5.870 -0.3183  0.6078  1.1172
 8229SOL    HW126171   0.730   2.928   5.778 -0.6757 -0.5673  1.4582
 8229SOL    HW226172   0.783   3.037   5.869 -0.2518  0.5599 -0.1199
 8230SOL     OW26173   1.868   5.379   1.311 -0.3819 -0.4323 -1.0218
 8230SOL    HW126174   1.838   5.290   1.292 -1.8155  0.0235 -1.0150
 8230SOL    HW226175   1.925   5.401   1.237 -0.7552 -1.0310 -1.5000
 8231SOL     OW26176   0.746   1.684   5.412 -0.2430  0.3444 -0.1454
 8231SOL    HW126177   0.813   1.679   5.344 -0.6417  1.2884 -0.6206
 8231SOL    HW226178   0.754   1.602   5.460  2.6324  1.2767  1.0894
 8232SOL     OW26179   2.167   1.038   6.418 -0.2087 -0.2881  0.0916
 8232SOL    HW126180   2.090   0.996   6.380 -0.7464 -0.5472  1.4692
 8232SOL    HW226181   2.150   1.132   6.408  0.8449 -0.3441 -2.6816
 8233SOL     OW26182   2.139   5.841   3.374 -0.8287  0.2578 -0.0075
 8233SOL    HW126183   2.050   5.874   3.361 -1.1703 -1.2264 -1.7962
 8233SOL    HW226184   2.127   5.746   3.385  0.2993  0.4037  2.7586
 8234SOL     OW26185   3.988   7.386   1.846  0.8456 -0.1548 -0.2169
 8234SOL    HW126186   3.942   7.440   1.781  1.9156  3.6082  2.0021
 8234SOL    HW226187   3.919   7.333   1.885 -0.5207  0.6883 -1.4248
 8235SOL     OW26188   7.612   3.838   7.440  0.0964 -0.0032  0.2158
 8235SOL    HW126189   7.581   3.800   7.522 -0.0714 -0.1529  0.0834
 8235SOL    HW226190   7.682   3.780   7.411 -0.6727 -0.6598 -0.3831
 8236SOL     OW26191   1.197   7.074   5.054  0.7367  0.4746  0.5327
 8236SOL    HW126192   1.118   7.021   5.051  0.6289  0.6254  0.6588
 8236SOL    HW226193   1.257   7.032   4.993  0.7561  0.0354  0.8449
 8237SOL     OW26194   0.530   7.888   3.816  0.0864  0.6760 -0.0619
 8237SOL    HW126195   0.610   7.835   3.817 -0.1147  0.3509 -0.8884
 8237SOL    HW226196   0.459   7.824   3.818 -0.1697  0.8486 -2.0686
 8238SOL     OW26197   5.652   6.386   4.605  0.3221 -0.0538 -0.8955
 8238SOL    HW126198   5.727   6.327   4.617 -0.9829 -1.4587  0.5133
 8238SOL    HW226199   5.669   6.458   4.666  0.9789  0.0954 -1.2463
 8239SOL     OW26200   8.110   2.403   5.585  0.2426 -0.2171 -0.3775
 8239SOL    HW126201   8.100   2.309   5.573  2.5581 -0.5350 -0.0200
 8239SOL    HW226202   8.160   2.412   5.666 -2.3740  1.4455  1.1233
 8240SOL     OW26203   3.452   0.356   1.910 -0.2335 -0.7485  0.1015
 8240SOL    HW126204   3.388   0.298   1.870  0.9843 -2.0780  0.0718
 8240SOL    HW226205   3.537   0.314   1.896  0.8679  1.8047 -1.3555
 8241SOL     OW26206   5.457   3.173   0.338 -0.0517  0.2586 -0.2376
 8241SOL    HW126207   5.536   3.121   0.323 -0.4886 -0.2858 -0.6702
 8241SOL    HW226208   5.489   3.259   0.363  0.6813 -0.0773 -0.0216
 8242SOL     OW26209   4.011   3.566   2.449  0.0902  0.0173  0.0230
 8242SOL    HW126210   4.070   3.638   2.472  2.0656 -1.9020  1.1343
 8242SOL    HW226211   3.955   3.556   2.526 -0.1357  0.2978 -0.1022
 8243SOL     OW26212   1.606   5.073   2.899 -0.6551 -0.1123 -0.3084
 8243SOL    HW126213   1.594   5.005   2.832 -0.2867  0.5389 -1.0449
 8243SOL    HW226214   1.695   5.060   2.932 -0.1568  0.7394 -1.2860
 8244SOL     OW26215   6.849   1.975   7.734 -0.2673 -0.1255  0.3083
 8244SOL    HW126216   6.867   2.038   7.804 -0.2726 -0.1078  0.2933
 8244SOL    HW226217   6.759   1.993   7.707  0.2082  0.7995 -0.6710
 8245SOL     OW26218   5.375   0.466   7.321 -0.6761 -0.0169  0.1372
 8245SOL    HW126219   5.372   0.372   7.304 -2.2384 -0.0936  0.7290
 8245SOL    HW226220   5.349   0.507   7.238  0.4982 -0.0774 -0.2710
 8246SOL     OW26221   0.490   1.808   4.653  0.3020 -0.2901  0.1336
 8246SOL    HW126222   0.422   1.755   4.611 -0.8537 -1.4016  3.1885
 8246SOL    HW226223   0.572   1.776   4.617 -0.5722 -1.9817 -0.4170
 8247SOL     OW26224   3.938   0.629   0.042 -0.0412  0.2922  0.2425
 8247SOL    HW126225   3.913   0.716   0.011 -2.4863 -0.5704 -0.3170
 8247SOL    HW226226   3.954   0.578  -0.038  1.3072  0.1759  0.5629
 8248SOL     OW26227   6.082   6.670   1.206  0.1233 -0.6206 -0.8241
 8248SOL    HW126228   6.147   6.740   1.205 -0.8998  0.4021  1.0968
 8248SOL    HW226229   6.001   6.714   1.232 -0.4722 -2.5482  0.6821
 8249SOL     OW26230   2.441   3.775   0.702 -0.2575 -0.0876  0.3749
 8249SOL    HW126231   2.481   3.755   0.617  0.1779  0.8028  0.3605
 8249SOL    HW226232   2.462   3.699   0.757  0.1577 -0.3051 -0.0789
 8250SOL     OW26233   8.221   6.466   2.880 -0.1874 -0.0891 -0.4613
 8250SOL    HW126234   8.229   6.494   2.971 -0.1688 -1.3928 -0.0490
 8250SOL    HW226235   8.192   6.545   2.833  0.2959  0.7229  0.5767
 8251SOL     OW26236   5.730   0.997   2.363 -0.0883  0.0072 -0.3729
 8251SOL    HW126237   5.672   0.929   2.397  0.1067 -0.4524 -0.9441
 8251SOL    HW226238   5.748   1.053   2.438 -1.0514 -0.0040 -0.1221
 8252SOL     OW26239   2.562   5.200   2.425  0.1455  0.0878 -0.3327
 8252SOL    HW126240   2.563   5.289   2.391  1.0299 -0.5917 -2.1602
 8252SOL    HW226241   2.601   5.147   2.355 -2.6079 -2.0931 -0.3233
 8253SOL     OW26242   6.075   4.831   0.294  0.1344  0.3040 -0.2812
 8253SOL    HW126243   6.002   4.866   0.242 -0.1120  1.1271  0.6071
 8253SOL    HW226244   6.151   4.879   0.263  0.2404 -0.2545 -0.9100
 8254SOL     OW26245   0.879   4.275   2.143  0.2287 -0.7919 -0.1924
 8254SOL    HW126246   0.834   4.234   2.217  0.9303 -0.6027  0.3410
 8254SOL    HW226247   0.892   4.203   2.081  0.5984 -1.1828  0.3271
 8255SOL     OW26248   4.089   3.648   4.832 -0.9342 -0.8593  0.1043
 8255SOL    HW126249   4.094   3.735   4.790  0.2721 -1.3880 -0.8963
 8255SOL    HW226250   4.015   3.606   4.789 -1.0374 -0.6039  0.0291
 8256SOL     OW26251   4.603   5.906   2.315  0.0866 -0.1672  0.2539
 8256SOL    HW126252   4.611   5.929   2.223 -1.1605  0.5546  0.3128
 8256SOL    HW226253   4.626   5.814   2.319 -2.9262 -1.0637 -1.2989
 8257SOL     OW26254   1.752   7.250   1.149  0.0325  0.4023  0.6444
 8257SOL    HW126255   1.709   7.256   1.235 -1.9354 -1.0414 -0.1961
 8257SOL    HW226256   1.761   7.156   1.134  1.9733  0.6717  0.0149
 8258SOL     OW26257   1.169   5.680   6.004  0.1698  0.0842  0.1442
 8258SOL    HW126258   1.222   5.687   5.925 -0.2116  1.9068  0.0115
 8258SOL    HW226259   1.231   5.694   6.076  0.3702 -0.7320  0.1338
 8259SOL     OW26260   7.036   7.311   8.081  0.6784  0.3912  0.0920
 8259SOL    HW126261   7.063   7.303   7.989  1.8672  0.4447  0.4343
 8259SOL    HW226262   6.987   7.230   8.098  2.1581 -0.5416 -0.0154
 8260SOL     OW26263   4.317   8.133   0.915  0.2179 -0.5929  0.5434
 8260SOL    HW126264   4.247   8.070   0.933 -0.5814  0.0338 -0.3648
 8260SOL    HW226265   4.388   8.080   0.879 -0.3187 -1.0202  0.1166
 8261SOL     OW26266   8.312   7.378   3.643 -0.4976 -0.0005 -0.2900
 8261SOL    HW126267   8.340   7.410   3.557  0.1380  3.9405  1.2933
 8261SOL    HW226268   8.237   7.322   3.624 -0.4551  0.8740 -3.3934
 8262SOL     OW26269   5.574   3.222   1.786 -0.3892  0.7552  0.1336
 8262SOL    HW126270   5.526   3.139   1.789 -2.1889  1.7715  0.0109
 8262SOL    HW226271   5.573   3.255   1.875 -0.7728  1.2551 -0.0517
 8263SOL     OW26272   6.680   0.127   0.607  0.1351 -0.1851  0.4657
 8263SOL    HW126273   6.654   0.104   0.696 -3.5546  1.7358 -0.0518
 8263SOL    HW226274   6.669   0.046   0.557 -2.6383 -0.0347  0.7696
 8264SOL     OW26275   1.489   1.284   4.941  0.3039  0.4062  0.0429
 8264SOL    HW126276   1.564   1.230   4.966  0.0683  0.6290  1.2739
 8264SOL    HW226277   1.523   1.374   4.944  0.0527  0.4912  0.3811
 8265SOL     OW26278   1.548   5.612   4.207  0.1348 -0.0284 -0.0948
 8265SOL    HW126279   1.523   5.683   4.147  1.0625  0.9926  0.7153
 8265SOL    HW226280   1.471   5.600   4.262  0.2171  0.8407  0.2243
 8266SOL     OW26281   7.078   7.873   5.433  0.6912 -0.0407  0.1886
 8266SOL    HW126282   7.043   7.784   5.425 -1.0315  0.5387  1.1102
 8266SOL    HW226283   7.156   7.873   5.377  0.0606 -1.7965 -0.7304
 8267SOL     OW26284   6.666   6.614   7.870  0.4661  0.2511  0.1929
 8267SOL    HW126285   6.701   6.690   7.823 -0.7529  0.9611  0.4063
 8267SOL    HW226286   6.743   6.569   7.903  1.2709  0.6959 -1.0125
 8268SOL     OW26287   5.272   0.852   0.207  0.1361  0.2088 -0.3568
 8268SOL    HW126288   5.337   0.790   0.241 -1.2796 -0.6519  0.8320
 8268SOL    HW226289   5.196   0.840   0.263 -0.9162  1.5074 -1.4764
 8269SOL     OW26290   3.446   4.899   1.606 -0.4754 -0.1177 -0.2588
 8269SOL    HW126291   3.432   4.805   1.616 -1.7133  0.1967  1.0551
 8269SOL    HW226292   3.434   4.914   1.512 -0.3149 -1.2666 -0.4704
 8270SOL     OW26293   0.634   2.065   4.664 -0.0647  0.1322  0.2260
 8270SOL    HW126294   0.621   2.051   4.570 -0.1696  0.6078  0.1697
 8270SOL    HW226295   0.604   1.983   4.705  0.1677 -0.1494 -0.1672
 8271SOL     OW26296   7.837   6.141   7.970  0.3804 -0.1384  0.8261
 8271SOL    HW126297   7.781   6.067   7.996  0.8603 -0.2644  1.4934
 8271SOL    HW226298   7.926   6.106   7.975  0.4885 -0.1802 -1.0193
 8272SOL     OW26299   1.300   7.386   6.016  0.0767 -0.5125 -0.6180
 8272SOL    HW126300   1.306   7.463   5.960 -0.4572 -0.7030 -0.9441
 8272SOL    HW226301   1.390   7.367   6.040  0.4232 -1.0333 -2.2525
 8273SOL     OW26302   3.088   5.222   6.564  0.4834  0.5784 -0.2653
 8273SOL    HW126303   3.013   5.281   6.553 -0.0689 -0.1439 -0.3834
 8273SOL    HW226304   3.142   5.264   6.631  0.0265  1.1583 -0.2578
 8274SOL     OW26305   7.018   5.353   7.265  0.2854 -0.4402  0.1272
 8274SOL    HW126306   6.933   5.371   7.305  0.4800 -0.4891  0.5617
 8274SOL    HW226307   7.079   5.351   7.338  0.8080  0.4980 -0.2789
 8275SOL     OW26308   7.722   3.492   7.466 -0.2789 -0.7352  0.6426
 8275SOL    HW126309   7.803   3.446   7.445 -0.1991 -0.5530  0.5472
 8275SOL    HW226310   7.675   3.499   7.383 -0.0134 -0.1117  0.5464
 8276SOL     OW26311   5.290   1.052   2.488  0.1420 -0.2727  0.2740
 8276SOL    HW126312   5.217   1.019   2.540  0.0202 -0.0384  0.2557
 8276SOL    HW226313   5.255   1.132   2.448  0.7226  0.3701  1.0457
 8277SOL     OW26314   7.349   7.325   4.763 -0.2784 -0.2175 -0.6611
 8277SOL    HW126315   7.381   7.236   4.748 -1.0553 -0.9448  1.7354
 8277SOL    HW226316   7.361   7.369   4.679  1.7493 -2.0708 -1.4030
 8278SOL     OW26317   2.438   7.208   3.071  0.1862 -0.2870 -0.6759
 8278SOL    HW126318   2.452   7.286   3.125  2.0787 -0.8883 -0.2423
 8278SOL    HW226319   2.344   7.195   3.072 -0.1578  1.9579 -0.7035
 8279SOL     OW26320   8.254   4.263   0.266  0.3852  0.1374 -0.5725
 8279SOL    HW126321   8.325   4.264   0.331 -0.1163  0.4670 -0.0256
 8279SOL    HW226322   8.252   4.353   0.232 -1.8647  0.9801  1.7160
 8280SOL     OW26323   2.064   2.029   6.457 -0.1688  0.0756 -0.4793
 8280SOL    HW126324   2.075   1.934   6.457 -0.4916  0.0266  0.3635
 8280SOL    HW226325   2.149   2.064   6.483 -0.3205 -0.0336  0.1806
 8281SOL     OW26326   6.959   2.314   1.652  1.0049  0.4296  0.2542
 8281SOL    HW126327   6.967   2.312   1.557  0.2662  1.6801  0.1609
 8281SOL    HW226328   6.871   2.280   1.669  1.1711  0.1171  0.4959
 8282SOL     OW26329   6.573   7.089   6.246  0.5452 -0.1613  0.3362
 8282SOL    HW126330   6.479   7.107   6.243  0.4611 -0.0796  2.6138
 8282SOL    HW226331   6.600   7.088   6.154 -1.2494  2.0750 -0.2711
 8283SOL     OW26332   6.705   1.079   3.922 -0.1008  0.1688 -0.1456
 8283SOL    HW126333   6.747   1.063   4.006  2.1133  2.8071 -0.6287
 8283SOL    HW226334   6.642   1.149   3.939 -2.3205 -1.8129 -0.0004
 8284SOL     OW26335   6.379   5.656   7.438  0.1923  0.0942 -0.4487
 8284SOL    HW126336   6.463   5.625   7.405  0.2484 -0.4190  0.1670
 8284SOL    HW226337   6.398   5.689   7.525 -0.4057 -0.8655  0.0571
 8285SOL     OW26338   3.449   2.391   5.035 -0.3784 -0.1721  0.1711
 8285SOL    HW126339   3.465   2.313   5.088  1.2795 -0.7455 -1.1176
 8285SOL    HW226340   3.522   2.393   4.972 -1.6612  1.1188 -1.3236
 8286SOL     OW26341   6.496   1.080   1.710 -0.0276 -0.1432 -0.3959
 8286SOL    HW126342   6.484   1.074   1.805 -0.2001 -0.3758 -0.4313
 8286SOL    HW226343   6.585   1.046   1.696  0.5537  1.2678 -0.1705
 8287SOL     OW26344   1.117   0.525   2.062  0.3315  0.3153 -0.1114
 8287SOL    HW126345   1.144   0.480   1.983 -1.4433 -0.5419 -0.2628
 8287SOL    HW226346   1.081   0.457   2.119  2.0653  0.8392  1.6661
 8288SOL     OW26347   4.122   5.211   3.077 -0.3472  0.1894 -0.1207
 8288SOL    HW126348   4.043   5.246   3.036 -1.2792 -0.4202  1.1585
 8288SOL    HW226349   4.189   5.220   3.009 -2.1203 -1.8914 -2.2446
 8289SOL     OW26350   7.664   2.796   7.401 -0.1027  0.1516  0.0750
 8289SOL    HW126351   7.690   2.743   7.476 -1.0997  1.8519  1.6607
 8289SOL    HW226352   7.736   2.785   7.338  1.4323 -0.1611  1.8537
 8290SOL     OW26353   8.270   6.368   0.430  0.5304 -0.0030  0.4513
 8290SOL    HW126354   8.183   6.404   0.450  0.4704 -0.5431  1.1674
 8290SOL    HW226355   8.255   6.274   0.419  1.4523 -0.5037  3.1877
 8291SOL     OW26356   4.928   7.192   6.422  0.9992  0.2284 -0.1044
 8291SOL    HW126357   4.925   7.210   6.516 -0.4447  1.0532 -0.3065
 8291SOL    HW226358   4.992   7.254   6.388  0.0383  1.2825  0.0205
 8292SOL     OW26359   7.506   8.252   7.531  0.1978 -0.3583 -0.2290
 8292SOL    HW126360   7.522   8.180   7.593  0.5667  1.6507  2.0950
 8292SOL    HW226361   7.465   8.320   7.584  1.4169  1.7997 -1.9941
 8293SOL     OW26362   3.469   4.075   5.489 -0.2655 -0.7824 -0.4356
 8293SOL    HW126363   3.414   4.111   5.419 -0.2489 -0.5130 -0.3112
 8293SOL    HW226364   3.542   4.137   5.497  0.4508 -1.5166 -1.1053
 8294SOL     OW26365   2.498   4.745   6.161 -0.0882 -0.0598 -0.4105
 8294SOL    HW126366   2.450   4.758   6.243  0.7303  0.1616  0.0369
 8294SOL    HW226367   2.544   4.828   6.146  1.6225 -0.8915  0.1318
 8295SOL     OW26368   1.579   4.578   1.911  0.0189  0.3543  0.0503
 8295SOL    HW126369   1.517   4.547   1.977 -1.6957  1.2643 -1.1016
 8295SOL    HW226370   1.612   4.661   1.945 -0.5796  0.6377 -0.0610
 8296SOL     OW26371   8.241   8.188   0.960  0.4083 -0.2681  0.2195
 8296SOL    HW126372   8.332   8.173   0.984  0.0444 -0.6614  1.3533
 8296SOL    HW226373   8.224   8.280   0.982 -0.4515 -1.1001  3.2364
 8297SOL     OW26374   6.779   4.671   6.115  0.4427  0.3272  0.6692
 8297SOL    HW126375   6.685   4.674   6.098  0.5542  1.5311  0.2054
 8297SOL    HW226376   6.819   4.712   6.038  1.6387 -4.0770 -1.2199
 8298SOL     OW26377   5.959   3.084   2.859 -0.3209  0.3052 -0.1209
 8298SOL    HW126378   5.983   3.104   2.949 -1.3653  1.4271 -0.0869
 8298SOL    HW226379   5.890   3.018   2.866 -0.1342  0.1097 -0.1127
 8299SOL     OW26380   6.039   5.578   1.751 -0.3817 -0.0599  0.2028
 8299SOL    HW126381   6.061   5.564   1.843 -1.2585 -0.3069  0.3772
 8299SOL    HW226382   6.069   5.498   1.708 -1.2344 -0.5480  0.4964
 8300SOL     OW26383   4.011   0.633   2.707  0.1679  0.1674  0.1661
 8300SOL    HW126384   4.080   0.568   2.692 -1.1177 -1.2780  0.3163
 8300SOL    HW226385   3.930   0.581   2.711 -0.6146  1.4988  2.7283
 8301SOL     OW26386   0.924   1.649   0.343 -0.6466  0.1659  0.7796
 8301SOL    HW126387   0.908   1.564   0.301  2.8977 -0.9299  1.4448
 8301SOL    HW226388   0.939   1.709   0.270 -1.1800 -0.2163  0.3502
 8302SOL     OW26389   0.952   5.756   2.202  0.6701 -0.5462  0.2665
 8302SOL    HW126390   0.985   5.719   2.283  0.0142 -2.9505 -0.5207
 8302SOL    HW226391   0.970   5.689   2.136 -0.4185  0.6044 -1.2344
 8303SOL     OW26392   1.445   2.453   3.105 -0.1599 -0.0290  0.4025
 8303SOL    HW126393   1.520   2.394   3.106 -0.3657 -0.3242 -0.5019
 8303SOL    HW226394   1.378   2.405   3.056 -0.3172  0.9616 -0.3658
 8304SOL     OW26395   5.344   7.555   4.185 -0.0864 -0.0455 -0.2740
 8304SOL    HW126396   5.252   7.553   4.159  0.0072 -0.0482 -0.6068
 8304SOL    HW226397   5.357   7.474   4.236 -0.4621  0.3412  0.4408
 8305SOL     OW26398   3.590   6.979   2.396  0.1649 -0.0525  0.4835
 8305SOL    HW126399   3.498   6.995   2.377  1.1216  1.8921 -2.8707
 8305SOL    HW226400   3.627   7.066   2.413  1.6982 -0.6211  0.1485
 8306SOL     OW26401   3.921   1.789   4.165  0.1478 -0.0636 -0.0264
 8306SOL    HW126402   3.951   1.716   4.111  2.8684  0.9372  0.0547
 8306SOL    HW226403   3.910   1.862   4.104  1.3915  0.5441  0.4394
 8307SOL     OW26404   5.405   7.043   4.876 -0.2930 -0.8042 -0.3278
 8307SOL    HW126405   5.363   7.117   4.833 -1.0319 -0.4185  1.0415
 8307SOL    HW226406   5.455   7.081   4.948 -0.9483 -1.6573  0.5981
 8308SOL     OW26407   6.084   7.611   7.546  0.2978  0.1650  0.4481
 8308SOL    HW126408   5.996   7.580   7.525  0.2533 -0.4830  1.5612
 8308SOL    HW226409   6.114   7.653   7.465 -1.1729  0.7274  0.1716
 8309SOL     OW26410   1.140   4.195   4.780  0.0964  0.0182  0.1151
 8309SOL    HW126411   1.054   4.232   4.759 -0.1819  0.0400  1.2783
 8309SOL    HW226412   1.122   4.128   4.846  1.2298  1.6161  2.0873
 8310SOL     OW26413   5.506   0.725   7.027  0.1884 -0.1047  0.4691
 8310SOL    HW126414   5.520   0.630   7.022 -0.0208 -0.1364  0.5072
 8310SOL    HW226415   5.433   0.741   6.967  0.3652  0.0604  0.2999
 8311SOL     OW26416   7.911   4.549   1.962  0.7529  0.0529 -0.1896
 8311SOL    HW126417   7.904   4.499   1.881 -0.5930 -0.0585 -0.0211
 8311SOL    HW226418   7.889   4.639   1.937  0.4175  0.0338  0.0390
 8312SOL     OW26419   1.486   5.002   6.465 -0.0474  0.0351 -0.3789
 8312SOL    HW126420   1.496   5.046   6.550  0.1836 -1.3721  0.3355
 8312SOL    HW226421   1.393   5.010   6.445 -0.2357 -0.2877  0.3652
 8313SOL     OW26422   1.281   0.643   2.513 -0.5768 -0.6555 -0.1890
 8313SOL    HW126423   1.205   0.636   2.571 -0.2378  0.6823  0.4232
 8313SOL    HW226424   1.245   0.677   2.431 -0.8687 -1.4468 -0.3960
 8314SOL     OW26425   2.339   1.401   5.811  0.0705 -0.1622  0.3846
 8314SOL    HW126426   2.320   1.309   5.828 -0.5327 -0.3143 -1.0248
 8314SOL    HW226427   2.433   1.402   5.790  0.1879 -0.3758  0.8873
 8315SOL     OW26428   7.538   3.568   2.868 -0.2410  0.2427  0.2033
 8315SOL    HW126429   7.543   3.482   2.826 -0.0857 -0.5483  1.8340
 8315SOL    HW226430   7.628   3.602   2.863 -0.3618  0.4435 -0.6983
 8316SOL     OW26431   5.867   6.820   6.921  0.6316 -0.1501 -0.3925
 8316SOL    HW126432   5.912   6.899   6.952  0.7217 -1.4097  2.9653
 8316SOL    HW226433   5.777   6.831   6.950  0.5457 -1.0667 -0.2975
 8317SOL     OW26434   0.602   4.944   3.674 -0.1515 -0.6434  0.0553
 8317SOL    HW126435   0.573   4.871   3.619 -0.0139 -1.7679  1.4649
 8317SOL    HW226436   0.577   5.022   3.625 -0.9481 -1.6282 -1.1302
 8318SOL     OW26437   4.256   7.017   5.927  0.3298  0.3467  0.0052
 8318SOL    HW126438   4.227   7.000   6.016 -0.0773 -0.9738 -0.3658
 8318SOL    HW226439   4.321   6.949   5.909 -0.7123 -0.3463 -1.2253
 8319SOL     OW26440   5.049   7.255   7.768 -0.4813 -0.2481  0.3269
 8319SOL    HW126441   5.089   7.326   7.718 -1.2357  0.7612  1.1202
 8319SOL    HW226442   4.960   7.287   7.787 -1.1741 -1.8203 -0.1504
 8320SOL     OW26443   2.434   5.180   4.866  0.5531  0.2598  0.9264
 8320SOL    HW126444   2.427   5.185   4.962 -2.3445  2.5285  0.6758
 8320SOL    HW226445   2.402   5.092   4.845 -0.3918  0.3344  1.9796
 8321SOL     OW26446   7.319   3.478   3.736 -0.1703 -0.0546  0.1911
 8321SOL    HW126447   7.366   3.404   3.699 -0.1121  0.2014 -0.2544
 8321SOL    HW226448   7.377   3.553   3.723 -0.6678  0.2491 -0.2956
 8322SOL     OW26449   2.776   5.864   3.511 -0.4401  0.1215 -0.4721
 8322SOL    HW126450   2.827   5.874   3.430 -1.3549  2.0766 -0.8325
 8322SOL    HW226451   2.736   5.778   3.502 -0.5333  0.3081 -2.1231
 8323SOL     OW26452   2.806   1.391   7.330 -0.4654  0.1909  0.6796
 8323SOL    HW126453   2.711   1.402   7.325 -0.3221  0.9291 -1.2325
 8323SOL    HW226454   2.820   1.315   7.385 -2.2949 -1.5862 -1.2612
 8324SOL     OW26455   5.837   1.023   8.143  0.0297  0.0147  0.3849
 8324SOL    HW126456   5.806   0.933   8.139 -0.2291  0.1028  0.3371
 8324SOL    HW226457   5.794   1.060   8.221  1.9766 -0.5710  1.7813
 8325SOL     OW26458   1.147   3.967   4.373  0.0615 -0.0860  0.3858
 8325SOL    HW126459   1.099   3.884   4.368  1.0278 -0.6306 -0.0311
 8325SOL    HW226460   1.200   3.959   4.452  1.8351 -0.7944 -0.8532
 8326SOL     OW26461   0.006   7.466   6.590  0.0181 -0.1200  0.5608
 8326SOL    HW126462  -0.057   7.534   6.567  0.5680  0.0046 -0.5941
 8326SOL    HW226463   0.061   7.456   6.512  1.4798 -0.1709  1.5796
 8327SOL     OW26464   0.557   1.516   5.244 -0.5309 -0.6560  0.2991
 8327SOL    HW126465   0.501   1.573   5.297 -1.9661 -1.2332 -0.5613
 8327SOL    HW226466   0.530   1.427   5.267  1.3355 -1.0058  1.2425
 8328SOL     OW26467   0.657   2.306   7.690  0.3504 -0.3869  0.0801
 8328SOL    HW126468   0.723   2.265   7.746  0.7629  1.0377  0.6747
 8328SOL    HW226469   0.671   2.268   7.604  2.5811  0.5701 -0.0121
 8329SOL     OW26470   3.305   0.790   0.179  0.4565  0.1355 -0.3122
 8329SOL    HW126471   3.285   0.749   0.095 -3.1096  0.0656  0.4734
 8329SOL    HW226472   3.384   0.745   0.209  2.5633  1.0721 -4.1438
 8330SOL     OW26473   1.665   1.368   2.160  0.1930 -0.2406 -0.2916
 8330SOL    HW126474   1.666   1.434   2.230 -0.2382  0.6859 -1.1542
 8330SOL    HW226475   1.756   1.360   2.134  0.2735 -0.1166 -0.0576
 8331SOL     OW26476   6.752   2.050   3.451  0.6367 -0.0502  0.3700
 8331SOL    HW126477   6.810   2.029   3.524  0.2079 -0.9535  0.4588
 8331SOL    HW226478   6.803   2.110   3.396  1.1628  0.1984  1.1208
 8332SOL     OW26479   4.165   0.939   4.774  0.0297 -0.1041  0.2627
 8332SOL    HW126480   4.218   0.860   4.768  1.0911  0.6985 -1.3159
 8332SOL    HW226481   4.218   1.007   4.731 -1.6455  1.0336 -0.0678
 8333SOL     OW26482   7.060   2.692   5.791  0.0778  0.3413  0.1490
 8333SOL    HW126483   7.000   2.650   5.852  0.3720  0.8083  0.7615
 8333SOL    HW226484   7.126   2.734   5.847  1.3505 -0.7211 -0.5141
 8334SOL     OW26485   3.768   0.218   0.927  0.1417  0.1079 -0.2756
 8334SOL    HW126486   3.806   0.277   0.992 -0.8102  2.9485 -2.1919
 8334SOL    HW226487   3.693   0.178   0.972 -0.7583  2.3429  0.3076
 8335SOL     OW26488   8.120   3.614   0.425 -0.6290  0.0014  0.4128
 8335SOL    HW126489   8.096   3.574   0.342 -2.1536  1.3936  0.1571
 8335SOL    HW226490   8.190   3.558   0.459 -1.4525 -1.8174 -0.7755
 8336SOL     OW26491   3.725   6.881   0.952 -0.1806  0.4412  0.0461
 8336SOL    HW126492   3.800   6.877   0.893 -0.4326 -1.7668 -0.1874
 8336SOL    HW226493   3.761   6.859   1.038 -0.2511  1.1358  0.2529
 8337SOL     OW26494   4.099   4.246   3.485  0.3500  0.0579  0.0458
 8337SOL    HW126495   4.150   4.319   3.449 -0.3246  0.9024  0.7931
 8337SOL    HW226496   4.104   4.258   3.580 -0.2900 -0.5218  0.1522
 8338SOL     OW26497   6.799   5.556   6.014 -0.3693 -0.2071 -0.2103
 8338SOL    HW126498   6.839   5.589   6.095  0.2075 -0.2452 -0.4773
 8338SOL    HW226499   6.711   5.527   6.041 -0.6146  0.8781  0.1652
 8339SOL     OW26500   3.062   7.829   5.088 -0.3106 -0.0242 -0.0646
 8339SOL    HW126501   2.996   7.897   5.077  0.8985  1.5281  1.9323
 8339SOL    HW226502   3.126   7.867   5.149  1.9220 -1.8423 -1.2034
 8340SOL     OW26503   2.413   8.216   7.478  0.1120 -0.6827 -0.2040
 8340SOL    HW126504   2.377   8.281   7.418 -1.3776 -0.5472  0.8063
 8340SOL    HW226505   2.360   8.138   7.464  0.2339 -0.8757  0.3908
 8341SOL     OW26506   3.722   0.661   7.799  0.2535  0.2151 -0.2291
 8341SOL    HW126507   3.675   0.707   7.869 -0.6055  0.1043 -0.7259
 8341SOL    HW226508   3.701   0.710   7.720 -2.3507 -2.1716 -1.1081
 8342SOL     OW26509   7.779   1.257   5.362  0.6356  0.1893 -0.1250
 8342SOL    HW126510   7.744   1.186   5.308 -1.5300  1.8197 -0.9422
 8342SOL    HW226511   7.776   1.334   5.305  1.6000  1.2486  1.2171
 8343SOL     OW26512   1.684   5.077   4.330  0.3132  0.1608 -0.3366
 8343SOL    HW126513   1.651   4.988   4.339 -0.0061  0.3169  0.0569
 8343SOL    HW226514   1.611   5.132   4.358  2.0649  0.4359  4.0810
 8344SOL     OW26515   7.989   3.325   5.546 -0.1335 -0.5599  0.0173
 8344SOL    HW126516   8.021   3.242   5.509  1.6463  0.2055 -0.2416
 8344SOL    HW226517   7.911   3.345   5.495 -0.1990 -1.7474 -0.3732
 8345SOL     OW26518   6.067   1.604   7.445 -0.2550 -0.8127  0.4895
 8345SOL    HW126519   5.982   1.571   7.473 -0.4169 -0.1270  0.8389
 8345SOL    HW226520   6.128   1.533   7.464 -0.9343 -1.8046 -0.9658
 8346SOL     OW26521   5.124   2.041   5.044 -0.6099  0.2386 -0.3593
 8346SOL    HW126522   5.206   1.991   5.048 -1.1850 -0.5332  3.9428
 8346SOL    HW226523   5.059   1.977   5.013 -0.2245 -0.0489 -0.5821
 8347SOL     OW26524   0.639   1.000   7.453 -0.3624  0.3882 -0.0308
 8347SOL    HW126525   0.575   1.005   7.524  0.7754  0.0609  1.0432
 8347SOL    HW226526   0.667   0.908   7.453 -0.0083  0.4922 -0.5948
 8348SOL     OW26527   5.594   6.962   3.351  0.2517 -1.0841 -0.3043
 8348SOL    HW126528   5.653   6.999   3.285  0.8320 -0.0201  0.7830
 8348SOL    HW226529   5.524   7.026   3.359  0.0594 -1.3232 -0.0633
 8349SOL     OW26530   7.071   4.719   3.907  0.2146  0.0316  0.4349
 8349SOL    HW126531   7.033   4.676   3.830 -1.4000  2.2841 -0.0743
 8349SOL    HW226532   6.996   4.737   3.964  1.2957 -0.8772  2.1776
 8350SOL     OW26533   0.172   5.716   3.628 -0.0591  0.2467 -0.6245
 8350SOL    HW126534   0.176   5.771   3.549  1.0043 -1.0986 -1.5528
 8350SOL    HW226535   0.263   5.689   3.642 -0.5245 -1.0347 -0.0272
 8351SOL     OW26536   6.565   4.955   3.312 -0.4208 -0.1900  0.0309
 8351SOL    HW126537   6.489   4.908   3.347 -0.7081  0.6745  0.5973
 8351SOL    HW226538   6.639   4.916   3.357 -0.7019  0.2078  0.8534
 8352SOL     OW26539   7.158   5.766   6.587 -0.4568 -0.4504  0.1329
 8352SOL    HW126540   7.211   5.845   6.589 -2.5835  1.0036  1.3897
 8352SOL    HW226541   7.179   5.720   6.669  1.0592 -1.4140 -0.7734
 8353SOL     OW26542   8.106   7.059   0.580  0.4356 -0.7001  0.0333
 8353SOL    HW126543   8.072   7.110   0.506  2.2582  0.4661 -0.0405
 8353SOL    HW226544   8.055   6.978   0.579 -0.8592  0.1016 -1.3366
 8354SOL     OW26545   2.658   7.496   6.825 -0.1059  0.4687  0.5524
 8354SOL    HW126546   2.577   7.526   6.784 -0.0713 -0.0248  0.1161
 8354SOL    HW226547   2.709   7.460   6.753  1.1605  2.1679  0.5445
 8355SOL     OW26548   2.071   2.317   5.428  0.6305 -1.0605 -0.3848
 8355SOL    HW126549   2.012   2.392   5.422  1.2701 -0.6155 -1.4893
 8355SOL    HW226550   2.014   2.240   5.429  0.0114 -0.6117 -0.8415
 8356SOL     OW26551   3.446   0.859   0.529 -0.2819 -0.3366 -0.2501
 8356SOL    HW126552   3.398   0.910   0.593  0.9876  1.4427 -0.6545
 8356SOL    HW226553   3.388   0.787   0.506 -1.7723  0.4547  0.9774
 8357SOL     OW26554   0.641   7.035   2.800  0.3646 -0.2360  0.1921
 8357SOL    HW126555   0.642   7.086   2.720 -2.2057 -2.0631 -1.0805
 8357SOL    HW226556   0.700   6.962   2.783  2.1287  0.9477  1.1017
 8358SOL     OW26557   8.020   5.861   6.979  0.2032  0.4831 -0.1364
 8358SOL    HW126558   7.925   5.870   6.970 -0.0620  0.3723  2.2051
 8358SOL    HW226559   8.038   5.886   7.070  2.5152  1.2143 -0.7614
 8359SOL     OW26560   4.803   2.817   4.458  0.1437  0.1818  0.8427
 8359SOL    HW126561   4.755   2.822   4.541 -0.9921 -1.0793  0.2917
 8359SOL    HW226562   4.835   2.727   4.455 -0.2721  0.0715 -0.3207
 8360SOL     OW26563   5.956   3.501   6.051  0.4024  0.2588 -0.5286
 8360SOL    HW126564   5.914   3.435   6.107  0.7046 -0.5944 -1.2900
 8360SOL    HW226565   5.895   3.512   5.979  0.8125  0.0879 -0.9002
 8361SOL     OW26566   1.693   0.805   3.892  0.3195  0.9556 -0.7483
 8361SOL    HW126567   1.711   0.897   3.912 -0.1672  1.2365 -1.5437
 8361SOL    HW226568   1.733   0.756   3.963  1.5652  1.7247 -0.9156
 8362SOL     OW26569   1.526   2.518   1.792  0.7288 -0.1351 -0.1354
 8362SOL    HW126570   1.525   2.525   1.696  0.6819  0.1098 -0.1175
 8362SOL    HW226571   1.438   2.487   1.814  0.2216  1.3052 -0.0639
 8363SOL     OW26572   7.168   2.288   8.276 -0.1642 -0.1836  0.3080
 8363SOL    HW126573   7.172   2.370   8.227  1.1661 -1.0783 -1.1464
 8363SOL    HW226574   7.229   2.300   8.348  0.4874 -0.1012 -0.2483
 8364SOL     OW26575   7.640   1.061   7.643  0.2779  0.0255  0.2703
 8364SOL    HW126576   7.647   0.966   7.630  1.1806  0.2017 -0.6134
 8364SOL    HW226577   7.610   1.070   7.733  3.8513 -1.0460  1.6707
 8365SOL     OW26578   4.423   4.046   4.875  0.4791 -0.0093  0.7893
 8365SOL    HW126579   4.493   4.079   4.818 -0.3013 -2.2739 -1.5922
 8365SOL    HW226580   4.442   3.953   4.884 -2.3326 -0.7253 -0.1358
 8366SOL     OW26581   7.251   2.992   4.214 -0.3036 -0.6930 -0.1401
 8366SOL    HW126582   7.307   2.918   4.188  0.7708  0.3270 -0.7631
 8366SOL    HW226583   7.294   3.030   4.290  0.5382  0.8453 -1.3590
 8367SOL     OW26584   6.858   1.881   5.215 -0.1578 -0.5791  0.3234
 8367SOL    HW126585   6.790   1.873   5.148  1.1756 -0.3715 -1.0960
 8367SOL    HW226586   6.859   1.974   5.237 -1.8575 -0.9294  2.0203
 8368SOL     OW26587   6.374   6.308   7.763  0.5473  0.5891 -0.2560
 8368SOL    HW126588   6.380   6.302   7.668 -1.1493 -0.3477 -0.3277
 8368SOL    HW226589   6.294   6.261   7.785  0.7849  1.0121  1.6214
 8369SOL     OW26590   7.818   8.009   5.814  0.0780  0.2683 -0.6371
 8369SOL    HW126591   7.838   7.932   5.761  3.2716  1.3021 -1.0199
 8369SOL    HW226592   7.841   7.984   5.903 -0.7414  0.1273 -0.4650
 8370SOL     OW26593   5.189   5.337   3.234  0.5339 -1.1912  0.1939
 8370SOL    HW126594   5.113   5.305   3.184  0.8767 -0.0202 -1.1407
 8370SOL    HW226595   5.153   5.405   3.291  0.7898  0.4687 -1.5683
 8371SOL     OW26596   2.658   3.668   7.506  0.2738 -0.1329  0.1115
 8371SOL    HW126597   2.566   3.694   7.497  0.2446 -0.1931  0.2232
 8371SOL    HW226598   2.703   3.748   7.532  0.2603 -0.0931  0.0113
 8372SOL     OW26599   6.968   2.160   5.837  0.4045  0.2495 -0.2315
 8372SOL    HW126600   6.894   2.121   5.884  1.3713 -0.6925  0.5373
 8372SOL    HW226601   6.965   2.118   5.751 -0.1670  0.4860 -0.3341
 8373SOL     OW26602   0.637   2.188   3.452 -0.1377 -0.3043 -0.0717
 8373SOL    HW126603   0.668   2.260   3.397  0.9230 -0.7118 -0.0276
 8373SOL    HW226604   0.645   2.111   3.396 -3.9989 -0.0266 -1.1198
 8374SOL     OW26605   2.011   3.364   0.793  0.0234  0.0298 -0.1484
 8374SOL    HW126606   2.008   3.269   0.788 -2.0513  0.1606 -1.8427
 8374SOL    HW226607   1.965   3.385   0.875 -2.1471 -0.3263 -1.2385
 8375SOL     OW26608   1.121   3.481   7.329  0.3184 -0.0638 -0.4656
 8375SOL    HW126609   1.147   3.510   7.416 -0.7814  0.8396 -0.4337
 8375SOL    HW226610   1.177   3.405   7.311  0.8716  0.0350  0.8239
 8376SOL     OW26611   8.097   1.200   0.254  0.0456  0.2229 -0.4140
 8376SOL    HW126612   8.024   1.139   0.246  0.3202 -0.2080  0.3504
 8376SOL    HW226613   8.057   1.281   0.285  0.1873 -0.6612  2.1596
 8377SOL     OW26614   4.779   4.477   2.223 -0.3541  0.0180  0.2440
 8377SOL    HW126615   4.852   4.464   2.163 -1.1246 -0.4241 -0.6247
 8377SOL    HW226616   4.817   4.469   2.310  0.5348 -0.7827 -0.2048
 8378SOL     OW26617   4.897   3.058   2.596 -0.1610 -0.8636  0.2789
 8378SOL    HW126618   4.962   3.101   2.651 -0.2218  0.1599 -0.4402
 8378SOL    HW226619   4.827   3.122   2.587 -0.8865 -1.6380  0.3416
 8379SOL     OW26620   1.456   0.673   3.808  0.0125  0.3560 -0.6302
 8379SOL    HW126621   1.527   0.733   3.830  0.0546  0.1646 -0.2489
 8379SOL    HW226622   1.437   0.626   3.889 -0.4039  0.2520 -0.7840
 8380SOL     OW26623   7.739   1.302   6.421  0.0615  0.0906 -0.1492
 8380SOL    HW126624   7.718   1.302   6.327 -1.6805  1.5858  0.2145
 8380SOL    HW226625   7.786   1.384   6.435 -0.5829  0.3622  0.4641
 8381SOL     OW26626   1.807   3.472   2.496 -0.1451  0.2589 -0.4406
 8381SOL    HW126627   1.847   3.549   2.456  0.3504  0.4977  0.4841
 8381SOL    HW226628   1.864   3.399   2.471 -1.1511  0.0333 -2.1163
 8382SOL     OW26629   1.428   6.501   4.004 -0.4927  0.5954 -0.2309
 8382SOL    HW126630   1.503   6.544   4.046  0.7671 -1.4103 -0.3138
 8382SOL    HW226631   1.439   6.519   3.911  1.4076 -1.8624 -0.5306
 8383SOL     OW26632   6.782   6.567   3.821 -0.5090 -0.2478 -0.3683
 8383SOL    HW126633   6.694   6.572   3.859 -0.6502 -1.8356 -0.4641
 8383SOL    HW226634   6.768   6.572   3.727 -0.3561  1.1404 -0.3266
 8384SOL     OW26635   6.832   5.037   3.882 -0.3125 -0.3443  0.3381
 8384SOL    HW126636   6.872   4.954   3.905 -0.0266 -0.8207 -1.8152
 8384SOL    HW226637   6.776   5.018   3.807  0.0595  1.4600 -0.4461
 8385SOL     OW26638   5.469   6.179   7.099 -0.1124  0.1473 -0.4198
 8385SOL    HW126639   5.531   6.110   7.074  1.1019  0.3810  1.8074
 8385SOL    HW226640   5.390   6.131   7.126  0.5162 -0.3816  0.5388
 8386SOL     OW26641   4.935   0.729   3.439 -0.2196 -0.4149  0.5739
 8386SOL    HW126642   4.911   0.818   3.465 -1.7730  0.0536 -2.2816
 8386SOL    HW226643   4.867   0.673   3.477  0.1649 -0.2872  1.4671
 8387SOL     OW26644   2.210   7.561   6.610  0.2289 -0.4951 -0.0714
 8387SOL    HW126645   2.153   7.519   6.545 -0.9747 -0.6376  1.0654
 8387SOL    HW226646   2.198   7.509   6.689  0.1925  0.8551  0.8189
 8388SOL     OW26647   8.161   6.261   7.804  0.6612  0.2785  0.1730
 8388SOL    HW126648   8.256   6.258   7.792  0.4804  0.9663 -1.5597
 8388SOL    HW226649   8.125   6.222   7.724 -0.4988 -1.4636  1.5109
 8389SOL     OW26650   6.643   3.249   3.562  0.0370 -0.2331  0.1809
 8389SOL    HW126651   6.708   3.180   3.552 -0.8396 -1.0786  0.3002
 8389SOL    HW226652   6.674   3.320   3.505 -0.2339 -1.5668 -1.6612
 8390SOL     OW26653   1.685   4.047   2.215 -0.2844  0.8803  0.5944
 8390SOL    HW126654   1.602   4.093   2.203 -1.4981 -1.8326 -1.7148
 8390SOL    HW226655   1.672   3.994   2.294 -1.8212 -1.6896 -1.3097
 8391SOL     OW26656   7.513   1.511   5.764  0.3284 -0.1590 -0.2318
 8391SOL    HW126657   7.490   1.573   5.834 -0.9813 -1.3212  0.3764
 8391SOL    HW226658   7.474   1.549   5.685 -1.3217 -0.6727  0.3072
 8392SOL     OW26659   5.164   2.941   3.114  0.5154 -0.3119  0.0401
 8392SOL    HW126660   5.257   2.942   3.091  0.6061 -2.1575  0.2669
 8392SOL    HW226661   5.162   2.937   3.209  0.1626  2.5747  0.1906
 8393SOL     OW26662   2.748   4.537   4.402  0.0112 -0.7942  0.1383
 8393SOL    HW126663   2.677   4.546   4.465  0.1895 -1.2025  0.3976
 8393SOL    HW226664   2.716   4.473   4.339 -0.3150 -0.1159 -0.3983
 8394SOL     OW26665   7.974   1.184   5.131  0.5962  0.0180  1.0081
 8394SOL    HW126666   7.937   1.263   5.092 -0.8050 -0.5274  1.2234
 8394SOL    HW226667   8.041   1.156   5.069 -0.0576  0.4239  0.1114
 8395SOL     OW26668   1.272   5.034   6.918  0.5058  0.5967  0.0502
 8395SOL    HW126669   1.287   5.108   6.977  0.6730  1.2193 -0.7696
 8395SOL    HW226670   1.249   5.074   6.835  0.0189 -0.2901 -0.2416
 8396SOL     OW26671   1.725   2.930   2.578 -0.4853 -0.2561  0.4668
 8396SOL    HW126672   1.771   2.874   2.641 -0.1486  0.2951  0.7199
 8396SOL    HW226673   1.793   2.956   2.516 -0.6166 -0.0404  0.4142
 8397SOL     OW26674   2.407   2.519   4.697  0.5926 -1.1306 -0.2170
 8397SOL    HW126675   2.342   2.450   4.683  0.8858 -1.9250  2.2251
 8397SOL    HW226676   2.375   2.569   4.772  1.2778  0.3513 -0.8712
 8398SOL     OW26677   6.329   0.705   6.141 -0.2246 -0.8087  0.5572
 8398SOL    HW126678   6.389   0.715   6.216 -0.4308 -0.9872  0.7463
 8398SOL    HW226679   6.264   0.642   6.171 -0.7668 -0.2706  0.5091
 8399SOL     OW26680   1.098   8.176   2.706  0.7839 -0.2554  0.2230
 8399SOL    HW126681   1.028   8.111   2.694 -0.1584  0.6691  0.6026
 8399SOL    HW226682   1.151   8.169   2.626 -0.1086 -0.5303 -0.3604
 8400SOL     OW26683   4.465   2.350   6.414  0.9560  0.5203 -0.3263
 8400SOL    HW126684   4.499   2.266   6.382  0.3012  0.5640 -1.1580
 8400SOL    HW226685   4.504   2.360   6.501  2.5153  0.2301 -0.9678
 8401SOL     OW26686   7.265   6.532   4.904 -0.3822 -0.0354 -0.0874
 8401SOL    HW126687   7.206   6.526   4.979  0.8610 -3.0069  0.6983
 8401SOL    HW226688   7.211   6.508   4.829 -1.1100  0.9508  0.1141
 8402SOL     OW26689   6.923   0.634   3.511  0.6221 -0.3529  0.1474
 8402SOL    HW126690   6.933   0.670   3.423  1.1349 -2.0996 -0.5340
 8402SOL    HW226691   7.011   0.638   3.549  0.6100 -0.5505  0.1980
 8403SOL     OW26692   4.622   1.208   4.079 -0.4053 -0.7868  0.2556
 8403SOL    HW126693   4.605   1.149   4.152 -0.1632  1.0307  1.8153
 8403SOL    HW226694   4.571   1.286   4.099 -1.7770 -0.9092 -2.4360
 8404SOL     OW26695   4.294   4.076   1.835 -0.2289 -0.2523  0.2317
 8404SOL    HW126696   4.373   4.107   1.880  0.7107 -0.5457 -1.1785
 8404SOL    HW226697   4.307   3.981   1.827 -0.3431 -0.1913 -0.7176
 8405SOL     OW26698   1.034   7.112   2.111 -0.1427 -0.1463  0.4321
 8405SOL    HW126699   0.946   7.149   2.101 -0.2756  0.2642  2.8796
 8405SOL    HW226700   1.077   7.130   2.027 -1.1649  2.9621  0.5266
 8406SOL     OW26701   7.314   8.221   1.745 -0.0038 -0.4174  0.8214
 8406SOL    HW126702   7.405   8.241   1.723  0.7939 -2.1506  2.3790
 8406SOL    HW226703   7.272   8.306   1.757  1.1998  0.3997 -0.7128
 8407SOL     OW26704   1.792   1.285   3.865  0.5276  0.0275  0.0023
 8407SOL    HW126705   1.699   1.308   3.874  0.4555  0.0726 -0.8566
 8407SOL    HW226706   1.838   1.350   3.918  0.1760  0.8772 -0.7331
 8408SOL     OW26707   3.759   7.556   1.384  0.4742  0.1161 -0.1278
 8408SOL    HW126708   3.777   7.648   1.361  1.8102 -0.4539 -1.4956
 8408SOL    HW226709   3.785   7.507   1.306 -1.9011 -1.2979 -0.0828
 8409SOL     OW26710   0.183   8.218   3.802 -0.4084 -0.2416 -0.3594
 8409SOL    HW126711   0.180   8.298   3.749  0.6113  0.1003  0.0800
 8409SOL    HW226712   0.265   8.176   3.778 -0.0661 -0.2213  0.7368
 8410SOL     OW26713   7.276   4.604   4.072  0.1334 -0.1129 -0.1143
 8410SOL    HW126714   7.217   4.633   4.003  0.1806 -0.1537 -0.1713
 8410SOL    HW226715   7.288   4.681   4.128 -1.2009 -0.5401  0.7677
 8411SOL     OW26716   2.551   3.703   0.462 -0.5679 -0.4073 -0.1934
 8411SOL    HW126717   2.512   3.784   0.430  0.7986 -0.0510 -0.9993
 8411SOL    HW226718   2.624   3.686   0.402 -1.7304 -3.0323 -0.9297
 8412SOL     OW26719   1.056   5.052   6.221 -0.5501 -0.0839 -0.7692
 8412SOL    HW126720   1.037   4.963   6.252 -2.2347  0.6764  0.4583
 8412SOL    HW226721   1.132   5.042   6.164  0.8765 -1.9597  1.3757
 8413SOL     OW26722   3.767   4.691   5.543 -0.1945  0.3601 -0.5581
 8413SOL    HW126723   3.779   4.728   5.456  1.1004 -0.3218 -0.6681
 8413SOL    HW226724   3.786   4.764   5.602 -1.4856  0.9387 -0.8434
 8414SOL     OW26725   0.103   1.739   7.734  0.0563  0.5734  0.3175
 8414SOL    HW126726   0.159   1.813   7.758 -0.3442  1.2955 -0.9406
 8414SOL    HW226727   0.108   1.680   7.809  2.3387  0.7130  0.3123
 8415SOL     OW26728   4.599   6.419   6.454  0.1924 -0.0023  0.4348
 8415SOL    HW126729   4.648   6.352   6.502 -0.5628 -0.0212  1.1947
 8415SOL    HW226730   4.666   6.472   6.412  0.8734 -0.0537  1.4290
 8416SOL     OW26731   6.615   6.866   3.728  0.1152  0.1243  0.0073
 8416SOL    HW126732   6.598   6.898   3.639 -0.4040  0.7085  0.3136
 8416SOL    HW226733   6.558   6.790   3.737 -1.1134  1.0767  0.4319
 8417SOL     OW26734   0.413   0.917   6.103  0.4045  0.0812  0.1410
 8417SOL    HW126735   0.375   0.992   6.149 -0.9140  0.9734 -2.3525
 8417SOL    HW226736   0.340   0.856   6.093 -0.1070  1.1864 -3.4090
 8418SOL     OW26737   7.456   7.136   2.202  0.4550 -0.8715 -0.1350
 8418SOL    HW126738   7.382   7.117   2.143  0.7271 -0.1865 -0.7022
 8418SOL    HW226739   7.532   7.101   2.156  1.1079  2.3404 -1.6490
 8419SOL     OW26740   7.410   0.644   3.254 -0.6898 -0.6647  0.4472
 8419SOL    HW126741   7.355   0.593   3.195  1.1650 -1.3585 -0.7157
 8419SOL    HW226742   7.495   0.602   3.250 -0.2298 -0.0195  2.7667
 8420SOL     OW26743   1.037   2.066   2.010  0.4732  0.6702  0.0866
 8420SOL    HW126744   1.082   2.107   1.936  0.9786 -1.0384 -0.5724
 8420SOL    HW226745   1.077   2.107   2.087  1.8290  0.5364 -0.5323
 8421SOL     OW26746   5.600   0.263   4.960 -0.2713 -0.6529 -0.6746
 8421SOL    HW126747   5.600   0.301   5.048 -0.5773 -0.6437 -0.6768
 8421SOL    HW226748   5.568   0.334   4.903  2.9858  0.4076 -1.2738
 8422SOL     OW26749   3.747   6.627   3.626  0.1828 -0.1662 -0.2022
 8422SOL    HW126750   3.688   6.688   3.670 -0.9680 -1.2702 -0.2096
 8422SOL    HW226751   3.774   6.566   3.694  0.9895  0.0676 -0.2999
 8423SOL     OW26752   5.485   2.112   6.928  0.2202  0.3205  0.1663
 8423SOL    HW126753   5.563   2.144   6.973 -1.6883  0.4424  3.4578
 8423SOL    HW226754   5.484   2.018   6.946  0.1983  0.1300 -0.8037
 8424SOL     OW26755   2.575   7.841   2.802 -0.5640  0.6552 -0.1836
 8424SOL    HW126756   2.550   7.779   2.871  2.6977  0.9350  1.3496
 8424SOL    HW226757   2.589   7.923   2.848  1.0431  1.0085 -1.2585
 8425SOL     OW26758   0.117   1.995   0.732 -0.2295 -0.1018  0.0613
 8425SOL    HW126759   0.038   1.949   0.762 -0.4038 -0.5812 -1.0959
 8425SOL    HW226760   0.177   1.925   0.706 -0.0984  0.2925 -0.7155
 8426SOL     OW26761   4.775   7.415   1.752 -0.4082 -0.1442  0.4172
 8426SOL    HW126762   4.727   7.413   1.669 -0.5525 -1.0236  0.5166
 8426SOL    HW226763   4.750   7.498   1.793  0.0988  0.5678 -0.6759
 8427SOL     OW26764   7.519   1.451   8.011  0.5637 -0.1225  0.0280
 8427SOL    HW126765   7.497   1.475   8.101  0.4616 -0.7710  0.1791
 8427SOL    HW226766   7.614   1.449   8.009  0.5457 -1.4138  0.4712
 8428SOL     OW26767   4.225   3.716   5.395 -0.8475 -0.0509 -0.1713
 8428SOL    HW126768   4.220   3.812   5.397  0.3798  0.0095  0.7110
 8428SOL    HW226769   4.194   3.692   5.307 -1.3937  1.1312 -0.3134
 8429SOL     OW26770   4.788   3.296   5.740  0.1554 -0.1267 -0.0545
 8429SOL    HW126771   4.863   3.301   5.799 -0.3833 -0.9399  0.7104
 8429SOL    HW226772   4.713   3.316   5.795 -0.3260 -0.6642 -0.5110
 8430SOL     OW26773   2.439   0.583   1.237 -0.1883 -0.3813  0.6782
 8430SOL    HW126774   2.385   0.586   1.159 -0.5584 -0.0947  0.9446
 8430SOL    HW226775   2.385   0.539   1.302  0.5692 -1.7117  0.4220
 8431SOL     OW26776   4.872   1.761   8.280  0.0415 -0.2954 -0.1679
 8431SOL    HW126777   4.888   1.776   8.374  0.5235  2.0586 -0.5902
 8431SOL    HW226778   4.886   1.667   8.268  0.0801 -0.6129  2.1033
 8432SOL     OW26779   2.221   5.369   5.073  0.2309 -0.7167  0.0911
 8432SOL    HW126780   2.299   5.323   5.101  1.0272  0.6891  0.2484
 8432SOL    HW226781   2.243   5.403   4.986  0.3376  0.9087  0.7363
 8433SOL     OW26782   5.318   4.886   6.127 -0.1119  0.5169  0.3677
 8433SOL    HW126783   5.257   4.841   6.068  0.8231  0.6415 -0.6974
 8433SOL    HW226784   5.302   4.847   6.212  0.0166 -1.1604 -0.3680
 8434SOL     OW26785   2.401   4.488   7.855 -0.3499  0.0037  0.3523
 8434SOL    HW126786   2.368   4.419   7.913  0.6069 -0.1452  0.7265
 8434SOL    HW226787   2.479   4.521   7.899 -0.6451  1.1508  0.0418
 8435SOL     OW26788   6.485   4.925   4.151 -0.3281 -0.0834 -0.0663
 8435SOL    HW126789   6.394   4.943   4.128  0.4613  2.0997 -1.7063
 8435SOL    HW226790   6.525   4.895   4.070  0.2971 -1.5389  0.7711
 8436SOL     OW26791   5.537   0.604   7.504  0.3823 -0.3190  0.0588
 8436SOL    HW126792   5.481   0.537   7.466  0.9632  0.7000 -2.7324
 8436SOL    HW226793   5.600   0.555   7.558 -1.6898 -1.6350  1.3518
 8437SOL     OW26794   0.592   5.676   6.081 -0.1788  0.0219  0.2403
 8437SOL    HW126795   0.632   5.663   5.995  3.4504 -1.3767  2.0342
 8437SOL    HW226796   0.579   5.588   6.115 -2.4274  0.5513  0.8071
 8438SOL     OW26797   4.933   1.195   6.407  0.1851  0.3318  0.1644
 8438SOL    HW126798   4.873   1.162   6.473  1.2177  1.2447  1.6013
 8438SOL    HW226799   5.020   1.174   6.441  0.7590  1.6304 -0.4560
 8439SOL     OW26800   7.195   6.320   7.141 -0.1411  0.4599 -0.4002
 8439SOL    HW126801   7.236   6.321   7.228  1.0273  0.3029 -0.9383
 8439SOL    HW226802   7.264   6.287   7.083 -0.8304  0.8281 -1.4315
 8440SOL     OW26803   5.718   2.388   3.739 -0.1814 -0.6491 -0.2504
 8440SOL    HW126804   5.675   2.438   3.808 -2.1181  0.4845 -2.1773
 8440SOL    HW226805   5.718   2.298   3.770 -1.4749 -0.2372  1.0105
 8441SOL     OW26806   4.549   1.920   6.616 -0.0819  0.3271 -0.5354
 8441SOL    HW126807   4.582   1.940   6.529  1.1812 -0.6337 -0.3040
 8441SOL    HW226808   4.482   1.986   6.633 -0.7367  0.1801 -2.4576
 8442SOL     OW26809   7.220   3.642   0.261 -0.5238  0.1673 -0.1507
 8442SOL    HW126810   7.182   3.609   0.180 -0.0423 -1.1356  0.1490
 8442SOL    HW226811   7.300   3.687   0.234  1.0046 -2.4525 -0.1912
 8443SOL     OW26812   6.267   7.089   4.464  0.3982  0.4458 -0.2448
 8443SOL    HW126813   6.223   7.075   4.381 -0.5792  0.7477  0.2147
 8443SOL    HW226814   6.330   7.017   4.471  0.1187  0.1286 -0.9933
 8444SOL     OW26815   2.003   7.040   4.731  0.4856  0.0510  0.2245
 8444SOL    HW126816   2.090   7.023   4.768  0.4493  0.0166  0.2935
 8444SOL    HW226817   2.006   7.001   4.644  1.2173  1.7754 -0.5463
 8445SOL     OW26818   2.243   1.425   3.868  0.0455 -0.0797  0.6071
 8445SOL    HW126819   2.245   1.437   3.963  2.0802  0.4944  0.5178
 8445SOL    HW226820   2.296   1.497   3.834 -1.4507  0.2679 -1.0299
 8446SOL     OW26821   7.407   3.856   0.210 -0.4432 -0.2878  0.1170
 8446SOL    HW126822   7.424   3.941   0.252 -0.1072  0.2115 -0.9848
 8446SOL    HW226823   7.413   3.875   0.116 -2.5214 -1.1033 -0.1929
 8447SOL     OW26824   2.415   6.236   4.208 -0.1137 -0.3535 -0.0676
 8447SOL    HW126825   2.437   6.149   4.177  3.3089 -0.1818  1.6075
 8447SOL    HW226826   2.320   6.237   4.214 -0.1764 -4.0766  0.2286
 8448SOL     OW26827   2.870   6.859   7.197 -0.5416 -0.4280  0.5727
 8448SOL    HW126828   2.793   6.899   7.238 -0.4064  0.2398  0.1914
 8448SOL    HW226829   2.847   6.851   7.105 -0.3517 -0.7133  0.5490
 8449SOL     OW26830   2.756   5.178   5.119  0.3938 -0.4636 -0.4303
 8449SOL    HW126831   2.661   5.187   5.109  0.6079  0.1443 -2.1298
 8449SOL    HW226832   2.790   5.185   5.030  2.2050  1.2946  0.3639
 8450SOL     OW26833   1.323   5.419   4.517  0.0549  0.2699  0.0308
 8450SOL    HW126834   1.233   5.420   4.486  1.1584  0.1883 -3.3979
 8450SOL    HW226835   1.346   5.511   4.527 -0.1888  0.3068  0.2625
 8451SOL     OW26836   7.384   6.143   5.623  0.1246  0.0322 -0.2765
 8451SOL    HW126837   7.373   6.213   5.687 -0.4817 -0.5294  0.2440
 8451SOL    HW226838   7.324   6.164   5.552  1.0720  0.8570 -0.8430
 8452SOL     OW26839   6.704   7.851   2.345  0.1743  0.2447  0.1331
 8452SOL    HW126840   6.763   7.843   2.271 -1.9510 -4.1155 -1.2981
 8452SOL    HW226841   6.731   7.780   2.404 -0.9268  0.9152  1.4738
 8453SOL     OW26842   5.675   3.510   4.639  0.1449  0.6036 -0.0047
 8453SOL    HW126843   5.722   3.430   4.616 -0.8405  0.1913 -0.5774
 8453SOL    HW226844   5.704   3.574   4.574 -0.0751  0.3630 -0.3332
 8454SOL     OW26845   5.832   3.696   5.379 -0.2588 -0.1691 -0.0533
 8454SOL    HW126846   5.763   3.634   5.354 -0.5534 -0.0355  0.4057
 8454SOL    HW226847   5.794   3.782   5.363  0.9541 -0.1018 -2.7868
 8455SOL     OW26848   4.045   0.915   1.007  0.2023  0.0993  0.2644
 8455SOL    HW126849   4.115   0.858   1.040 -0.0356 -0.1370  0.3653
 8455SOL    HW226850   4.091   0.984   0.960  0.4507 -1.0424 -1.2103
 8456SOL     OW26851   0.946   6.103   2.533 -0.1055  0.0273  0.1155
 8456SOL    HW126852   0.995   6.173   2.489  0.4369 -0.9802 -0.9035
 8456SOL    HW226853   0.996   6.024   2.516 -0.7112 -0.6247  1.2751
 8457SOL     OW26854   8.118   3.469   3.973  0.2435 -0.1309  0.0394
 8457SOL    HW126855   8.144   3.377   3.963 -0.1566 -0.1544 -0.8206
 8457SOL    HW226856   8.026   3.471   3.948 -0.4008  0.0982  2.3206
 8458SOL     OW26857   2.983   5.439   7.541  0.1418 -0.7554  0.0496
 8458SOL    HW126858   3.067   5.393   7.544  1.4280  1.2504 -2.6278
 8458SOL    HW226859   2.952   5.425   7.452 -1.9911 -0.7543  0.7682
 8459SOL     OW26860   0.307   4.635   0.144 -0.0499 -0.3948 -0.4559
 8459SOL    HW126861   0.357   4.597   0.216 -1.3735 -0.9629  0.1837
 8459SOL    HW226862   0.245   4.694   0.186  1.1749  1.5823 -1.3563
 8460SOL     OW26863   3.775   5.053   1.519 -0.0963 -0.5211  0.1564
 8460SOL    HW126864   3.795   4.981   1.579 -1.1043  0.2952  1.4978
 8460SOL    HW226865   3.713   5.108   1.567 -1.7217 -0.3869 -2.0487
 8461SOL     OW26866   5.152   0.245   5.150 -0.4772  0.2858  0.0600
 8461SOL    HW126867   5.141   0.155   5.181 -0.3924 -0.2615 -1.4820
 8461SOL    HW226868   5.063   0.281   5.148 -0.3950  0.6407  1.8263
 8462SOL     OW26869   0.853   2.218   0.755  0.0670  0.2624 -0.8284
 8462SOL    HW126870   0.911   2.144   0.771 -1.4335 -0.4414  1.5491
 8462SOL    HW226871   0.872   2.280   0.825  0.5530  1.6850 -2.1871
 8463SOL     OW26872   2.213   0.967   5.159 -0.2896  0.1648  0.0853
 8463SOL    HW126873   2.213   0.994   5.067  0.6969 -2.8420 -0.8683
 8463SOL    HW226874   2.130   0.921   5.169 -0.2067  0.1311  0.5938
 8464SOL     OW26875   1.966   3.017   7.957 -0.7071  0.2319  0.2295
 8464SOL    HW126876   1.912   3.086   7.918 -0.2125  1.7953  2.2541
 8464SOL    HW226877   1.927   3.000   8.042 -0.2996 -1.3852  0.1157
 8465SOL     OW26878   6.836   2.182   2.464 -1.2765  0.0180  0.4617
 8465SOL    HW126879   6.804   2.112   2.406 -1.5149  0.0640  0.5407
 8465SOL    HW226880   6.847   2.257   2.406  0.0034 -0.3851  0.1626
 8466SOL     OW26881   3.535   0.806   3.643 -0.4548 -0.7783 -0.4248
 8466SOL    HW126882   3.476   0.783   3.572 -0.8145  3.3082 -1.6180
 8466SOL    HW226883   3.549   0.900   3.632  0.9097 -0.3813  3.8898
 8467SOL     OW26884   3.890   1.029   1.505 -0.2410  0.6342 -0.7785
 8467SOL    HW126885   3.845   1.016   1.422 -2.0615  0.7994  0.1569
 8467SOL    HW226886   3.904   1.124   1.509 -1.0785  0.7541 -0.4519
 8468SOL     OW26887   5.610   4.445   3.441 -0.1973  0.2606  0.1053
 8468SOL    HW126888   5.608   4.447   3.537  0.6090 -0.5096  0.1522
 8468SOL    HW226889   5.558   4.368   3.418 -0.6653  0.6383 -0.0829
 8469SOL     OW26890   7.644   1.396   1.191 -0.5913 -0.6217 -0.3133
 8469SOL    HW126891   7.666   1.485   1.164 -2.4009 -0.4917 -1.4474
 8469SOL    HW226892   7.724   1.346   1.177  0.9554  1.1408  1.8916
 8470SOL     OW26893   1.047   0.250   0.886 -0.0118 -0.5137  0.5317
 8470SOL    HW126894   1.038   0.203   0.803  1.6274  0.4488 -0.2168
 8470SOL    HW226895   0.957   0.265   0.915 -0.6314 -0.0790 -1.5419
 8471SOL     OW26896   1.436   3.656   8.202 -0.4302 -0.0224  0.5019
 8471SOL    HW126897   1.482   3.729   8.242  0.9698 -0.2998 -0.5924
 8471SOL    HW226898   1.380   3.622   8.272  1.1239  0.2274  1.8796
 8472SOL     OW26899   6.304   3.386   2.162  0.0174  0.0543 -0.3280
 8472SOL    HW126900   6.280   3.455   2.100  0.8378 -0.0081 -0.7205
 8472SOL    HW226901   6.224   3.370   2.211 -0.7704 -0.2092 -1.6735
 8473SOL     OW26902   7.301   4.416   6.730 -0.5004  0.2024  0.1223
 8473SOL    HW126903   7.291   4.473   6.806 -0.5468 -0.0146  0.2814
 8473SOL    HW226904   7.390   4.380   6.739 -0.2040  0.8152 -0.3691
 8474SOL     OW26905   1.853   4.422   4.098 -0.0949 -0.0580 -0.0856
 8474SOL    HW126906   1.885   4.467   4.176 -1.0834  0.0271  0.2746
 8474SOL    HW226907   1.852   4.329   4.122 -1.5963  0.0852  0.4385
 8475SOL     OW26908   0.634   1.150   8.086 -0.1474 -0.0658  0.1563
 8475SOL    HW126909   0.656   1.112   8.001 -1.1178 -0.8202  0.2324
 8475SOL    HW226910   0.603   1.239   8.065 -0.0531 -0.1290 -0.2507
 8476SOL     OW26911   1.940   3.130   4.360 -0.9405  0.2398 -1.0675
 8476SOL    HW126912   1.910   3.074   4.288 -2.0616  0.1762 -0.5616
 8476SOL    HW226913   2.028   3.156   4.335 -0.8576 -0.7896 -1.8826
 8477SOL     OW26914   2.026   3.341   0.188  0.2969 -0.3206  0.3050
 8477SOL    HW126915   2.100   3.301   0.234 -1.1270 -2.6283  0.6962
 8477SOL    HW226916   2.018   3.428   0.225  0.3858 -1.4573  3.0770
 8478SOL     OW26917   0.216   8.246   6.481 -0.2074 -0.1598  0.0132
 8478SOL    HW126918   0.166   8.200   6.414  0.9487 -0.8741 -0.3638
 8478SOL    HW226919   0.205   8.193   6.560  0.8582 -0.9141 -0.3416
 8479SOL     OW26920   1.541   6.006   7.632  0.1606  0.3505  0.0851
 8479SOL    HW126921   1.623   6.047   7.605  0.0991  0.2129 -0.3152
 8479SOL    HW226922   1.559   5.912   7.632  0.6814  0.4295  2.2770
 8480SOL     OW26923   6.990   2.740   6.631  0.1479  0.7389 -0.4120
 8480SOL    HW126924   6.907   2.767   6.592 -0.8851 -0.4659  0.9250
 8480SOL    HW226925   7.048   2.726   6.555 -0.9012  1.4180 -1.3560
 8481SOL     OW26926   3.028   6.054   7.186  0.1744 -1.0848 -0.3362
 8481SOL    HW126927   3.054   5.971   7.226 -0.2523 -0.3541  1.4995
 8481SOL    HW226928   2.959   6.088   7.243  0.3980  0.5732 -1.0181
 8482SOL     OW26929   5.126   4.768   5.960  0.6139  0.0406 -0.5203
 8482SOL    HW126930   5.065   4.794   6.030  1.7441 -0.6298  0.7252
 8482SOL    HW226931   5.089   4.686   5.926  0.2225  0.2116 -0.5110
 8483SOL     OW26932   1.401   2.925   1.684  0.3027 -0.2627 -0.1618
 8483SOL    HW126933   1.472   2.863   1.703 -0.1070  0.2093  3.1927
 8483SOL    HW226934   1.322   2.878   1.709 -0.3759  0.2314 -1.3298
 8484SOL     OW26935   0.837   1.216   3.455  0.5460  0.2920  0.4388
 8484SOL    HW126936   0.826   1.307   3.482  1.3347  0.2780  0.7933
 8484SOL    HW226937   0.835   1.166   3.537 -3.2207 -0.3561  0.0539
 8485SOL     OW26938   8.279   5.840   2.267 -0.4720  0.0947  0.6539
 8485SOL    HW126939   8.309   5.771   2.208 -0.6099 -0.7897  1.5892
 8485SOL    HW226940   8.353   5.901   2.273 -0.4053  0.1143 -0.3060
 8486SOL     OW26941   6.681   0.400   2.213 -0.1337  0.0943 -0.5265
 8486SOL    HW126942   6.675   0.434   2.303  0.6513  0.8436 -0.7599
 8486SOL    HW226943   6.591   0.401   2.182 -0.2210  1.2905 -0.2772
 8487SOL     OW26944   0.754   5.557   2.087  0.6456 -0.2231  0.1020
 8487SOL    HW126945   0.764   5.486   2.151 -1.8448 -0.9079 -0.2157
 8487SOL    HW226946   0.718   5.630   2.138 -1.1926 -0.7198 -0.4428
 8488SOL     OW26947   7.540   2.406   5.996  0.0741 -0.1201 -0.1972
 8488SOL    HW126948   7.559   2.369   6.082  0.4155  0.3871 -0.0506
 8488SOL    HW226949   7.445   2.406   5.990  0.0589 -0.5643 -0.0014
 8489SOL     OW26950   6.810   6.855   3.521  0.0329 -0.2742 -0.2035
 8489SOL    HW126951   6.836   6.924   3.582  0.8696 -0.2342 -0.5964
 8489SOL    HW226952   6.746   6.897   3.463  0.7112  0.2410 -0.5868
 8490SOL     OW26953   1.029   5.228   2.768 -0.2528  0.0504  0.0896
 8490SOL    HW126954   1.067   5.286   2.834 -1.7556  0.0140  0.9945
 8490SOL    HW226955   1.070   5.256   2.686  2.6020 -0.7456  1.1764
 8491SOL     OW26956   3.217   4.426   3.079 -0.3115 -0.0917 -0.5691
 8491SOL    HW126957   3.274   4.350   3.069  0.7401  0.4075  1.3491
 8491SOL    HW226958   3.269   4.488   3.130 -1.0179  2.0606 -2.3888
 8492SOL     OW26959   7.906   3.722   1.856 -0.3402 -0.6693 -0.1489
 8492SOL    HW126960   7.818   3.745   1.828 -1.0391 -1.6978  1.1705
 8492SOL    HW226961   7.906   3.738   1.950  0.6676 -1.3568 -0.0242
 8493SOL     OW26962   0.735   7.922   4.450 -0.0307  0.0954  0.8202
 8493SOL    HW126963   0.760   7.906   4.542 -2.2292  3.3977  2.0842
 8493SOL    HW226964   0.646   7.887   4.443 -0.2069  0.6606  0.2025
 8494SOL     OW26965   7.649   0.107   2.653 -0.2435  0.1361 -0.2801
 8494SOL    HW126966   7.712   0.179   2.657 -1.6716  1.3327  0.8338
 8494SOL    HW226967   7.645   0.074   2.743 -1.4287  0.2430 -0.2947
 8495SOL     OW26968   3.145   0.543   2.110  0.5517 -0.3809 -0.0233
 8495SOL    HW126969   3.085   0.554   2.183 -1.3785 -1.6978 -1.3701
 8495SOL    HW226970   3.181   0.455   2.122  0.6406 -0.3919 -0.3608
 8496SOL     OW26971   4.651   5.528   0.446 -0.5779  0.1738 -0.2583
 8496SOL    HW126972   4.674   5.619   0.466 -0.5407 -0.2025  1.4554
 8496SOL    HW226973   4.735   5.484   0.434 -0.5783  0.1841 -0.2989
 8497SOL     OW26974   7.515   5.699   3.758  0.8214 -0.0651 -0.3917
 8497SOL    HW126975   7.523   5.607   3.734 -0.3663  0.7652 -4.3432
 8497SOL    HW226976   7.447   5.700   3.826 -0.0034 -1.9766 -1.1432
 8498SOL     OW26977   5.197   4.749   6.839  0.6304  0.2859 -0.1421
 8498SOL    HW126978   5.246   4.671   6.813  0.9229  1.2705 -2.6976
 8498SOL    HW226979   5.264   4.812   6.864  0.4456  0.1687  0.6769
 8499SOL     OW26980   4.104   4.386   4.410 -0.3260 -0.1068 -0.0905
 8499SOL    HW126981   4.185   4.401   4.458 -0.9279  1.8366  0.3578
 8499SOL    HW226982   4.125   4.313   4.351  1.4469 -0.2554  0.6710
 8500SOL     OW26983   1.549   7.529   4.614  0.1095 -0.3726 -0.7889
 8500SOL    HW126984   1.573   7.444   4.649  0.2010  0.3940  1.0619
 8500SOL    HW226985   1.632   7.576   4.606  0.0202 -0.3210 -1.4708
 8501SOL     OW26986   4.535   3.091   4.736  0.5969  0.3453  0.0511
 8501SOL    HW126987   4.619   3.060   4.770  0.9992  0.6746 -0.6423
 8501SOL    HW226988   4.497   3.140   4.809  0.9271  0.0424  0.4288
 8502SOL     OW26989   6.333   7.106   7.134 -0.3922 -1.0932 -0.1303
 8502SOL    HW126990   6.392   7.181   7.140 -1.6610 -0.0983  0.1280
 8502SOL    HW226991   6.354   7.066   7.049 -0.2446  0.0141 -0.6248
 8503SOL     OW26992   8.010   0.348   7.852 -0.3969  0.5223 -0.1360
 8503SOL    HW126993   8.058   0.414   7.902 -0.2591  0.5740 -0.3377
 8503SOL    HW226994   8.077   0.283   7.828 -0.6929 -0.1684  0.8559
 8504SOL     OW26995   7.365   7.802   1.679 -0.1317 -0.0816  0.1923
 8504SOL    HW126996   7.351   7.889   1.642  0.8326 -0.9335 -2.2961
 8504SOL    HW226997   7.345   7.742   1.607 -1.5221 -1.9653  2.1062
 8505SOL     OW26998   3.780   4.480   0.007 -0.5141 -0.0565 -0.3096
 8505SOL    HW126999   3.790   4.543   0.079 -0.8849  0.1939 -0.4742
 8505SOL    HW227000   3.826   4.402   0.037 -1.7297 -0.3908  0.7257
 8506SOL     OW27001   7.413   6.257   6.280  0.1310  0.2530  0.3983
 8506SOL    HW127002   7.449   6.338   6.316 -0.5519 -0.1846  2.1304
 8506SOL    HW227003   7.448   6.188   6.336 -0.0077 -0.5723 -0.5102
 8507SOL     OW27004   1.455   2.832   2.499  0.4731  0.2427 -0.1556
 8507SOL    HW127005   1.537   2.854   2.544  0.7234 -0.6597 -0.1583
 8507SOL    HW227006   1.477   2.836   2.406  0.5399 -0.0764 -0.1552
 8508SOL     OW27007   5.264   5.925   3.957 -0.2937 -0.0980  0.0958
 8508SOL    HW127008   5.216   6.003   3.929 -0.1934  0.5984  1.8441
 8508SOL    HW227009   5.319   5.903   3.882 -0.3650  1.4731 -0.4304
 8509SOL     OW27010   5.586   0.703   4.899  0.4314  0.5351  0.5230
 8509SOL    HW127011   5.638   0.783   4.890 -0.6552  1.1564 -0.2572
 8509SOL    HW227012   5.561   0.701   4.992 -0.2917  1.5717  0.3508
 8510SOL     OW27013   3.059   5.870   6.415 -0.7358 -0.2543  0.3881
 8510SOL    HW127014   3.150   5.899   6.412 -0.7078 -0.5126 -1.5265
 8510SOL    HW227015   3.050   5.831   6.502  1.4757 -1.7850 -0.0188
 8511SOL     OW27016   3.029   2.364   4.523 -0.5618 -0.4727  0.4292
 8511SOL    HW127017   2.970   2.288   4.525 -0.5091 -0.4928  1.9050
 8511SOL    HW227018   3.057   2.375   4.614  2.7418 -1.2419 -0.4462
 8512SOL     OW27019   6.708   6.598   3.536  0.4043  0.4757  0.3914
 8512SOL    HW127020   6.617   6.624   3.517  0.6011  0.7742 -0.1645
 8512SOL    HW227021   6.753   6.681   3.553  0.5830  0.3304  0.6290
 8513SOL     OW27022   2.969   6.770   3.343  0.0576  0.0213 -0.0406
 8513SOL    HW127023   3.011   6.775   3.429  1.5212 -2.7933 -0.5474
 8513SOL    HW227024   3.042   6.765   3.282 -1.0022 -0.3789 -1.2793
 8514SOL     OW27025   0.228   6.168   0.804 -0.2249 -0.4603  0.2303
 8514SOL    HW127026   0.257   6.077   0.813 -1.4653 -0.7240  1.8643
 8514SOL    HW227027   0.252   6.209   0.887  0.0375  0.6266 -0.3747
 8515SOL     OW27028   2.922   3.216   5.382  0.1860  0.6282  0.0830
 8515SOL    HW127029   2.968   3.141   5.343  1.6202  1.7793 -0.4893
 8515SOL    HW227030   2.860   3.177   5.443  1.6570 -0.9893  0.5775
 8516SOL     OW27031   2.481   0.401   4.341  0.1179 -0.0629 -0.2539
 8516SOL    HW127032   2.469   0.492   4.369 -1.1582 -0.1570 -0.4452
 8516SOL    HW227033   2.397   0.378   4.300  0.9207 -0.8709 -1.4741
 8517SOL     OW27034   0.972   8.261   0.390  0.7437 -0.6192  0.2334
 8517SOL    HW127035   1.004   8.243   0.302  0.9883 -1.1426  0.4216
 8517SOL    HW227036   0.883   8.294   0.378  0.7077 -0.8750 -0.1970
 8518SOL     OW27037   2.956   3.705   2.527  0.2664 -0.0488 -0.1769
 8518SOL    HW127038   2.933   3.669   2.612 -0.7847  0.9472 -0.0167
 8518SOL    HW227039   2.988   3.631   2.477 -1.4077 -1.1157  0.2889
 8519SOL     OW27040   2.685   7.124   0.724  0.0116  0.2451  0.2468
 8519SOL    HW127041   2.602   7.166   0.750  0.6847  0.8683  1.4383
 8519SOL    HW227042   2.666   7.086   0.638 -1.6775 -0.1086  0.7427
 8520SOL     OW27043   1.309   6.191   5.416 -0.0646  0.3275 -0.5248
 8520SOL    HW127044   1.344   6.229   5.335 -0.6564  0.1066 -0.8858
 8520SOL    HW227045   1.257   6.261   5.455 -0.2053  0.2654 -0.6015
 8521SOL     OW27046   7.908   3.912   6.544 -0.2888  0.0007  0.1122
 8521SOL    HW127047   7.971   3.946   6.608 -1.1007  1.8314 -0.0283
 8521SOL    HW227048   7.869   3.990   6.505 -0.0736 -1.0977 -2.3726
 8522SOL     OW27049   7.456   5.048   2.423 -0.0069  0.5753 -0.4129
 8522SOL    HW127050   7.473   4.994   2.500  2.7801  0.4185 -1.1025
 8522SOL    HW227051   7.452   5.138   2.456  0.2411  0.4164  0.0445
 8523SOL     OW27052   6.213   2.732   1.991 -0.0022  0.3590  0.0260
 8523SOL    HW127053   6.132   2.783   1.988 -0.3252 -0.1191  0.5005
 8523SOL    HW227054   6.279   2.789   1.953 -0.5234  0.8318 -0.1713
 8524SOL     OW27055   4.208   2.664   4.267 -0.2424 -0.2496  0.5301
 8524SOL    HW127056   4.228   2.749   4.307  0.3890 -0.6628  1.0859
 8524SOL    HW227057   4.182   2.608   4.340 -1.3410 -0.3423  0.0763
 8525SOL     OW27058   7.915   0.780   4.657 -0.6581 -0.1991  0.0364
 8525SOL    HW127059   7.936   0.797   4.749  2.0945 -1.9934 -0.2037
 8525SOL    HW227060   7.858   0.704   4.659 -0.3214 -0.4484  0.2465
 8526SOL     OW27061   5.342   7.644   7.531  0.2331 -0.1672 -0.1054
 8526SOL    HW127062   5.270   7.679   7.583  0.0471  0.6917 -0.9315
 8526SOL    HW227063   5.420   7.660   7.583  0.2928  2.5495 -0.9982
 8527SOL     OW27064   5.947   2.865   1.968 -0.1262 -0.2015 -0.9442
 8527SOL    HW127065   5.923   2.919   1.892  0.3923 -0.1988 -1.1112
 8527SOL    HW227066   5.944   2.924   2.042 -0.6807 -0.2133 -0.9600
 8528SOL     OW27067   7.033   0.510   6.373  0.0763  0.3491 -0.2407
 8528SOL    HW127068   7.117   0.487   6.331  0.4835  0.3817  0.5390
 8528SOL    HW227069   7.024   0.446   6.444 -0.4284  0.5210 -0.1488
 8529SOL     OW27070   8.077   4.201   1.668 -0.2432  0.4302 -0.0181
 8529SOL    HW127071   8.078   4.144   1.745 -1.9391  0.9555  0.4093
 8529SOL    HW227072   8.129   4.154   1.602 -0.7934 -1.1442  0.6529
 8530SOL     OW27073   7.229   4.121   3.363  0.2943  0.3192 -0.2288
 8530SOL    HW127074   7.186   4.206   3.363  0.6580  0.5175  0.8549
 8530SOL    HW227075   7.322   4.141   3.355  0.3392 -0.0077 -0.5644
 8531SOL     OW27076   4.974   8.094   4.486 -0.4407  0.1053  0.3331
 8531SOL    HW127077   4.970   8.170   4.544 -1.1236  0.1547  0.2155
 8531SOL    HW227078   4.966   8.019   4.546  1.9506  0.0589  0.6504
 8532SOL     OW27079   0.542   0.096   3.156 -0.2067 -0.0315  0.2299
 8532SOL    HW127080   0.583   0.182   3.152 -0.1931  0.0844  2.2566
 8532SOL    HW227081   0.594   0.048   3.221 -1.2643 -1.0035  0.3765
 8533SOL     OW27082   7.047   7.421   7.475  0.2077 -0.4354 -0.5422
 8533SOL    HW127083   7.121   7.362   7.462  0.6036  0.3121 -1.7978
 8533SOL    HW227084   7.084   7.497   7.519  0.2811  0.1405 -1.5927
 8534SOL     OW27085   7.752   4.602   2.781 -1.0339  0.8594  0.2111
 8534SOL    HW127086   7.737   4.547   2.705  1.5374  0.4609 -0.0256
 8534SOL    HW227087   7.698   4.680   2.765 -1.9271 -0.0132 -1.1138
 8535SOL     OW27088   5.266   2.460   6.853  0.3033 -0.0135 -0.1633
 8535SOL    HW127089   5.228   2.418   6.931 -0.2025  1.5538  0.4508
 8535SOL    HW227090   5.197   2.453   6.787 -0.5715  1.5852  0.5366
 8536SOL     OW27091   2.298   7.258   5.281  0.7898 -0.9185 -0.4118
 8536SOL    HW127092   2.205   7.243   5.263  0.3354 -0.8564  1.8395
 8536SOL    HW227093   2.335   7.170   5.294  1.0841 -0.9462 -1.3401
 8537SOL     OW27094   7.441   4.756   5.624  0.2330  0.4626 -0.7457
 8537SOL    HW127095   7.371   4.707   5.581  2.2188 -0.8333 -2.6209
 8537SOL    HW227096   7.438   4.843   5.585 -0.4350  0.4592 -0.6958
 8538SOL     OW27097   0.279   0.561   4.288 -0.6690  0.0802  0.1528
 8538SOL    HW127098   0.308   0.653   4.288  0.1815 -0.1814  0.1092
 8538SOL    HW227099   0.185   0.566   4.271 -0.6779  0.9602  0.3903
 8539SOL     OW27100   3.549   1.064   6.411 -0.1211  0.2280 -0.2653
 8539SOL    HW127101   3.500   1.054   6.492 -0.2216  0.5560 -0.2845
 8539SOL    HW227102   3.610   0.990   6.410 -0.9637 -0.4697 -0.4879
 8540SOL     OW27103   1.518   7.767   2.736  0.1938 -0.1505  0.3487
 8540SOL    HW127104   1.543   7.835   2.672  0.1226 -0.8961 -0.4800
 8540SOL    HW227105   1.599   7.720   2.754 -0.2059 -1.3854 -0.9322
 8541SOL     OW27106   5.168   7.923   4.140  0.5834  0.0920 -0.0176
 8541SOL    HW127107   5.198   7.956   4.055 -1.1886  1.5997 -0.0923
 8541SOL    HW227108   5.074   7.906   4.127 -0.0679  1.9135  2.0842
 8542SOL     OW27109   7.120   4.616   2.871  0.3118  0.0635  0.3943
 8542SOL    HW127110   7.146   4.533   2.911 -0.4361 -0.1745  0.3914
 8542SOL    HW227111   7.115   4.596   2.777 -0.7258 -0.1221  0.4820
 8543SOL     OW27112   8.023   2.617   7.458  0.0694 -0.4464 -0.1085
 8543SOL    HW127113   7.938   2.593   7.422  0.5831 -1.4396 -0.6493
 8543SOL    HW227114   8.015   2.600   7.552 -0.3834 -0.3596 -0.1308
 8544SOL     OW27115   7.204   1.386   6.853 -0.4197 -0.4731 -0.2129
 8544SOL    HW127116   7.117   1.412   6.882 -0.3156  0.6109 -0.8354
 8544SOL    HW227117   7.259   1.463   6.870  0.6499 -1.5153  1.1756
 8545SOL     OW27118   1.218   6.596   4.589 -0.0652 -0.4067  0.1858
 8545SOL    HW127119   1.248   6.629   4.505  0.1283  0.4538  0.5964
 8545SOL    HW227120   1.129   6.565   4.572 -0.0551 -0.1602 -0.3131
 8546SOL     OW27121   2.743   5.007   2.281 -0.8159 -0.3730  0.2945
 8546SOL    HW127122   2.784   4.996   2.367 -3.5231 -4.0526  1.2281
 8546SOL    HW227123   2.799   4.959   2.221 -0.3349 -0.0153  0.4567
 8547SOL     OW27124   2.479   0.346   0.541  0.4312 -0.2990 -0.4695
 8547SOL    HW127125   2.457   0.300   0.622 -0.2090  0.8805  0.0451
 8547SOL    HW227126   2.575   0.354   0.543  0.3601  0.4182  0.5746
 8548SOL     OW27127   7.706   0.073   0.269 -0.2459  0.2257 -0.5686
 8548SOL    HW127128   7.696   0.101   0.178 -0.1572  0.0441 -0.6344
 8548SOL    HW227129   7.748  -0.013   0.264 -1.6193 -0.4739 -0.4138
 8549SOL     OW27130   2.090   5.989   4.320 -0.2862 -0.1671  0.3458
 8549SOL    HW127131   2.177   5.976   4.358 -0.8188 -1.1828  1.2404
 8549SOL    HW227132   2.054   5.901   4.311 -1.7772  0.3168  1.3248
 8550SOL     OW27133   2.323   3.965   2.228  0.0603 -0.2733  0.7095
 8550SOL    HW127134   2.235   3.971   2.265  0.6138 -0.1212  2.0498
 8550SOL    HW227135   2.310   3.942   2.136 -1.4632  2.5463  0.1888
 8551SOL     OW27136   4.806   4.742   1.293 -0.2336 -0.0912  0.2506
 8551SOL    HW127137   4.831   4.662   1.247  1.4840  2.3269 -3.2730
 8551SOL    HW227138   4.874   4.755   1.359  0.2571 -0.7732 -0.1171
 8552SOL     OW27139   5.243   2.659   5.508 -0.0101 -0.5477  0.0211
 8552SOL    HW127140   5.170   2.692   5.454 -0.1900  0.3704  0.8042
 8552SOL    HW227141   5.248   2.721   5.581  1.3198 -0.8221  0.1698
 8553SOL     OW27142   3.510   3.881   1.974  0.2783 -0.0545  0.1575
 8553SOL    HW127143   3.589   3.828   1.973  1.0463  1.0728  0.4246
 8553SOL    HW227144   3.493   3.898   2.067 -0.3573 -0.4154  0.1108
 8554SOL     OW27145   4.714   2.253   5.837 -0.1470 -0.2846 -0.2815
 8554SOL    HW127146   4.639   2.277   5.893  0.0326  1.1035 -0.6148
 8554SOL    HW227147   4.723   2.327   5.777  2.0572 -0.0105  0.3457
 8555SOL     OW27148   1.282   8.012   1.916 -0.4260  0.2823  0.2360
 8555SOL    HW127149   1.314   7.940   1.861  0.3261  1.1718 -0.5212
 8555SOL    HW227150   1.187   8.009   1.906 -0.4298 -0.9500  0.6498
 8556SOL     OW27151   5.106   3.863   4.726 -0.3625 -0.4058  0.3380
 8556SOL    HW127152   5.151   3.780   4.713  2.3822  0.9455  0.7832
 8556SOL    HW227153   5.081   3.862   4.819 -0.7399 -0.9333  0.2292
 8557SOL     OW27154   6.012   3.697   3.939  0.3632 -0.1869  0.2051
 8557SOL    HW127155   6.055   3.647   3.870 -0.8624  0.4395 -1.0110
 8557SOL    HW227156   5.922   3.665   3.940 -0.6430  2.5335 -1.1059
 8558SOL     OW27157   1.478   2.424   5.671 -0.0310 -0.1145  0.3347
 8558SOL    HW127158   1.482   2.508   5.717  0.3223 -0.3514  0.7442
 8558SOL    HW227159   1.507   2.360   5.736  1.7896 -0.2965 -0.6099
 8559SOL     OW27160   0.480   1.341   6.373 -0.0568 -0.0021 -0.0224
 8559SOL    HW127161   0.565   1.344   6.416 -0.6673  2.3213  1.1486
 8559SOL    HW227162   0.493   1.387   6.290 -0.0015 -0.3229 -0.1938
 8560SOL     OW27163   0.763   7.988   3.197 -0.3028 -0.7912  0.3913
 8560SOL    HW127164   0.846   8.031   3.216  0.1123 -1.4381  0.0710
 8560SOL    HW227165   0.788   7.900   3.169 -1.0347 -0.6696 -0.6643
 8561SOL     OW27166   4.118   6.556   2.612  0.0423  0.4959 -0.2107
 8561SOL    HW127167   4.034   6.599   2.598 -0.1015  0.2500 -0.0971
 8561SOL    HW227168   4.141   6.575   2.702 -0.0619  0.2651 -0.1344
 8562SOL     OW27169   4.064   6.950   3.338  0.5567  0.0374 -0.0664
 8562SOL    HW127170   4.037   6.887   3.271  1.0209 -1.3775  1.0568
 8562SOL    HW227171   4.156   6.931   3.353 -0.0057 -0.9104  2.3047
 8563SOL     OW27172   8.090   1.514   2.221 -0.5344  0.2675 -1.1027
 8563SOL    HW127173   8.147   1.525   2.145  0.3496 -1.0956 -0.6558
 8563SOL    HW227174   8.063   1.603   2.244 -0.5552  0.7064 -2.8196
 8564SOL     OW27175   6.021   8.233   7.259 -0.3155  0.3753 -0.1673
 8564SOL    HW127176   6.066   8.316   7.275  0.6089 -0.2729  0.7245
 8564SOL    HW227177   5.992   8.238   7.168  0.0554  1.5158 -0.2322
 8565SOL     OW27178   2.699   3.601   2.117  0.6994 -0.7543 -0.6321
 8565SOL    HW127179   2.743   3.524   2.153  1.6430 -0.2479 -0.6841
 8565SOL    HW227180   2.627   3.566   2.065  1.2679 -1.6185 -0.8423
 8566SOL     OW27181   5.081   0.223   2.928  0.1813  0.3456  0.0704
 8566SOL    HW127182   5.117   0.291   2.984  0.8205  0.2391 -0.2077
 8566SOL    HW227183   5.012   0.267   2.879 -0.4190  0.4248  0.9717
 8567SOL     OW27184   4.052   6.155   3.252 -0.3028 -0.0299 -0.1028
 8567SOL    HW127185   3.964   6.177   3.224 -0.3108  1.3675  0.9465
 8567SOL    HW227186   4.051   6.166   3.347  0.5113 -1.8052  0.1379
 8568SOL     OW27187   8.070   4.551   0.676 -0.7742  0.1116  0.0668
 8568SOL    HW127188   7.989   4.599   0.696 -1.7032 -1.2823 -0.2628
 8568SOL    HW227189   8.044   4.491   0.605  0.7619  0.2437 -0.6188
 8569SOL     OW27190   0.441   4.307   3.184 -0.2495 -0.0555 -0.0074
 8569SOL    HW127191   0.437   4.370   3.256  2.2956 -1.9576  1.9342
 8569SOL    HW227192   0.367   4.248   3.199 -0.2734  0.1052  0.5119
 8570SOL     OW27193   5.421   3.487   0.678 -0.3679 -0.2847 -0.4201
 8570SOL    HW127194   5.460   3.498   0.591 -0.7315  0.0499 -0.5375
 8570SOL    HW227195   5.496   3.488   0.737 -0.1064 -0.6488 -0.7412
 8571SOL     OW27196   4.729   7.820   6.731  0.1315 -0.4190 -0.5720
 8571SOL    HW127197   4.637   7.812   6.756  0.3924 -1.5389  0.0434
 8571SOL    HW227198   4.735   7.907   6.692 -0.7983  0.4035  1.0508
 8572SOL     OW27199   0.233   4.473   2.344 -0.5515  0.3032  0.3184
 8572SOL    HW127200   0.324   4.443   2.350 -0.3057  1.1419  0.8464
 8572SOL    HW227201   0.233   4.558   2.388 -1.3819  0.7650 -0.5661
 8573SOL     OW27202   0.232   6.695   5.028  0.4738 -0.4983  0.6937
 8573SOL    HW127203   0.323   6.705   5.000  0.2778  0.0601  0.2511
 8573SOL    HW227204   0.205   6.611   4.991  0.4541 -0.1206 -0.1626
 8574SOL     OW27205   3.521   7.691   4.442  0.4957 -0.6041 -0.3129
 8574SOL    HW127206   3.440   7.741   4.433  0.5915  0.0822  2.3076
 8574SOL    HW227207   3.574   7.717   4.367 -1.1486  0.0030 -1.2789
 8575SOL     OW27208   5.720   1.492   6.471  0.1825 -0.2849 -0.0705
 8575SOL    HW127209   5.647   1.533   6.519 -0.6216 -2.2715  0.4540
 8575SOL    HW227210   5.692   1.494   6.379 -0.3839 -0.7292  0.0902
 8576SOL     OW27211   7.445   5.204   0.265 -0.5469 -0.5833  0.3764
 8576SOL    HW127212   7.438   5.267   0.193 -0.4067 -0.7539  0.2147
 8576SOL    HW227213   7.444   5.259   0.344 -0.0689 -0.3471  0.2243
 8577SOL     OW27214   2.026   2.796   4.448  0.0128  0.0743 -0.7860
 8577SOL    HW127215   2.098   2.825   4.504 -0.5334  0.1526 -0.1220
 8577SOL    HW227216   1.957   2.770   4.509 -1.1898  1.6534 -1.4416
 8578SOL     OW27217   2.566   0.655   6.837 -0.1923  0.0897 -0.4965
 8578SOL    HW127218   2.628   0.699   6.779  2.0194 -1.0540  0.9616
 8578SOL    HW227219   2.593   0.563   6.837 -2.1732 -0.5207 -0.1885
 8579SOL     OW27220   8.147   5.405   3.180 -0.4742 -0.1323 -0.3561
 8579SOL    HW127221   8.149   5.490   3.225 -0.9477  0.9260 -2.2948
 8579SOL    HW227222   8.054   5.383   3.177 -0.2741 -1.2984  1.1427
 8580SOL     OW27223   0.239   0.336   4.127  0.4158  0.0556 -0.3224
 8580SOL    HW127224   0.269   0.410   4.180  0.3356  1.1103 -1.7262
 8580SOL    HW227225   0.287   0.261   4.162 -0.8092  0.4342  2.2833
 8581SOL     OW27226   5.934   7.494   4.884 -0.0146  0.2893  0.0592
 8581SOL    HW127227   6.013   7.539   4.854 -0.2075 -0.0083 -0.9186
 8581SOL    HW227228   5.863   7.557   4.869  0.0688  0.6289  1.1193
 8582SOL     OW27229   0.483   2.387   0.450  0.6127  0.0482  0.0834
 8582SOL    HW127230   0.551   2.375   0.384  0.0768 -0.5006 -0.3703
 8582SOL    HW227231   0.494   2.478   0.479  0.8297  0.3063 -0.7778
 8583SOL     OW27232   3.007   3.734   7.371 -0.8045 -0.1004 -0.0523
 8583SOL    HW127233   2.946   3.799   7.336  1.4949  2.0547 -0.2017
 8583SOL    HW227234   3.019   3.672   7.300  0.1523  1.6127 -1.4364
 8584SOL     OW27235   7.689   4.918   3.308  0.1965  0.2224  0.4626
 8584SOL    HW127236   7.698   5.002   3.264 -0.6099  0.5373  0.8842
 8584SOL    HW227237   7.615   4.930   3.367  0.5918 -0.5308  1.1211
 8585SOL     OW27238   1.873   4.373   6.826 -0.1489  0.0128  0.6176
 8585SOL    HW127239   1.944   4.403   6.882  0.6335 -3.0260  1.3582
 8585SOL    HW227240   1.811   4.332   6.885 -0.7962 -0.5024 -0.4005
 8586SOL     OW27241   1.941   7.466   2.260 -0.9476  0.0422  0.2839
 8586SOL    HW127242   1.892   7.547   2.247 -0.7269  0.0944 -0.2328
 8586SOL    HW227243   1.953   7.431   2.171 -1.1839 -0.6373  0.5125
 8587SOL     OW27244   0.935   4.215   5.538 -0.1521  0.2371 -0.6101
 8587SOL    HW127245   1.010   4.274   5.536  0.5001 -0.5683 -0.1759
 8587SOL    HW227246   0.889   4.237   5.619  0.9717 -0.9152  0.3611
 8588SOL     OW27247   8.289   6.903   2.989  0.0347 -0.1355 -0.0899
 8588SOL    HW127248   8.301   6.850   3.068  0.5739  1.4524  0.9191
 8588SOL    HW227249   8.205   6.947   3.003  1.1127  1.7471  0.5671
 8589SOL     OW27250   6.954   1.126   8.285 -0.5406 -0.0806 -0.6028
 8589SOL    HW127251   6.962   1.059   8.353 -0.7557  0.9612  0.4714
 8589SOL    HW227252   7.044   1.140   8.254 -0.5162 -0.9639 -0.9288
 8590SOL     OW27253   7.668   5.343   1.490  0.4330 -0.2769 -0.1323
 8590SOL    HW127254   7.722   5.279   1.536 -0.6564 -0.2728  1.2105
 8590SOL    HW227255   7.682   5.425   1.538 -1.5788 -0.5152  0.9337
 8591SOL     OW27256   7.370   3.282   7.065  0.4904 -0.0263 -0.3307
 8591SOL    HW127257   7.426   3.272   6.988  0.9278 -1.1413  0.1191
 8591SOL    HW227258   7.302   3.216   7.055  1.5959 -1.4225  1.1242
 8592SOL     OW27259   4.899   6.370   1.949 -0.0525 -0.5750 -0.0879
 8592SOL    HW127260   4.957   6.396   1.878 -0.2361 -2.1228 -0.8305
 8592SOL    HW227261   4.848   6.298   1.913 -1.1728 -0.4238  1.1450
 8593SOL     OW27262   6.955   3.823   2.078 -0.1315  0.1478  0.2177
 8593SOL    HW127263   6.893   3.896   2.088 -1.7949 -1.4184  1.5587
 8593SOL    HW227264   6.911   3.749   2.119  2.0987 -1.3153 -0.0064
 8594SOL     OW27265   2.914   6.722   2.827  0.2958 -0.1706 -0.1980
 8594SOL    HW127266   2.860   6.741   2.750  0.3446 -2.0510 -0.7162
 8594SOL    HW227267   2.996   6.768   2.810 -0.3821  1.0076 -0.3596
 8595SOL     OW27268   2.221   1.075   4.900  0.6381 -0.0497 -0.0969
 8595SOL    HW127269   2.228   1.165   4.930  2.1452  0.4320 -1.7807
 8595SOL    HW227270   2.128   1.065   4.877  0.2369  0.7080  1.1196
 8596SOL     OW27271   7.688   7.849   3.600 -0.1943 -0.5332  0.0567
 8596SOL    HW127272   7.648   7.766   3.626 -1.4006 -0.1562 -0.6046
 8596SOL    HW227273   7.669   7.909   3.672 -0.6272 -0.4071 -0.1675
 8597SOL     OW27274   2.635   1.415   2.537  0.4624  0.4196  0.1797
 8597SOL    HW127275   2.559   1.373   2.498  0.3717 -0.2317  1.0448
 8597SOL    HW227276   2.641   1.499   2.493  0.2172 -0.1991 -1.0648
 8598SOL     OW27277   6.952   3.305   0.328  0.1819  0.0232  0.2916
 8598SOL    HW127278   6.959   3.383   0.383 -0.3863  0.2256  0.0778
 8598SOL    HW227279   6.882   3.325   0.266  0.7669 -0.2352 -0.4572
 8599SOL     OW27280   0.329   4.817   8.226 -0.1026 -0.3622  0.1150
 8599SOL    HW127281   0.306   4.761   8.301  1.5889 -0.4596  0.5762
 8599SOL    HW227282   0.369   4.757   8.163 -0.1317 -0.0127 -0.2360
 8600SOL     OW27283   1.514   6.962   7.667  0.7359 -0.0819 -0.1919
 8600SOL    HW127284   1.441   6.921   7.619  1.6323 -2.8569  0.7313
 8600SOL    HW227285   1.584   6.970   7.602  0.5154  0.1205 -0.4060
 8601SOL     OW27286   1.145   4.678   6.541  0.6464 -0.0863 -0.0321
 8601SOL    HW127287   1.240   4.685   6.530  0.5806 -1.7533 -1.9444
 8601SOL    HW227288   1.132   4.593   6.584 -0.0347 -0.2614 -0.5829
 8602SOL     OW27289   7.008   7.817   6.976 -0.4301  0.2580  0.4474
 8602SOL    HW127290   6.963   7.782   6.899  0.5215 -0.2413  0.1027
 8602SOL    HW227291   7.039   7.739   7.023  1.6882  0.5867 -0.3186
 8603SOL     OW27292   6.873   3.134   5.293  0.2209 -0.1008 -0.3557
 8603SOL    HW127293   6.919   3.094   5.367 -2.1854  0.7063  1.6163
 8603SOL    HW227294   6.835   3.060   5.245  0.1004 -0.5029  0.3557
 8604SOL     OW27295   3.062   4.501   6.856  0.5454  0.1565 -0.3352
 8604SOL    HW127296   3.094   4.587   6.828  1.3321  0.3029  0.9907
 8604SOL    HW227297   3.006   4.472   6.784  1.5326  1.0790 -1.4967
 8605SOL     OW27298   2.603   3.843   0.033 -0.1506  0.5169  0.3291
 8605SOL    HW127299   2.677   3.890   0.072 -0.5991  0.2874  1.4472
 8605SOL    HW227300   2.526   3.893   0.060 -0.3520  1.4264 -1.7857
 8606SOL     OW27301   8.171   5.875   5.127 -0.8276 -0.5287  0.0656
 8606SOL    HW127302   8.122   5.822   5.190 -0.5226  0.6593  1.3408
 8606SOL    HW227303   8.104   5.907   5.066 -1.3403 -0.6459  0.5566
 8607SOL     OW27304   3.960   4.736   0.741 -0.2876  0.3100  0.3535
 8607SOL    HW127305   3.967   4.780   0.656  0.7341  0.6967  0.6252
 8607SOL    HW227306   3.906   4.794   0.795  0.6394  0.9929  0.5539
 8608SOL     OW27307   6.904   5.915   5.634  0.4205 -0.0984 -0.3661
 8608SOL    HW127308   6.945   5.872   5.709  0.6163  1.4680  0.4293
 8608SOL    HW227309   6.833   5.856   5.609  0.5654 -0.7919  0.8267
 8609SOL     OW27310   3.778   5.381   6.803 -0.4405 -0.5805  0.5228
 8609SOL    HW127311   3.714   5.363   6.734 -0.5789 -1.3314  0.8466
 8609SOL    HW227312   3.746   5.333   6.879  0.6040 -1.1199  0.6322
 8610SOL     OW27313   0.920   4.270   3.657 -0.0619 -0.1641 -0.0748
 8610SOL    HW127314   0.926   4.247   3.564  0.0506  0.3484 -0.1962
 8610SOL    HW227315   0.849   4.333   3.661 -0.2605 -0.4054  0.2339
 8611SOL     OW27316   5.770   0.456   1.025 -0.2243  0.5830  0.0817
 8611SOL    HW127317   5.777   0.435   1.118 -0.8330 -1.3606 -0.2939
 8611SOL    HW227318   5.682   0.429   1.001  0.4632 -0.4098 -1.4071
 8612SOL     OW27319   5.606   1.170   3.700 -0.5267  0.2099 -0.4952
 8612SOL    HW127320   5.532   1.171   3.639 -2.5872  1.3957  1.9221
 8612SOL    HW227321   5.615   1.261   3.727  0.6733 -0.2267  0.5972
 8613SOL     OW27322   1.773   4.417   2.177  0.0531  0.4976 -0.0085
 8613SOL    HW127323   1.839   4.384   2.237  0.7011  0.9434 -0.4594
 8613SOL    HW227324   1.802   4.506   2.157  0.3218  0.0619 -1.6443
 8614SOL     OW27325   8.068   3.700   3.118 -0.8160 -0.6061  0.0947
 8614SOL    HW127326   8.113   3.666   3.195  1.2305  0.2209 -0.7112
 8614SOL    HW227327   8.066   3.626   3.057 -2.5762 -1.3090  0.9471
 8615SOL     OW27328   3.111   3.508   2.387 -0.5769 -0.1526 -0.0218
 8615SOL    HW127329   3.075   3.484   2.302 -0.9452  1.5210 -0.3410
 8615SOL    HW227330   3.144   3.425   2.423  0.5179 -0.6929 -2.2199
 8616SOL     OW27331   4.522   2.995   7.512 -0.1155  0.3809 -0.2416
 8616SOL    HW127332   4.469   3.005   7.592 -0.0326  0.6500 -0.2198
 8616SOL    HW227333   4.611   2.982   7.544 -0.1790 -0.1433 -0.2774
 8617SOL     OW27334   1.988   4.127   2.550  0.1814 -0.0088 -0.4909
 8617SOL    HW127335   2.066   4.088   2.510  1.4283  1.1407  0.7719
 8617SOL    HW227336   1.972   4.207   2.500 -0.7158 -0.6740 -1.2928
 8618SOL     OW27337   6.885   5.317   2.528  0.2587  0.1919  0.1014
 8618SOL    HW127338   6.912   5.225   2.539 -0.6311  0.0746  1.5198
 8618SOL    HW227339   6.961   5.367   2.559  0.3565 -0.0825  0.3178
 8619SOL     OW27340   3.631   0.954   5.522 -0.0519  0.1964  0.9379
 8619SOL    HW127341   3.634   0.874   5.469 -1.0128  0.5186  0.3653
 8619SOL    HW227342   3.620   1.024   5.457 -0.1687  0.6965  1.4974
 8620SOL     OW27343   1.252   4.917   7.878  0.0508 -0.2181  0.1307
 8620SOL    HW127344   1.250   4.958   7.965  3.1609  0.3004 -0.0017
 8620SOL    HW227345   1.301   4.836   7.890 -3.1167 -2.3335 -0.3430
 8621SOL     OW27346   6.139   0.139   3.669 -0.2839  0.0667 -0.5231
 8621SOL    HW127347   6.057   0.117   3.713  0.3129 -1.3043 -0.0514
 8621SOL    HW227348   6.112   0.175   3.585 -1.4032  1.3470  0.3688
 8622SOL     OW27349   7.685   2.158   4.167 -0.0263 -0.0830 -0.1437
 8622SOL    HW127350   7.712   2.216   4.096 -0.1735  0.9477  0.6273
 8622SOL    HW227351   7.612   2.203   4.210  2.4562  1.1609  3.0035
 8623SOL     OW27352   4.451   5.687   3.512 -0.0829  0.2119 -0.6175
 8623SOL    HW127353   4.495   5.746   3.574  1.6231  0.0569 -1.6577
 8623SOL    HW227354   4.514   5.675   3.441 -1.1393 -1.4085 -1.3122
 8624SOL     OW27355   7.410   1.241   2.555  0.0272 -0.7437  0.7538
 8624SOL    HW127356   7.419   1.186   2.477 -1.0037  0.3546 -0.1460
 8624SOL    HW227357   7.495   1.282   2.565  0.2792 -1.1786  0.4252
 8625SOL     OW27358   5.089   8.276   0.196  0.0716 -0.3015 -0.7113
 8625SOL    HW127359   5.184   8.273   0.183  0.2998  0.6910  0.6390
 8625SOL    HW227360   5.075   8.238   0.282 -0.6616  0.3587 -0.5309
 8626SOL     OW27361   6.702   4.758   8.225 -0.0509  0.5734  0.2857
 8626SOL    HW127362   6.696   4.718   8.312  0.9903  0.9195  0.5223
 8626SOL    HW227363   6.628   4.721   8.176  0.9731 -1.7482  0.4401
 8627SOL     OW27364   1.199   8.183   1.267 -0.2375  0.1681  0.0886
 8627SOL    HW127365   1.111   8.221   1.270  0.4756  1.8198  2.0405
 8627SOL    HW227366   1.211   8.145   1.354  0.9366 -0.1367 -0.1991
 8628SOL     OW27367   7.122   3.793   4.835  0.6638 -0.3309 -0.3241
 8628SOL    HW127368   7.125   3.844   4.916  3.7531 -0.3135 -0.3722
 8628SOL    HW227369   7.173   3.845   4.773  1.3666 -2.0585 -1.2175
 8629SOL     OW27370   4.295   2.481   3.035 -0.2078 -0.2904 -0.3548
 8629SOL    HW127371   4.229   2.444   3.094 -0.0866  0.2361  0.1161
 8629SOL    HW227372   4.251   2.486   2.951 -1.0272  0.7691  0.1304
 8630SOL     OW27373   3.764   8.125   3.734 -0.0017  0.2026  0.4240
 8630SOL    HW127374   3.767   8.042   3.783  0.1203 -0.2112 -0.2787
 8630SOL    HW227375   3.688   8.171   3.770  0.1465 -0.0542  1.0731
 8631SOL     OW27376   3.881   7.541   2.239  0.3430  0.7304  0.0525
 8631SOL    HW127377   3.968   7.530   2.276  0.5227 -0.7964 -0.7984
 8631SOL    HW227378   3.896   7.575   2.151  0.0951  0.1178 -0.2272
 8632SOL     OW27379   1.385   1.488   3.566  0.1428 -0.2151  0.2170
 8632SOL    HW127380   1.439   1.410   3.580  0.8511  0.2091 -0.1767
 8632SOL    HW227381   1.438   1.561   3.598 -0.3529  0.1564  0.2010
 8633SOL     OW27382   0.973   0.565   6.311 -0.3963  0.2725  0.0754
 8633SOL    HW127383   0.971   0.530   6.400 -2.6162  1.6016  0.5906
 8633SOL    HW227384   0.943   0.492   6.257  0.3084 -0.3330  0.4979
 8634SOL     OW27385   3.549   3.435   2.193 -0.0518 -0.2151 -0.3378
 8634SOL    HW127386   3.489   3.406   2.123 -1.4379 -0.8380  1.0676
 8634SOL    HW227387   3.603   3.358   2.210 -0.2715 -0.3310 -0.1585
 8635SOL     OW27388   2.885   2.120   8.061  0.1813  0.4204 -0.0766
 8635SOL    HW127389   2.873   2.197   8.007 -1.4535 -0.0412 -0.4036
 8635SOL    HW227390   2.868   2.046   8.002  2.6807 -0.2441 -0.0236
 8636SOL     OW27391   3.239   6.029   7.806 -0.3419 -0.0808  0.2139
 8636SOL    HW127392   3.159   6.013   7.856 -1.6475  2.3760 -0.9664
 8636SOL    HW227393   3.223   5.987   7.722  0.4746 -1.3455  0.6798
 8637SOL     OW27394   0.503   4.535   2.398  0.1629 -0.7401 -0.1278
 8637SOL    HW127395   0.595   4.540   2.370  0.2995 -0.0481  0.4351
 8637SOL    HW227396   0.503   4.572   2.486 -0.1483 -3.5337  1.0946
 8638SOL     OW27397   6.245   1.425   4.482 -0.2244  0.1190  0.1802
 8638SOL    HW127398   6.215   1.365   4.550 -0.0844  1.7396  1.7370
 8638SOL    HW227399   6.175   1.490   4.475  0.3126  0.6471 -0.3658
 8639SOL     OW27400   7.395   7.092   5.505  0.8642  0.0717 -0.3641
 8639SOL    HW127401   7.463   7.125   5.565  1.1795 -0.7193 -0.2811
 8639SOL    HW227402   7.359   7.171   5.465  0.7378  0.6052  0.7726
 8640SOL     OW27403   1.080   4.247   2.397  0.2869 -0.2519 -0.1709
 8640SOL    HW127404   1.089   4.213   2.486  0.2593  1.2055  0.4038
 8640SOL    HW227405   0.998   4.209   2.366 -0.8028  0.8937  1.2061
 8641SOL     OW27406   4.044   3.915   1.352 -0.3391  0.3542  0.1779
 8641SOL    HW127407   3.969   3.855   1.344 -1.2709  1.5152 -0.0335
 8641SOL    HW227408   4.006   4.002   1.338  1.3053  0.8582 -1.3510
 8642SOL     OW27409   2.963   0.943   7.386  0.7526  0.7007 -0.1240
 8642SOL    HW127410   2.947   0.870   7.445  0.5762  0.6566 -0.2286
 8642SOL    HW227411   2.990   0.903   7.304  2.2830  0.7858  0.3114
 8643SOL     OW27412   2.404   8.134   0.153  0.1235 -0.1208  0.5033
 8643SOL    HW127413   2.393   8.045   0.121  0.5623 -0.2829  0.7987
 8643SOL    HW227414   2.342   8.142   0.225 -0.9623  0.2879 -0.4741
 8644SOL     OW27415   1.898   3.688   6.676 -0.3510 -0.5433  0.0958
 8644SOL    HW127416   1.842   3.616   6.703  0.2265 -0.9245  0.2823
 8644SOL    HW227417   1.837   3.761   6.659 -0.9384 -1.0985 -0.1975
 8645SOL     OW27418   2.998   3.494   3.273  0.2632 -0.1360 -0.6150
 8645SOL    HW127419   2.935   3.565   3.273 -0.3775 -0.6654  1.4025
 8645SOL    HW227420   2.950   3.419   3.239  0.0367 -0.3380  0.1423
 8646SOL     OW27421   6.424   7.339   3.911  0.2081  0.0468  0.0659
 8646SOL    HW127422   6.452   7.426   3.938 -2.1483  0.6446  0.7050
 8646SOL    HW227423   6.478   7.318   3.836 -0.3662  2.7879 -1.1535
 8647SOL     OW27424   1.765   5.156   1.200  0.4545  0.1029  0.0949
 8647SOL    HW127425   1.755   5.127   1.109  1.2306 -0.0517  0.0526
 8647SOL    HW227426   1.749   5.078   1.252  1.1147 -0.0789  0.0381
 8648SOL     OW27427   7.091   2.551   8.110  0.2216 -0.3620  0.0223
 8648SOL    HW127428   7.049   2.593   8.186  0.9663 -0.1262  0.3048
 8648SOL    HW227429   7.019   2.536   8.049 -0.2881  0.0058  0.5250
 8649SOL     OW27430   0.904   6.579   6.682  0.1457 -0.0695  0.2160
 8649SOL    HW127431   0.904   6.672   6.704  0.0797 -0.4438  1.8286
 8649SOL    HW227432   0.830   6.542   6.730  0.8193 -1.1540  0.4429
 8650SOL     OW27433   1.389   3.070   3.482  0.2725  0.0162 -0.2061
 8650SOL    HW127434   1.400   3.112   3.568 -0.6502 -1.5990  0.7091
 8650SOL    HW227435   1.299   3.090   3.457  0.2658 -0.2564 -0.3957
 8651SOL     OW27436   0.765   7.684   5.880  0.2418  0.0308 -0.2979
 8651SOL    HW127437   0.792   7.762   5.928 -2.1915  1.2193 -0.7639
 8651SOL    HW227438   0.762   7.615   5.947  0.9510  0.6988  0.4245
 8652SOL     OW27439   6.628   8.032   6.846  0.2788 -0.1830  0.3797
 8652SOL    HW127440   6.685   8.051   6.921  0.0244  1.4649  0.1793
 8652SOL    HW227441   6.658   8.093   6.778  0.1525 -1.2956 -0.6814
 8653SOL     OW27442   4.645   0.381   4.340  0.1963 -0.0785 -0.2034
 8653SOL    HW127443   4.711   0.429   4.290  0.1258  1.7242  1.3986
 8653SOL    HW227444   4.568   0.381   4.284  0.4213  1.0330 -0.5220
 8654SOL     OW27445   0.162   5.603   4.110 -0.4914  0.5117 -0.3830
 8654SOL    HW127446   0.078   5.649   4.115 -0.6267  0.2675 -0.3876
 8654SOL    HW227447   0.196   5.606   4.199  0.0996  1.7295 -0.6415
 8655SOL     OW27448   5.533   7.206   0.330 -0.0014 -0.1150 -0.2009
 8655SOL    HW127449   5.517   7.279   0.391  0.1896 -0.0483 -0.2314
 8655SOL    HW227450   5.620   7.174   0.353 -0.5152 -1.0333  0.5286
 8656SOL     OW27451   3.185   4.137   6.180 -0.1234  0.6570  0.6548
 8656SOL    HW127452   3.202   4.097   6.266 -2.3333 -1.5262  0.1389
 8656SOL    HW227453   3.195   4.064   6.118 -2.1178  1.3791 -0.5464
 8657SOL     OW27454   2.262   4.326   5.093 -0.1720 -0.2398  0.5293
 8657SOL    HW127455   2.318   4.250   5.101  0.3206 -0.0860 -1.2576
 8657SOL    HW227456   2.297   4.390   5.156  1.5050 -0.2290 -0.4122
 8658SOL     OW27457   5.056   0.648   5.937  0.1803 -0.5216  0.0497
 8658SOL    HW127458   5.038   0.567   5.985  0.9070 -1.6953 -1.6300
 8658SOL    HW227459   5.135   0.682   5.978 -0.3402 -0.4479  1.0159
 8659SOL     OW27460   3.933   6.039   1.276 -0.0451  0.0399 -0.3122
 8659SOL    HW127461   4.004   5.983   1.246  0.4283  1.3653 -1.6984
 8659SOL    HW227462   3.964   6.128   1.259 -1.7581  0.6483 -0.3034
 8660SOL     OW27463   3.255   5.409   6.088 -0.2116  0.4408  0.0054
 8660SOL    HW127464   3.312   5.356   6.032  0.0892  1.2541 -0.4737
 8660SOL    HW227465   3.287   5.392   6.176 -1.0050 -1.2268 -0.0148
 8661SOL     OW27466   3.888   7.871   4.779 -0.0849  0.5166 -0.4191
 8661SOL    HW127467   3.917   7.781   4.762 -0.1411  0.3825  0.1776
 8661SOL    HW227468   3.820   7.887   4.715 -1.4624 -0.5624  0.7510
 8662SOL     OW27469   7.977   0.720   1.884 -0.1086  0.3024 -0.2240
 8662SOL    HW127470   8.003   0.629   1.871 -0.9153  0.1405 -0.7089
 8662SOL    HW227471   8.060   0.766   1.898  0.2519 -0.6045  0.6768
 8663SOL     OW27472   5.134   4.347   0.197  0.2524 -0.2660 -0.0300
 8663SOL    HW127473   5.210   4.403   0.180  1.0923 -1.1118  0.7958
 8663SOL    HW227474   5.110   4.311   0.112  1.2846 -0.5981 -0.1922
 8664SOL     OW27475   0.840   7.018   1.581  0.2049  0.0081 -0.0044
 8664SOL    HW127476   0.856   7.112   1.574  1.6351 -0.2745 -0.8285
 8664SOL    HW227477   0.898   6.980   1.515 -1.0148 -1.3852 -0.2888
 8665SOL     OW27478   3.289   5.178   7.631 -0.1726  0.0677  0.2049
 8665SOL    HW127479   3.290   5.270   7.605  2.8457 -0.4198 -1.6686
 8665SOL    HW227480   3.357   5.171   7.699 -1.1471 -0.5678  1.1260
 8666SOL     OW27481   0.983   7.586   3.962 -0.2559 -0.6328 -0.0001
 8666SOL    HW127482   1.061   7.587   4.018 -0.2934  0.7034  0.0521
 8666SOL    HW227483   0.937   7.506   3.986 -0.2042 -0.1370  1.8232
 8667SOL     OW27484   1.965   7.158   1.337 -0.0996  0.3403 -0.1893
 8667SOL    HW127485   2.006   7.090   1.283  0.1530  0.2375  0.1282
 8667SOL    HW227486   1.978   7.239   1.288 -1.3529  0.0092 -1.0959
 8668SOL     OW27487   5.798   5.253   5.182 -0.3514 -0.1132 -0.0727
 8668SOL    HW127488   5.871   5.230   5.125 -0.0946 -0.3426  0.3449
 8668SOL    HW227489   5.727   5.279   5.123  0.1671  0.4022 -0.4663
 8669SOL     OW27490   7.390   3.055   0.932 -0.1898 -0.0050  0.2461
 8669SOL    HW127491   7.372   3.116   1.003 -2.1953 -2.3870  1.8571
 8669SOL    HW227492   7.314   3.063   0.874  0.1228 -0.0780 -0.1775
 8670SOL     OW27493   4.211   3.620   2.077 -0.1765  0.3225 -0.2573
 8670SOL    HW127494   4.274   3.552   2.100 -0.3582 -0.0651 -0.9075
 8670SOL    HW227495   4.141   3.575   2.031 -1.2185  0.6731  0.9590
 8671SOL     OW27496   2.118   2.979   2.634 -0.4871  0.0833 -0.5675
 8671SOL    HW127497   2.067   2.938   2.704 -1.1868 -1.4196 -1.9216
 8671SOL    HW227498   2.055   2.992   2.564 -0.1176  2.8940 -0.4378
 8672SOL     OW27499   2.144   3.764   5.548 -0.4263 -0.0749 -0.1400
 8672SOL    HW127500   2.155   3.687   5.603  0.4407  0.4676  0.4561
 8672SOL    HW227501   2.195   3.833   5.592  0.4024  0.3270 -1.7051
 8673SOL     OW27502   0.955   0.948   3.849  0.2447 -0.0217  0.1466
 8673SOL    HW127503   1.028   0.998   3.886  0.3220 -0.5200  0.6739
 8673SOL    HW227504   0.998   0.876   3.801  0.1107 -0.0267  0.0345
 8674SOL     OW27505   2.094   3.276   6.009  0.1345 -0.3476  0.1333
 8674SOL    HW127506   2.023   3.316   5.958 -0.1379 -0.0315  0.7585
 8674SOL    HW227507   2.119   3.343   6.073 -0.4748 -1.2420  1.3279
 8675SOL     OW27508   5.082   3.136   2.023 -0.0623  0.0939 -0.5439
 8675SOL    HW127509   5.104   3.136   1.930  0.8329 -0.2436 -0.3390
 8675SOL    HW227510   4.991   3.107   2.027 -1.0759  2.9746 -1.5332
 8676SOL     OW27511   5.437   3.873   7.778 -0.4214  0.0249 -0.1262
 8676SOL    HW127512   5.446   3.785   7.815 -1.0790 -0.0501 -0.1268
 8676SOL    HW227513   5.527   3.902   7.762  0.0212  0.7267  3.1344
 8677SOL     OW27514   1.501   6.723   3.108  0.3030  0.4573 -0.1608
 8677SOL    HW127515   1.512   6.783   3.182 -0.0453 -1.6204  1.6029
 8677SOL    HW227516   1.479   6.639   3.148 -0.2851 -0.6066 -2.6503
 8678SOL     OW27517   3.910   4.149   1.302 -0.4692 -0.3637  0.2990
 8678SOL    HW127518   3.827   4.197   1.309 -0.5279 -0.4149 -0.0487
 8678SOL    HW227519   3.969   4.195   1.362 -0.6308 -0.0720  0.2385
 8679SOL     OW27520   0.960   5.661   5.828 -0.2970 -0.2087 -0.0806
 8679SOL    HW127521   0.925   5.572   5.824  0.2930 -0.3486 -2.6838
 8679SOL    HW227522   1.021   5.659   5.902  0.4859 -2.2726 -0.7377
 8680SOL     OW27523   5.964   1.734   2.253  0.2883 -0.2228  0.1416
 8680SOL    HW127524   5.910   1.776   2.320 -1.3974 -1.6127 -0.3175
 8680SOL    HW227525   6.010   1.664   2.300  0.5077 -0.0307  0.2144
 8681SOL     OW27526   5.837   2.085   1.978  0.1925 -0.1420 -0.4525
 8681SOL    HW127527   5.903   2.015   1.983  0.0906 -0.1423  0.8572
 8681SOL    HW227528   5.826   2.115   2.068  0.9188  2.2041 -1.1145
 8682SOL     OW27529   3.218   7.774   2.689  0.6288  0.4260  0.5976
 8682SOL    HW127530   3.292   7.833   2.702  1.4211 -0.6649  1.1591
 8682SOL    HW227531   3.245   7.692   2.731 -0.4635 -0.3247 -0.1262
 8683SOL     OW27532   7.454   6.798   3.686 -0.6533 -0.1242  0.3143
 8683SOL    HW127533   7.494   6.885   3.681  0.1842 -0.4810  0.7577
 8683SOL    HW227534   7.364   6.814   3.713 -1.2750  0.8071 -2.2156
 8684SOL     OW27535   7.037   2.441   3.181 -0.1060 -0.1209 -0.0260
 8684SOL    HW127536   6.999   2.461   3.096  0.1490 -1.3359 -0.4321
 8684SOL    HW227537   7.131   2.449   3.168 -0.0426 -0.7628  0.0194
 8685SOL     OW27538   5.429   2.192   3.210  0.1766 -0.6405 -0.3794
 8685SOL    HW127539   5.448   2.282   3.236 -1.0037  0.1190 -2.0728
 8685SOL    HW227540   5.453   2.189   3.117 -0.4761 -1.8700 -0.5129
 8686SOL     OW27541   0.543   5.797   3.392 -0.3777  0.4263  0.0784
 8686SOL    HW127542   0.578   5.886   3.385 -0.8630  0.4609 -2.4055
 8686SOL    HW227543   0.602   5.744   3.338 -0.6578 -0.5906  0.7702
 8687SOL     OW27544   0.001   4.848   7.181 -0.2636 -0.7762  0.5316
 8687SOL    HW127545  -0.090   4.872   7.199  0.3880  2.3687 -0.1027
 8687SOL    HW227546   0.009   4.854   7.086  0.9977  0.4701  0.7078
 8688SOL     OW27547   0.799   4.350   1.397 -0.0127 -0.3389 -0.0138
 8688SOL    HW127548   0.871   4.387   1.347 -0.5327 -0.0586 -0.5617
 8688SOL    HW227549   0.825   4.362   1.489  0.3873  0.2569 -0.2033
 8689SOL     OW27550   2.151   5.544   6.622  0.4696  0.0795  0.8601
 8689SOL    HW127551   2.119   5.470   6.673  0.0474 -1.2211 -1.2629
 8689SOL    HW227552   2.075   5.576   6.575  0.7873  1.5065  1.2788
 8690SOL     OW27553   3.383   2.522   7.481  0.7864 -0.3619 -0.6863
 8690SOL    HW127554   3.415   2.475   7.557 -1.4690 -0.1642  0.4272
 8690SOL    HW227555   3.367   2.454   7.415 -1.9771 -1.1736  0.7375
 8691SOL     OW27556   5.444   5.671   0.225 -0.0258 -0.2280 -0.3243
 8691SOL    HW127557   5.361   5.711   0.199 -0.5862  0.3262  2.1406
 8691SOL    HW227558   5.497   5.671   0.146 -1.1486  2.5960 -1.1464
 8692SOL     OW27559   5.348   7.479   3.451  0.0708 -0.4152 -0.2939
 8692SOL    HW127560   5.355   7.392   3.411 -0.9441 -1.4762  1.7674
 8692SOL    HW227561   5.351   7.463   3.545 -2.5453  1.5320  0.1767
 8693SOL     OW27562   1.414   4.869   2.312  0.4555 -0.2768 -0.5147
 8693SOL    HW127563   1.470   4.829   2.379  1.1795 -2.3356 -2.2670
 8693SOL    HW227564   1.468   4.938   2.273 -0.2141  1.3866  1.4453
 8694SOL     OW27565   0.729   8.171   2.819 -0.1495 -0.0154 -0.1914
 8694SOL    HW127566   0.732   8.078   2.841 -0.8395 -0.2120 -0.8913
 8694SOL    HW227567   0.799   8.183   2.755  1.6689  0.4976  1.8245
 8695SOL     OW27568   5.120   1.125   5.796 -0.0752 -0.0812 -0.0415
 8695SOL    HW127569   5.150   1.041   5.830 -2.0091 -0.4947  0.7491
 8695SOL    HW227570   5.177   1.144   5.721  2.1441 -0.7474  1.4383
 8696SOL     OW27571   6.721   7.265   2.345 -0.1036 -0.2044  0.4905
 8696SOL    HW127572   6.785   7.319   2.392 -1.0166  0.1432  1.3330
 8696SOL    HW227573   6.660   7.236   2.412  0.0072 -1.7650 -0.0614
 8697SOL     OW27574   4.334   0.592   0.087 -0.7833  0.3442  0.3694
 8697SOL    HW127575   4.254   0.562   0.129 -0.3428 -0.7757  0.4291
 8697SOL    HW227576   4.404   0.558   0.142 -0.1925 -1.3107 -1.3536
 8698SOL     OW27577   3.804   3.888   7.247 -0.2214 -0.2021 -0.1439
 8698SOL    HW127578   3.892   3.900   7.285 -0.0655 -0.5237 -0.4028
 8698SOL    HW227579   3.747   3.883   7.324  0.0919 -0.8222  0.0529
 8699SOL     OW27580   1.107   6.675   3.672 -0.6998 -0.2427  0.0057
 8699SOL    HW127581   1.120   6.586   3.706 -0.3759 -1.2469 -2.6339
 8699SOL    HW227582   1.104   6.664   3.577 -0.7854  2.5719 -0.3504
 8700SOL     OW27583   1.569   4.167   4.598  0.1458  0.7731 -0.1062
 8700SOL    HW127584   1.560   4.224   4.521 -3.2753 -0.6354 -0.8488
 8700SOL    HW227585   1.493   4.189   4.653  2.5000  1.6969  2.8911
 8701SOL     OW27586   4.673   1.273   0.348 -0.0584 -0.4654 -0.5119
 8701SOL    HW127587   4.631   1.195   0.312 -0.5607  0.3844 -1.7925
 8701SOL    HW227588   4.601   1.335   0.361  0.6040  0.4840 -1.3393
 8702SOL     OW27589   4.333   6.948   3.377  0.1528 -0.2676  0.1398
 8702SOL    HW127590   4.377   7.020   3.332 -0.5129 -0.4839 -0.8647
 8702SOL    HW227591   4.339   6.971   3.470  1.2164  0.3595 -0.0734
 8703SOL     OW27592   3.365   7.692   1.465  0.0885 -0.7434 -0.8509
 8703SOL    HW127593   3.459   7.691   1.482 -0.1987 -0.9253  0.7753
 8703SOL    HW227594   3.329   7.744   1.536 -1.1275 -1.2401 -1.0992
 8704SOL     OW27595   0.414   3.472   5.121 -0.0658  0.5812 -0.1492
 8704SOL    HW127596   0.355   3.436   5.188  0.0745 -1.2220 -0.9509
 8704SOL    HW227597   0.381   3.561   5.106 -1.0099  0.4904  1.2433
 8705SOL     OW27598   6.998   3.019   6.423 -0.3384  0.3793  0.0922
 8705SOL    HW127599   6.926   2.958   6.435 -1.8833  1.9745 -0.8406
 8705SOL    HW227600   7.020   3.015   6.330  0.5909  0.1256  0.3107
 8706SOL     OW27601   4.265   0.898   0.746 -0.4256  0.2674 -0.4443
 8706SOL    HW127602   4.353   0.908   0.711 -0.3189 -0.6696 -0.4644
 8706SOL    HW227603   4.244   0.805   0.734 -1.1659  0.3451  0.1379
 8707SOL     OW27604   0.462   8.097   4.371  0.0231  0.4086  0.1424
 8707SOL    HW127605   0.524   8.090   4.299 -0.9119  0.7205 -0.6998
 8707SOL    HW227606   0.474   8.186   4.404 -0.3049  0.6165 -0.3082
 8708SOL     OW27607   1.329   4.327   6.555 -0.7360 -0.2934 -0.0457
 8708SOL    HW127608   1.326   4.232   6.544 -0.3650 -0.4467  1.0657
 8708SOL    HW227609   1.380   4.340   6.635 -2.8826  0.7164  1.2261
 8709SOL     OW27610   0.546   4.349   0.778 -0.2590 -0.3561  0.3262
 8709SOL    HW127611   0.564   4.421   0.717 -0.4320 -1.6454 -1.2931
 8709SOL    HW227612   0.460   4.369   0.815 -0.9418 -0.4460 -1.1909
 8710SOL     OW27613   6.005   4.552   7.829  0.0736  0.6606 -0.1060
 8710SOL    HW127614   6.020   4.646   7.832  0.4096  0.6235 -0.5011
 8710SOL    HW227615   5.912   4.542   7.849  0.3555  0.9604  1.4441
 8711SOL     OW27616   2.715   1.367   5.019 -0.0059  0.2536  0.3134
 8711SOL    HW127617   2.712   1.420   5.098 -0.7538 -1.5885  1.5434
 8711SOL    HW227618   2.626   1.368   4.985  0.5289  1.9211 -1.1388
 8712SOL     OW27619   2.217   2.460   2.673  0.1800 -0.1128 -0.6274
 8712SOL    HW127620   2.296   2.496   2.632  0.4221 -0.8048 -0.7750
 8712SOL    HW227621   2.235   2.366   2.682  0.1622  0.0454  1.1706
 8713SOL     OW27622   0.023   4.006   7.310 -0.3167  0.0912 -0.3137
 8713SOL    HW127623  -0.027   3.975   7.235 -2.0658  0.8917  0.5029
 8713SOL    HW227624   0.041   4.098   7.290 -1.3183  0.4699  0.5333
 8714SOL     OW27625   6.517   0.610   1.208 -0.1703  0.4930 -0.1067
 8714SOL    HW127626   6.611   0.591   1.198 -0.4777 -1.1443  0.0045
 8714SOL    HW227627   6.508   0.633   1.301 -0.0428 -0.3152  0.1073
 8715SOL     OW27628   6.512   5.801   4.551  0.3729  0.5368  0.0223
 8715SOL    HW127629   6.436   5.747   4.529 -0.2303  0.5905  1.8806
 8715SOL    HW227630   6.569   5.795   4.474 -0.5881 -1.1160 -0.5901
 8716SOL     OW27631   5.236   5.443   5.125 -0.4249  0.5262 -0.2822
 8716SOL    HW127632   5.179   5.369   5.106 -1.1731  0.0727  3.5216
 8716SOL    HW227633   5.324   5.405   5.127 -0.5708  0.1765 -0.4328
 8717SOL     OW27634   7.491   3.667   3.740  0.0194 -0.4458 -0.5971
 8717SOL    HW127635   7.443   3.696   3.663 -0.1650 -0.0736 -0.3475
 8717SOL    HW227636   7.479   3.738   3.803  0.2534 -0.7015 -0.2632
 8718SOL     OW27637   0.170   7.602   3.974  0.3392 -0.9814  0.3129
 8718SOL    HW127638   0.128   7.631   4.054 -1.7366  0.0767 -1.1197
 8718SOL    HW227639   0.153   7.508   3.971 -2.6041 -0.4544 -0.5951
 8719SOL     OW27640   4.292   3.253   0.368 -0.1446 -0.8380 -0.5441
 8719SOL    HW127641   4.314   3.187   0.433  0.5683 -1.3938 -1.3311
 8719SOL    HW227642   4.377   3.292   0.345 -0.7821  1.8731  1.4997
 8720SOL     OW27643   2.300   5.942   6.696 -0.3152 -0.0048 -0.5096
 8720SOL    HW127644   2.305   5.909   6.786 -0.0104  1.0834 -0.1146
 8720SOL    HW227645   2.314   6.036   6.705 -0.4463  0.1294 -1.6874
 8721SOL     OW27646   4.165   5.537   5.598 -0.5634  0.1666 -0.7995
 8721SOL    HW127647   4.108   5.556   5.672  0.0252 -1.2562  0.0509
 8721SOL    HW227648   4.186   5.622   5.560 -2.0315  0.7985 -0.2095
 8722SOL     OW27649   7.462   4.118   3.778 -0.2348 -0.0780  0.2850
 8722SOL    HW127650   7.408   4.193   3.805 -0.8527 -0.2356 -0.4811
 8722SOL    HW227651   7.411   4.076   3.709  1.3073  0.3344 -1.1369
 8723SOL     OW27652   7.419   2.735   4.186 -0.1575  0.7267 -0.0078
 8723SOL    HW127653   7.508   2.770   4.178 -0.3185  0.6000 -2.9437
 8723SOL    HW227654   7.427   2.643   4.163 -1.1516  0.8623 -0.9320
 8724SOL     OW27655   1.754   4.530   7.264 -0.5030 -0.1032  0.0619
 8724SOL    HW127656   1.817   4.459   7.278  1.4868  1.6851  0.4339
 8724SOL    HW227657   1.752   4.577   7.348 -0.4357  1.3133 -0.7145
 8725SOL     OW27658   4.553   4.217   3.193 -0.4119  0.1729 -0.4992
 8725SOL    HW127659   4.502   4.298   3.192  1.0973  1.1877 -3.8802
 8725SOL    HW227660   4.545   4.183   3.104  1.9810 -1.4509 -0.1399
 8726SOL     OW27661   6.197   5.818   3.646 -0.2696  0.7001 -0.5012
 8726SOL    HW127662   6.257   5.850   3.578  0.7612 -0.3325 -0.1022
 8726SOL    HW227663   6.242   5.838   3.728 -1.1383  1.2080 -0.1484
 8727SOL     OW27664   0.822   1.642   7.094  0.3749 -0.2277 -0.1336
 8727SOL    HW127665   0.727   1.643   7.087  0.4536  0.5021 -1.1668
 8727SOL    HW227666   0.840   1.664   7.185 -0.4114  0.9514 -0.2635
 8728SOL     OW27667   2.246   2.221   3.289  0.5891 -0.7652  0.0667
 8728SOL    HW127668   2.188   2.287   3.326 -0.4086 -1.2639 -0.5707
 8728SOL    HW227669   2.314   2.271   3.244  0.5574 -0.1750  0.6695
 8729SOL     OW27670   0.502   5.302   4.156  0.3378  0.6983 -0.5665
 8729SOL    HW127671   0.557   5.254   4.093  0.9140  2.9111 -1.7800
 8729SOL    HW227672   0.456   5.367   4.103 -1.6155  0.5069  0.8302
 8730SOL     OW27673   0.461   2.328   1.540  0.5422 -0.3461  0.1799
 8730SOL    HW127674   0.413   2.408   1.523 -0.6602 -1.4393 -1.7815
 8730SOL    HW227675   0.531   2.328   1.474  0.2225 -1.1348 -0.1684
 8731SOL     OW27676   4.877   2.326   0.415  0.1640  0.2700 -0.1959
 8731SOL    HW127677   4.860   2.352   0.324 -0.2772  0.9487  0.0791
 8731SOL    HW227678   4.961   2.367   0.437 -0.5331  1.4849  0.2392
 8732SOL     OW27679   0.317   2.242   0.593  0.1255 -0.2298  0.2048
 8732SOL    HW127680   0.381   2.172   0.603  0.1671 -0.4107 -1.2273
 8732SOL    HW227681   0.361   2.307   0.539 -1.4315 -1.0726 -2.1359
 8733SOL     OW27682   5.268   2.635   0.411 -0.3821 -0.2596  0.2899
 8733SOL    HW127683   5.315   2.646   0.493 -0.9141 -2.1926  0.8806
 8733SOL    HW227684   5.337   2.637   0.343  0.0266  1.5764  0.7316
 8734SOL     OW27685   6.031   7.719   3.601  0.6233 -0.3142  0.5950
 8734SOL    HW127686   6.072   7.805   3.600  0.0272 -0.0362  0.0856
 8734SOL    HW227687   6.103   7.658   3.586  0.9234  0.1460  0.1570
 8735SOL     OW27688   0.343   8.054   5.501  0.0479 -0.1621  0.0985
 8735SOL    HW127689   0.425   8.095   5.473 -0.4616  0.1916 -0.8948
 8735SOL    HW227690   0.292   8.045   5.420 -0.3103 -1.7152  0.4790
 8736SOL     OW27691   0.327   2.700   3.396  0.8227 -0.1362  0.0693
 8736SOL    HW127692   0.237   2.681   3.371  0.9431  0.4004 -0.7820
 8736SOL    HW227693   0.373   2.616   3.388  0.6577 -0.1611 -0.6288
 8737SOL     OW27694   8.007   1.549   7.823 -0.3079 -0.2359  0.1971
 8737SOL    HW127695   8.037   1.640   7.822 -1.3807  0.1107 -1.5683
 8737SOL    HW227696   8.088   1.498   7.820  0.3311  0.6364  1.7989
 8738SOL     OW27697   5.805   5.123   0.661 -0.3340  0.5357  0.4496
 8738SOL    HW127698   5.871   5.126   0.730  0.6806 -1.4160 -0.3943
 8738SOL    HW227699   5.810   5.034   0.626 -2.6809  0.6801 -0.3687
 8739SOL     OW27700   2.017   0.122   7.699 -0.1513  0.6198 -0.1618
 8739SOL    HW127701   2.028   0.046   7.756  0.4809  0.5715 -0.3488
 8739SOL    HW227702   1.997   0.195   7.759 -1.0477  0.2573 -0.0063
 8740SOL     OW27703   1.993   4.849   7.726 -0.0329  0.4869  0.0386
 8740SOL    HW127704   1.944   4.795   7.789  0.7116  0.6857  0.8057
 8740SOL    HW227705   2.079   4.807   7.720 -0.6588 -0.5233 -2.1806
 8741SOL     OW27706   4.491   1.895   0.785 -0.8826 -0.3773 -0.2868
 8741SOL    HW127707   4.574   1.860   0.755 -1.0870  0.5369 -1.9459
 8741SOL    HW227708   4.425   1.834   0.754 -0.9559 -0.3349 -0.2174
 8742SOL     OW27709   6.977   0.148   5.767 -0.1052 -0.6607  0.6830
 8742SOL    HW127710   7.007   0.233   5.800  0.6382 -1.2915  1.6320
 8742SOL    HW227711   7.056   0.096   5.757 -0.2846 -0.4257 -2.3474
 8743SOL     OW27712   3.184   4.698   2.574 -0.2264 -0.3028 -0.3061
 8743SOL    HW127713   3.099   4.684   2.616  0.3575  0.8189  1.3008
 8743SOL    HW227714   3.164   4.751   2.497 -0.8603  0.7431  0.5776
 8744SOL     OW27715   1.594   5.030   2.185  0.3481 -0.6801  0.0633
 8744SOL    HW127716   1.618   5.122   2.183 -0.2856 -0.4440  1.8557
 8744SOL    HW227717   1.528   5.021   2.117 -0.1688  0.3787  0.4105
 8745SOL     OW27718   2.580   2.229   2.240 -0.3931 -0.6788  0.4692
 8745SOL    HW127719   2.610   2.140   2.222  0.5475 -0.2323 -0.2224
 8745SOL    HW227720   2.485   2.223   2.243 -0.3257 -1.7242  0.5187
 8746SOL     OW27721   4.404   0.774   3.644 -0.3509  0.0164 -0.2103
 8746SOL    HW127722   4.385   0.783   3.550  1.0998 -0.3195 -0.5453
 8746SOL    HW227723   4.341   0.708   3.674 -1.4731  0.8299 -0.7325
 8747SOL     OW27724   6.605   6.453   5.289 -0.6075 -0.3245 -0.5157
 8747SOL    HW127725   6.629   6.373   5.241  2.1484  1.0991 -1.6273
 8747SOL    HW227726   6.649   6.444   5.373  2.2449  1.3158 -1.7585
 8748SOL     OW27727   2.809   1.529   1.493  0.4054  0.2505  0.3609
 8748SOL    HW127728   2.903   1.550   1.487  0.2836  0.4247 -1.3285
 8748SOL    HW227729   2.794   1.466   1.422 -0.8761  0.7429  0.1757
 8749SOL     OW27730   3.820   1.630   0.066  0.2354  0.0503 -0.0744
 8749SOL    HW127731   3.729   1.609   0.049  0.1429 -0.2344  0.7316
 8749SOL    HW227732   3.826   1.636   0.162  1.3378 -1.2681 -0.0333
 8750SOL     OW27733   5.033   1.258   1.445  0.4544 -0.2775 -0.8549
 8750SOL    HW127734   5.013   1.350   1.427  0.4732 -0.0079  0.4984
 8750SOL    HW227735   5.059   1.256   1.537 -0.4522 -1.7930 -0.6226
 8751SOL     OW27736   0.781   3.440   6.106  0.4523 -0.1332  0.4548
 8751SOL    HW127737   0.739   3.392   6.178  0.0300 -0.7075 -0.1654
 8751SOL    HW227738   0.860   3.390   6.086  0.0574 -0.5284 -0.1349
 8752SOL     OW27739   6.402   4.263   0.678  0.1882 -0.2925  0.1377
 8752SOL    HW127740   6.350   4.257   0.598 -0.5322  0.4295  0.5405
 8752SOL    HW227741   6.371   4.190   0.732  1.3084 -1.3226 -0.5962
 8753SOL     OW27742   6.087   4.229   3.549  0.2304  0.2473 -0.6118
 8753SOL    HW127743   6.168   4.181   3.563  1.2381  2.0892  0.1050
 8753SOL    HW227744   6.082   4.239   3.454 -0.1456 -1.4956 -0.7888
 8754SOL     OW27745   4.470   2.105   2.965  0.4050 -0.4642  0.2218
 8754SOL    HW127746   4.429   2.128   3.048 -0.8414 -0.5203 -0.3758
 8754SOL    HW227747   4.538   2.172   2.953 -0.6587  0.6513  0.3607
 8755SOL     OW27748   4.907   5.632   8.089 -0.1869  0.7669  0.4023
 8755SOL    HW127749   4.830   5.668   8.133 -2.4461 -0.4877 -2.4130
 8755SOL    HW227750   4.913   5.542   8.121  0.0728  0.8411  0.5644
 8756SOL     OW27751   3.587   2.526   5.673  0.1113 -0.9156 -0.5004
 8756SOL    HW127752   3.618   2.540   5.583 -1.3147 -0.8219 -0.9930
 8756SOL    HW227753   3.667   2.523   5.726  0.9391 -0.4158 -1.6955
 8757SOL     OW27754   5.642   6.855   6.615 -0.1396  0.1324  0.5124
 8757SOL    HW127755   5.628   6.779   6.672 -0.6642 -0.7337 -0.7231
 8757SOL    HW227756   5.560   6.905   6.621 -0.0831  0.1986  0.7394
 8758SOL     OW27757   3.234   7.785   4.462 -0.3073 -0.4852  0.6375
 8758SOL    HW127758   3.156   7.742   4.497 -1.4168  1.3410  0.4398
 8758SOL    HW227759   3.244   7.864   4.514 -0.0030  0.5221 -0.9171
 8759SOL     OW27760   6.803   1.956   2.341 -0.5397 -0.2298 -0.1760
 8759SOL    HW127761   6.778   1.900   2.415  0.2577 -1.0917 -0.5519
 8759SOL    HW227762   6.893   1.931   2.321 -0.7859 -0.0885 -1.5204
 8760SOL     OW27763   5.599   4.004   4.006 -0.3760 -0.5230  0.2604
 8760SOL    HW127764   5.632   4.061   4.075 -0.5943 -0.0282 -0.0381
 8760SOL    HW227765   5.568   3.926   4.051 -0.8223 -0.0610  0.7569
 8761SOL     OW27766   7.600   2.112   7.909 -0.3370  0.0080 -0.0380
 8761SOL    HW127767   7.535   2.142   7.972 -0.5121  0.0536 -0.2433
 8761SOL    HW227768   7.551   2.059   7.846  0.0432 -1.0989  0.5836
 8762SOL     OW27769   6.426   4.709   1.499  0.1189 -0.0724 -0.0611
 8762SOL    HW127770   6.367   4.659   1.442  1.2102 -0.8786 -0.4909
 8762SOL    HW227771   6.427   4.797   1.460 -0.1229 -0.2814 -0.5545
 8763SOL     OW27772   3.076   6.394   2.707  0.2442 -0.2007  0.3898
 8763SOL    HW127773   3.055   6.343   2.630 -2.4451 -0.6976  1.4097
 8763SOL    HW227774   3.061   6.485   2.681  1.0630 -0.2216 -0.1813
 8764SOL     OW27775   1.970   3.539   2.886  0.1390  0.1302  0.3946
 8764SOL    HW127776   1.919   3.547   2.966  0.2936 -1.2720  0.6426
 8764SOL    HW227777   2.053   3.502   2.913  0.3122 -0.0625 -0.3780
 8765SOL     OW27778   5.773   3.980   4.320  0.2165 -0.3467 -0.3355
 8765SOL    HW127779   5.823   3.954   4.243  0.1622 -4.1956  0.8729
 8765SOL    HW227780   5.808   3.928   4.391 -1.7269  1.0154  1.7023
 8766SOL     OW27781   0.538   6.055   3.045 -0.8871  0.0201  0.0811
 8766SOL    HW127782   0.535   6.042   2.950  0.0770  0.7171 -0.0587
 8766SOL    HW227783   0.498   6.141   3.058 -0.3743  0.2376  0.2310
 8767SOL     OW27784   4.528   4.395   4.860  0.3296  0.2640 -0.3569
 8767SOL    HW127785   4.476   4.329   4.907  1.6264 -0.2894  0.3324
 8767SOL    HW227786   4.565   4.347   4.785 -0.6620  0.8190 -1.2218
 8768SOL     OW27787   6.758   3.222   7.269  0.3421  0.9583  0.2697
 8768SOL    HW127788   6.836   3.192   7.221 -0.3918 -2.0455  0.8452
 8768SOL    HW227789   6.785   3.218   7.361 -1.1546 -2.4159  0.6401
 8769SOL     OW27790   3.552   6.208   5.676  0.0020 -0.1146 -0.0068
 8769SOL    HW127791   3.562   6.298   5.646  0.6391 -0.2600 -0.2262
 8769SOL    HW227792   3.464   6.182   5.646 -0.8962  1.0183  1.5853
 8770SOL     OW27793   1.262   1.002   7.802 -0.5458 -0.0564  0.0554
 8770SOL    HW127794   1.184   0.961   7.840 -0.8762 -0.3270 -0.9083
 8770SOL    HW227795   1.234   1.090   7.780 -0.4385  0.0015  0.1492
 8771SOL     OW27796   6.751   5.758   4.824  0.2249  0.2426  0.0636
 8771SOL    HW127797   6.719   5.784   4.738  1.0192  0.6696 -0.1066
 8771SOL    HW227798   6.695   5.804   4.886 -0.9769 -0.8058 -0.2019
 8772SOL     OW27799   5.395   3.691   2.660  0.1606 -0.1688 -0.2612
 8772SOL    HW127800   5.345   3.622   2.704  1.2185 -0.5477  0.3806
 8772SOL    HW227801   5.403   3.760   2.725  0.5019 -0.1344 -0.3349
 8773SOL     OW27802   1.954   2.751   5.996  0.1860 -0.1798  0.1309
 8773SOL    HW127803   2.040   2.711   6.010 -0.2073 -1.8914 -1.9980
 8773SOL    HW227804   1.965   2.806   5.919 -0.5310 -0.0604  0.1078
 8774SOL     OW27805   0.266   1.686   5.088 -0.1686 -0.2217 -0.6307
 8774SOL    HW127806   0.265   1.774   5.126  1.0964  0.1515 -1.4341
 8774SOL    HW227807   0.317   1.633   5.149 -1.1927 -0.4860  0.0125
 8775SOL     OW27808   6.155   0.136   0.309  0.0500 -0.2226  0.0916
 8775SOL    HW127809   6.165   0.041   0.296  1.4502 -0.3116  1.5894
 8775SOL    HW227810   6.091   0.143   0.380 -0.4490 -0.0164 -0.3736
 8776SOL     OW27811   2.385   4.922   5.823  0.3311  0.1119  0.1398
 8776SOL    HW127812   2.334   4.877   5.755  0.3558  0.3185 -0.0131
 8776SOL    HW227813   2.400   5.009   5.788 -0.3320  0.4759  0.7493
 8777SOL     OW27814   3.420   1.533   6.518 -0.4418 -0.3741  0.2963
 8777SOL    HW127815   3.496   1.494   6.474  0.6658  2.5837 -0.5230
 8777SOL    HW227816   3.361   1.557   6.446 -0.4071  0.8458  0.6617
 8778SOL     OW27817   0.971   6.032   4.752  0.0043  0.1641  0.2489
 8778SOL    HW127818   1.045   6.035   4.813 -1.3408 -0.2644  1.9554
 8778SOL    HW227819   0.895   6.055   4.806 -1.2030 -0.1348 -1.2962
 8779SOL     OW27820   4.855   0.476   4.211  0.6093  0.4826 -0.0232
 8779SOL    HW127821   4.888   0.547   4.156  1.1501  0.5217  0.3388
 8779SOL    HW227822   4.909   0.400   4.187  1.1534  0.6126  0.7634
 8780SOL     OW27823   3.395   0.576   5.507 -0.0929  0.2277  0.0733
 8780SOL    HW127824   3.382   0.494   5.460  1.0712 -0.1765  0.4538
 8780SOL    HW227825   3.422   0.639   5.440 -0.2782  0.1220 -0.0997
 8781SOL     OW27826   6.070   4.250   7.117 -0.8849  0.1369 -0.1159
 8781SOL    HW127827   6.145   4.190   7.113 -0.5551  0.4168  1.5687
 8781SOL    HW227828   6.028   4.240   7.032  0.3712 -0.9270 -0.6448
 8782SOL     OW27829   8.001   4.418   4.973 -0.7089 -0.5420  0.2060
 8782SOL    HW127830   7.944   4.385   4.903  0.3951 -0.7006 -0.6281
 8782SOL    HW227831   7.994   4.513   4.967  1.4833 -0.4672 -1.9135
 8783SOL     OW27832   7.327   0.449   5.387  0.0711  0.1041 -0.3498
 8783SOL    HW127833   7.324   0.368   5.337  0.1649  1.0691 -1.9605
 8783SOL    HW227834   7.389   0.431   5.459 -1.9833 -2.0977  0.9254
 8784SOL     OW27835   7.059   4.133   1.258  0.1867  0.4138 -0.2981
 8784SOL    HW127836   6.989   4.182   1.301  0.4998 -0.1915  0.8995
 8784SOL    HW227837   7.059   4.166   1.168 -1.0977  0.9963 -0.0916
 8785SOL     OW27838   5.498   5.382   5.230 -0.2435  0.2050 -0.0494
 8785SOL    HW127839   5.511   5.434   5.309  1.1226 -0.8938  0.4719
 8785SOL    HW227840   5.551   5.426   5.163  0.3672 -0.1281  0.2149
 8786SOL     OW27841   6.764   4.903   5.528  0.2459 -0.2075  0.1221
 8786SOL    HW127842   6.770   4.855   5.611 -0.1822  0.7044  0.6980
 8786SOL    HW227843   6.854   4.905   5.495  0.2688 -1.3865  0.0957
 8787SOL     OW27844   3.598   3.309   6.534 -0.2579  0.2157 -0.6538
 8787SOL    HW127845   3.554   3.224   6.539  1.4760 -0.7243 -1.1256
 8787SOL    HW227846   3.641   3.310   6.449  0.3022  1.2850 -0.3743
 8788SOL     OW27847   7.415   1.577   0.744 -0.5766 -0.0448 -0.1706
 8788SOL    HW127848   7.348   1.629   0.701  0.6147 -0.0517 -2.0710
 8788SOL    HW227849   7.485   1.569   0.679  0.1550 -2.2125  0.8419
 8789SOL     OW27850   4.046   6.845   4.463  0.0702 -0.4837 -0.5977
 8789SOL    HW127851   4.140   6.825   4.465  0.5957  1.5482 -2.7331
 8789SOL    HW227852   4.009   6.775   4.409  0.3458 -1.2791  0.2327
 8790SOL     OW27853   5.980   5.224   6.958  0.5403  0.6685 -0.3847
 8790SOL    HW127854   6.018   5.311   6.959  0.7936  0.5517  0.3309
 8790SOL    HW227855   5.892   5.236   6.995  0.5356  0.6386 -0.3860
 8791SOL     OW27856   5.897   2.834   0.908  0.0980 -0.2003  0.2542
 8791SOL    HW127857   5.988   2.821   0.883  0.5336  0.8854  1.2127
 8791SOL    HW227858   5.857   2.880   0.835  0.3451 -0.5578 -0.1075
 8792SOL     OW27859   4.601   7.750   2.790  0.2409 -0.1949  0.3078
 8792SOL    HW127860   4.686   7.795   2.788  0.2219 -0.1192  1.0553
 8792SOL    HW227861   4.588   7.728   2.882 -1.0982  0.8204  0.3834
 8793SOL     OW27862   3.959   3.201   6.824  0.0709 -0.4225  0.4601
 8793SOL    HW127863   3.935   3.183   6.914  1.0223 -0.1995  0.7646
 8793SOL    HW227864   3.979   3.295   6.823  0.9341 -0.6041  0.2210
 8794SOL     OW27865   4.427   0.393   3.510  1.1507 -0.0744  0.0355
 8794SOL    HW127866   4.421   0.463   3.445  1.4729  0.0578  0.1504
 8794SOL    HW227867   4.502   0.416   3.565  0.7646 -0.0832  0.5737
 8795SOL     OW27868   6.582   0.438   3.010 -0.2945  0.5829  0.2253
 8795SOL    HW127869   6.516   0.501   2.983 -0.0436  1.1581  0.9368
 8795SOL    HW227870   6.627   0.480   3.083 -0.5334 -0.6789  1.1096
 8796SOL     OW27871   0.128   0.319   7.149  0.1558  0.3462  0.0846
 8796SOL    HW127872   0.098   0.289   7.064 -0.6148  0.4616  0.3117
 8796SOL    HW227873   0.201   0.261   7.171 -0.7422 -0.7849  0.1153
 8797SOL     OW27874   3.563   1.128   0.223  0.7110  0.2153  0.1886
 8797SOL    HW127875   3.490   1.067   0.228  1.8024 -1.6300 -3.9466
 8797SOL    HW227876   3.628   1.091   0.284 -0.1219 -0.5665  0.6294
 8798SOL     OW27877   7.746   6.500   7.062 -0.1171 -0.2750  0.0255
 8798SOL    HW127878   7.753   6.575   7.003  0.5671  0.3342  0.8768
 8798SOL    HW227879   7.790   6.528   7.142 -0.5665 -1.2953  0.6361
 8799SOL     OW27880   1.574   0.746   6.297  0.0852  0.3094 -0.5160
 8799SOL    HW127881   1.547   0.788   6.378 -1.0915 -0.3160 -0.5706
 8799SOL    HW227882   1.567   0.652   6.314  1.1036  0.1485 -0.9237
 8800SOL     OW27883   0.704   6.803   4.375  0.3654 -0.1265  0.3750
 8800SOL    HW127884   0.724   6.709   4.379  2.1528  0.2094 -0.0748
 8800SOL    HW227885   0.717   6.834   4.464 -1.8705 -0.5940  0.8965
 8801SOL     OW27886   8.016   1.529   4.139  0.4343  0.2728  0.1234
 8801SOL    HW127887   7.982   1.482   4.215  1.3384  0.6816  0.7853
 8801SOL    HW227888   8.051   1.611   4.175 -0.6721  1.2399 -0.9444
 8802SOL     OW27889   4.541   0.399   5.539  0.2400  0.6115 -0.1967
 8802SOL    HW127890   4.467   0.421   5.595  0.0271  1.2935 -0.7335
 8802SOL    HW227891   4.605   0.469   5.555  0.6254  0.2080  0.0170
 8803SOL     OW27892   0.154   0.587   5.487 -0.9567 -0.2128  0.5346
 8803SOL    HW127893   0.138   0.522   5.418 -0.2623 -0.1341  0.2931
 8803SOL    HW227894   0.117   0.548   5.566 -1.8003 -0.2892  0.1060
 8804SOL     OW27895   5.786   2.175   3.381  0.2119 -0.2788  0.2234
 8804SOL    HW127896   5.869   2.172   3.428 -0.5694  0.3418  1.6475
 8804SOL    HW227897   5.756   2.266   3.390 -0.5898 -0.4763 -0.3612
 8805SOL     OW27898   2.525   2.055   8.133 -0.6075 -0.0026  0.7386
 8805SOL    HW127899   2.472   1.975   8.137  0.0868 -0.4590  0.8711
 8805SOL    HW227900   2.604   2.034   8.182  1.3642 -0.5910 -2.5265
 8806SOL     OW27901   2.252   3.344   7.708 -0.4403  0.1739 -0.5878
 8806SOL    HW127902   2.181   3.314   7.765  0.6477 -0.1750  0.6132
 8806SOL    HW227903   2.241   3.439   7.706  0.3844  0.3337  1.4160
 8807SOL     OW27904   5.696   6.932   2.232 -0.1162 -0.2565  0.2189
 8807SOL    HW127905   5.647   6.942   2.150 -1.8178 -1.8538  1.0204
 8807SOL    HW227906   5.764   7.000   2.227 -1.7757  1.3552 -1.3678
 8808SOL     OW27907   6.691   0.888   1.654 -0.0704  0.1841  0.4936
 8808SOL    HW127908   6.682   0.800   1.618  1.9742 -0.6823  1.9699
 8808SOL    HW227909   6.712   0.874   1.746 -0.1920  2.2350  0.8622
 8809SOL     OW27910   3.283   7.363   2.420  0.3332 -0.6059  0.1878
 8809SOL    HW127911   3.237   7.321   2.493 -1.5277 -0.2693 -0.7776
 8809SOL    HW227912   3.214   7.400   2.365  1.8564  2.6869  0.3581
 8810SOL     OW27913   7.619   8.021   3.807  0.3999 -0.6269  0.0714
 8810SOL    HW127914   7.550   8.010   3.872  0.6717 -1.3254  0.2472
 8810SOL    HW227915   7.679   8.085   3.845  1.0345 -1.6971  0.9105
 8811SOL     OW27916   5.717   2.440   4.413  0.0383  0.0911  0.0488
 8811SOL    HW127917   5.650   2.480   4.468  1.5481  0.2781  1.8281
 8811SOL    HW227918   5.771   2.514   4.384 -0.4288 -0.0721 -1.2582
 8812SOL     OW27919   1.243   4.456   6.317 -0.1369  0.0488  0.1150
 8812SOL    HW127920   1.336   4.471   6.298  0.2802  0.5906  2.3642
 8812SOL    HW227921   1.244   4.401   6.396 -1.7367 -1.7672 -1.0880
 8813SOL     OW27922   6.384   6.405   0.210 -0.7423  0.4523  0.1631
 8813SOL    HW127923   6.411   6.496   0.194 -0.4145  0.3004 -0.1417
 8813SOL    HW227924   6.333   6.382   0.132 -1.3000  0.5596  0.4923
 8814SOL     OW27925   6.207   7.424   1.894  0.3184 -0.1892  0.0191
 8814SOL    HW127926   6.184   7.335   1.867 -0.8512 -0.1509  0.8775
 8814SOL    HW227927   6.239   7.414   1.983  0.7319  0.1854 -0.0858
 8815SOL     OW27928   4.779   3.931   3.004  0.2264 -0.6262  0.2443
 8815SOL    HW127929   4.747   4.013   2.965 -0.1028  0.1801  2.1731
 8815SOL    HW227930   4.844   3.959   3.068  1.4384 -1.9961 -0.3575
 8816SOL     OW27931   0.681   3.898   5.866 -0.0311  0.1589  0.1083
 8816SOL    HW127932   0.596   3.870   5.900 -0.4868 -1.1201 -1.9494
 8816SOL    HW227933   0.709   3.968   5.924 -2.4349  0.5088  0.8906
 8817SOL     OW27934   6.592   5.493   6.182  0.1188  0.5842 -0.3004
 8817SOL    HW127935   6.532   5.525   6.115  0.3655  0.1087 -0.7426
 8817SOL    HW227936   6.572   5.548   6.259 -0.6768  0.6280 -0.5274
 8818SOL     OW27937   2.719   5.750   2.940 -0.6335  0.1833  0.2317
 8818SOL    HW127938   2.707   5.727   2.848  0.9600  1.3579 -0.2818
 8818SOL    HW227939   2.791   5.812   2.941 -0.7492  0.3395  2.2650
 8819SOL     OW27940   2.401   0.393   3.283  0.2882  0.4004  0.0646
 8819SOL    HW127941   2.327   0.434   3.327  1.0537  0.5939  1.2049
 8819SOL    HW227942   2.400   0.429   3.194 -0.5028  1.0110  0.3235
 8820SOL     OW27943   1.317   0.439   0.382 -0.3182  0.1636  0.1070
 8820SOL    HW127944   1.280   0.461   0.297  0.0916  2.3804  0.4732
 8820SOL    HW227945   1.405   0.475   0.380  0.0009 -0.5422  1.1398
 8821SOL     OW27946   8.086   2.138   5.568  0.2909  0.4001  0.5065
 8821SOL    HW127947   8.013   2.140   5.506  0.2332  0.7434  0.5819
 8821SOL    HW227948   8.071   2.060   5.621  1.6187 -1.1966 -1.4334
 8822SOL     OW27949   3.476   1.327   7.564 -0.2393 -0.1907  0.3558
 8822SOL    HW127950   3.426   1.388   7.510  0.9023 -0.3472 -0.9046
 8822SOL    HW227951   3.530   1.383   7.621 -1.0585 -0.0293  0.9812
 8823SOL     OW27952   8.168   2.913   7.102 -0.0482 -0.2861  0.0967
 8823SOL    HW127953   8.217   2.838   7.136 -1.0039 -1.1976 -0.5218
 8823SOL    HW227954   8.078   2.897   7.130 -0.4392  0.0946 -0.9535
 8824SOL     OW27955   6.130   2.337   7.543  0.6935  0.1923 -0.4344
 8824SOL    HW127956   6.092   2.395   7.608  0.5289  0.6410 -0.9300
 8824SOL    HW227957   6.077   2.258   7.547  0.2611  0.4787 -0.4992
 8825SOL     OW27958   5.628   1.526   6.030 -0.4267 -0.0384  0.2008
 8825SOL    HW127959   5.616   1.564   5.943 -0.1523  1.3221  0.7471
 8825SOL    HW227960   5.694   1.581   6.072  0.6959 -1.7018  0.6820
 8826SOL     OW27961   3.802   3.738   2.379 -0.0239 -0.0768 -0.3120
 8826SOL    HW127962   3.878   3.680   2.374 -1.5450 -2.1992  0.5644
 8826SOL    HW227963   3.770   3.728   2.469 -1.2315  0.9156 -0.6147
 8827SOL     OW27964   4.693   2.223   0.561 -0.3548  0.0626  0.4825
 8827SOL    HW127965   4.626   2.190   0.501  0.4721  0.1333 -0.5022
 8827SOL    HW227966   4.757   2.265   0.504 -0.2205  1.3299  1.5319
 8828SOL     OW27967   2.932   5.209   4.935 -0.0778  0.0156  0.0731
 8828SOL    HW127968   2.970   5.274   4.877  0.2150  0.2608  0.5392
 8828SOL    HW227969   2.998   5.140   4.941  0.1206  0.2471  0.5508
 8829SOL     OW27970   2.260   4.782   5.636  0.5872 -0.4369  0.1817
 8829SOL    HW127971   2.202   4.808   5.564  0.6366  1.0420  0.6771
 8829SOL    HW227972   2.217   4.704   5.673 -1.3985  0.9530  0.8920
 8830SOL     OW27973   0.961   1.406   2.635 -0.3301  0.4806  0.4387
 8830SOL    HW127974   0.956   1.348   2.711  3.2283  1.0330  1.1965
 8830SOL    HW227975   0.905   1.365   2.569 -0.3188 -2.1393  1.9928
 8831SOL     OW27976   6.597   4.479   2.457  0.4170  0.2512  0.5151
 8831SOL    HW127977   6.609   4.551   2.520 -1.5911  0.6652  0.4495
 8831SOL    HW227978   6.518   4.434   2.487  2.3719 -2.7904  1.3537
 8832SOL     OW27979   8.229   6.622   3.142 -0.3003 -0.1064  0.1204
 8832SOL    HW127980   8.296   6.577   3.192 -0.1338  0.7271  0.6615
 8832SOL    HW227981   8.147   6.582   3.170 -0.0648 -0.8423 -0.2383
 8833SOL     OW27982   5.269   5.790   1.409 -0.6107  0.2619  0.5936
 8833SOL    HW127983   5.199   5.828   1.356  0.0694 -1.1442 -1.4041
 8833SOL    HW227984   5.225   5.745   1.480 -1.6573  0.5677  0.1377
 8834SOL     OW27985   7.906   1.135   4.762  0.0770 -0.1347 -0.6360
 8834SOL    HW127986   7.937   1.139   4.671  0.1542 -0.2263 -0.6141
 8834SOL    HW227987   7.840   1.205   4.768  1.9924  1.6690 -0.0260
 8835SOL     OW27988   0.510   6.903   6.928 -0.3805  0.2591 -0.0853
 8835SOL    HW127989   0.470   6.943   7.006 -2.6988 -0.0055 -1.1147
 8835SOL    HW227990   0.561   6.974   6.888 -1.8147  1.3040 -0.1004
 8836SOL     OW27991   4.363   5.241   0.709 -0.1946 -0.0288 -0.4165
 8836SOL    HW127992   4.450   5.208   0.733 -0.0117 -0.1675 -1.2324
 8836SOL    HW227993   4.381   5.305   0.640 -0.8292 -0.9152 -1.4177
 8837SOL     OW27994   4.593   5.829   1.346 -0.3404  0.9800  0.1568
 8837SOL    HW127995   4.656   5.893   1.379 -0.6954  1.2390  0.3312
 8837SOL    HW227996   4.508   5.871   1.357 -0.4165  1.3337 -1.7198
 8838SOL     OW27997   0.593   3.802   4.397  0.4726 -0.1466  0.1540
 8838SOL    HW127998   0.591   3.864   4.470  1.3584 -0.2928  0.3162
 8838SOL    HW227999   0.535   3.841   4.332 -2.6407 -1.4848  2.0484
 8839SOL     OW28000   1.005   6.578   5.891  0.0788 -0.8897 -0.2601
 8839SOL    HW128001   1.097   6.564   5.870  0.6617  3.5215 -1.0286
 8839SOL    HW228002   0.958   6.519   5.833  2.3344 -1.7181 -1.2944
 8840SOL     OW28003   3.733   5.603   2.252  0.4247 -0.0876 -0.4298
 8840SOL    HW128004   3.796   5.651   2.199 -0.8628  1.0252 -0.9893
 8840SOL    HW228005   3.698   5.536   2.193 -1.2598  1.3686 -1.1584
 8841SOL     OW28006   7.599   7.064   6.462 -0.9503 -0.2049 -0.2648
 8841SOL    HW128007   7.607   6.974   6.494  3.4868 -0.1177 -0.7960
 8841SOL    HW228008   7.542   7.107   6.525  0.2580 -2.3275  2.3989
 8842SOL     OW28009   0.210   6.336   0.021 -0.6186 -0.4767  0.5432
 8842SOL    HW128010   0.257   6.349  -0.062 -2.1962 -0.5710 -0.3735
 8842SOL    HW228011   0.255   6.393   0.083  0.1307  0.1320 -0.5470
 8843SOL     OW28012   6.519   6.463   1.300 -0.0140 -0.7485  0.1945
 8843SOL    HW128013   6.614   6.466   1.315  0.0144 -1.0315  0.0702
 8843SOL    HW228014   6.482   6.508   1.375  0.1646 -1.5933  0.7912
 8844SOL     OW28015   1.330   0.323   0.033  0.8685 -0.5327 -0.2719
 8844SOL    HW128016   1.315   0.361  -0.054 -0.0484  1.5289  0.7433
 8844SOL    HW228017   1.262   0.257   0.042  0.4237 -0.1490 -0.7780
 8845SOL     OW28018   0.295   6.245   6.271  0.0293  0.2147  0.1685
 8845SOL    HW128019   0.389   6.262   6.276 -0.3004  1.7423  1.5698
 8845SOL    HW228020   0.268   6.283   6.187  0.2203  2.1063  0.9395
 8846SOL     OW28021   7.697   2.235   6.200  0.3936 -0.0528 -0.3977
 8846SOL    HW128022   7.743   2.162   6.160  0.7096  0.1837 -0.4686
 8846SOL    HW228023   7.766   2.296   6.225  0.2139 -0.2635  0.6394
 8847SOL     OW28024   5.140   1.430   1.252 -0.0551 -0.0746 -0.3855
 8847SOL    HW128025   5.214   1.369   1.259  1.3948  1.8885  2.3617
 8847SOL    HW228026   5.179   1.513   1.227 -2.0101 -0.1424 -3.9610
 8848SOL     OW28027   4.997   0.083   3.264  0.4590 -0.0385 -0.0498
 8848SOL    HW128028   4.917   0.127   3.233 -0.1456  0.5671  2.2709
 8848SOL    HW228029   5.066   0.148   3.254  0.5890 -0.3760 -1.5354
 8849SOL     OW28030   3.386   5.768   5.908  0.2802 -0.8408  0.2582
 8849SOL    HW128031   3.358   5.783   5.817  0.8552 -0.6899  0.1043
 8849SOL    HW228032   3.435   5.847   5.931  1.0293 -1.3277  0.3509
 8850SOL     OW28033   1.761   0.167   0.881 -0.5567 -0.2035 -0.0186
 8850SOL    HW128034   1.688   0.110   0.905 -0.2868 -0.2299  0.7554
 8850SOL    HW228035   1.721   0.254   0.871 -0.6615 -0.1671  0.6596
 8851SOL     OW28036   4.871   6.675   5.277  0.1891 -0.1598  0.3844
 8851SOL    HW128037   4.923   6.638   5.205  1.3805  0.4675  0.9123
 8851SOL    HW228038   4.891   6.768   5.277  0.2641 -0.1622  1.5837
 8852SOL     OW28039   5.371   3.501   5.968  0.5380 -0.8225 -0.1375
 8852SOL    HW128040   5.300   3.540   6.019 -0.2223 -0.9860 -1.0529
 8852SOL    HW228041   5.420   3.576   5.935  0.4508 -0.6942  0.0199
 8853SOL     OW28042   5.639   0.452   7.724 -0.0443  0.0472 -0.0730
 8853SOL    HW128043   5.579   0.390   7.681  0.2000 -0.7945  0.7790
 8853SOL    HW228044   5.717   0.451   7.668 -0.3016  0.0996 -0.4357
 8854SOL     OW28045   1.182   1.877   3.263 -0.5609  0.1108  0.3464
 8854SOL    HW128046   1.129   1.931   3.205 -0.1154  0.8177  0.5926
 8854SOL    HW228047   1.119   1.834   3.320 -0.8493  1.3139  0.9569
 8855SOL     OW28048   6.879   0.369   0.305  0.0793  0.3731  0.1231
 8855SOL    HW128049   6.968   0.336   0.318  0.0881 -1.2991 -3.5841
 8855SOL    HW228050   6.886   0.428   0.230 -1.8171  0.7831  0.2343
 8856SOL     OW28051   8.149   0.946   4.650 -0.0332 -0.1263 -0.2718
 8856SOL    HW128052   8.065   0.904   4.666 -1.0465  1.0840 -2.1764
 8856SOL    HW228053   8.133   1.039   4.666  1.4621 -0.1050  1.2237
 8857SOL     OW28054   5.083   2.308   1.562 -0.2956  0.0096  0.3307
 8857SOL    HW128055   5.102   2.225   1.519  1.9530 -0.3652  1.9019
 8857SOL    HW228056   5.093   2.374   1.493 -0.9029 -0.9086 -0.6493
 8858SOL     OW28057   8.282   2.785   8.070  0.1909  0.3868  0.0858
 8858SOL    HW128058   8.293   2.830   7.986 -0.3953 -0.2294 -0.3209
 8858SOL    HW228059   8.320   2.845   8.134  0.4789  0.9410 -0.5988
 8859SOL     OW28060   0.609   6.885   3.489 -0.5196 -0.9877 -0.6779
 8859SOL    HW128061   0.544   6.818   3.508 -0.7764 -0.5279  0.0895
 8859SOL    HW228062   0.570   6.937   3.418 -0.3707 -1.5617 -1.1913
 8860SOL     OW28063   0.057   5.244   2.565 -0.0727  0.4549  0.4009
 8860SOL    HW128064  -0.023   5.265   2.613 -0.2557  2.4076 -0.7067
 8860SOL    HW228065   0.120   5.310   2.594  0.6437 -0.0842  0.0606
 8861SOL     OW28066   0.585   3.407   0.455  0.0647  0.2254 -0.7754
 8861SOL    HW128067   0.584   3.315   0.482  1.1425  0.1281 -1.0547
 8861SOL    HW228068   0.518   3.413   0.387 -1.9007  0.2316  1.0871
 8862SOL     OW28069   5.374   0.959   8.272  0.5359 -0.9038 -0.0369
 8862SOL    HW128070   5.432   0.897   8.228 -1.4289 -1.8414 -1.3766
 8862SOL    HW228071   5.365   0.925   8.361 -0.2841 -2.4090 -0.6754
 8863SOL     OW28072   5.936   0.115   0.564  0.2003  0.1072 -0.7604
 8863SOL    HW128073   5.914   0.122   0.657 -0.4540  0.8422 -0.9553
 8863SOL    HW228074   5.887   0.039   0.533  1.6800 -1.1076 -0.1639
 8864SOL     OW28075   4.284   4.347   0.543 -0.1080  0.5070 -0.1478
 8864SOL    HW128076   4.280   4.331   0.637 -1.9545 -1.4006 -0.5103
 8864SOL    HW228077   4.373   4.321   0.518  0.0593  0.0429  0.9106
 8865SOL     OW28078   5.101   8.301   2.767 -0.1665 -0.1926 -0.1846
 8865SOL    HW128079   5.098   8.372   2.831 -1.1355 -0.8756  0.5328
 8865SOL    HW228080   5.189   8.307   2.729  0.3295  0.3709  1.0298
 8866SOL     OW28081   0.308   4.020   5.505  0.2408  0.0134 -0.3410
 8866SOL    HW128082   0.400   4.020   5.532  0.5340  0.4008 -1.3234
 8866SOL    HW228083   0.283   4.112   5.504  0.2675  0.0190 -1.4649
 8867SOL     OW28084   4.340   3.228   4.089 -0.3045  0.1467 -0.1148
 8867SOL    HW128085   4.282   3.190   4.155 -2.4586  2.7740 -0.3786
 8867SOL    HW228086   4.412   3.266   4.138 -1.0041  0.5512  0.6116
 8868SOL     OW28087   7.398   3.276   6.751 -0.0994  0.2524 -0.6008
 8868SOL    HW128088   7.487   3.286   6.717  0.1887 -0.1905 -0.0045
 8868SOL    HW228089   7.343   3.329   6.693  0.5793  0.6661 -0.8687
 8869SOL     OW28090   2.112   1.986   2.803 -0.0915 -0.2003 -0.4861
 8869SOL    HW128091   2.107   1.919   2.870  0.2327 -0.9009 -1.1599
 8869SOL    HW228092   2.061   1.951   2.730 -0.8095  0.7421 -0.4546
 8870SOL     OW28093   1.910   6.871   5.636 -0.0400 -0.3996 -0.3772
 8870SOL    HW128094   1.930   6.962   5.657  0.7036 -0.6592  0.0655
 8870SOL    HW228095   1.990   6.838   5.594 -0.7676 -0.4812 -1.7312
 8871SOL     OW28096   6.327   5.847   2.726 -0.2441 -0.2453 -0.2366
 8871SOL    HW128097   6.386   5.781   2.689  1.1365  0.4003  0.7594
 8871SOL    HW228098   6.290   5.891   2.650 -0.9832 -1.9630 -0.9114
 8872SOL     OW28099   2.071   7.839   2.170 -0.6401  0.1817 -0.4781
 8872SOL    HW128100   2.000   7.898   2.194 -0.7768 -0.3555  0.4640
 8872SOL    HW228101   2.067   7.769   2.235  1.9663  1.1295  0.7703
 8873SOL     OW28102   3.399   3.389   0.330 -0.0568 -0.2351  0.7809
 8873SOL    HW128103   3.326   3.445   0.354 -0.4127 -1.1422  1.8751
 8873SOL    HW228104   3.448   3.377   0.411 -0.4291 -2.1260  0.7495
 8874SOL     OW28105   6.659   7.800   1.038  0.4589 -0.6289  0.3686
 8874SOL    HW128106   6.664   7.891   1.066  4.0194 -0.1539 -1.6039
 8874SOL    HW228107   6.656   7.804   0.943  0.5687 -2.5872  0.2536
 8875SOL     OW28108   4.102   1.425   7.368 -0.3776 -0.8607  0.3787
 8875SOL    HW128109   4.030   1.373   7.404 -0.8062 -0.0486  0.7028
 8875SOL    HW228110   4.167   1.360   7.341 -1.0521 -1.5830  0.4651
 8876SOL     OW28111   4.376   1.727   4.098  0.7011  0.0103 -0.3676
 8876SOL    HW128112   4.429   1.796   4.137 -2.7253  2.2415  0.4224
 8876SOL    HW228113   4.352   1.670   4.171 -0.0930  0.3973 -0.3309
 8877SOL     OW28114   4.662   7.210   1.377 -0.1782 -0.7990  0.3775
 8877SOL    HW128115   4.693   7.119   1.375  2.1084 -0.0695  0.9640
 8877SOL    HW228116   4.730   7.259   1.331 -1.5867  0.5742 -0.2447
 8878SOL     OW28117   3.839   5.436   1.770 -0.0533 -0.2295 -0.4210
 8878SOL    HW128118   3.803   5.349   1.789 -0.6913  0.6989  3.1174
 8878SOL    HW228119   3.776   5.475   1.710 -0.1517 -1.9220 -1.4510
 8879SOL     OW28120   8.287   3.782   2.502  0.0932  0.4541  0.7417
 8879SOL    HW128121   8.294   3.833   2.583 -0.4699  1.2802  0.2772
 8879SOL    HW228122   8.378   3.769   2.474  0.3586 -0.9712  2.1917
 8880SOL     OW28123   3.422   1.398   3.623 -0.1506 -0.6481 -0.4090
 8880SOL    HW128124   3.393   1.437   3.541 -2.3075  0.0654  0.6624
 8880SOL    HW228125   3.518   1.393   3.614 -0.2995 -0.0538 -2.7121
 8881SOL     OW28126   2.620   1.858   0.915  0.1468 -0.2862  0.5299
 8881SOL    HW128127   2.596   1.916   0.844  0.5511  0.6030  1.1091
 8881SOL    HW228128   2.549   1.867   0.979  0.7838  0.4537  1.1350
 8882SOL     OW28129   4.626   4.517   5.883  0.3913 -0.0786 -0.0174
 8882SOL    HW128130   4.693   4.586   5.890  0.1706  0.0548  0.8581
 8882SOL    HW228131   4.551   4.560   5.843  0.6350 -0.0812 -0.4732
 8883SOL     OW28132   2.645   3.332   6.074  0.2659 -0.0191 -0.2622
 8883SOL    HW128133   2.676   3.298   5.990 -1.8290  0.2467 -1.1846
 8883SOL    HW228134   2.612   3.420   6.054 -0.6564 -0.1213  0.7529
 8884SOL     OW28135   3.905   1.399   1.256 -0.6070 -0.4269  0.6827
 8884SOL    HW128136   3.904   1.490   1.286  3.2108 -0.2417  0.4842
 8884SOL    HW228137   3.889   1.404   1.162 -2.7231 -0.1794  1.0427
 8885SOL     OW28138   0.409   1.001   0.806 -0.0096 -0.8079 -0.1815
 8885SOL    HW128139   0.487   1.017   0.858  0.3204 -1.4109 -0.4895
 8885SOL    HW228140   0.339   0.990   0.870  0.4982 -2.1299  0.1622
 8886SOL     OW28141   4.575   3.276   6.388  0.3633 -0.3800  0.5592
 8886SOL    HW128142   4.644   3.219   6.353 -0.2299 -0.7244 -0.0644
 8886SOL    HW228143   4.587   3.273   6.483  1.2762 -0.3468  0.4451
 8887SOL     OW28144   3.715   4.441   7.552  0.3937 -0.3778  0.2833
 8887SOL    HW128145   3.693   4.398   7.635 -0.7171  1.1359  0.7932
 8887SOL    HW228146   3.684   4.531   7.563  2.5889  0.5332 -0.8035
 8888SOL     OW28147   3.837   4.872   5.731 -0.3920  0.1305 -0.5240
 8888SOL    HW128148   3.906   4.934   5.709 -0.1033  0.6340  1.6875
 8888SOL    HW228149   3.771   4.924   5.775 -1.5392 -0.6180 -1.3281
 8889SOL     OW28150   2.987   8.183   6.815  0.3480 -0.1010  0.4450
 8889SOL    HW128151   3.038   8.195   6.895  0.4989 -1.9206  0.6309
 8889SOL    HW228152   2.931   8.108   6.833  0.9732 -1.0479 -1.4707
 8890SOL     OW28153   1.228   2.800   4.011  0.4665  0.0447  0.5364
 8890SOL    HW128154   1.263   2.872   3.959  0.8430  0.1946  0.9906
 8890SOL    HW228155   1.133   2.808   4.002  0.5320 -0.2386 -0.5308
 8891SOL     OW28156   0.390   7.159   3.413  0.0893  0.3103 -0.2381
 8891SOL    HW128157   0.334   7.197   3.345  0.3798  1.1186 -0.0300
 8891SOL    HW228158   0.451   7.103   3.365  0.8133  1.5080 -0.7249
 8892SOL     OW28159   7.662   5.978   0.191 -0.0298  0.6934 -0.3200
 8892SOL    HW128160   7.691   5.941   0.107  1.0679 -1.2671  0.8849
 8892SOL    HW228161   7.584   5.928   0.214  0.0489  0.7889  0.1528
 8893SOL     OW28162   0.239   5.826   6.003  0.0298  0.2265 -0.4422
 8893SOL    HW128163   0.151   5.828   6.040 -0.1423  2.5220 -0.9022
 8893SOL    HW228164   0.295   5.796   6.075 -0.9443  0.0266  0.2340
 8894SOL     OW28165   3.794   6.002   4.387  0.0372 -0.0957  0.0093
 8894SOL    HW128166   3.719   5.952   4.356 -1.9078  1.6599  1.7720
 8894SOL    HW228167   3.834   5.946   4.454  0.1526 -0.8956 -0.7119
 8895SOL     OW28168   7.387   3.879   3.311 -0.1368  0.0600 -0.2806
 8895SOL    HW128169   7.351   3.823   3.242  0.6998  1.1257 -1.6181
 8895SOL    HW228170   7.311   3.925   3.347 -0.6371 -0.8457 -0.1818
 8896SOL     OW28171   3.929   0.624   6.883 -0.2084  0.1520  0.5759
 8896SOL    HW128172   3.857   0.687   6.880  1.2688  1.8473  0.0384
 8896SOL    HW228173   3.917   0.571   6.804 -1.2947 -0.0892  0.8867
 8897SOL     OW28174   4.311   2.040   6.946  0.2736  0.1196  0.2149
 8897SOL    HW128175   4.241   2.009   7.003  1.5874  0.2213  1.9411
 8897SOL    HW228176   4.355   1.961   6.916 -0.2995  0.0737 -0.5099
 8898SOL     OW28177   0.134   1.487   7.988 -0.5242  0.5432 -0.4088
 8898SOL    HW128178   0.064   1.535   8.033 -1.9040 -0.4120 -1.5339
 8898SOL    HW228179   0.135   1.401   8.029 -0.1363  0.4802 -0.5435
 8899SOL     OW28180   1.039   4.028   1.888  0.1743 -0.3457  0.3741
 8899SOL    HW128181   1.080   4.059   1.969  1.0514  3.8792 -1.5583
 8899SOL    HW228182   0.946   4.022   1.909  0.8162 -3.4991  2.8312
 8900SOL     OW28183   2.257   6.725   5.323  0.6176 -0.1296  0.4459
 8900SOL    HW128184   2.172   6.729   5.279 -0.2353  0.6231  2.1552
 8900SOL    HW228185   2.294   6.641   5.294 -1.1051 -0.9137  0.4305
 8901SOL     OW28186   5.543   7.947   6.748  0.0987  0.0188 -0.5421
 8901SOL    HW128187   5.605   8.008   6.788  0.2147  0.2761 -1.1171
 8901SOL    HW228188   5.504   7.996   6.676  0.0773 -0.5340 -0.9070
 8902SOL     OW28189   7.764   6.855   0.064 -0.4285  0.6417  0.5869
 8902SOL    HW128190   7.860   6.860   0.066 -0.3243  0.3951 -2.1163
 8902SOL    HW228191   7.736   6.913   0.135  1.7086  0.6468  1.4709
 8903SOL     OW28192   4.960   4.848   4.087  0.3002  0.4391 -0.0919
 8903SOL    HW128193   4.996   4.832   4.175 -0.9767  0.2262  0.4079
 8903SOL    HW228194   4.887   4.786   4.080  0.0311  0.8658 -1.0756
 8904SOL     OW28195   6.624   1.760   2.138 -0.8526  0.4697  0.8570
 8904SOL    HW128196   6.676   1.831   2.100 -0.5069 -0.1701  0.1107
 8904SOL    HW228197   6.596   1.709   2.062 -0.5562 -0.5655  1.4437
 8905SOL     OW28198   6.386   7.382   3.173 -0.2107 -0.9656  0.1282
 8905SOL    HW128199   6.357   7.315   3.112 -1.7230 -1.9806  1.9160
 8905SOL    HW228200   6.476   7.402   3.146 -0.6554 -1.7604 -2.0671
 8906SOL     OW28201   0.504   6.194   0.238  0.2798 -0.1662  0.0208
 8906SOL    HW128202   0.447   6.129   0.279  1.3121 -0.6380  0.7338
 8906SOL    HW228203   0.553   6.145   0.173 -1.3755  0.5892 -1.8533
 8907SOL     OW28204   6.165   0.907   6.674  0.1075  0.4678  0.3000
 8907SOL    HW128205   6.113   0.909   6.754  1.3453  1.6840  1.1014
 8907SOL    HW228206   6.255   0.894   6.705  0.3128 -1.6496 -1.0470
 8908SOL     OW28207   7.809   8.291   6.120  0.7220 -0.3906  0.1327
 8908SOL    HW128208   7.895   8.299   6.160  0.6653  0.1518  0.1494
 8908SOL    HW228209   7.821   8.325   6.031  0.7640 -1.2533 -0.1980
 8909SOL     OW28210   4.242   3.304   8.031 -0.0732 -0.3243  0.2659
 8909SOL    HW128211   4.234   3.346   8.117 -1.6700 -0.3777  0.1468
 8909SOL    HW228212   4.227   3.211   8.049 -0.2809 -0.3531 -0.0585
 8910SOL     OW28213   2.156   0.807   0.781  0.0371  0.4718  0.1201
 8910SOL    HW128214   2.066   0.794   0.750 -0.0003  0.1616  0.3560
 8910SOL    HW228215   2.210   0.795   0.703 -0.1529  1.0531 -0.1028
 8911SOL     OW28216   1.418   0.162   1.867 -0.4906  0.0552 -0.0385
 8911SOL    HW128217   1.387   0.134   1.781 -0.3786  1.1472 -0.4433
 8911SOL    HW228218   1.407   0.257   1.867 -1.1450 -0.0019  1.4147
 8912SOL     OW28219   6.345   3.400   0.301  0.1786 -0.1334  0.7887
 8912SOL    HW128220   6.316   3.371   0.215 -0.2478 -0.9902  1.2197
 8912SOL    HW228221   6.363   3.494   0.289 -0.8988 -0.0048  0.0356
 8913SOL     OW28222   3.775   6.960   4.131 -0.2648  0.2566 -0.2692
 8913SOL    HW128223   3.854   6.997   4.170  2.1957 -2.5285 -2.3699
 8913SOL    HW228224   3.729   6.920   4.204  0.5146  1.4746  0.9172
 8914SOL     OW28225   6.032   1.629   4.243  0.4957  0.2325  0.0188
 8914SOL    HW128226   6.006   1.543   4.209  5.1079 -1.0520 -0.5837
 8914SOL    HW228227   6.033   1.686   4.167  0.1897  0.1103 -0.0789
 8915SOL     OW28228   4.174   6.550   5.610  0.3659 -0.6700  0.1979
 8915SOL    HW128229   4.226   6.572   5.533 -0.9317  1.0894 -0.2242
 8915SOL    HW228230   4.203   6.612   5.677 -1.6014  0.7933 -0.2466
 8916SOL     OW28231   3.878   4.906   4.936 -0.7767  0.3205  0.3704
 8916SOL    HW128232   3.795   4.857   4.938 -0.9718  0.6671  1.1310
 8916SOL    HW228233   3.855   4.990   4.896 -1.0348  0.8440  1.6047
 8917SOL     OW28234   4.229   2.460   1.730 -0.5113  0.3504  0.1025
 8917SOL    HW128235   4.287   2.384   1.728 -2.0353 -1.0051  3.1796
 8917SOL    HW228236   4.274   2.524   1.785 -1.1956 -0.1123  1.2276
 8918SOL     OW28237   1.235   1.308   7.889 -0.1721 -0.6702 -0.0804
 8918SOL    HW128238   1.267   1.302   7.979 -2.4525 -0.4025  0.7894
 8918SOL    HW228239   1.146   1.273   7.892 -0.5112 -0.1076 -2.1138
 8919SOL     OW28240   5.992   7.873   7.616 -0.4563  0.2898  0.2493
 8919SOL    HW128241   6.014   7.783   7.593  0.4475  0.9612 -1.6257
 8919SOL    HW228242   5.963   7.869   7.707  2.1255 -1.4966  1.0215
 8920SOL     OW28243   3.033   2.027   3.671  0.7829  0.3771 -0.0025
 8920SOL    HW128244   3.050   1.946   3.718 -0.2411  0.1492 -0.0169
 8920SOL    HW228245   3.118   2.070   3.666  0.9662  0.2510  1.7704
 8921SOL     OW28246   4.881   3.888   5.319  0.7176 -0.4923  0.5363
 8921SOL    HW128247   4.809   3.834   5.352 -0.2845  0.6373  0.2368
 8921SOL    HW228248   4.946   3.888   5.389  0.7241 -2.0688  0.5483
 8922SOL     OW28249   0.155   7.258   6.701 -0.0089  0.0770  0.1815
 8922SOL    HW128250   0.087   7.321   6.675 -0.2221  1.1879  3.1834
 8922SOL    HW228251   0.237   7.296   6.670 -0.4314  0.3289 -0.6369
 8923SOL     OW28252   5.019   2.747   4.127  0.2041  0.1923 -0.2016
 8923SOL    HW128253   5.066   2.741   4.044 -2.1855  1.7212 -1.7124
 8923SOL    HW228254   4.947   2.684   4.119 -1.6718  2.2833 -0.4590
 8924SOL     OW28255   6.994   6.976   6.543  0.2061 -0.1218  0.1331
 8924SOL    HW128256   6.945   7.058   6.540  1.5746  0.6772 -1.0353
 8924SOL    HW228257   6.928   6.908   6.533 -0.5800  0.9497 -2.3365
 8925SOL     OW28258   1.441   3.495   6.526  0.6695  0.3836 -0.6700
 8925SOL    HW128259   1.357   3.525   6.492  1.4351  2.7430 -0.5883
 8925SOL    HW228260   1.470   3.428   6.464 -1.5519 -0.9340 -0.3281
 8926SOL     OW28261   7.510   1.850   4.624 -0.1383 -0.2771  0.0799
 8926SOL    HW128262   7.563   1.917   4.582  1.0742 -1.1785  0.1425
 8926SOL    HW228263   7.424   1.858   4.583 -0.2075  1.7756  0.6126
 8927SOL     OW28264   1.245   3.395   3.237 -0.1063 -0.2609 -0.0146
 8927SOL    HW128265   1.268   3.484   3.212 -1.0651 -0.3834 -1.3975
 8927SOL    HW228266   1.149   3.392   3.229 -0.3302 -0.7290  2.3426
 8928SOL     OW28267   4.666   4.672   6.488 -0.6384  0.1402 -0.3963
 8928SOL    HW128268   4.669   4.605   6.556 -1.5870  0.9628  0.4523
 8928SOL    HW228269   4.727   4.640   6.421  0.4541 -0.5612  0.9174
 8929SOL     OW28270   0.971   1.081   4.407 -0.0276 -0.0892 -0.1824
 8929SOL    HW128271   0.951   1.121   4.322  0.0722 -0.2270 -0.2696
 8929SOL    HW228272   1.046   1.131   4.440  0.0659 -0.1746 -0.2693
 8930SOL     OW28273   5.941   3.140   3.136 -0.1165 -0.0790  0.3546
 8930SOL    HW128274   5.912   3.065   3.188 -2.2863 -0.8213 -1.8283
 8930SOL    HW228275   5.870   3.204   3.145  0.5845  0.7266  0.2094
 8931SOL     OW28276   0.021   4.029   6.191 -0.2571  0.1877  0.2343
 8931SOL    HW128277   0.038   3.938   6.167  0.0734  0.0927  0.8078
 8931SOL    HW228278   0.103   4.059   6.231 -0.8727  0.2417  1.4788
 8932SOL     OW28279   3.158   0.828   2.033 -0.2936  0.0547  0.1760
 8932SOL    HW128280   3.164   0.734   2.051 -0.1646  0.1303  0.5336
 8932SOL    HW228281   3.076   0.855   2.074 -0.6259 -0.0150 -0.4366
 8933SOL     OW28282   2.507   6.211   5.161  0.1844  0.3033 -0.1937
 8933SOL    HW128283   2.596   6.234   5.190  0.5345  0.3333 -1.2664
 8933SOL    HW228284   2.449   6.260   5.219  0.8101 -1.7781  2.2641
 8934SOL     OW28285   1.595   2.162   4.571  0.1863  0.0229  0.1968
 8934SOL    HW128286   1.645   2.207   4.503 -1.1799 -0.2075 -0.9940
 8934SOL    HW228287   1.628   2.072   4.570 -0.8121 -0.3502 -1.1852
 8935SOL     OW28288   0.427   6.768   4.400  0.6158 -0.2450 -0.4119
 8935SOL    HW128289   0.426   6.712   4.477 -1.1627 -1.5275 -1.3282
 8935SOL    HW228290   0.518   6.763   4.368  1.3771  0.3562  1.5972
 8936SOL     OW28291   5.810   7.464   7.549  0.1447 -0.0777  0.4908
 8936SOL    HW128292   5.757   7.386   7.567 -0.3015 -0.1588 -1.1032
 8936SOL    HW228293   5.807   7.514   7.631 -2.8555  0.1945  0.2646
 8937SOL     OW28294   3.288   1.920   6.630  0.2228  0.5856 -0.4485
 8937SOL    HW128295   3.321   1.938   6.542  0.6556 -1.3228 -0.7025
 8937SOL    HW228296   3.203   1.878   6.615  2.0774 -3.4888 -0.1563
 8938SOL     OW28297   0.199   1.137   7.840  0.1175 -0.0708 -0.2417
 8938SOL    HW128298   0.112   1.098   7.836 -0.1420  0.3481  0.9873
 8938SOL    HW228299   0.257   1.064   7.859 -0.2254 -0.0516  0.9307
 8939SOL     OW28300   8.168   6.126   0.367  0.2981  0.6523  0.2274
 8939SOL    HW128301   8.087   6.075   0.366  0.3416  0.4526  2.5663
 8939SOL    HW228302   8.236   6.062   0.349  0.1860  0.2154  1.2940
 8940SOL     OW28303   2.858   8.123   4.548  0.9966  0.4550  0.1163
 8940SOL    HW128304   2.876   8.217   4.558 -0.2319  0.6563  0.4422
 8940SOL    HW228305   2.942   8.086   4.519  1.0278  1.9184 -1.7478
 8941SOL     OW28306   5.836   8.172   6.202  0.2221  0.3448 -0.0417
 8941SOL    HW128307   5.837   8.164   6.107 -0.1134  1.3462 -0.1307
 8941SOL    HW228308   5.777   8.246   6.220 -0.2994 -0.3050  0.9715
 8942SOL     OW28309   1.840   1.467   7.670  0.2640 -0.4294  0.1550
 8942SOL    HW128310   1.935   1.481   7.674  0.0290  1.1039  0.8370
 8942SOL    HW228311   1.816   1.496   7.582  0.2745  0.2555  0.3734
 8943SOL     OW28312   2.428   2.376   3.718  0.0503  0.0792 -0.2482
 8943SOL    HW128313   2.381   2.348   3.797  1.5673  0.9717  0.9985
 8943SOL    HW228314   2.447   2.295   3.671 -0.0371 -0.5497  0.7798
 8944SOL     OW28315   7.773   1.450   7.989  0.1537  0.3689 -0.1682
 8944SOL    HW128316   7.833   1.481   7.922  0.7355 -0.2873  0.0531
 8944SOL    HW228317   7.829   1.421   8.061 -0.4690  1.6160  0.8515
 8945SOL     OW28318   3.116   4.827   3.213  1.1851 -0.5270  0.3297
 8945SOL    HW128319   3.183   4.807   3.148  2.1454  1.9130  0.4913
 8945SOL    HW228320   3.153   4.900   3.263 -1.2485  0.3212  0.9560
 8946SOL     OW28321   4.601   5.927   4.133 -0.7253  0.3292  0.4408
 8946SOL    HW128322   4.547   5.908   4.056  0.0509 -0.1586  0.0055
 8946SOL    HW228323   4.554   5.885   4.205 -0.2933 -1.1651 -0.1317
 8947SOL     OW28324   2.688   2.036   4.404  0.6983 -0.1217 -0.5997
 8947SOL    HW128325   2.701   2.103   4.471 -0.7813  0.0049 -0.4082
 8947SOL    HW228326   2.772   2.028   4.361  1.7700 -0.3952  1.4639
 8948SOL     OW28327   1.330   1.110   1.530 -0.3276  0.0026 -0.1839
 8948SOL    HW128328   1.336   1.077   1.440  1.0002 -0.0582 -0.0854
 8948SOL    HW228329   1.263   1.178   1.527  0.8344  1.1143 -1.5628
 8949SOL     OW28330   2.314   4.320   5.704 -0.1383 -0.0563 -0.1205
 8949SOL    HW128331   2.271   4.273   5.775 -1.6446  2.5636  0.7814
 8949SOL    HW228332   2.270   4.405   5.701  1.7803  0.9326 -2.3613
 8950SOL     OW28333   6.342   8.249   6.941 -0.1997  0.1543 -0.0649
 8950SOL    HW128334   6.343   8.275   7.033 -0.6815  0.3033 -0.0992
 8950SOL    HW228335   6.431   8.267   6.910 -0.0447  0.1271  0.3637
 8951SOL     OW28336   1.056   1.678   2.656  0.2402 -0.1529 -0.1244
 8951SOL    HW128337   1.025   1.593   2.623  0.9075  0.4387 -2.3700
 8951SOL    HW228338   1.151   1.668   2.660  0.1404 -0.4193  2.3190
 8952SOL     OW28339   0.125   1.847   4.218  0.0673  0.8207  0.7459
 8952SOL    HW128340   0.060   1.909   4.251 -0.3119  0.4479  0.6937
 8952SOL    HW228341   0.209   1.893   4.227 -0.0451  0.7529  2.1413
 8953SOL     OW28342   3.665   8.199   2.242  0.1655  0.2904  0.2169
 8953SOL    HW128343   3.618   8.279   2.264 -0.6688  0.0800 -0.7923
 8953SOL    HW228344   3.724   8.185   2.317 -0.7672  0.9999  1.0983
 8954SOL     OW28345   7.581   4.797   2.652  0.3413  0.4171 -0.4412
 8954SOL    HW128346   7.641   4.787   2.578  1.3457  0.9894  0.2891
 8954SOL    HW228347   7.508   4.738   2.632  1.4102 -0.7167 -1.0616
 8955SOL     OW28348   6.747   1.909   1.619 -0.0764 -0.4785  0.0838
 8955SOL    HW128349   6.753   1.943   1.529 -1.0126 -0.9879 -0.1743
 8955SOL    HW228350   6.781   1.820   1.613 -1.7707 -1.1368 -0.1290
 8956SOL     OW28351   1.432   7.372   2.566  0.0244 -0.0440  0.3041
 8956SOL    HW128352   1.429   7.468   2.564  0.8852  0.0067  1.2316
 8956SOL    HW228353   1.445   7.350   2.658  0.5048 -1.0350  0.0066
 8957SOL     OW28354   7.531   2.088   7.113 -0.1127 -0.3552 -0.4185
 8957SOL    HW128355   7.436   2.075   7.121 -0.4360  2.5442  0.7966
 8957SOL    HW228356   7.547   2.092   7.019 -1.1631 -0.9752 -0.6298
 8958SOL     OW28357   7.283   2.999   6.449 -0.2636 -0.0072  0.3507
 8958SOL    HW128358   7.192   3.027   6.461 -0.2628  0.8887 -1.6085
 8958SOL    HW228359   7.303   3.019   6.358  1.8486 -0.3603  0.7059
 8959SOL     OW28360   4.882   0.636   6.683 -0.0054 -0.7780 -0.3141
 8959SOL    HW128361   4.898   0.690   6.606  1.1296 -1.4877 -0.5939
 8959SOL    HW228362   4.837   0.558   6.649 -0.8561 -0.4100 -0.0385
 8960SOL     OW28363   1.499   5.767   3.217 -0.3599  0.1607  0.0039
 8960SOL    HW128364   1.446   5.719   3.154  0.4968  0.1882 -0.7554
 8960SOL    HW228365   1.510   5.707   3.290  1.3391 -1.1383 -1.2578
 8961SOL     OW28366   6.543   7.424   6.256  0.3653 -0.1821  0.0322
 8961SOL    HW128367   6.627   7.466   6.240  0.6764  0.2433  2.5995
 8961SOL    HW228368   6.560   7.331   6.245  0.9342 -0.0272 -0.4105
 8962SOL     OW28369   1.528   4.700   3.545  0.5264 -0.1212 -0.0683
 8962SOL    HW128370   1.528   4.606   3.527 -0.5964 -0.4137  1.4268
 8962SOL    HW228371   1.442   4.718   3.583  0.6969  1.5309 -0.4098
 8963SOL     OW28372   5.091   0.663   3.242 -0.5420  0.3671  0.5371
 8963SOL    HW128373   5.067   0.721   3.170 -0.0425  1.6046  1.3418
 8963SOL    HW228374   5.033   0.689   3.314 -0.8121 -0.6303  0.6886
 8964SOL     OW28375   7.233   0.278   2.828  0.0887  0.6881  0.0363
 8964SOL    HW128376   7.263   0.188   2.826 -2.6911 -0.2651 -0.8847
 8964SOL    HW228377   7.301   0.327   2.782  1.4547 -0.9621  0.2493
 8965SOL     OW28378   4.571   6.759   2.818 -0.0947  0.0046  0.1843
 8965SOL    HW128379   4.539   6.844   2.846 -1.7312 -0.4181 -0.3288
 8965SOL    HW228380   4.662   6.757   2.845  0.6353  2.8210 -1.8565
 8966SOL     OW28381   8.273   2.229   4.923 -0.2481  0.2465  0.3383
 8966SOL    HW128382   8.252   2.318   4.951 -2.7663 -0.0915 -0.3462
 8966SOL    HW228383   8.248   2.227   4.831 -0.4941 -1.2764  0.4316
 8967SOL     OW28384   4.543   5.051   2.895 -0.3871 -0.0920  0.5239
 8967SOL    HW128385   4.484   5.121   2.924  1.2132  1.3868  0.3108
 8967SOL    HW228386   4.625   5.070   2.939  0.1736 -1.6540  0.1680
 8968SOL     OW28387   0.485   2.920   6.009 -0.9715 -0.4625 -0.3916
 8968SOL    HW128388   0.425   2.975   5.958 -0.2001 -0.7966 -1.6782
 8968SOL    HW228389   0.569   2.929   5.966 -0.4889 -1.4305  0.3234
 8969SOL     OW28390   4.136   6.468   3.564  0.5824  0.0593  0.0903
 8969SOL    HW128391   4.074   6.411   3.518  1.0172 -0.8299  0.6009
 8969SOL    HW228392   4.110   6.463   3.656  0.7543  0.5295  0.1677
 8970SOL     OW28393   7.189   2.058   3.666 -0.5754  0.0514 -0.4557
 8970SOL    HW128394   7.277   2.087   3.642 -0.1034 -0.0452  1.1164
 8970SOL    HW228395   7.167   2.109   3.744 -0.8484 -1.7746  0.7065
 8971SOL     OW28396   4.320   0.966   4.362  0.5320  0.2968 -0.1245
 8971SOL    HW128397   4.355   0.915   4.435  1.6809  1.2685  0.0291
 8971SOL    HW228398   4.235   0.926   4.343  1.2234 -1.3909  0.2493
 8972SOL     OW28399   6.517   5.698   2.570  0.2249  0.1802 -0.8201
 8972SOL    HW128400   6.516   5.663   2.481  1.8388  0.8321 -1.1163
 8972SOL    HW228401   6.605   5.678   2.602 -0.3388 -0.0373  0.6362
 8973SOL     OW28402   3.071   7.920   2.257  0.5925 -0.4478 -0.5447
 8973SOL    HW128403   3.060   7.947   2.348  0.9040  1.7996 -1.1460
 8973SOL    HW228404   3.000   7.857   2.242  0.2696 -0.5036  1.1101
 8974SOL     OW28405   4.235   1.809   7.341 -0.2039  0.3027  0.9177
 8974SOL    HW128406   4.223   1.765   7.425  1.5694  0.2003  1.1226
 8974SOL    HW228407   4.232   1.903   7.363  0.5560  0.2764  1.1452
 8975SOL     OW28408   6.551   4.889   4.853 -0.8938  0.6046  0.2597
 8975SOL    HW128409   6.477   4.836   4.823 -1.0765  0.6888  0.5568
 8975SOL    HW228410   6.511   4.971   4.883 -0.5621  1.1280 -0.7060
 8976SOL     OW28411   0.212   7.334   6.261  0.2764  0.3221  0.0009
 8976SOL    HW128412   0.147   7.394   6.226 -1.7395 -1.1995  1.0433
 8976SOL    HW228413   0.264   7.308   6.185 -2.6184 -1.2243 -1.5322
 8977SOL     OW28414   8.245   3.062   1.063 -0.7471  0.1680 -0.0367
 8977SOL    HW128415   8.319   3.121   1.049  0.0317 -0.8140 -0.1292
 8977SOL    HW228416   8.284   2.983   1.102 -1.7325 -0.3753 -0.1243
 8978SOL     OW28417   3.405   1.993   7.637 -0.0544  0.3281  0.3738
 8978SOL    HW128418   3.330   1.934   7.640 -0.1612  0.4774  0.6434
 8978SOL    HW228419   3.384   2.056   7.569  0.3961 -0.3985 -0.4487
 8979SOL     OW28420   3.403   1.896   4.740 -0.3569 -0.0264 -0.2027
 8979SOL    HW128421   3.481   1.877   4.791  0.1919  1.2284 -0.5566
 8979SOL    HW228422   3.336   1.836   4.774  0.0852  0.5808  1.7397
 8980SOL     OW28423   4.338   5.993   2.404  0.1428 -0.1054  0.8373
 8980SOL    HW128424   4.424   5.967   2.370 -1.0038 -1.0094 -1.5224
 8980SOL    HW228425   4.275   5.946   2.348 -1.8872  0.5623  2.4931
 8981SOL     OW28426   7.493   4.176   3.384  0.2582  0.3559  0.0519
 8981SOL    HW128427   7.552   4.250   3.402  0.0913  0.0993  1.6823
 8981SOL    HW228428   7.497   4.122   3.463 -0.1966 -1.0026 -0.8386
 8982SOL     OW28429   3.966   7.813   1.212 -0.1368 -0.6280  0.2207
 8982SOL    HW128430   4.054   7.841   1.236  0.3341 -1.6686 -0.2446
 8982SOL    HW228431   3.908   7.881   1.246  0.8620  0.1465  0.3801
 8983SOL     OW28432   1.716   1.236   5.359  0.3683 -0.5609  0.5058
 8983SOL    HW128433   1.712   1.202   5.270 -0.9005 -1.0835  0.7530
 8983SOL    HW228434   1.695   1.329   5.351  1.6946 -0.2823  0.0954
 8984SOL     OW28435   7.098   1.659   0.951 -0.5015 -0.3232  0.0046
 8984SOL    HW128436   7.180   1.613   0.966  0.9402  2.3884  0.7725
 8984SOL    HW228437   7.101   1.684   0.858  0.4224  1.3549  0.4650
 8985SOL     OW28438   8.226   0.174   6.674  0.3076 -0.0677  0.4471
 8985SOL    HW128439   8.296   0.190   6.611  1.4304 -0.3088  1.6058
 8985SOL    HW228440   8.241   0.240   6.742 -0.4600 -0.2673  0.8118
 8986SOL     OW28441   6.641   4.748   7.076  0.1277 -0.3179 -0.2348
 8986SOL    HW128442   6.604   4.755   7.164 -1.6311 -1.5295 -0.8357
 8986SOL    HW228443   6.631   4.655   7.053  1.8211 -0.2867 -1.1861
 8987SOL     OW28444   3.688   1.020   6.715  0.7072 -0.2788  0.5724
 8987SOL    HW128445   3.595   1.028   6.692  0.6284  0.2693  1.0688
 8987SOL    HW228446   3.724   1.107   6.700  1.3741 -0.7395 -0.5796
 8988SOL     OW28447   4.105   6.043   5.912 -0.2630  0.5205 -0.1326
 8988SOL    HW128448   4.061   5.986   5.849  0.2529 -0.5552  0.4841
 8988SOL    HW228449   4.063   6.128   5.900  0.0040  0.4030 -2.1375
 8989SOL     OW28450   4.766   1.305   1.627 -0.2768 -0.2582  0.0999
 8989SOL    HW128451   4.688   1.359   1.638  0.2982  0.5761  0.1604
 8989SOL    HW228452   4.828   1.362   1.580  0.1452 -1.0466 -0.3197
 8990SOL     OW28453   5.329   1.088   2.823  0.0009  0.3991  0.1626
 8990SOL    HW128454   5.235   1.074   2.825  0.0224  0.1197 -0.6029
 8990SOL    HW228455   5.339   1.183   2.812 -0.1896  0.3909 -0.0723
 8991SOL     OW28456   4.305   1.237   2.981 -0.2831  0.3383  0.0333
 8991SOL    HW128457   4.361   1.160   2.976  0.4212  0.9458 -1.6350
 8991SOL    HW228458   4.218   1.204   2.957  0.1365  0.1876 -1.2869
 8992SOL     OW28459   7.497   3.717   4.890 -0.1103  0.3083  0.3562
 8992SOL    HW128460   7.445   3.730   4.970  0.3102  0.0017  0.6872
 8992SOL    HW228461   7.573   3.774   4.902 -1.1733  1.9973 -0.8746
 8993SOL     OW28462   2.230   0.215   2.395  0.2593  0.9299  0.0822
 8993SOL    HW128463   2.273   0.206   2.310  1.3133  1.3588  0.5701
 8993SOL    HW228464   2.300   0.202   2.459 -0.9430 -1.7277  0.9337
 8994SOL     OW28465   0.631   1.993   0.602 -0.1249  0.0393 -0.1309
 8994SOL    HW128466   0.657   1.903   0.585 -0.2409 -0.2541  1.2098
 8994SOL    HW228467   0.629   2.034   0.515  0.6435 -1.0429 -0.6717
 8995SOL     OW28468   5.623   5.930   1.949  0.7077  0.5605  0.5278
 8995SOL    HW128469   5.569   5.936   1.871  0.0877 -0.0991  0.8929
 8995SOL    HW228470   5.713   5.927   1.917  0.5142  1.4578 -0.0972
 8996SOL     OW28471   0.888   3.770   2.969 -0.1691 -0.1622 -0.5684
 8996SOL    HW128472   0.976   3.781   2.934 -0.1296  0.0002 -0.4152
 8996SOL    HW228473   0.868   3.678   2.952 -0.6885  0.2415 -2.2547
 8997SOL     OW28474   6.832   0.144   6.447  0.1859 -0.3346  0.4420
 8997SOL    HW128475   6.831   0.225   6.499  0.7863 -1.2587  1.9333
 8997SOL    HW228476   6.740   0.126   6.429  0.0948  1.2050 -0.7732
 8998SOL     OW28477   2.956   1.117   7.681 -0.8972  0.4206 -0.5243
 8998SOL    HW128478   3.022   1.185   7.666 -0.0533 -0.2665  0.0056
 8998SOL    HW228479   2.899   1.121   7.604 -0.9453  1.8200 -0.4285
 8999SOL     OW28480   5.743   5.074   8.288  0.1097 -0.3673  1.1946
 8999SOL    HW128481   5.688   5.088   8.365 -1.1841 -0.6664  0.3379
 8999SOL    HW228482   5.694   5.013   8.234  0.9056  0.0127  0.0171
 9000SOL     OW28483   7.312   3.692   3.522  0.3138  0.5170 -0.9474
 9000SOL    HW128484   7.327   3.636   3.446 -1.1097 -2.1531  0.6420
 9000SOL    HW228485   7.217   3.707   3.523  0.1101 -0.7020  1.0722
 9001SOL     OW28486   0.106   4.077   3.477 -0.0953 -0.0909  0.4172
 9001SOL    HW128487   0.176   4.014   3.463 -0.2769  0.1320 -1.6173
 9001SOL    HW228488   0.076   4.101   3.389 -3.0425 -0.5288  1.2261
 9002SOL     OW28489   2.698   0.562   3.757  0.1649  0.7803  0.2876
 9002SOL    HW128490   2.621   0.553   3.701 -1.4216  1.2739  2.3345
 9002SOL    HW228491   2.679   0.509   3.835  2.5024 -0.2410  0.2252
 9003SOL     OW28492   2.740   0.329   4.332  0.0355 -0.3606 -0.5800
 9003SOL    HW128493   2.646   0.340   4.350  0.3300 -0.4520  1.0920
 9003SOL    HW228494   2.743   0.289   4.245 -1.5092 -1.1407 -0.2929
 9004SOL     OW28495   5.055   2.309   6.737 -0.2862  0.0135  0.2396
 9004SOL    HW128496   5.083   2.234   6.790  0.9355 -0.3805 -0.9443
 9004SOL    HW228497   5.090   2.291   6.650  0.0095  1.9508 -0.0586
 9005SOL     OW28498   6.490   4.727   0.230  0.7428  0.0149  0.3224
 9005SOL    HW128499   6.577   4.709   0.195  0.3193 -0.5634 -0.4223
 9005SOL    HW228500   6.459   4.643   0.264  0.8713  0.4192  1.4947
 9006SOL     OW28501   2.119   0.939   3.897  0.3808 -0.7206  0.0561
 9006SOL    HW128502   2.092   0.983   3.977 -0.3378 -0.1062 -0.5190
 9006SOL    HW228503   2.132   0.848   3.923  0.6935 -0.4102  0.9868
 9007SOL     OW28504   7.111   5.820   7.725 -0.5101  0.2443  0.4805
 9007SOL    HW128505   7.065   5.879   7.666  0.3616  0.4471 -0.0112
 9007SOL    HW228506   7.045   5.794   7.789 -1.0108  1.4448  0.4725
 9008SOL     OW28507   6.122   4.174   6.051 -0.1654 -0.4031 -0.4311
 9008SOL    HW128508   6.200   4.214   6.012 -0.8883 -0.5307 -2.0398
 9008SOL    HW228509   6.106   4.095   5.999  0.1268 -1.7894  1.5205
 9009SOL     OW28510   2.916   2.794   5.969  0.0935  0.4648  0.1700
 9009SOL    HW128511   2.976   2.868   5.969  0.4368  0.2207 -1.8554
 9009SOL    HW228512   2.844   2.821   5.911 -0.7398 -0.0396  0.9521
 9010SOL     OW28513   1.190   2.762   0.318  0.3129  0.4528  0.7110
 9010SOL    HW128514   1.177   2.726   0.406  1.2323 -0.5031  0.4707
 9010SOL    HW228515   1.256   2.705   0.279 -1.0769  0.0351 -1.0874
 9011SOL     OW28516   3.429   1.131   3.719  0.1180 -0.3297 -0.0321
 9011SOL    HW128517   3.524   1.130   3.707  0.1620 -0.0052  0.2641
 9011SOL    HW228518   3.403   1.219   3.693 -0.0860 -0.3795  0.0064
 9012SOL     OW28519   2.481   3.006   2.398 -0.6080 -0.0170 -0.2849
 9012SOL    HW128520   2.518   2.935   2.450  0.4164  1.1695  0.6394
 9012SOL    HW228521   2.499   3.085   2.449 -3.7909  0.6961 -0.1437
 9013SOL     OW28522   4.990   1.048   8.029 -0.4001  1.2462 -0.1198
 9013SOL    HW128523   5.015   0.971   8.079 -1.0475  1.3204  0.3279
 9013SOL    HW228524   4.905   1.024   7.991 -0.0887  1.3270 -0.8885
 9014SOL     OW28525   1.642   7.886   6.133 -0.0047 -0.2597 -0.2076
 9014SOL    HW128526   1.710   7.891   6.200 -0.7297  0.9822  0.4486
 9014SOL    HW228527   1.688   7.905   6.051  0.8673 -1.6980 -0.0636
 9015SOL     OW28528   0.720   2.501   1.096  0.1485  0.1412 -0.3721
 9015SOL    HW128529   0.741   2.579   1.046  0.3662 -0.0339 -0.5549
 9015SOL    HW228530   0.789   2.438   1.073 -0.5126 -0.4037 -0.9081
 9016SOL     OW28531   1.854   7.355   0.920  0.2638  0.0635 -0.0278
 9016SOL    HW128532   1.810   7.332   1.002  0.5860  0.9722  0.4155
 9016SOL    HW228533   1.784   7.359   0.855  0.0006 -0.6175  0.2078
 9017SOL     OW28534   3.239   4.444   3.494 -0.3470 -0.4729  0.4203
 9017SOL    HW128535   3.197   4.358   3.501  0.8089 -1.1178 -0.2655
 9017SOL    HW228536   3.287   4.453   3.577  0.7386 -1.1736 -0.1126
 9018SOL     OW28537   7.618   2.820   6.383 -0.2862 -0.0925  0.2513
 9018SOL    HW128538   7.633   2.815   6.289  0.8477  0.9723  0.3695
 9018SOL    HW228539   7.541   2.876   6.393  1.1428  1.9442  0.0690
 9019SOL     OW28540   3.110   2.628   4.362 -0.1019 -0.9239  0.0957
 9019SOL    HW128541   3.102   2.533   4.369 -0.4048 -0.9116 -0.0693
 9019SOL    HW228542   3.150   2.655   4.444  2.3144 -1.4653 -0.8549
 9020SOL     OW28543   2.119   0.133   5.913 -0.3482 -0.6451 -0.0816
 9020SOL    HW128544   2.106   0.228   5.911  0.4150 -0.5325  0.1456
 9020SOL    HW228545   2.087   0.103   5.827  2.7943  0.2893 -1.6495
 9021SOL     OW28546   6.941   3.477   2.480  0.4775  0.7437 -0.0118
 9021SOL    HW128547   6.920   3.446   2.568 -1.4733 -0.5965 -0.9210
 9021SOL    HW228548   6.941   3.573   2.487 -1.6711  0.6950  1.0047
 9022SOL     OW28549   6.148   6.343   7.251 -0.0463  0.2025 -0.2584
 9022SOL    HW128550   6.201   6.415   7.218  3.2630 -1.2751  1.6294
 9022SOL    HW228551   6.169   6.269   7.195  1.6439 -0.9714  1.8761
 9023SOL     OW28552   4.776   4.782   0.683 -0.0873 -1.0508 -0.0034
 9023SOL    HW128553   4.692   4.815   0.650 -0.0359 -1.0014 -0.0828
 9023SOL    HW228554   4.829   4.860   0.696 -0.5395 -0.9686  1.3942
 9024SOL     OW28555   0.443   5.919   1.920  0.1057 -0.2958  0.1252
 9024SOL    HW128556   0.450   5.825   1.933 -0.3979 -0.3806 -0.1921
 9024SOL    HW228557   0.429   5.954   2.008  2.1891 -0.3167  0.4924
 9025SOL     OW28558   2.713   4.579   7.867  0.4853 -0.1163 -1.0236
 9025SOL    HW128559   2.726   4.509   7.803 -3.9538 -0.8776 -1.2029
 9025SOL    HW228560   2.706   4.658   7.814 -0.1239 -0.3126 -1.2353
 9026SOL     OW28561   1.806   5.490   3.751  0.2708 -0.5736  0.2007
 9026SOL    HW128562   1.787   5.503   3.844  1.9409 -0.6686  0.5707
 9026SOL    HW228563   1.838   5.400   3.746 -0.5708 -0.8334 -0.5976
 9027SOL     OW28564   0.151   5.378   7.795 -0.6491  0.2075 -0.7869
 9027SOL    HW128565   0.231   5.380   7.743  0.1620 -0.1020  0.4312
 9027SOL    HW228566   0.155   5.457   7.848  0.2491 -1.2004  1.3097
 9028SOL     OW28567   2.045   3.186   5.206  0.2254  0.4794 -0.1172
 9028SOL    HW128568   2.029   3.096   5.177 -0.0215  1.0007 -1.6609
 9028SOL    HW228569   2.007   3.240   5.136 -0.1088  1.7788  1.0632
 9029SOL     OW28570   7.045   5.077   2.597 -0.1857 -0.0143  0.3443
 9029SOL    HW128571   7.088   5.071   2.511 -0.2770  0.3509  0.2709
 9029SOL    HW228572   7.103   5.134   2.648 -0.8891  0.9836  0.0489
 9030SOL     OW28573   7.563   6.512   3.105  0.2132  0.0604 -0.0683
 9030SOL    HW128574   7.473   6.537   3.126  0.3740  1.0209 -0.5132
 9030SOL    HW228575   7.616   6.585   3.136  1.0784 -1.5313  2.3519
 9031SOL     OW28576   2.857   1.787   4.263 -0.2290  0.2409  0.1009
 9031SOL    HW128577   2.762   1.786   4.249 -0.1240  1.9012 -0.8389
 9031SOL    HW228578   2.877   1.878   4.287  1.2779  0.1805 -0.8616
 9032SOL     OW28579   7.787   5.397   1.111  0.4414  0.3902  0.3025
 9032SOL    HW128580   7.796   5.345   1.031  2.0701  0.7195  0.2568
 9032SOL    HW228581   7.784   5.488   1.082 -1.8658  0.3779  0.4241
 9033SOL     OW28582   3.570   0.607   5.986  0.2083  0.3706 -0.7961
 9033SOL    HW128583   3.626   0.675   6.024 -0.6483 -0.6257  2.4406
 9033SOL    HW228584   3.599   0.599   5.895  2.3734  2.8905 -0.3708
 9034SOL     OW28585   7.628   7.845   4.463  0.3269 -0.4795  0.0282
 9034SOL    HW128586   7.685   7.906   4.509 -0.0599 -0.3722  0.3683
 9034SOL    HW228587   7.549   7.841   4.517 -1.0080  1.3199 -1.7291
 9035SOL     OW28588   1.002   7.438   7.959  0.2412 -0.1392  0.5543
 9035SOL    HW128589   1.078   7.482   7.997  1.0333 -1.7542  0.8807
 9035SOL    HW228590   1.034   7.352   7.934 -1.0048 -0.1401 -1.1285
 9036SOL     OW28591   1.853   6.250   4.643 -0.4175 -0.2142  0.2211
 9036SOL    HW128592   1.814   6.167   4.671  0.0895 -0.7154 -0.5582
 9036SOL    HW228593   1.934   6.257   4.693  0.0583 -0.6937 -0.4784
 9037SOL     OW28594   2.865   2.326   2.647 -0.7017  0.7391  0.2987
 9037SOL    HW128595   2.789   2.312   2.703 -1.3568 -0.3792 -0.8280
 9037SOL    HW228596   2.939   2.294   2.699 -1.3207 -0.4398  0.4721
 9038SOL     OW28597   7.916   6.368   3.670 -0.1633  0.4551  0.5218
 9038SOL    HW128598   7.984   6.313   3.710 -0.2784  0.1534  0.3067
 9038SOL    HW228599   7.834   6.335   3.706 -0.3452 -0.4589 -0.6842
 9039SOL     OW28600   5.660   2.517   3.139  0.1914  0.0099  0.2917
 9039SOL    HW128601   5.587   2.505   3.199  0.7687  1.0795  1.2389
 9039SOL    HW228602   5.681   2.429   3.108 -2.2116 -0.1899 -0.8809
 9040SOL     OW28603   7.185   4.312   1.023 -0.0953 -0.3880  0.1216
 9040SOL    HW128604   7.152   4.262   0.948  1.2264 -0.6821 -0.2825
 9040SOL    HW228605   7.191   4.402   0.991 -0.9074 -0.2488  0.3384
 9041SOL     OW28606   3.262   5.162   2.700  0.3063  0.2392  0.0729
 9041SOL    HW128607   3.285   5.069   2.696 -0.0918  0.1662 -0.6178
 9041SOL    HW228608   3.174   5.166   2.663  0.2685  0.8733  0.2373
 9042SOL     OW28609   7.523   5.591   1.392  0.0503 -0.6312 -0.2182
 9042SOL    HW128610   7.618   5.604   1.403  0.1643 -1.6322 -0.0108
 9042SOL    HW228611   7.493   5.561   1.478 -0.7282  1.1941  0.1804
 9043SOL     OW28612   2.437   6.855   3.268  0.0276  0.2156 -0.0344
 9043SOL    HW128613   2.484   6.847   3.351  0.0972 -0.6805 -0.1528
 9043SOL    HW228614   2.435   6.949   3.250  1.9107  0.2704 -0.0977
 9044SOL     OW28615   1.676   1.419   4.109 -0.3688  0.2869 -0.0222
 9044SOL    HW128616   1.677   1.513   4.091  0.1325  0.3428  0.2917
 9044SOL    HW228617   1.620   1.409   4.186  0.0332  0.3903  0.2845
 9045SOL     OW28618   4.144   5.135   4.066 -0.1328 -0.0673 -0.4977
 9045SOL    HW128619   4.140   5.231   4.066 -0.9356 -0.0982 -1.2051
 9045SOL    HW228620   4.186   5.113   4.149 -1.6997  0.8281  0.5586
 9046SOL     OW28621   7.915   0.945   0.221 -0.4393 -0.3838  0.7369
 9046SOL    HW128622   7.832   0.923   0.178  0.5206 -0.7698 -0.9769
 9046SOL    HW228623   7.955   0.860   0.240 -0.2418 -0.1930  1.1786
 9047SOL     OW28624   0.404   4.145   4.703  0.2489  0.7500  0.3570
 9047SOL    HW128625   0.377   4.089   4.630  2.0025 -0.7959  0.8468
 9047SOL    HW228626   0.333   4.138   4.766 -1.1473  1.8531 -1.0480
 9048SOL     OW28627   3.756   2.965   3.360 -0.5321  0.0820  0.3688
 9048SOL    HW128628   3.810   3.043   3.377 -0.6161  0.7703 -2.3403
 9048SOL    HW228629   3.820   2.895   3.347 -0.4486 -0.2429  2.2789
 9049SOL     OW28630   4.124   5.406   4.085  0.3670  0.5801 -0.4097
 9049SOL    HW128631   4.099   5.479   4.028 -0.6535  0.2144 -0.4439
 9049SOL    HW228632   4.172   5.448   4.157 -0.1501  1.2904 -0.4665
 9050SOL     OW28633   1.847   1.415   4.647 -0.3944  0.0235 -0.0538
 9050SOL    HW128634   1.819   1.476   4.579 -1.1014 -0.8844 -0.6034
 9050SOL    HW228635   1.912   1.360   4.605 -0.4958 -0.2430  0.1352
 9051SOL     OW28636   7.545   3.793   0.848 -0.7256 -1.1077  0.6391
 9051SOL    HW128637   7.541   3.793   0.753 -0.2145 -1.0071  0.6183
 9051SOL    HW228638   7.453   3.803   0.876 -0.6847  0.9444  0.1450
 9052SOL     OW28639   4.040   1.951   4.961 -0.0396 -0.6195 -0.0101
 9052SOL    HW128640   4.017   1.966   5.053 -0.3108  3.6672 -0.7090
 9052SOL    HW228641   4.135   1.956   4.959 -0.1023  0.7331 -0.1550
 9053SOL     OW28642   6.732   5.073   2.290  0.2162 -0.2240 -1.0185
 9053SOL    HW128643   6.684   5.120   2.222 -0.2458  0.2921 -0.3479
 9053SOL    HW228644   6.818   5.116   2.293  0.2408 -0.2565 -1.2904
 9054SOL     OW28645   7.823   4.034   4.945 -0.0124 -0.2508 -0.4713
 9054SOL    HW128646   7.812   4.085   5.025 -1.6820 -1.2303 -0.0581
 9054SOL    HW228647   7.818   3.943   4.974 -0.7570 -0.6122 -1.7032
 9055SOL     OW28648   3.069   2.271   2.821  0.8116 -0.8335 -0.1858
 9055SOL    HW128649   3.043   2.242   2.909  0.4735 -1.7292 -0.5719
 9055SOL    HW228650   3.158   2.236   2.811  1.6723  1.0899  0.6192
 9056SOL     OW28651   6.476   8.109   3.844  0.2119  0.0439 -0.0463
 9056SOL    HW128652   6.475   8.021   3.807  0.1228 -0.1802  0.4784
 9056SOL    HW228653   6.429   8.163   3.781  0.1337 -0.3148 -0.2940
 9057SOL     OW28654   0.130   7.946   8.269  0.3116 -0.5304 -0.3298
 9057SOL    HW128655   0.106   8.024   8.319  0.4578  0.5427 -1.8616
 9057SOL    HW228656   0.219   7.927   8.296  1.5912  1.9891 -2.4491
 9058SOL     OW28657   5.977   7.798   0.355 -0.4866  0.1054  0.1904
 9058SOL    HW128658   5.996   7.840   0.439  0.0291  0.6519 -0.2012
 9058SOL    HW228659   6.061   7.796   0.309 -0.5109 -1.3230  0.1859
 9059SOL     OW28660   2.888   3.356   6.236  0.3463 -0.6472  0.0035
 9059SOL    HW128661   2.833   3.318   6.167  1.7370  0.0949 -1.5653
 9059SOL    HW228662   2.930   3.281   6.277 -1.4788 -1.1909  0.9485
 9060SOL     OW28663   4.209   6.433   1.589  0.2764 -0.0562 -0.0415
 9060SOL    HW128664   4.198   6.523   1.618  0.0561 -0.1185  0.0741
 9060SOL    HW228665   4.302   6.415   1.597  0.4004  0.3433 -0.5958
 9061SOL     OW28666   4.612   7.143   3.835  0.1388  0.4344  0.4849
 9061SOL    HW128667   4.567   7.209   3.886  0.8607 -0.4870  2.3517
 9061SOL    HW228668   4.627   7.184   3.750 -1.1777  1.9341  0.9587
 9062SOL     OW28669   1.102   0.759   7.801  0.2405  0.2216  0.3176
 9062SOL    HW128670   1.067   0.821   7.865 -1.7361  0.1145 -0.6362
 9062SOL    HW228671   1.025   0.716   7.764  1.4035 -0.3131 -1.5411
 9063SOL     OW28672   7.526   5.668   7.879  0.0757 -0.2654  0.0000
 9063SOL    HW128673   7.461   5.598   7.877  0.6729 -0.8121 -0.2115
 9063SOL    HW228674   7.559   5.674   7.789  1.1764 -0.7902  0.3593
 9064SOL     OW28675   4.930   7.521   4.375  0.0845 -0.0736  0.1899
 9064SOL    HW128676   5.010   7.480   4.342  0.4598  0.1465  0.8241
 9064SOL    HW228677   4.955   7.560   4.459 -0.6322  0.1876  0.2890
 9065SOL     OW28678   3.575   0.951   3.131 -0.4576  0.8460  0.2762
 9065SOL    HW128679   3.548   0.988   3.046 -0.6800  1.1073  0.4596
 9065SOL    HW228680   3.543   0.861   3.128  1.3502  0.2129 -0.7633
 9066SOL     OW28681   1.034   1.800   1.949  0.4487  0.0931  0.2862
 9066SOL    HW128682   1.038   1.894   1.967 -0.1679  0.0935  0.4145
 9066SOL    HW228683   0.942   1.777   1.959  0.4257 -0.3162 -0.8477
 9067SOL     OW28684   2.594   3.676   1.407 -0.2368 -0.1015 -0.4815
 9067SOL    HW128685   2.513   3.636   1.437  0.8381 -1.9731 -0.0169
 9067SOL    HW228686   2.594   3.661   1.312 -1.8014  2.4708 -0.9341
 9068SOL     OW28687   3.502   1.257   7.128 -0.4483  0.1379 -0.6517
 9068SOL    HW128688   3.493   1.345   7.092 -0.6550  0.4631  0.1990
 9068SOL    HW228689   3.588   1.228   7.098 -0.0233  0.9547 -0.2287
 9069SOL     OW28690   3.547   5.173   0.153  0.0982  0.3403  0.0418
 9069SOL    HW128691   3.502   5.134   0.228 -0.1651 -2.3026 -1.4379
 9069SOL    HW228692   3.502   5.256   0.138 -0.7213  0.2523  1.9412
 9070SOL     OW28693   6.965   0.727   6.867 -0.1216 -0.2974  0.1433
 9070SOL    HW128694   6.888   0.780   6.892 -0.2623 -0.7264  0.6349
 9070SOL    HW228695   6.965   0.655   6.930  0.5291 -0.4492 -0.0320
 9071SOL     OW28696   3.256   7.461   3.185  0.3610 -0.6310 -0.0368
 9071SOL    HW128697   3.169   7.421   3.189  0.1555 -0.1357  0.6436
 9071SOL    HW228698   3.311   7.404   3.239  0.1237 -0.1294  0.7340
 9072SOL     OW28699   6.470   5.632   6.380  0.1371 -0.1562  0.2306
 9072SOL    HW128700   6.382   5.609   6.411 -0.3931 -1.2294 -1.9746
 9072SOL    HW228701   6.460   5.721   6.346  0.0422 -0.0791  0.4545
 9073SOL     OW28702   5.922   5.916   6.881 -0.4560 -0.1991  0.5866
 9073SOL    HW128703   5.865   5.852   6.837 -1.7237  1.3148 -0.0077
 9073SOL    HW228704   5.920   5.890   6.973 -1.3198 -0.7335  0.4253
 9074SOL     OW28705   3.338   4.135   1.572  0.3529 -0.2925 -0.2924
 9074SOL    HW128706   3.343   4.141   1.476 -2.8704 -1.4628 -0.5923
 9074SOL    HW228707   3.294   4.052   1.589 -0.1784  0.4499  2.1795
 9075SOL     OW28708   7.588   7.631   2.039  0.4680 -0.0825 -0.2956
 9075SOL    HW128709   7.581   7.725   2.056  0.9261  0.1004 -1.0763
 9075SOL    HW228710   7.648   7.625   1.965 -0.8626 -0.8821 -1.3362
 9076SOL     OW28711   6.152   2.481   2.244  0.0944  0.1433  0.4884
 9076SOL    HW128712   6.166   2.443   2.157 -0.9536 -2.4877  1.4217
 9076SOL    HW228713   6.073   2.535   2.234 -0.8304 -1.2552  0.1186
 9077SOL     OW28714   7.532   6.532   6.036 -0.2575 -0.5054  0.2361
 9077SOL    HW128715   7.536   6.618   6.078 -0.2165 -0.2855 -0.2176
 9077SOL    HW228716   7.446   6.498   6.060 -0.5398 -0.0589 -0.1209
 9078SOL     OW28717   0.760   7.434   1.118 -0.2875  0.5270  0.0633
 9078SOL    HW128718   0.689   7.497   1.130  0.1129  1.4325 -2.0819
 9078SOL    HW228719   0.840   7.488   1.118  0.1917 -0.1816 -0.0585
 9079SOL     OW28720   3.421   5.228   6.298 -0.5438  0.1992 -0.4132
 9079SOL    HW128721   3.382   5.149   6.336 -1.3859 -0.0013 -1.6480
 9079SOL    HW228722   3.515   5.213   6.300 -0.6785 -0.6033 -0.1467
 9080SOL     OW28723   2.026   4.950   2.014 -0.0452 -0.5753 -0.1987
 9080SOL    HW128724   2.122   4.953   2.014 -0.0465  2.2853  1.9936
 9080SOL    HW228725   2.000   5.042   2.017 -2.8426 -1.3554  1.1608
 9081SOL     OW28726   7.240   1.848   6.307 -0.1803 -0.4525  0.5540
 9081SOL    HW128727   7.157   1.894   6.292  0.5343  1.0829  1.1734
 9081SOL    HW228728   7.291   1.864   6.227 -0.2717 -0.9674  0.3869
 9082SOL     OW28729   3.338   4.565   3.283 -0.3734 -0.4529 -0.0767
 9082SOL    HW128730   3.343   4.658   3.306  0.7670 -0.6849  0.6810
 9082SOL    HW228731   3.300   4.524   3.361 -0.7865 -0.6364 -0.3743
 9083SOL     OW28732   5.524   7.264   3.163  0.5672 -0.3674 -0.4144
 9083SOL    HW128733   5.555   7.348   3.195 -1.4586  0.3074 -0.1398
 9083SOL    HW228734   5.548   7.263   3.070  0.5075  0.5592 -0.4432
 9084SOL     OW28735   7.741   6.605   3.802  0.1804  0.4686 -0.0686
 9084SOL    HW128736   7.741   6.624   3.896  1.4194 -2.8827  0.6877
 9084SOL    HW228737   7.688   6.526   3.793  1.1695 -0.0102 -1.9849
 9085SOL     OW28738   8.082   2.349   3.425  0.4349 -0.0968 -0.3164
 9085SOL    HW128739   8.141   2.275   3.436 -1.3748 -1.5782 -0.3067
 9085SOL    HW228740   8.002   2.311   3.388 -1.0797  1.5965  1.0955
 9086SOL     OW28741   7.392   4.235   5.248  0.5966  0.0689 -0.1306
 9086SOL    HW128742   7.418   4.327   5.246 -0.7561  0.4618 -0.3952
 9086SOL    HW228743   7.426   4.202   5.331 -0.0252  1.1594  0.5756
 9087SOL     OW28744   7.002   0.503   3.034  0.0255 -0.0383  0.7051
 9087SOL    HW128745   6.955   0.452   2.967  0.8546  0.4793 -0.2847
 9087SOL    HW228746   7.061   0.440   3.074  1.6855  0.2959 -1.1211
 9088SOL     OW28747   3.722   3.335   1.389  0.0406 -0.4921  0.0118
 9088SOL    HW128748   3.790   3.344   1.456 -1.5920  0.2250  1.6227
 9088SOL    HW228749   3.752   3.390   1.317  0.2720  1.3404  1.4769
 9089SOL     OW28750   6.755   1.279   5.032 -0.2381 -0.2389  0.0255
 9089SOL    HW128751   6.726   1.370   5.021 -1.2942 -0.2470  2.4341
 9089SOL    HW228752   6.712   1.231   4.961 -0.4300  0.9920 -0.6988
 9090SOL     OW28753   7.080   4.466   4.203 -0.0831 -0.3716  0.1552
 9090SOL    HW128754   7.049   4.397   4.144  0.2823 -0.8815  0.5579
 9090SOL    HW228755   7.164   4.493   4.166  0.3795 -1.0318  0.7104
 9091SOL     OW28756   8.002   1.414   6.719 -0.5861  0.6765  0.7290
 9091SOL    HW128757   7.925   1.456   6.757  0.5416  1.3395  2.3181
 9091SOL    HW228758   8.009   1.331   6.766 -0.0879  0.8033  0.8797
 9092SOL     OW28759   7.023   0.273   7.308 -0.4372  0.7867  0.1131
 9092SOL    HW128760   7.097   0.310   7.259 -1.4207  0.0657 -1.9903
 9092SOL    HW228761   6.952   0.335   7.293  0.2188  2.5444  3.7947
 9093SOL     OW28762   1.994   5.809   2.920 -0.6266 -0.3235 -0.0887
 9093SOL    HW128763   1.958   5.731   2.964 -1.4641 -0.4465 -0.9950
 9093SOL    HW228764   1.928   5.876   2.933  0.2088  0.3300  0.9116
 9094SOL     OW28765   2.984   3.896   3.330 -0.3260 -0.0148  0.0127
 9094SOL    HW128766   3.069   3.883   3.373 -0.1873  2.1504  0.4445
 9094SOL    HW228767   3.006   3.931   3.243 -0.7202 -1.1339 -0.5410
 9095SOL     OW28768   6.752   2.664   8.001  0.1245 -0.3198 -0.3757
 9095SOL    HW128769   6.735   2.710   7.919 -0.0472  0.5205  0.1139
 9095SOL    HW228770   6.798   2.585   7.976  1.6774  0.7996 -1.1639
 9096SOL     OW28771   2.569   4.595   1.795 -0.2322  0.0814  0.3957
 9096SOL    HW128772   2.492   4.638   1.756 -0.4871 -0.0709  0.7281
 9096SOL    HW228773   2.551   4.595   1.889  0.0000 -0.2975  0.4410
 9097SOL     OW28774   7.888   6.277   0.185 -0.2864 -0.1463  0.0551
 9097SOL    HW128775   7.902   6.206   0.123 -1.2092 -0.2576 -0.0332
 9097SOL    HW228776   7.911   6.356   0.136 -0.4061 -0.2860 -0.2262
 9098SOL     OW28777   8.090   0.921   6.746 -0.4541 -0.5640  0.2014
 9098SOL    HW128778   8.115   0.830   6.759 -1.7457 -0.7839  1.1321
 9098SOL    HW228779   7.995   0.920   6.739 -0.4599  0.6866 -0.0307
 9099SOL     OW28780   6.979   5.799   5.004  0.4792 -0.0397 -0.2941
 9099SOL    HW128781   6.915   5.751   4.952  2.2419 -2.0605 -0.6854
 9099SOL    HW228782   7.038   5.731   5.038  1.6350  1.6289  1.1444
 9100SOL     OW28783   8.175   6.957   6.860  0.1688  0.2391 -0.2354
 9100SOL    HW128784   8.227   6.985   6.785  2.9754  1.0907  1.9449
 9100SOL    HW228785   8.190   7.023   6.927 -3.5294  0.3335  0.6263
 9101SOL     OW28786   0.525   5.267   6.781 -0.4284 -0.9443  0.3072
 9101SOL    HW128787   0.606   5.244   6.735 -0.1412  1.1399 -0.2967
 9101SOL    HW228788   0.455   5.228   6.729 -0.0080  0.0697 -1.0533
 9102SOL     OW28789   7.343   6.679   4.228 -0.4736 -0.0376  0.1611
 9102SOL    HW128790   7.328   6.740   4.157 -1.7823  0.4065  0.8047
 9102SOL    HW228791   7.394   6.729   4.292  1.9132 -0.8529 -1.0278
 9103SOL     OW28792   1.488   5.325   3.639 -0.3622 -0.1409 -0.6011
 9103SOL    HW128793   1.477   5.278   3.721 -1.4751 -0.6671 -1.0358
 9103SOL    HW228794   1.517   5.413   3.664  1.4887 -0.9723  0.2330
 9104SOL     OW28795   5.341   3.790   6.857 -0.0724 -0.0764 -0.9013
 9104SOL    HW128796   5.330   3.859   6.791 -0.5543  0.8370  0.1085
 9104SOL    HW228797   5.417   3.819   6.908 -1.5962  0.8642  0.8953
 9105SOL     OW28798   7.030   8.182   2.661 -0.0870 -0.2249 -0.0031
 9105SOL    HW128799   7.079   8.247   2.611  0.4636 -0.8982 -0.3411
 9105SOL    HW228800   7.002   8.117   2.596  0.1764 -0.8227  0.4757
 9106SOL     OW28801   7.680   5.481   7.170 -0.1096  0.3111  0.2839
 9106SOL    HW128802   7.716   5.464   7.258  1.7158  1.7010 -0.1587
 9106SOL    HW228803   7.624   5.557   7.181 -0.2719  0.1864  0.3282
 9107SOL     OW28804   5.874   7.484   0.300 -0.0052  0.0382  0.6395
 9107SOL    HW128805   5.958   7.451   0.333  0.0205 -0.5477  0.0017
 9107SOL    HW228806   5.898   7.555   0.241  0.0435 -0.1907  0.3858
 9108SOL     OW28807   5.557   6.647   4.004  0.3707 -0.0205  0.6827
 9108SOL    HW128808   5.629   6.676   3.947 -1.3066  0.4719 -1.2331
 9108SOL    HW228809   5.579   6.557   4.026  1.3303 -0.0487 -0.3206
 9109SOL     OW28810   4.832   0.301   0.284 -0.0540 -0.1115  0.1738
 9109SOL    HW128811   4.851   0.229   0.224  0.2046 -1.1385  1.4571
 9109SOL    HW228812   4.918   0.329   0.315 -0.0946  1.3982 -1.0495
 9110SOL     OW28813   3.781   4.819   4.591 -0.0510 -0.2003 -0.0213
 9110SOL    HW128814   3.857   4.825   4.534 -0.8926  2.0822 -0.9797
 9110SOL    HW228815   3.801   4.749   4.652  3.4975  1.4176  0.7700
 9111SOL     OW28816   0.765   5.872   7.042  0.2183  0.1968 -0.3334
 9111SOL    HW128817   0.727   5.812   6.977  2.0831  0.1172 -1.3995
 9111SOL    HW228818   0.751   5.828   7.126 -0.3633 -0.7147 -0.8908
 9112SOL     OW28819   1.561   8.162   3.016  0.1004 -0.3212  0.3676
 9112SOL    HW128820   1.467   8.154   3.004  0.0461 -0.1888  0.7249
 9112SOL    HW228821   1.572   8.239   3.072  0.4104 -0.4550  0.4888
 9113SOL     OW28822   0.922   4.075   5.230 -0.3489  0.0826 -0.0195
 9113SOL    HW128823   0.961   4.076   5.317 -0.0241 -0.2201 -0.1603
 9113SOL    HW228824   0.971   4.008   5.183  0.6114  1.4150 -0.9599
 9114SOL     OW28825   3.560   4.758   0.965  0.6690  0.0129  0.2194
 9114SOL    HW128826   3.616   4.686   0.994 -0.0014 -0.4080  0.5003
 9114SOL    HW228827   3.523   4.794   1.045 -0.8943 -0.9153 -0.0505
 9115SOL     OW28828   0.206   0.203   2.420  0.8678  0.5273  0.4403
 9115SOL    HW128829   0.241   0.169   2.502 -0.2451  1.6353  1.3968
 9115SOL    HW228830   0.226   0.135   2.356 -0.6113 -1.5909  2.1346
 9116SOL     OW28831   6.728   4.236   3.319  0.0261  0.3968 -0.2417
 9116SOL    HW128832   6.709   4.302   3.252  0.8056  1.0282  0.1416
 9116SOL    HW228833   6.646   4.225   3.366 -0.1626  0.9685 -0.4283
 9117SOL     OW28834   6.449   4.704   0.826  0.3140 -0.8232  0.6953
 9117SOL    HW128835   6.537   4.699   0.862  0.8330 -0.7606 -0.5452
 9117SOL    HW228836   6.420   4.612   0.820  1.6139 -1.1026 -2.0543
 9118SOL     OW28837   7.974   3.527   2.846 -0.2199 -0.3844  0.4820
 9118SOL    HW128838   7.920   3.448   2.856 -2.0543  1.1127  2.9349
 9118SOL    HW228839   8.044   3.500   2.787 -1.2351 -3.6326  0.6358
 9119SOL     OW28840   7.139   1.264   2.009  0.2174 -0.4589  0.7729
 9119SOL    HW128841   7.102   1.352   2.003  0.1415 -0.5239  0.2920
 9119SOL    HW228842   7.135   1.242   2.103 -2.1238 -0.9819  0.5713
 9120SOL     OW28843   1.997   3.954   2.793 -0.5256 -0.0156 -0.4094
 9120SOL    HW128844   1.993   4.003   2.875 -0.0505  0.3603 -0.6038
 9120SOL    HW228845   2.006   4.022   2.726  2.1108 -0.4367 -0.5281
 9121SOL     OW28846   4.600   7.928   4.249  0.5345 -0.2168 -0.1553
 9121SOL    HW128847   4.675   7.869   4.249 -0.3576 -1.4178  3.0086
 9121SOL    HW228848   4.637   8.014   4.272  1.1076 -0.5386  0.1340
 9122SOL     OW28849   1.704   7.045   8.058 -0.1933 -0.8776 -0.0414
 9122SOL    HW128850   1.747   6.963   8.085 -0.7415 -0.8214  1.0289
 9122SOL    HW228851   1.630   7.054   8.118  0.2930  0.7906  0.3396
 9123SOL     OW28852   4.249   5.462   2.760  0.2887  0.0586  0.1815
 9123SOL    HW128853   4.178   5.521   2.735 -0.5606 -0.9378  0.2409
 9123SOL    HW228854   4.283   5.428   2.677  0.3133  0.0714  0.1858
 9124SOL     OW28855   3.826   1.253   6.685 -0.2744 -0.5825  0.0247
 9124SOL    HW128856   3.744   1.286   6.723  1.8493  2.5160  2.1270
 9124SOL    HW228857   3.809   1.252   6.590 -2.8765 -0.4025  0.4543
 9125SOL     OW28858   0.798   4.872   7.897 -0.7932 -0.2209 -0.2002
 9125SOL    HW128859   0.775   4.807   7.830 -2.1552  2.2655 -2.2337
 9125SOL    HW228860   0.882   4.907   7.868  0.4534 -1.7433  1.4539
 9126SOL     OW28861   6.097   1.698   5.584 -0.0407 -0.3048 -0.5223
 9126SOL    HW128862   6.172   1.641   5.569  0.3443  0.3746 -1.1801
 9126SOL    HW228863   6.071   1.728   5.497  0.9834  2.0983 -0.0261
 9127SOL     OW28864   6.894   2.393   7.908 -0.1718 -0.2022  0.1236
 9127SOL    HW128865   6.857   2.400   7.820  0.1459 -0.5785 -0.0396
 9127SOL    HW228866   6.887   2.300   7.930  0.2710 -0.1998  0.2707
 9128SOL     OW28867   2.815   2.953   7.038 -0.5315 -0.0558  0.2563
 9128SOL    HW128868   2.764   2.915   6.966  0.1068  1.4255 -0.9920
 9128SOL    HW228869   2.776   3.039   7.052  0.8538  0.6034  0.1023
 9129SOL     OW28870   3.824   0.529   6.642 -0.0625 -0.0814  0.1318
 9129SOL    HW128871   3.750   0.576   6.604 -0.4489 -0.5824  0.2502
 9129SOL    HW228872   3.805   0.437   6.623 -1.9990 -0.6921  4.4425
 9130SOL     OW28873   5.039   5.213   0.313 -0.0646 -0.3705  0.2782
 9130SOL    HW128874   5.013   5.267   0.388  1.7557 -1.2120  1.5440
 9130SOL    HW228875   4.978   5.238   0.243  0.1791  2.7069  1.0883
 9131SOL     OW28876   5.086   5.057   6.955 -0.0937 -0.1445  0.1678
 9131SOL    HW128877   5.137   5.123   7.003  1.2843 -0.7409 -0.4451
 9131SOL    HW228878   5.076   4.985   7.017 -2.0988  0.8410  1.0389
 9132SOL     OW28879   3.273   3.116   7.509  0.1770  0.1027 -0.2320
 9132SOL    HW128880   3.226   3.041   7.472 -0.4743  1.0882 -1.4486
 9132SOL    HW228881   3.362   3.083   7.524 -0.3426 -1.1737  0.1316
 9133SOL     OW28882   5.801   0.240   7.177  0.0171  0.0296  0.3477
 9133SOL    HW128883   5.757   0.325   7.179  0.0196  0.0448 -0.0649
 9133SOL    HW228884   5.777   0.198   7.259  0.3026  0.5711  0.7105
 9134SOL     OW28885   1.527   3.500   7.823  0.5645  0.3561 -0.5585
 9134SOL    HW128886   1.570   3.533   7.901 -0.4322 -0.7137  0.4532
 9134SOL    HW228887   1.541   3.405   7.825 -2.3750 -0.1107  0.1602
 9135SOL     OW28888   4.155   3.300   1.137  0.4187  0.1235 -0.3350
 9135SOL    HW128889   4.094   3.369   1.112 -0.6720 -0.1644  1.4028
 9135SOL    HW228890   4.241   3.332   1.110 -0.2850  1.3846 -1.0982
 9136SOL     OW28891   1.584   4.709   4.341  0.3210 -0.3947 -0.3166
 9136SOL    HW128892   1.556   4.693   4.250 -1.7300  0.8193  0.0575
 9136SOL    HW228893   1.519   4.663   4.394  2.2591 -2.2032  0.5637
 9137SOL     OW28894   1.771   3.054   3.026  0.5618 -0.2382  0.7029
 9137SOL    HW128895   1.709   3.046   3.098  1.2011 -2.1813  1.0768
 9137SOL    HW228896   1.736   3.123   2.970 -1.1787 -0.3507  1.6503
 9138SOL     OW28897   2.233   5.584   3.448  0.8057  0.2718 -0.3324
 9138SOL    HW128898   2.292   5.561   3.520  0.3061  1.8662  0.6032
 9138SOL    HW228899   2.175   5.508   3.440  2.5307 -1.0431 -0.8382
 9139SOL     OW28900   1.491   1.391   6.470  0.0278 -0.2462  0.4711
 9139SOL    HW128901   1.490   1.328   6.398  0.4135 -0.9121  1.0374
 9139SOL    HW228902   1.409   1.376   6.516 -0.6597  0.8260 -0.3597
 9140SOL     OW28903   7.640   6.667   6.822 -0.3818 -0.5943  0.1460
 9140SOL    HW128904   7.675   6.748   6.861  0.4189  0.0074 -1.7946
 9140SOL    HW228905   7.546   6.682   6.818 -0.3484 -0.1858  0.7454
 9141SOL     OW28906   4.174   0.094   0.847  0.0509  0.4238  0.2068
 9141SOL    HW128907   4.226   0.015   0.861 -0.7397 -0.2319 -0.5383
 9141SOL    HW228908   4.228   0.164   0.884  1.1301 -0.3414  0.1217
 9142SOL     OW28909   4.085   1.094   2.926  0.0621 -0.3585  0.2726
 9142SOL    HW128910   4.055   1.124   2.841  0.7375 -0.0552  0.1437
 9142SOL    HW228911   4.005   1.067   2.971 -0.2454 -1.0152 -0.6457
 9143SOL     OW28912   5.730   0.969   1.607 -0.4521  0.3273 -0.4343
 9143SOL    HW128913   5.671   0.898   1.633 -1.5227  1.0467 -0.8782
 9143SOL    HW228914   5.700   0.996   1.521  1.6270 -0.4639 -1.4413
 9144SOL     OW28915   2.373   6.248   0.223 -0.1165 -0.5737  0.0688
 9144SOL    HW128916   2.461   6.284   0.211 -0.0029 -0.3158  1.5648
 9144SOL    HW228917   2.380   6.195   0.302 -1.8465  1.2107  1.4356
 9145SOL     OW28918   0.405   1.480   7.000 -0.2809  0.5501  0.3473
 9145SOL    HW128919   0.411   1.433   7.084  0.4178  0.3387  0.1776
 9145SOL    HW228920   0.317   1.518   7.001 -0.3648  0.3498  1.0747
 9146SOL     OW28921   8.211   2.871   3.175 -0.5718 -0.0885 -0.2580
 9146SOL    HW128922   8.149   2.798   3.167 -2.2063  1.2642 -0.2492
 9146SOL    HW228923   8.203   2.919   3.093 -0.2315  0.6419  0.1305
 9147SOL     OW28924   2.679   2.258   7.192  0.2065  0.1030 -0.3334
 9147SOL    HW128925   2.662   2.268   7.286 -1.8757 -0.7789 -0.5967
 9147SOL    HW228926   2.666   2.345   7.156 -0.1356  0.2054  0.0319
 9148SOL     OW28927   2.446   0.958   2.158  0.4661  0.1170 -0.1121
 9148SOL    HW128928   2.382   0.950   2.230  1.2137 -1.1163  0.4357
 9148SOL    HW228929   2.394   0.946   2.079  0.1179 -1.6866  0.3651
 9149SOL     OW28930   4.349   3.211   1.363  0.4323  0.4532  0.1157
 9149SOL    HW128931   4.281   3.195   1.427  0.4736  1.7022  0.4930
 9149SOL    HW228932   4.373   3.303   1.376  0.6226  0.6525 -1.5063
 9150SOL     OW28933   5.053   2.158   7.585  0.1029  0.0675  0.1925
 9150SOL    HW128934   5.071   2.190   7.674 -0.0562 -0.7601  0.5276
 9150SOL    HW228935   5.016   2.234   7.540 -2.2842 -0.1692  1.6092
 9151SOL     OW28936   0.688   0.227   4.928 -0.3602 -0.0769  0.5526
 9151SOL    HW128937   0.610   0.228   4.871 -1.3447  0.7895  1.8896
 9151SOL    HW228938   0.760   0.203   4.869 -1.6739 -1.1887 -0.6506
 9152SOL     OW28939   1.568   7.153   5.381  0.6060  0.1697  0.3883
 9152SOL    HW128940   1.523   7.071   5.400  0.6177  0.3249  1.1077
 9152SOL    HW228941   1.533   7.180   5.296 -2.2319  1.3171  1.8263
 9153SOL     OW28942   1.030   1.464   2.282  0.4975 -0.2066 -0.1798
 9153SOL    HW128943   1.124   1.450   2.276  0.5532  0.6070 -1.3682
 9153SOL    HW228944   1.020   1.559   2.294 -0.1946 -0.1695 -0.9471
 9154SOL     OW28945   3.996   3.590   1.580 -0.5704  0.4490  0.5316
 9154SOL    HW128946   3.975   3.595   1.487 -1.6872 -0.1365  0.7446
 9154SOL    HW228947   3.912   3.595   1.624 -0.0017  1.4000  1.5504
 9155SOL     OW28948   4.180   7.733   0.016  0.4855  0.3374  0.5761
 9155SOL    HW128949   4.260   7.682   0.004  0.9948  1.2220  0.1519
 9155SOL    HW228950   4.209   7.824   0.015 -0.7715  0.7574 -1.6762
 9156SOL     OW28951   5.562   0.953   2.765  0.0547  0.4821 -0.8717
 9156SOL    HW128952   5.598   0.932   2.851  1.1785 -1.1179 -1.7119
 9156SOL    HW228953   5.499   1.023   2.782 -0.5120 -0.5193  1.3922
 9157SOL     OW28954   6.255   2.701   0.520  0.8373  0.2841 -0.2668
 9157SOL    HW128955   6.181   2.640   0.524  2.3102 -1.4481  0.8390
 9157SOL    HW228956   6.322   2.655   0.470  2.6078  0.2484  2.0482
 9158SOL     OW28957   7.976   0.152   8.172 -0.6193  0.8594 -0.4246
 9158SOL    HW128958   8.058   0.200   8.161  1.5155 -2.6108 -0.3286
 9158SOL    HW228959   7.939   0.145   8.084  0.1952  0.7687 -0.7607
 9159SOL     OW28960   4.472   2.262   0.913 -0.4627 -0.4083  0.1656
 9159SOL    HW128961   4.501   2.349   0.940 -0.6269 -0.3766  0.2370
 9159SOL    HW228962   4.453   2.270   0.820 -1.1213 -0.2038  0.3206
 9160SOL     OW28963   2.973   3.328   1.262  0.2886 -0.1470  0.3109
 9160SOL    HW128964   3.022   3.311   1.181 -1.4331  0.2635 -0.8373
 9160SOL    HW228965   2.886   3.352   1.232  0.0017  1.2935  2.2703
 9161SOL     OW28966   3.222   5.436   0.842  0.2148 -0.0373  0.6180
 9161SOL    HW128967   3.297   5.406   0.892 -1.1881  0.7442  3.2744
 9161SOL    HW228968   3.169   5.485   0.905 -2.5672 -0.6687 -1.1563
 9162SOL     OW28969   0.154   8.103   1.087  0.7056 -0.1095  0.3554
 9162SOL    HW128970   0.154   8.008   1.081  2.0252 -0.1538  1.0209
 9162SOL    HW228971   0.189   8.122   1.174  2.8877  1.0278 -0.7273
 9163SOL     OW28972   6.569   6.379   2.369 -0.6017  0.2663 -0.3547
 9163SOL    HW128973   6.594   6.312   2.433  0.4273  0.7523 -0.2317
 9163SOL    HW228974   6.478   6.359   2.347 -0.3988 -0.9867 -0.0890
 9164SOL     OW28975   3.283   6.307   5.706  0.0635  0.0076 -0.5855
 9164SOL    HW128976   3.214   6.349   5.757 -0.9560 -1.5382 -0.6781
 9164SOL    HW228977   3.321   6.378   5.654 -0.5251  1.1287  0.4914
 9165SOL     OW28978   6.777   7.503   2.117 -0.2209  0.0654  0.4655
 9165SOL    HW128979   6.754   7.477   2.206  0.6314 -0.1488  0.6251
 9165SOL    HW228980   6.696   7.539   2.081 -0.5639  0.1601  1.3270
 9166SOL     OW28981   6.838   6.353   1.191 -0.2243  0.0455  0.1492
 9166SOL    HW128982   6.820   6.420   1.126 -0.3233  0.2062  0.3445
 9166SOL    HW228983   6.785   6.278   1.164 -0.1726  0.0708 -0.0233
 9167SOL     OW28984   0.995   6.227   0.221  0.0220 -0.1180 -0.2227
 9167SOL    HW128985   0.923   6.177   0.260  0.1111 -0.7280 -0.8402
 9167SOL    HW228986   0.952   6.283   0.155 -0.0982  0.7371  0.5746
 9168SOL     OW28987   2.773   2.441   5.580  0.3042  0.3864  0.4406
 9168SOL    HW128988   2.753   2.504   5.510  0.3280 -0.7478 -0.6049
 9168SOL    HW228989   2.688   2.426   5.623  0.2452  0.9328  0.5111
 9169SOL     OW28990   3.455   7.881   1.092  0.0124  0.3689 -0.4196
 9169SOL    HW128991   3.400   7.955   1.065  1.0086  1.0317 -0.6697
 9169SOL    HW228992   3.500   7.854   1.012 -0.6127 -0.7504 -0.4015
 9170SOL     OW28993   4.470   4.184   2.002  0.5779  0.1709  0.5100
 9170SOL    HW128994   4.557   4.182   2.040  0.5674  0.4362  0.5503
 9170SOL    HW228995   4.464   4.269   1.959  0.3031  0.1970  0.5960
 9171SOL     OW28996   6.072   0.275   8.171  0.3708 -0.3303 -0.2059
 9171SOL    HW128997   6.015   0.346   8.144 -2.0896 -2.2976 -0.3787
 9171SOL    HW228998   6.118   0.250   8.091 -0.5596 -0.5023 -0.6965
 9172SOL     OW28999   6.293   8.181   4.033  0.3705 -0.2571  0.4981
 9172SOL    HW129000   6.336   8.213   3.954  3.0924  0.3419  2.1360
 9172SOL    HW229001   6.230   8.249   4.057 -1.2456 -0.9389 -1.7089
 9173SOL     OW29002   5.982   4.822   5.745 -0.5652  0.5893  0.3475
 9173SOL    HW129003   5.974   4.914   5.768 -0.3305  0.9646 -1.0252
 9173SOL    HW229004   5.898   4.783   5.771 -0.9397  1.3350  0.2582
 9174SOL     OW29005   3.145   2.448   1.506 -0.4228 -0.0272  0.0368
 9174SOL    HW129006   3.216   2.394   1.541  0.2916  0.7320 -0.2211
 9174SOL    HW229007   3.112   2.399   1.431  1.6067  0.8352 -1.4680
 9175SOL     OW29008   5.646   6.423   7.193  0.3263 -0.1114  0.4053
 9175SOL    HW129009   5.728   6.381   7.170  1.1023  1.4706  0.1881
 9175SOL    HW229010   5.578   6.371   7.150  1.5156  1.0919 -3.0282
 9176SOL     OW29011   5.982   6.260   3.250 -0.2144 -0.3615 -0.3063
 9176SOL    HW129012   5.942   6.314   3.317  0.4110 -1.5512  1.0375
 9176SOL    HW229013   6.045   6.205   3.297  0.0578 -1.3792 -1.8205
 9177SOL     OW29014   3.841   2.082   5.557 -0.1275 -1.0089  0.1141
 9177SOL    HW129015   3.903   2.011   5.536  0.5019 -0.8240  1.2943
 9177SOL    HW229016   3.763   2.037   5.589 -0.8572 -1.2670 -2.0110
 9178SOL     OW29017   3.410   7.749   5.346  0.3103 -0.2333 -0.0061
 9178SOL    HW129018   3.502   7.724   5.358  0.0928 -0.8749  0.3494
 9178SOL    HW229019   3.379   7.695   5.274  0.4037  0.4979 -0.6034
 9179SOL     OW29020   3.047   1.147   1.290  0.0930 -0.4270  0.1919
 9179SOL    HW129021   3.100   1.204   1.347  0.4371  0.6864 -1.2161
 9179SOL    HW229022   3.102   1.133   1.213 -0.1844 -2.2997  0.3067
 9180SOL     OW29023   7.193   2.532   2.944 -0.5564  0.5975  0.2495
 9180SOL    HW129024   7.148   2.451   2.921 -0.0568  0.6889 -1.0740
 9180SOL    HW229025   7.202   2.579   2.861  1.0591  1.0382  0.6563
 9181SOL     OW29026   3.463   3.798   0.474  0.1581 -0.2342  0.0060
 9181SOL    HW129027   3.530   3.859   0.506 -0.0200 -0.4084  0.7320
 9181SOL    HW229028   3.512   3.732   0.425  0.4587 -0.0602  0.0727
 9182SOL     OW29029   6.620   3.260   4.645  0.3132 -0.0107 -0.5057
 9182SOL    HW129030   6.670   3.320   4.590 -0.9164 -0.4758 -2.1776
 9182SOL    HW229031   6.556   3.315   4.689 -0.1204  0.0566 -1.2192
 9183SOL     OW29032   4.643   2.797   3.770 -0.0879 -0.2487 -0.2144
 9183SOL    HW129033   4.555   2.761   3.782 -0.2344 -0.2276 -1.1548
 9183SOL    HW229034   4.655   2.855   3.845 -0.2347 -1.4836  0.7847
 9184SOL     OW29035   1.066   2.174   5.143  0.2794  0.4561  0.0432
 9184SOL    HW129036   1.112   2.257   5.155 -0.3763  0.7055  0.8807
 9184SOL    HW229037   1.125   2.108   5.178  0.4297  0.6614  0.1750
 9185SOL     OW29038   7.290   7.101   1.997  0.1709  0.6584 -0.0232
 9185SOL    HW129039   7.299   7.154   1.917 -0.5974  1.0465  0.1404
 9185SOL    HW229040   7.199   7.113   2.024 -0.0340 -0.8268 -0.0196
 9186SOL     OW29041   7.952   8.199   7.585 -0.2947 -0.1632 -0.2849
 9186SOL    HW129042   7.887   8.267   7.601  0.2453 -0.3630  3.0689
 9186SOL    HW229043   7.905   8.131   7.537 -0.9652  2.2958 -3.2755
 9187SOL     OW29044   5.689   3.591   1.443 -0.2502 -0.0209 -0.3266
 9187SOL    HW129045   5.601   3.568   1.475  0.1590 -0.1052  0.7264
 9187SOL    HW229046   5.703   3.530   1.370 -0.1676 -1.5139  0.9090
 9188SOL     OW29047   2.541   7.638   7.360  0.5505  0.5359  0.0995
 9188SOL    HW129048   2.491   7.655   7.281  2.8300  1.6458 -1.1361
 9188SOL    HW229049   2.476   7.606   7.423 -1.3148 -0.2305 -2.1413
 9189SOL     OW29050   8.088   1.270   0.858 -0.4190  0.1982 -0.2557
 9189SOL    HW129051   8.140   1.341   0.820  0.4607 -1.3581 -2.0284
 9189SOL    HW229052   8.147   1.230   0.923 -0.3521  0.1061 -0.3719
 9190SOL     OW29053   1.869   1.387   8.087  0.6714  0.5167  0.9208
 9190SOL    HW129054   1.851   1.318   8.024 -0.2252  0.7709  0.8901
 9190SOL    HW229055   1.796   1.449   8.076  1.6002  1.6093  0.7425
 9191SOL     OW29056   4.990   1.314   4.801 -0.0470  0.6794  0.8722
 9191SOL    HW129057   4.903   1.277   4.786 -0.3764  2.3049 -1.4073
 9191SOL    HW229058   5.004   1.304   4.895 -3.0075  1.0368  1.3959
 9192SOL     OW29059   1.616   4.019   6.867 -0.1913  0.0874 -0.3525
 9192SOL    HW129060   1.660   3.989   6.787 -0.6561 -1.5480 -0.0207
 9192SOL    HW229061   1.523   4.021   6.845 -0.5861 -2.7880  0.8391
 9193SOL     OW29062   2.440   7.432   3.895  0.2394  0.0110  0.3663
 9193SOL    HW129063   2.485   7.381   3.962 -1.7607 -1.3381  0.7230
 9193SOL    HW229064   2.483   7.407   3.813  0.3099 -1.0597  0.7205
 9194SOL     OW29065   2.656   6.863   4.797  0.2855 -0.3527  0.4179
 9194SOL    HW129066   2.698   6.875   4.712  2.6598  0.9635  1.7205
 9194SOL    HW229067   2.570   6.825   4.776  1.2003 -0.9746 -2.4775
 9195SOL     OW29068   0.126   3.062   6.879 -0.1798  0.0804 -0.5818
 9195SOL    HW129069   0.065   3.038   6.810 -2.0023  1.6673  0.4176
 9195SOL    HW229070   0.206   3.089   6.833 -1.5864  1.7384 -2.1042
 9196SOL     OW29071   6.316   7.572   7.842  0.1807  0.3588  0.6784
 9196SOL    HW129072   6.279   7.532   7.921 -2.8163 -0.6158 -1.1342
 9196SOL    HW229073   6.271   7.656   7.834  2.4584  1.6953  1.4494
 9197SOL     OW29074   5.389   1.839   6.987  0.3172 -0.1713  0.0389
 9197SOL    HW129075   5.406   1.838   7.081  0.8088 -4.0156 -0.0202
 9197SOL    HW229076   5.463   1.793   6.948 -0.7307 -0.1232 -2.1031
 9198SOL     OW29077   7.833   5.901   5.389  0.7048 -0.3144 -0.0781
 9198SOL    HW129078   7.783   5.922   5.467  1.4372  0.2563  0.2564
 9198SOL    HW229079   7.783   5.833   5.345 -1.3807  1.6289 -0.7907
 9199SOL     OW29080   4.439   2.060   7.570  0.0209  0.0467 -0.1428
 9199SOL    HW129081   4.486   2.073   7.487  2.4117  0.0384  1.1744
 9199SOL    HW229082   4.431   2.149   7.606  0.8481 -0.1803  0.6038
 9200SOL     OW29083   2.270   6.907   5.940 -0.4503 -0.0903  0.6117
 9200SOL    HW129084   2.298   6.857   6.017  0.3008 -1.7080 -0.6772
 9200SOL    HW229085   2.174   6.903   5.942 -0.5111  1.2983  2.3454
 9201SOL     OW29086   7.065   5.081   0.341 -0.8518 -0.3149 -0.2405
 9201SOL    HW129087   7.030   5.158   0.297  0.9719  1.6002  1.5443
 9201SOL    HW229088   7.029   5.085   0.430  0.6577 -0.5250  0.3992
 9202SOL     OW29089   0.283   6.327   3.152 -0.4210  0.1968 -0.4975
 9202SOL    HW129090   0.245   6.242   3.177 -1.7650  0.4401 -1.6713
 9202SOL    HW229091   0.236   6.391   3.205  0.2004  0.2613 -0.0232
 9203SOL     OW29092   0.771   7.429   5.524 -0.2217 -0.6828 -0.3039
 9203SOL    HW129093   0.710   7.359   5.549 -0.8924 -0.2036 -0.5887
 9203SOL    HW229094   0.715   7.499   5.492  0.1196  1.7922  4.1866
 9204SOL     OW29095   1.033   7.471   6.933 -0.0053  0.2745  0.3100
 9204SOL    HW129096   1.026   7.468   6.838 -1.0553  0.5842  0.3693
 9204SOL    HW229097   0.956   7.422   6.964 -0.3408  1.2172  0.9930
 9205SOL     OW29098   0.082   6.025   3.728 -0.3392 -0.1275  0.2430
 9205SOL    HW129099   0.050   5.946   3.686 -1.9382  0.2695  0.7028
 9205SOL    HW229100   0.087   6.090   3.657 -0.9093 -0.0817  0.2468
 9206SOL     OW29101   2.689   6.515   1.441 -0.0772 -0.0577 -0.1437
 9206SOL    HW129102   2.768   6.487   1.488 -0.0431  0.3215  0.0234
 9206SOL    HW229103   2.699   6.478   1.353  0.3191  0.0523 -0.1446
 9207SOL     OW29104   7.492   1.598   6.738 -0.4588 -0.0323  0.4056
 9207SOL    HW129105   7.466   1.613   6.647  0.3494 -1.0891 -0.0174
 9207SOL    HW229106   7.478   1.682   6.781  0.3675  0.8476 -0.9916
 9208SOL     OW29107   5.039   2.823   5.425  0.2457 -0.5408 -0.1762
 9208SOL    HW129108   5.013   2.858   5.340 -0.3055  1.7921  0.9048
 9208SOL    HW229109   5.123   2.865   5.444  0.3965 -1.0858  0.3976
 9209SOL     OW29110   0.013   4.994   0.773  0.3725 -0.0044  0.0467
 9209SOL    HW129111   0.052   4.970   0.689 -0.2349  1.7397 -0.7524
 9209SOL    HW229112   0.016   5.089   0.775 -1.8429  0.0740  0.9392
 9210SOL     OW29113   6.021   3.158   1.973  0.3152  0.1942 -0.1002
 9210SOL    HW129114   5.977   3.238   2.001  1.0588  0.1032  1.3327
 9210SOL    HW229115   6.014   3.099   2.047 -0.1804 -1.0687 -1.1297
 9211SOL     OW29116   3.962   1.206   4.436 -0.7578  0.0853 -0.5332
 9211SOL    HW129117   4.031   1.268   4.462  1.8959 -3.0062  0.0552
 9211SOL    HW229118   3.905   1.200   4.513 -0.7253  1.3216 -0.3943
 9212SOL     OW29119   3.803   7.862   2.960  0.0053  0.4606 -0.4044
 9212SOL    HW129120   3.783   7.843   2.868 -2.5338  1.3018 -0.0536
 9212SOL    HW229121   3.732   7.820   3.009  1.5876 -0.3920  1.2378
 9213SOL     OW29122   3.444   2.913   5.721  0.0133  0.1565  0.0015
 9213SOL    HW129123   3.367   2.884   5.672  0.0281  0.0839  0.0215
 9213SOL    HW229124   3.438   2.866   5.804  0.6284 -0.6292 -0.3966
 9214SOL     OW29125   1.789   3.158   0.092 -0.0235  0.7906  0.7696
 9214SOL    HW129126   1.833   3.113   0.164  1.3824  0.2906 -0.3851
 9214SOL    HW229127   1.698   3.165   0.121  0.4508  0.2938  2.4477
 9215SOL     OW29128   6.794   4.786   3.074  0.0065 -0.0232 -0.1538
 9215SOL    HW129129   6.793   4.760   2.982 -0.9708  0.4667 -0.2916
 9215SOL    HW229130   6.884   4.769   3.103  0.1856 -0.6681 -1.0527
 9216SOL     OW29131   2.440   3.487   2.032 -0.4135 -0.2108  0.2829
 9216SOL    HW129132   2.421   3.535   1.952 -1.0842  0.8739  1.0718
 9216SOL    HW229133   2.412   3.397   2.014  2.8488 -0.8307 -1.9484
 9217SOL     OW29134   6.064   1.867   4.080  0.5581 -0.0812  0.1885
 9217SOL    HW129135   6.074   1.921   4.001 -0.5805 -1.3531 -0.8451
 9217SOL    HW229136   6.035   1.929   4.148 -0.7957  0.6101 -0.9937
 9218SOL     OW29137   2.383   8.180   2.909  0.1910  0.3739  0.1687
 9218SOL    HW129138   2.428   8.112   2.958  1.7466  0.5904 -0.9105
 9218SOL    HW229139   2.393   8.259   2.962 -1.1584 -0.1189  1.1684
 9219SOL     OW29140   2.044   6.271   5.064  0.1280 -0.0153  0.1125
 9219SOL    HW129141   2.078   6.194   5.110 -0.4571 -0.5129 -0.2781
 9219SOL    HW229142   2.103   6.281   4.989  1.2230  0.9376  1.0711
 9220SOL     OW29143   2.869   2.905   3.740 -0.1070 -0.2438 -0.7762
 9220SOL    HW129144   2.896   2.928   3.829 -0.3317  2.1917 -1.2895
 9220SOL    HW229145   2.854   2.811   3.743  0.7536 -0.3490  1.5298
 9221SOL     OW29146   2.640   8.010   4.471  0.4714 -0.0387  0.1644
 9221SOL    HW129147   2.730   8.030   4.498  0.9209 -0.8710 -0.6838
 9221SOL    HW229148   2.622   8.073   4.401  0.4463  0.0230  0.2263
 9222SOL     OW29149   5.393   1.368   5.942 -0.1565  0.1517  0.4662
 9222SOL    HW129150   5.358   1.398   5.859 -2.3266 -0.0028  1.3090
 9222SOL    HW229151   5.462   1.431   5.963 -0.1618  0.6675 -1.0284
 9223SOL     OW29152   7.817   0.554   5.675 -0.6135  0.3689 -0.0425
 9223SOL    HW129153   7.895   0.608   5.687 -0.0689 -0.6612  1.1921
 9223SOL    HW229154   7.808   0.544   5.581  0.7554  0.4842 -0.1835
 9224SOL     OW29155   2.648   0.089   2.539  0.0922  0.2575 -0.5641
 9224SOL    HW129156   2.595   0.014   2.565  0.2602  0.6290  0.8726
 9224SOL    HW229157   2.731   0.078   2.585  0.1691  1.2521 -0.4501
 9225SOL     OW29158   5.964   5.651   3.970  0.2213 -0.6168  0.1385
 9225SOL    HW129159   6.048   5.692   3.987 -0.2613 -0.6669  2.8228
 9225SOL    HW229160   5.985   5.571   3.921  1.6447 -0.2683  0.1694
 9226SOL     OW29161   0.177   4.421   4.421  0.4172  0.0200  0.3174
 9226SOL    HW129162   0.087   4.399   4.444  0.1530  1.2504  0.5373
 9226SOL    HW229163   0.172   4.449   4.330  0.1538  2.2357  0.9649
 9227SOL     OW29164   6.575   7.901   4.211 -0.0071  0.1750 -0.0116
 9227SOL    HW129165   6.664   7.893   4.247 -0.2372  0.1656  0.5639
 9227SOL    HW229166   6.524   7.839   4.262 -0.0476 -0.8915 -1.3394
 9228SOL     OW29167   7.463   0.625   5.632  0.1696 -0.1647 -0.6903
 9228SOL    HW129168   7.466   0.689   5.561 -0.8928  0.2728 -0.3602
 9228SOL    HW229169   7.511   0.550   5.598 -1.2866 -0.3976 -2.3302
 9229SOL     OW29170   4.940   7.411   3.094  0.5747 -0.4629 -0.5725
 9229SOL    HW129171   4.942   7.475   3.023  1.0513 -0.7128 -0.7861
 9229SOL    HW229172   5.030   7.411   3.129  0.1326  0.2784  0.5816
 9230SOL     OW29173   0.375   7.320   2.307  0.2812  0.2134  0.0290
 9230SOL    HW129174   0.328   7.249   2.263  1.2857 -1.1046  1.0700
 9230SOL    HW229175   0.454   7.333   2.254  0.9621 -0.6449  0.8285
 9231SOL     OW29176   5.543   7.343   5.216  0.0424  0.3624 -0.1484
 9231SOL    HW129177   5.458   7.387   5.209 -0.4962 -0.4126  1.1848
 9231SOL    HW229178   5.602   7.395   5.162 -0.8738  1.9933  0.3956
 9232SOL     OW29179   0.260   5.621   1.906  0.3511  0.5294  0.4583
 9232SOL    HW129180   0.354   5.617   1.891  0.0849 -0.2498 -1.1817
 9232SOL    HW229181   0.237   5.534   1.938 -0.0437  0.1749 -0.7446
 9233SOL     OW29182   2.418   8.226   0.514 -0.0318  0.2883 -0.2860
 9233SOL    HW129183   2.396   8.186   0.598 -0.1303  0.0820 -0.4093
 9233SOL    HW229184   2.499   8.273   0.531  0.3039 -0.2966 -0.2336
 9234SOL     OW29185   3.922   1.386   7.700 -0.9621 -0.4989 -0.0576
 9234SOL    HW129186   3.885   1.304   7.733  1.2105 -0.6161  2.2151
 9234SOL    HW229187   3.979   1.359   7.628 -1.4704 -0.8191 -0.3427
 9235SOL     OW29188   6.973   2.632   4.640 -0.3572 -0.1872  0.1967
 9235SOL    HW129189   7.064   2.624   4.670 -0.3149 -0.1920  0.0673
 9235SOL    HW229190   6.958   2.727   4.637 -0.2508 -0.1816 -0.1017
 9236SOL     OW29191   6.998   0.931   0.139 -0.1792 -0.9148 -0.0945
 9236SOL    HW129192   7.020   0.842   0.110 -0.3275 -1.6933  2.0557
 9236SOL    HW229193   7.016   0.930   0.233 -2.8696  0.5014  0.4715
 9237SOL     OW29194   4.324   3.528   4.405 -0.0622  0.1231  0.4084
 9237SOL    HW129195   4.255   3.587   4.375  0.3486 -0.4121 -1.6652
 9237SOL    HW229196   4.341   3.556   4.495 -0.3677  2.7080 -0.2795
 9238SOL     OW29197   7.008   6.819   1.962 -0.1197 -0.0823 -0.2780
 9238SOL    HW129198   6.957   6.898   1.980  0.2387  0.7586 -2.7643
 9238SOL    HW229199   6.948   6.761   1.915  0.3925 -0.2311 -0.7551
 9239SOL     OW29200   7.473   6.454   5.674  0.7037 -0.4774  0.0259
 9239SOL    HW129201   7.456   6.395   5.600 -0.0880  2.3026 -2.0766
 9239SOL    HW229202   7.421   6.419   5.745  1.3904 -3.1643 -0.7316
 9240SOL     OW29203   5.892   6.811   0.249  0.1927  0.4882 -0.2427
 9240SOL    HW129204   5.800   6.793   0.230  0.1495 -0.0104  0.4593
 9240SOL    HW229205   5.918   6.873   0.180 -0.7923  0.9966 -0.1748
 9241SOL     OW29206   6.058   1.904   2.048 -1.1896  0.7797 -0.4956
 9241SOL    HW129207   6.042   1.842   2.119 -0.5757  0.2449 -0.8182
 9241SOL    HW229208   6.116   1.970   2.086 -0.1998  0.0486 -0.7316
 9242SOL     OW29209   7.565   5.370   3.195  0.5051  0.0714  0.3145
 9242SOL    HW129210   7.576   5.426   3.272 -0.3651  0.2068  0.3361
 9242SOL    HW229211   7.586   5.282   3.227  2.3157  0.4275  0.1749
 9243SOL     OW29212   1.928   5.936   0.895  0.3244  0.1159 -0.4140
 9243SOL    HW129213   1.961   5.863   0.948  3.0151  0.0421 -2.1267
 9243SOL    HW229214   1.966   6.014   0.935  1.0575  0.1904 -1.2370
 9244SOL     OW29215   1.882   7.448   0.332 -0.1937  0.1771  0.0045
 9244SOL    HW129216   1.861   7.355   0.339 -1.6434  0.4052 -1.0838
 9244SOL    HW229217   1.799   7.493   0.349  0.4463  1.2684  0.3039
 9245SOL     OW29218   0.200   5.614   7.905  0.5385  0.1944  0.0722
 9245SOL    HW129219   0.285   5.618   7.950 -0.0227 -1.4024  1.3094
 9245SOL    HW229220   0.167   5.704   7.909  2.1151  0.8115 -0.3351
 9246SOL     OW29221   1.716   3.876   5.773  0.2841 -0.5061  0.5612
 9246SOL    HW129222   1.742   3.863   5.682 -0.3656  2.5305 -0.1003
 9246SOL    HW229223   1.772   3.816   5.822  1.4050 -1.4001 -1.7350
 9247SOL     OW29224   6.541   6.167   3.171 -0.0353 -0.0434  0.0626
 9247SOL    HW129225   6.531   6.118   3.089 -0.7941 -0.1751  0.2223
 9247SOL    HW229226   6.598   6.113   3.226  2.0611  0.9552 -1.0820
 9248SOL     OW29227   5.997   3.791   7.060 -0.3720 -0.3753 -0.4692
 9248SOL    HW129228   5.933   3.749   7.002 -0.6886 -0.7672  0.1593
 9248SOL    HW229229   5.947   3.811   7.139 -0.0007  0.3733 -0.4213
 9249SOL     OW29230   3.225   3.945   6.000 -0.3662  0.1595  0.5419
 9249SOL    HW129231   3.284   3.910   6.067  0.2458  0.7665  0.3316
 9249SOL    HW229232   3.281   3.959   5.923 -1.0518 -0.4861 -0.0856
 9250SOL     OW29233   1.326   2.554   3.998 -0.3078  0.2897  0.7619
 9250SOL    HW129234   1.299   2.503   4.074 -3.5890 -0.0101 -0.5247
 9250SOL    HW229235   1.297   2.643   4.017  1.8604  0.9222  1.2683
 9251SOL     OW29236   6.458   6.077   6.881 -0.4548 -0.4947  0.2089
 9251SOL    HW129237   6.448   6.013   6.952  0.7434 -1.5865 -0.5822
 9251SOL    HW229238   6.551   6.077   6.861 -0.8292 -0.5954 -1.6971
 9252SOL     OW29239   6.124   3.475   3.401  0.2718 -0.8090  0.3787
 9252SOL    HW129240   6.056   3.467   3.335  0.1809  1.2042  0.1962
 9252SOL    HW229241   6.085   3.530   3.470  0.7875 -1.8555  1.5369
 9253SOL     OW29242   6.465   7.588   2.169  1.1889  0.3035  0.4547
 9253SOL    HW129243   6.401   7.659   2.158 -0.0648 -0.7879  0.5611
 9253SOL    HW229244   6.496   7.597   2.259  0.9816  0.6764  0.4885
 9254SOL     OW29245   7.323   7.662   1.443 -0.6596 -0.3498  0.4417
 9254SOL    HW129246   7.378   7.586   1.464  0.1568 -0.9812 -3.5865
 9254SOL    HW229247   7.233   7.628   1.447 -0.3811 -1.1197  0.3159
 9255SOL     OW29248   7.176   4.985   4.016 -0.2169  0.5288  0.2836
 9255SOL    HW129249   7.219   4.926   3.955 -0.4285  2.1996 -1.5256
 9255SOL    HW229250   7.088   4.948   4.027 -0.8099  1.2480 -1.9144
 9256SOL     OW29251   3.372   4.266   3.979 -0.1429  0.2658 -0.0879
 9256SOL    HW129252   3.325   4.262   4.062 -0.4791 -0.2903 -0.3003
 9256SOL    HW229253   3.329   4.201   3.924  1.5878 -1.0322  0.0741
 9257SOL     OW29254   5.346   6.371   2.666  0.1363  0.0250 -0.3946
 9257SOL    HW129255   5.377   6.287   2.699  1.0302  0.1602 -0.8785
 9257SOL    HW229256   5.406   6.435   2.704 -0.9108  0.5247  0.4759
 9258SOL     OW29257   3.056   3.019   5.263  0.1168 -0.4548  0.0471
 9258SOL    HW129258   3.064   3.064   5.179  0.7486 -1.1831 -0.2942
 9258SOL    HW229259   3.143   2.982   5.279  0.3500  0.7547  1.6490
 9259SOL     OW29260   5.617   7.963   3.687 -0.3303  0.1218  0.3048
 9259SOL    HW129261   5.666   8.045   3.696  0.3445 -0.4126  1.7109
 9259SOL    HW229262   5.684   7.894   3.694 -0.9870 -0.5638 -0.0939
 9260SOL     OW29263   2.960   2.035   4.326  0.0777 -0.4941 -0.2202
 9260SOL    HW129264   3.023   2.035   4.397 -2.0124 -1.9234  1.6988
 9260SOL    HW229265   2.967   2.122   4.287  1.1691  0.3454  1.8082
 9261SOL     OW29266   3.110   6.204   3.322 -0.3556  0.2345  0.6960
 9261SOL    HW129267   3.163   6.282   3.306 -0.0927 -0.2155 -0.7022
 9261SOL    HW229268   3.061   6.192   3.241 -1.3312 -0.3378  1.3644
 9262SOL     OW29269   2.072   1.824   6.209  0.5693  0.1972 -0.1773
 9262SOL    HW129270   1.993   1.844   6.260 -0.7153 -1.1381 -1.6228
 9262SOL    HW229271   2.045   1.756   6.149  3.1483 -1.0927  0.0792
 9263SOL     OW29272   1.945   4.128   0.082 -0.2717  0.1015 -1.0143
 9263SOL    HW129273   1.872   4.181   0.114 -2.0017 -1.9085 -1.4531
 9263SOL    HW229274   1.939   4.134  -0.013  0.0934 -0.1368 -1.0530
 9264SOL     OW29275   5.673   7.017   7.616  0.7099 -0.1289 -0.1873
 9264SOL    HW129276   5.709   7.088   7.563  0.2213 -0.6645 -1.2671
 9264SOL    HW229277   5.600   6.984   7.564 -0.8614  0.4412  1.6073
 9265SOL     OW29278   5.710   4.272   4.137  0.4763 -0.2993 -0.2855
 9265SOL    HW129279   5.733   4.246   4.048  1.6272  0.3041 -0.1804
 9265SOL    HW229280   5.789   4.315   4.170 -0.1729  0.0780  0.7929
 9266SOL     OW29281   7.202   4.439   3.568  0.2466  0.0388  0.0551
 9266SOL    HW129282   7.235   4.392   3.644  1.1377  0.2146 -0.2201
 9266SOL    HW229283   7.256   4.518   3.562  0.6291 -0.3022 -1.1421
 9267SOL     OW29284   4.838   3.266   6.110  0.7720  0.2823 -0.4527
 9267SOL    HW129285   4.746   3.289   6.096  1.0359  1.7572  0.1009
 9267SOL    HW229286   4.841   3.232   6.200  0.9509  1.3666 -0.0354
 9268SOL     OW29287   5.524   4.953   3.368 -0.6097 -0.3331 -0.7949
 9268SOL    HW129288   5.436   4.981   3.343 -1.5214 -1.5013  0.9776
 9268SOL    HW229289   5.525   4.859   3.350  0.1893 -0.3658 -0.5831
 9269SOL     OW29290   8.019   3.788   5.964  0.4472 -0.0866 -1.0753
 9269SOL    HW129291   7.986   3.724   5.901  2.3933 -0.2695 -1.9510
 9269SOL    HW229292   8.113   3.792   5.947  0.8913  0.4291  1.3221
 9270SOL     OW29293   4.999   2.133   0.153 -0.1661 -0.0180 -0.4021
 9270SOL    HW129294   4.907   2.115   0.168  0.3230 -0.8461  1.7194
 9270SOL    HW229295   5.045   2.060   0.194  1.4337  0.1509 -1.8093
 9271SOL     OW29296   7.980   3.483   4.850  0.5024 -0.5352 -0.5311
 9271SOL    HW129297   8.005   3.399   4.887 -0.4449  0.6372  2.9950
 9271SOL    HW229298   7.900   3.465   4.800  1.4031 -2.0455 -1.4321
 9272SOL     OW29299   3.795   7.491   4.090  0.0750 -0.8417 -0.0297
 9272SOL    HW129300   3.724   7.554   4.095 -0.2090 -0.9882 -1.8965
 9272SOL    HW229301   3.763   7.415   4.139 -0.5801 -0.4849  0.0953
 9273SOL     OW29302   6.388   3.728   8.062 -0.1842 -0.3208 -0.7771
 9273SOL    HW129303   6.457   3.672   8.097  0.5278 -0.0856 -1.7878
 9273SOL    HW229304   6.384   3.706   7.969  0.7721  1.9707 -1.3906
 9274SOL     OW29305   2.877   4.867   1.005  0.5872 -0.1112  0.1763
 9274SOL    HW129306   2.923   4.815   1.070 -2.1771  0.6663  2.9023
 9274SOL    HW229307   2.796   4.819   0.988 -0.9416  2.1064  0.9969
 9275SOL     OW29308   5.606   3.383   0.428  0.0619  0.4511  0.1253
 9275SOL    HW129309   5.692   3.407   0.464  0.7211  0.1589 -1.2542
 9275SOL    HW229310   5.615   3.395   0.334 -0.6329 -2.0496 -0.2768
 9276SOL     OW29311   5.601   5.010   6.180  0.1161  0.0277 -0.3368
 9276SOL    HW129312   5.528   4.963   6.141 -1.6864 -0.5701  3.5300
 9276SOL    HW229313   5.586   5.102   6.157 -0.0044 -0.4482 -2.2694
 9277SOL     OW29314   2.928   5.738   6.905 -0.4855  0.0116 -0.2926
 9277SOL    HW129315   2.986   5.708   6.835 -0.8331 -0.6077 -0.3178
 9277SOL    HW229316   2.913   5.831   6.886  0.4765  0.1695 -0.2946
 9278SOL     OW29317   4.933   7.170   5.403 -1.0713  0.0856  0.4694
 9278SOL    HW129318   4.945   7.191   5.310 -0.9647  1.1309  0.7132
 9278SOL    HW229319   4.977   7.242   5.449  0.2319 -1.2277  1.3212
 9279SOL     OW29320   5.748   7.477   2.693 -0.3995  0.5728 -0.0462
 9279SOL    HW129321   5.749   7.417   2.618  1.2048  0.0766  0.3666
 9279SOL    HW229322   5.818   7.539   2.675 -0.9290  1.3003  0.3792
 9280SOL     OW29323   5.412   2.509   2.963  0.0579  0.2387  0.6122
 9280SOL    HW129324   5.377   2.422   2.941 -0.3258  0.6039 -0.2285
 9280SOL    HW229325   5.464   2.494   3.042  1.4346 -1.1164 -0.4963
 9281SOL     OW29326   3.442   0.256   0.582  0.5902 -0.0859  0.6264
 9281SOL    HW129327   3.425   0.275   0.674 -0.2063 -0.2121  0.5104
 9281SOL    HW229328   3.535   0.232   0.579  1.1837  2.0740  1.0363
 9282SOL     OW29329   6.911   5.019   6.364  0.2781 -0.0254 -0.4166
 9282SOL    HW129330   6.841   5.077   6.394  0.5964 -0.0101  0.3010
 9282SOL    HW229331   6.958   5.071   6.299 -0.9647 -0.3802 -1.6263
 9283SOL     OW29332   5.210   6.887   3.077  0.7232  0.6733  0.7172
 9283SOL    HW129333   5.165   6.893   3.161  2.8242  1.9216  1.8007
 9283SOL    HW229334   5.252   6.801   3.078  1.1110  0.8720  1.1192
 9284SOL     OW29335   6.292   7.077   3.541 -0.4867  0.6469 -0.1655
 9284SOL    HW129336   6.327   7.081   3.630 -2.2959 -0.3827  0.6183
 9284SOL    HW229337   6.239   7.156   3.532 -0.3212  0.7408 -0.3298
 9285SOL     OW29338   5.173   2.072   1.470 -0.0341  0.2153  0.0848
 9285SOL    HW129339   5.135   2.008   1.529 -0.7539 -0.3621 -1.0029
 9285SOL    HW229340   5.267   2.070   1.490 -0.0779 -1.0204  0.2100
 9286SOL     OW29341   0.542   5.679   2.733 -0.2362  0.1495  0.0139
 9286SOL    HW129342   0.568   5.589   2.752  0.2683  0.4147  0.6417
 9286SOL    HW229343   0.531   5.719   2.819 -0.2828  0.7303 -0.2590
 9287SOL     OW29344   0.429   1.012   4.854 -0.1607 -0.1635 -0.0886
 9287SOL    HW129345   0.363   1.073   4.886  0.5864  1.9947 -2.4754
 9287SOL    HW229346   0.472   1.059   4.783 -0.0101 -3.7390 -2.4983
 9288SOL     OW29347   0.248   1.483   2.947 -0.4697 -0.2767 -0.0847
 9288SOL    HW129348   0.162   1.509   2.914 -0.6902  1.0284  1.4752
 9288SOL    HW229349   0.228   1.423   3.019 -0.0757 -0.2188  0.0726
 9289SOL     OW29350   5.256   3.020   5.148 -0.0348  0.3712  0.2385
 9289SOL    HW129351   5.260   2.929   5.177 -0.1158 -0.0652 -1.0645
 9289SOL    HW229352   5.163   3.038   5.135 -0.0448  0.7492  0.8139
 9290SOL     OW29353   5.945   0.748   7.958  0.4274 -0.4681 -0.2886
 9290SOL    HW129354   6.031   0.790   7.957 -0.0390  0.5146  0.4249
 9290SOL    HW229355   5.887   0.811   7.914 -0.2610 -0.3892  0.7239
 9291SOL     OW29356   3.507   2.168   3.517  0.3476  0.2195 -0.6405
 9291SOL    HW129357   3.501   2.263   3.519  0.0741  0.1989 -0.1718
 9291SOL    HW229358   3.600   2.150   3.500  0.6007  0.5757  0.2893
 9292SOL     OW29359   7.140   3.169   3.673  0.5726 -0.0073 -0.1253
 9292SOL    HW129360   7.205   3.213   3.619  0.0050  0.0750 -0.7548
 9292SOL    HW229361   7.191   3.111   3.730  1.2158  0.3644 -0.3222
 9293SOL     OW29362   2.030   3.439   5.555 -0.1763 -0.6944 -0.2529
 9293SOL    HW129363   2.109   3.466   5.602 -0.0415  0.4012 -1.1046
 9293SOL    HW229364   2.051   3.351   5.523  0.5687 -0.5456 -0.1834
 9294SOL     OW29365   3.789   8.299   1.688 -0.4619  0.3748  0.4379
 9294SOL    HW129366   3.868   8.346   1.715  1.2226 -2.0513 -0.1003
 9294SOL    HW229367   3.789   8.221   1.743 -1.2759 -0.7285 -1.1197
 9295SOL     OW29368   2.918   2.465   8.042 -0.1928 -0.1308  0.0344
 9295SOL    HW129369   2.899   2.545   7.994 -0.8257  0.3433  1.0537
 9295SOL    HW229370   2.839   2.448   8.093  0.8852  0.0518  1.8316
 9296SOL     OW29371   1.330   6.007   5.624  0.6757 -0.5005  0.6238
 9296SOL    HW129372   1.299   6.056   5.549  0.4539 -1.7572 -0.1147
 9296SOL    HW229373   1.254   5.957   5.654  1.6942 -2.8603 -0.6190
 9297SOL     OW29374   6.932   1.347   3.043 -0.4158 -0.1007  0.1756
 9297SOL    HW129375   6.944   1.255   3.069  0.3765 -0.1319 -0.2821
 9297SOL    HW229376   6.976   1.397   3.111 -0.6011 -0.0667  0.2720
 9298SOL     OW29377   3.566   2.564   2.504 -0.3637  0.4632  0.4995
 9298SOL    HW129378   3.477   2.589   2.482 -0.6428 -0.2010  0.8556
 9298SOL    HW229379   3.573   2.576   2.598 -0.2157  0.0981  0.5381
 9299SOL     OW29380   1.200   1.897   4.065 -0.1195 -0.3262 -0.2496
 9299SOL    HW129381   1.183   1.954   4.140 -1.7083  0.1435 -0.9523
 9299SOL    HW229382   1.176   1.949   3.989  4.9250  0.5972 -1.4387
 9300SOL     OW29383   3.856   5.844   2.689  0.1528  0.2288 -0.1683
 9300SOL    HW129384   3.765   5.851   2.715 -0.4646 -0.3456 -2.0789
 9300SOL    HW229385   3.897   5.925   2.720 -1.1615  0.8151  0.0426
 9301SOL     OW29386   8.096   0.347   5.443 -0.5540 -0.5276  0.0212
 9301SOL    HW129387   8.066   0.269   5.396 -1.5282  0.3626 -0.8714
 9301SOL    HW229388   8.117   0.316   5.531  0.5671 -2.0851 -0.7688
 9302SOL     OW29389   6.216   3.567   1.975  0.1973 -0.2521  0.2189
 9302SOL    HW129390   6.193   3.487   1.929 -1.3100  0.5703 -0.4924
 9302SOL    HW229391   6.295   3.598   1.930 -0.4388 -0.2118 -0.8893
 9303SOL     OW29392   6.866   7.959   7.264  0.8733 -0.1620  0.5018
 9303SOL    HW129393   6.902   8.025   7.205 -1.1191  0.8539  0.3788
 9303SOL    HW229394   6.808   7.907   7.209  0.8906 -0.7391  1.0294
 9304SOL     OW29395   6.667   0.194   7.190  0.4884 -0.5701  0.4930
 9304SOL    HW129396   6.683   0.110   7.148 -1.8345 -1.1350  0.6833
 9304SOL    HW229397   6.655   0.255   7.118  0.8548 -0.6620  0.3533
 9305SOL     OW29398   7.304   4.547   1.351  0.4111 -0.2660 -0.0187
 9305SOL    HW129399   7.305   4.463   1.398 -0.3911  0.0717  0.6051
 9305SOL    HW229400   7.344   4.609   1.412 -0.1441  0.0644  0.0104
 9306SOL     OW29401   7.656   7.827   1.372  0.6408 -0.2396 -1.0187
 9306SOL    HW129402   7.623   7.743   1.340 -3.3348  0.5892  0.5713
 9306SOL    HW229403   7.720   7.804   1.440 -2.5700 -2.1182  1.5434
 9307SOL     OW29404   0.260   2.757   5.645  0.3581 -0.2914  0.5722
 9307SOL    HW129405   0.176   2.712   5.632  0.8644 -1.0901 -0.0384
 9307SOL    HW229406   0.287   2.782   5.556  0.4387  0.5735  0.8364
 9308SOL     OW29407   1.491   1.339   3.893 -0.0951 -0.2203 -0.1993
 9308SOL    HW129408   1.507   1.430   3.871 -2.1483  0.2010 -0.0548
 9308SOL    HW229409   1.450   1.342   3.980 -1.3222 -1.1744 -0.7206
 9309SOL     OW29410   6.896   4.199   7.102 -0.1347 -0.1960 -0.2258
 9309SOL    HW129411   6.937   4.154   7.176  1.1624  0.6979 -0.3782
 9309SOL    HW229412   6.813   4.232   7.137  0.0783 -0.5010  0.5931
 9310SOL     OW29413   8.138   6.921   5.015  0.4683 -0.8394 -0.2459
 9310SOL    HW129414   8.072   6.960   4.958 -0.8195 -0.6859  1.3035
 9310SOL    HW229415   8.219   6.923   4.964  0.1805  2.7939 -0.6778
 9311SOL     OW29416   5.086   6.088   7.910 -0.4273  0.2238 -0.2900
 9311SOL    HW129417   5.065   5.998   7.883 -0.6297  0.1088  0.2496
 9311SOL    HW229418   5.003   6.124   7.939 -0.4120  0.7078 -0.8386
 9312SOL     OW29419   0.532   0.805   2.438  0.1072 -0.2969 -0.5205
 9312SOL    HW129420   0.514   0.875   2.502  0.7244 -0.5984 -0.0115
 9312SOL    HW229421   0.473   0.824   2.365 -2.6551 -1.5262  1.2892
 9313SOL     OW29422   0.340   2.870   1.549  0.6065  0.0184  0.0583
 9313SOL    HW129423   0.366   2.918   1.628  2.2591 -0.1476 -0.3765
 9313SOL    HW229424   0.355   2.932   1.477  1.9932 -0.8622 -0.4262
 9314SOL     OW29425   7.500   6.925   8.140  0.7590 -0.5743 -0.7385
 9314SOL    HW129426   7.539   6.850   8.185  0.1193 -0.4835 -0.0180
 9314SOL    HW229427   7.415   6.893   8.108 -0.4321  0.3836  1.3339
 9315SOL     OW29428   0.126   6.002   1.606 -0.5854 -0.3486 -0.0382
 9315SOL    HW129429   0.129   6.047   1.690  0.1181 -1.8630  0.7866
 9315SOL    HW229430   0.180   6.055   1.548  0.3295 -0.1737  0.9423
 9316SOL     OW29431   4.255   4.747   0.023  0.3628 -0.2606  0.0024
 9316SOL    HW129432   4.166   4.712   0.032  0.2382 -1.1352 -3.7577
 9316SOL    HW229433   4.312   4.670   0.032  0.4202 -0.5266 -2.3210
 9317SOL     OW29434   7.629   2.152   4.749  0.2385 -0.4797  0.3340
 9317SOL    HW129435   7.651   2.082   4.810 -0.7872 -0.8696  0.2670
 9317SOL    HW229436   7.566   2.207   4.796  0.6053  0.0776  0.1810
 9318SOL     OW29437   1.434   1.572   3.178 -0.0028  0.1761  0.2201
 9318SOL    HW129438   1.346   1.552   3.145 -0.4167  0.1181  1.3197
 9318SOL    HW229439   1.440   1.668   3.174  0.5942  0.0819 -1.5934
 9319SOL     OW29440   2.750   0.433   4.604 -0.3747  0.0873 -0.1305
 9319SOL    HW129441   2.778   0.397   4.520 -2.5184  0.0854 -0.8876
 9319SOL    HW229442   2.703   0.362   4.647 -0.4275  0.4953  0.4994
 9320SOL     OW29443   1.924   3.411   0.555  0.2058 -0.2059 -0.2107
 9320SOL    HW129444   1.955   3.333   0.509 -0.4987  0.2562 -1.4824
 9320SOL    HW229445   1.945   3.395   0.647  0.1740 -1.8470 -0.4825
 9321SOL     OW29446   3.822   1.696   7.431  0.4659  0.1286  0.2841
 9321SOL    HW129447   3.744   1.658   7.390 -0.5251  0.4314  1.8481
 9321SOL    HW229448   3.887   1.698   7.361 -0.8079 -0.4778 -0.9458
 9322SOL     OW29449   2.200   7.275   4.177  0.0922  0.5178 -0.0774
 9322SOL    HW129450   2.174   7.364   4.154 -1.9136  0.0540  0.3228
 9322SOL    HW229451   2.250   7.285   4.258 -0.4457  1.2471  0.1711
 9323SOL     OW29452   4.345   2.807   4.789  0.2988 -0.3226  0.1274
 9323SOL    HW129453   4.285   2.854   4.847 -0.0436  0.6300 -0.9743
 9323SOL    HW229454   4.307   2.719   4.780 -1.4953  0.5548 -1.3298
 9324SOL     OW29455   7.486   7.128   7.781  0.5086 -0.1258  0.0062
 9324SOL    HW129456   7.438   7.180   7.845  3.6814  1.1545  1.4072
 9324SOL    HW229457   7.565   7.100   7.826  1.0097 -2.4294 -2.1596
 9325SOL     OW29458   1.933   0.400   3.513 -0.4299  0.0101 -0.4309
 9325SOL    HW129459   1.938   0.387   3.608 -2.7219 -0.2331 -0.2986
 9325SOL    HW229460   1.885   0.324   3.481  0.9392 -0.2616 -1.8972
 9326SOL     OW29461   2.470   2.343   1.308 -0.0503  0.4721 -0.2953
 9326SOL    HW129462   2.450   2.400   1.234  0.5678  0.8060 -0.2054
 9326SOL    HW229463   2.530   2.394   1.362  0.9328 -0.4752 -0.4966
 9327SOL     OW29464   7.423   3.092   5.132  0.1531 -0.2191 -0.3877
 9327SOL    HW129465   7.426   2.997   5.146  0.9787 -0.3249 -1.3389
 9327SOL    HW229466   7.400   3.103   5.040  0.1974  0.5108 -0.3177
 9328SOL     OW29467   5.994   6.910   7.490 -0.3870 -0.2593  0.0580
 9328SOL    HW129468   5.910   6.874   7.463 -0.8925 -0.5909  2.0381
 9328SOL    HW229469   6.018   6.970   7.419 -1.8870 -0.7652 -0.9056
 9329SOL     OW29470   0.211   3.736   0.734 -0.4386  0.3319 -0.7176
 9329SOL    HW129471   0.134   3.685   0.711  0.3481 -0.1690 -2.3284
 9329SOL    HW229472   0.206   3.813   0.677  0.5961 -0.0417 -1.3341
 9330SOL     OW29473   0.465   2.617   1.499  0.0344 -0.7817  0.4248
 9330SOL    HW129474   0.428   2.704   1.515  1.9281 -0.2760  2.2147
 9330SOL    HW229475   0.514   2.596   1.579  0.5356 -3.0067 -0.4317
 9331SOL     OW29476   5.410   3.097   3.287 -0.2200 -0.3415 -0.0931
 9331SOL    HW129477   5.414   3.055   3.201 -2.7782 -1.4906  0.3184
 9331SOL    HW229478   5.487   3.063   3.333  1.0919  0.1809 -1.8597
 9332SOL     OW29479   0.471   7.183   1.949  0.3724  0.1628 -0.6440
 9332SOL    HW129480   0.435   7.187   1.861 -1.1988 -0.3390 -0.0521
 9332SOL    HW229481   0.466   7.090   1.973 -0.1910  0.4332  0.3425
 9333SOL     OW29482   3.649   1.401   6.162  0.0732  0.3339  0.1870
 9333SOL    HW129483   3.664   1.306   6.158  0.0969  0.2775  1.3885
 9333SOL    HW229484   3.709   1.438   6.097  0.4849 -0.4312  0.1231
 9334SOL     OW29485   7.253   3.566   2.195 -0.6725  0.4659  0.6375
 9334SOL    HW129486   7.183   3.507   2.220 -0.1315 -0.1090  0.8155
 9334SOL    HW229487   7.234   3.590   2.104 -1.2876  0.5996  0.7992
 9335SOL     OW29488   7.482   0.624   1.756 -0.0960 -0.1166 -0.3931
 9335SOL    HW129489   7.563   0.673   1.761  0.3871 -0.8447 -0.9340
 9335SOL    HW229490   7.418   0.678   1.802  0.9582 -0.0766  1.0869
 9336SOL     OW29491   2.747   4.883   3.643  0.2026 -0.8015  0.0531
 9336SOL    HW129492   2.672   4.899   3.700  0.3594  0.2173 -0.0157
 9336SOL    HW229493   2.809   4.834   3.697  0.0572 -0.4532  0.5327
 9337SOL     OW29494   1.815   4.544   6.535  0.7973 -0.0770 -0.2252
 9337SOL    HW129495   1.849   4.482   6.598  2.2994 -1.2836 -2.1581
 9337SOL    HW229496   1.894   4.582   6.494 -0.1361  0.4489 -1.5668
 9338SOL     OW29497   4.573   1.065   4.858  0.0457  0.8235 -0.0667
 9338SOL    HW129498   4.496   1.031   4.812 -0.0256  0.3827  0.3729
 9338SOL    HW229499   4.626   0.987   4.877 -0.4990  0.8388  1.6481
 9339SOL     OW29500   0.246   5.931   3.005  0.3020 -0.4656  0.7341
 9339SOL    HW129501   0.260   5.838   2.986  1.4611 -0.1545  0.0277
 9339SOL    HW229502   0.272   5.976   2.925  0.5792  0.5334  1.3808
 9340SOL     OW29503   3.834   2.072   4.816 -0.0900  0.1128 -0.6984
 9340SOL    HW129504   3.906   2.029   4.861 -1.0581  0.3676  1.1403
 9340SOL    HW229505   3.873   2.108   4.737  1.3608 -1.5373 -0.7601
 9341SOL     OW29506   3.753   0.570   2.176 -0.1613 -0.6889  0.4106
 9341SOL    HW129507   3.672   0.523   2.194 -0.4619 -0.4972 -0.4421
 9341SOL    HW229508   3.763   0.566   2.081  0.4431 -0.0800  0.4421
 9342SOL     OW29509   3.005   5.876   7.635  0.5985  0.7470 -0.0848
 9342SOL    HW129510   2.956   5.801   7.670  0.9719 -0.1697 -1.4615
 9342SOL    HW229511   2.971   5.951   7.683 -0.2017 -0.2356  0.9187
 9343SOL     OW29512   4.780   7.710   4.202 -0.4448  0.2637 -0.8957
 9343SOL    HW129513   4.845   7.717   4.132  0.6637  1.3628  0.2323
 9343SOL    HW229514   4.829   7.681   4.278 -1.6740 -1.0197 -0.5819
 9344SOL     OW29515   0.329   5.060   3.669 -0.2542  0.1127 -0.1313
 9344SOL    HW129516   0.238   5.031   3.663 -0.2176 -0.0632  0.1698
 9344SOL    HW229517   0.361   5.022   3.750 -0.2648  1.1602  0.3806
 9345SOL     OW29518   6.788   6.174   4.090 -0.2268 -0.4711  0.4997
 9345SOL    HW129519   6.758   6.120   4.017 -0.9011 -0.1060  0.5033
 9345SOL    HW229520   6.708   6.210   4.128  0.1917  0.1722  0.7806
 9346SOL     OW29521   6.424   2.539   6.512 -1.1870 -0.5569 -0.9810
 9346SOL    HW129522   6.366   2.612   6.494  0.3718  1.5512  2.0447
 9346SOL    HW229523   6.366   2.469   6.541 -2.2653  1.9212  3.2765
 9347SOL     OW29524   1.056   1.118   4.882 -0.3788 -0.2090  0.0233
 9347SOL    HW129525   1.141   1.148   4.849  0.3454 -0.2958  1.7534
 9347SOL    HW229526   1.000   1.195   4.875  0.1116  0.1340 -0.1875
 9348SOL     OW29527   7.260   0.405   0.500  0.3386  0.1154  0.3608
 9348SOL    HW129528   7.180   0.443   0.536  0.3384  0.0199  0.4603
 9348SOL    HW229529   7.239   0.312   0.490  0.0122  0.2942 -0.7568
 9349SOL     OW29530   6.295   6.646   7.526 -0.1822  0.0602  0.7511
 9349SOL    HW129531   6.270   6.715   7.587  0.3139  1.1519 -0.2839
 9349SOL    HW229532   6.382   6.671   7.496  0.2313 -1.2982  0.7836
 9350SOL     OW29533   0.509   1.012   5.167 -0.3467 -0.1554 -0.2136
 9350SOL    HW129534   0.517   1.019   5.072  0.3008  1.6360 -0.0492
 9350SOL    HW229535   0.573   1.075   5.201  1.0941 -2.4196  1.4391
 9351SOL     OW29536   4.352   5.524   7.256 -0.3018  0.1479  0.9909
 9351SOL    HW129537   4.441   5.512   7.223  0.3196  1.4978  2.1270
 9351SOL    HW229538   4.324   5.437   7.285  0.2668 -0.4708 -0.2807
 9352SOL     OW29539   0.288   5.184   0.832  0.1439  0.5257 -0.3930
 9352SOL    HW129540   0.246   5.265   0.863 -0.6800  0.4368 -1.2417
 9352SOL    HW229541   0.315   5.204   0.742 -0.4265 -0.2666 -0.7487
 9353SOL     OW29542   0.122   5.333   1.447 -0.1344  0.7075  0.7022
 9353SOL    HW129543   0.164   5.419   1.449  1.1571  0.0999 -0.0119
 9353SOL    HW229544   0.189   5.274   1.413 -1.2714 -0.4465  0.4266
 9354SOL     OW29545   6.772   5.858   0.584  0.3638  0.1453 -0.0628
 9354SOL    HW129546   6.847   5.816   0.625  0.8793  0.5462 -0.5956
 9354SOL    HW229547   6.809   5.910   0.513 -0.4829 -0.1846 -0.7506
 9355SOL     OW29548   0.868   3.738   4.306 -0.2440 -0.4875  0.3662
 9355SOL    HW129549   0.788   3.773   4.344  0.1241 -1.0417  1.6853
 9355SOL    HW229550   0.882   3.655   4.352  0.3071 -1.0928 -0.8668
 9356SOL     OW29551   1.045   3.845   3.529  0.0656  0.1191  0.2009
 9356SOL    HW129552   1.136   3.836   3.499 -0.0650 -0.9918  0.1191
 9356SOL    HW229553   1.052   3.882   3.617  0.6095 -0.2306  0.3057
 9357SOL     OW29554   6.779   2.079   6.007 -0.1016  0.5376 -0.3254
 9357SOL    HW129555   6.708   2.019   5.983 -2.0522  2.6052  0.0158
 9357SOL    HW229556   6.736   2.145   6.062  2.7921 -0.0271  2.7596
 9358SOL     OW29557   2.311   5.695   0.163  0.2643 -0.6572 -0.7994
 9358SOL    HW129558   2.330   5.711   0.071 -0.3113  1.1052 -0.6267
 9358SOL    HW229559   2.390   5.720   0.210  0.3029 -0.8735 -0.7462
 9359SOL     OW29560   2.927   8.152   0.369  0.3751  0.0209  0.5511
 9359SOL    HW129561   2.899   8.193   0.287  0.0731  0.9751  1.1134
 9359SOL    HW229562   2.905   8.217   0.436  2.1623 -0.0353  1.2194
 9360SOL     OW29563   2.158   5.387   8.265  0.2016 -0.6419  0.3056
 9360SOL    HW129564   2.075   5.435   8.269  0.8512  0.4084  3.1810
 9360SOL    HW229565   2.189   5.400   8.176 -2.0833  0.0726 -0.4280
 9361SOL     OW29566   4.804   6.083   2.035  0.5273 -0.3746 -0.1358
 9361SOL    HW129567   4.824   5.989   2.026  0.5812 -0.3535 -0.2319
 9361SOL    HW229568   4.802   6.115   1.945  0.9114 -0.1984 -0.0798
 9362SOL     OW29569   7.686   2.760   2.546 -0.2199  0.4532 -0.0505
 9362SOL    HW129570   7.627   2.827   2.513 -0.6764  0.6600  1.1621
 9362SOL    HW229571   7.736   2.803   2.616  0.9255  0.1094 -0.6480
 9363SOL     OW29572   3.774   2.829   4.716  0.0470 -0.5479 -0.3338
 9363SOL    HW129573   3.695   2.785   4.684 -0.0831 -0.5200 -0.0554
 9363SOL    HW229574   3.820   2.762   4.768 -1.0286  0.1293  1.5512
 9364SOL     OW29575   2.782   4.516   3.828 -0.0734  0.0088  0.2123
 9364SOL    HW129576   2.786   4.450   3.897  0.9796 -0.1052  0.0492
 9364SOL    HW229577   2.718   4.580   3.860  0.5952  0.0853  1.4078
 9365SOL     OW29578   8.233   2.272   3.805 -0.1105  0.0003  0.4646
 9365SOL    HW129579   8.265   2.346   3.856  0.4646  0.6490 -0.8412
 9365SOL    HW229580   8.288   2.269   3.728  0.5045 -2.4035  0.9612
 9366SOL     OW29581   5.402   1.802   1.352  0.1335 -0.7438  0.2516
 9366SOL    HW129582   5.432   1.820   1.441 -1.0172  1.1232  0.2992
 9366SOL    HW229583   5.310   1.779   1.361 -0.5945  1.6580 -0.6182
 9367SOL     OW29584   5.437   6.881   0.867 -0.1329 -0.6423  0.1271
 9367SOL    HW129585   5.493   6.835   0.930  0.7408  1.4404  0.8936
 9367SOL    HW229586   5.483   6.873   0.784  0.9288  0.3670  0.6035
 9368SOL     OW29587   0.345   0.122   3.468 -0.2593  0.0891 -0.4485
 9368SOL    HW129588   0.322   0.148   3.379 -2.3911  2.8468  0.8044
 9368SOL    HW229589   0.261   0.112   3.512  0.7778 -0.4978  1.4394
 9369SOL     OW29590   4.783   5.347   1.364 -0.0542 -0.2619 -0.0974
 9369SOL    HW129591   4.693   5.326   1.388 -0.7808  0.2356 -2.3008
 9369SOL    HW229592   4.825   5.370   1.447 -2.0354 -0.1718  0.9099
 9370SOL     OW29593   5.554   6.143   2.421  0.3896 -0.1152  0.3967
 9370SOL    HW129594   5.484   6.187   2.469 -0.5835  0.1933 -1.2466
 9370SOL    HW229595   5.600   6.214   2.376  1.2160 -0.4019  0.7832
 9371SOL     OW29596   6.034   4.770   2.085 -0.1134  0.4918 -0.3061
 9371SOL    HW129597   6.003   4.731   2.003 -1.0488  0.3584  0.1036
 9371SOL    HW229598   5.978   4.731   2.152  0.6970  0.5489  0.4051
 9372SOL     OW29599   3.741   1.859   6.358  1.0224 -0.1218  0.3847
 9372SOL    HW129600   3.657   1.820   6.335  0.2873  2.0194 -0.6923
 9372SOL    HW229601   3.773   1.806   6.431 -1.4540 -0.6983  1.1039
 9373SOL     OW29602   6.284   0.371   0.405 -0.0767 -0.2679 -0.6491
 9373SOL    HW129603   6.352   0.328   0.458 -0.8086  1.8945  2.1342
 9373SOL    HW229604   6.260   0.305   0.340  2.4220 -2.2266  0.3271
 9374SOL     OW29605   3.105   1.469   2.285  0.1262 -0.0470 -0.3993
 9374SOL    HW129606   3.136   1.446   2.373  1.2610  1.5120 -0.3673
 9374SOL    HW229607   3.062   1.390   2.253  0.4169 -0.8915  1.2430
 9375SOL     OW29608   7.077   8.309   6.215 -0.1541 -0.1224  0.7608
 9375SOL    HW129609   7.111   8.326   6.303  0.1790 -0.4700  0.6968
 9375SOL    HW229610   7.148   8.333   6.156 -0.4073  0.1894  0.5811
 9376SOL     OW29611   0.582   1.262   5.822  0.0936  0.1597  0.1128
 9376SOL    HW129612   0.669   1.294   5.799  0.3670 -0.7629 -0.1565
 9376SOL    HW229613   0.522   1.314   5.769  0.4720  0.8111  0.3144
 9377SOL     OW29614   6.958   1.929   3.599  0.6060  0.0959 -0.2654
 9377SOL    HW129615   7.041   1.977   3.602 -0.7076  2.3196  1.8916
 9377SOL    HW229616   6.971   1.855   3.658  0.8221  0.8895  0.7043
 9378SOL     OW29617   0.575   8.097   7.809 -0.1051 -0.0158  0.0228
 9378SOL    HW129618   0.588   8.003   7.820 -2.2772 -0.5221 -1.2735
 9378SOL    HW229619   0.546   8.106   7.718  3.9041  2.3723 -1.1047
 9379SOL     OW29620   7.141   3.969   5.556 -0.4894 -0.2177  0.0402
 9379SOL    HW129621   7.231   3.999   5.549  0.7211 -3.5600  0.4615
 9379SOL    HW229622   7.109   3.967   5.466  0.4535 -0.7726 -0.2860
 9380SOL     OW29623   6.383   2.979   4.910 -0.3148  0.2233 -0.1433
 9380SOL    HW129624   6.357   2.923   4.983 -2.8048 -0.6553 -1.6253
 9380SOL    HW229625   6.328   3.057   4.919  0.7746  0.9886  0.0189
 9381SOL     OW29626   8.104   6.287   3.848  0.5833 -0.0115  0.0402
 9381SOL    HW129627   8.192   6.316   3.823  1.2696 -2.2618 -0.3434
 9381SOL    HW229628   8.114   6.260   3.939  0.7642 -1.9741 -0.5401
 9382SOL     OW29629   0.364   7.967   2.104 -0.3990  0.1724 -0.4254
 9382SOL    HW129630   0.361   7.876   2.133  0.3737  0.3646  0.2715
 9382SOL    HW229631   0.358   7.962   2.008 -0.2084 -0.6130 -0.3966
 9383SOL     OW29632   4.445   6.830   1.425 -0.0485  0.4010  0.2637
 9383SOL    HW129633   4.539   6.845   1.411  0.4054 -1.6165  0.9405
 9383SOL    HW229634   4.420   6.770   1.355 -0.6978  0.4064  0.4889
 9384SOL     OW29635   8.312   5.791   0.870 -0.1406  0.5064  0.4557
 9384SOL    HW129636   8.291   5.854   0.938  1.7114  1.2406  0.3882
 9384SOL    HW229637   8.352   5.843   0.800  2.6355 -0.8366  0.9577
 9385SOL     OW29638   1.775   5.768   0.490 -0.0155 -0.2272 -0.6246
 9385SOL    HW129639   1.852   5.790   0.543 -2.0277  0.2575  2.2138
 9385SOL    HW229640   1.796   5.801   0.403  2.4427  1.1192  0.4241
 9386SOL     OW29641   1.162   1.632   4.055 -0.1457 -0.2164 -0.4569
 9386SOL    HW129642   1.190   1.723   4.051 -0.4743 -0.0497  0.6343
 9386SOL    HW229643   1.066   1.636   4.055 -0.1912 -0.4260  1.3807
 9387SOL     OW29644   6.906   6.199   7.409 -0.7666  0.0651  0.4275
 9387SOL    HW129645   6.930   6.285   7.443 -0.7144 -0.7996  2.6998
 9387SOL    HW229646   6.811   6.203   7.396 -0.7751  0.4518  0.6072
 9388SOL     OW29647   3.267   3.134   1.301  0.2903 -0.2720  0.1517
 9388SOL    HW129648   3.260   3.144   1.396 -0.2589  1.2855 -0.0397
 9388SOL    HW229649   3.221   3.051   1.283  0.9573 -0.9115  1.3017
 9389SOL     OW29650   1.041   1.794   6.771  0.0194  0.2141  0.4501
 9389SOL    HW129651   1.083   1.726   6.823 -1.1664 -2.2341 -1.6914
 9389SOL    HW229652   1.085   1.790   6.686 -1.8243  0.2934 -0.5435
 9390SOL     OW29653   0.302   4.940   0.960  0.2516 -0.2500 -1.0158
 9390SOL    HW129654   0.289   5.002   0.887 -0.7300  1.0871  0.2611
 9390SOL    HW229655   0.228   4.956   1.018  0.8142 -1.5957  0.0869
 9391SOL     OW29656   5.794   2.008   5.408 -0.4456 -0.6923 -0.1452
 9391SOL    HW129657   5.761   1.949   5.476 -1.2145 -1.6799 -1.3367
 9391SOL    HW229658   5.739   2.085   5.415 -0.1214 -0.5294  0.7418
 9392SOL     OW29659   0.364   4.431   4.608 -0.7199 -0.4010  0.0134
 9392SOL    HW129660   0.336   4.349   4.648  0.4648 -1.0655 -0.5299
 9392SOL    HW229661   0.326   4.430   4.520 -0.8388 -0.2833  0.0618
 9393SOL     OW29662   0.017   5.269   7.087 -0.0433  0.1811  0.5452
 9393SOL    HW129663   0.056   5.230   7.009  1.3383 -0.4626  1.5513
 9393SOL    HW229664  -0.077   5.275   7.067  0.3836  0.5659 -1.3842
 9394SOL     OW29665   0.636   0.404   4.123 -0.0285  0.2425  0.6190
 9394SOL    HW129666   0.619   0.463   4.196 -0.4284 -0.0742  0.7829
 9394SOL    HW229667   0.566   0.423   4.060 -0.3242 -0.2421  0.7919
 9395SOL     OW29668   5.559   1.622   3.250 -0.1441 -0.2049  0.0566
 9395SOL    HW129669   5.547   1.692   3.314 -0.6235  0.6777 -0.9799
 9395SOL    HW229670   5.558   1.541   3.302  0.8078  0.5731  1.3003
 9396SOL     OW29671   5.340   2.454   5.147  0.3106 -0.0224 -0.1797
 9396SOL    HW129672   5.425   2.484   5.180  0.7807  0.1010 -1.4717
 9396SOL    HW229673   5.361   2.388   5.081 -0.6310 -0.6674  0.1525
 9397SOL     OW29674   2.730   1.561   5.252  0.1951 -0.0886 -0.9238
 9397SOL    HW129675   2.805   1.609   5.215  0.2267  0.0650 -0.6592
 9397SOL    HW229676   2.675   1.629   5.291  1.5842 -0.4959  1.8794
 9398SOL     OW29677   1.657   7.350   0.739  0.0156  0.7432  0.0808
 9398SOL    HW129678   1.569   7.375   0.710 -0.4282  1.0055  1.5933
 9398SOL    HW229679   1.703   7.328   0.658 -1.8900 -0.8624 -0.6247
 9399SOL     OW29680   2.094   1.047   4.150 -0.3583  0.5167  0.2889
 9399SOL    HW129681   2.013   1.083   4.187  0.0540  3.0214 -1.1198
 9399SOL    HW229682   2.160   1.113   4.169  1.1533 -1.0122  0.4533
 9400SOL     OW29683   1.285   3.413   3.748  0.5447 -0.1045  0.2914
 9400SOL    HW129684   1.310   3.505   3.749  1.1571 -0.2688  2.2289
 9400SOL    HW229685   1.194   3.412   3.778  0.8505 -0.1934  1.2480
 9401SOL     OW29686   6.722   3.012   4.285 -0.0075 -0.0185  0.2135
 9401SOL    HW129687   6.657   3.037   4.351 -1.9328  0.1826 -1.7317
 9401SOL    HW229688   6.789   2.965   4.335 -0.9017  1.0241  2.4803
 9402SOL     OW29689   0.281   5.409   3.045  0.5947 -0.1113  0.0645
 9402SOL    HW129690   0.208   5.350   3.026  0.6121  0.0532 -0.4973
 9402SOL    HW229691   0.350   5.351   3.079  0.7051 -0.4491 -0.7325
 9403SOL     OW29692   3.637   0.028   6.022  0.0091  0.1314 -0.2432
 9403SOL    HW129693   3.634  -0.039   5.954  0.1957  0.3439 -0.4616
 9403SOL    HW229694   3.546   0.038   6.051  0.2021 -1.4015  0.9605
 9404SOL     OW29695   3.474   1.420   1.818 -0.3225  0.0587  0.0721
 9404SOL    HW129696   3.454   1.508   1.787  0.8048 -0.2824 -1.6847
 9404SOL    HW229697   3.548   1.391   1.764  0.5240 -1.2603  1.8694
 9405SOL     OW29698   4.438   2.473   3.957 -0.3805 -0.1939  0.8655
 9405SOL    HW129699   4.419   2.554   4.005 -0.7697 -0.1083  0.5714
 9405SOL    HW229700   4.533   2.475   3.945 -0.6052  1.3674 -1.0991
 9406SOL     OW29701   1.358   1.509   5.610  0.1825 -0.2286 -0.5186
 9406SOL    HW129702   1.328   1.600   5.605  1.6875  0.2920 -0.5427
 9406SOL    HW229703   1.316   1.465   5.537 -0.1016  0.5958 -0.8522
 9407SOL     OW29704   1.179   5.680   5.052 -0.6328 -0.3371 -0.5761
 9407SOL    HW129705   1.102   5.633   5.085 -0.6893 -0.6250 -1.1257
 9407SOL    HW229706   1.219   5.621   4.988 -1.1224  0.6513 -1.8144
 9408SOL     OW29707   0.063   6.989   7.844  0.4341  0.7306  0.0621
 9408SOL    HW129708   0.085   6.941   7.765 -1.0040  1.8007 -1.0075
 9408SOL    HW229709   0.146   7.028   7.872  0.8097  0.9675 -1.3397
 9409SOL     OW29710   0.803   1.686   3.698 -0.0085 -0.3070 -0.0274
 9409SOL    HW129711   0.713   1.698   3.669  0.2648 -0.4018 -0.9403
 9409SOL    HW229712   0.856   1.730   3.631  0.5744  0.7137  1.0917
 9410SOL     OW29713   7.525   4.681   6.886  0.4326 -0.0041  0.1597
 9410SOL    HW129714   7.456   4.616   6.901  0.1711  0.6912  2.1501
 9410SOL    HW229715   7.485   4.745   6.827  0.0521 -0.6506 -0.2899
 9411SOL     OW29716   5.798   1.500   7.492 -0.1381  0.1662  0.9398
 9411SOL    HW129717   5.720   1.503   7.547 -0.6139  0.6506  0.2460
 9411SOL    HW229718   5.776   1.438   7.422 -0.1860  0.8712  0.3232
 9412SOL     OW29719   2.855   2.539   6.022 -0.0406 -0.4362 -0.1534
 9412SOL    HW129720   2.768   2.559   5.988  0.3715 -0.6753 -1.3544
 9412SOL    HW229721   2.903   2.621   6.016  0.2092 -0.6234 -0.6766
 9413SOL     OW29722   3.594   0.582   1.743 -0.2029 -0.0898 -0.2588
 9413SOL    HW129723   3.624   0.647   1.806  2.0832 -0.2206 -1.1915
 9413SOL    HW229724   3.531   0.529   1.792  0.8142  0.4011  1.6238
 9414SOL     OW29725   7.694   1.315   0.227 -0.1694  0.3403  0.1149
 9414SOL    HW129726   7.752   1.306   0.151 -1.3828  0.0101 -0.7699
 9414SOL    HW229727   7.674   1.409   0.230 -0.3822  0.3038 -0.1639
 9415SOL     OW29728   1.225   1.690   1.179  0.1187 -0.1749 -0.0315
 9415SOL    HW129729   1.282   1.682   1.102  1.7717 -2.2703  1.3499
 9415SOL    HW229730   1.136   1.681   1.143  0.9277 -2.8729 -1.5532
 9416SOL     OW29731   6.556   4.935   1.137  0.2171 -0.4341 -0.7949
 9416SOL    HW129732   6.497   4.994   1.089  1.4571  0.9752 -0.6218
 9416SOL    HW229733   6.589   4.875   1.070  1.0603  0.8064 -1.5182
 9417SOL     OW29734   0.020   3.664   7.268  0.3936  0.5293  0.0678
 9417SOL    HW129735  -0.050   3.641   7.330  1.4445  0.3431  1.2138
 9417SOL    HW229736   0.057   3.745   7.302  0.0520  1.1971 -1.1267
 9418SOL     OW29737   0.769   4.566   2.393 -0.0719  0.4464 -0.0930
 9418SOL    HW129738   0.829   4.630   2.432  0.9237 -0.4790 -0.0953
 9418SOL    HW229739   0.814   4.534   2.316 -1.1050  0.6371 -0.7935
 9419SOL     OW29740   5.063   3.943   3.023 -0.0654  0.1091 -0.5048
 9419SOL    HW129741   5.108   4.018   3.061 -2.6535  0.8544  1.2669
 9419SOL    HW229742   5.080   3.871   3.084  1.0180 -0.3373 -1.3162
 9420SOL     OW29743   2.852   2.724   3.240 -0.1787 -0.1804  0.3066
 9420SOL    HW129744   2.771   2.745   3.287 -0.1684 -1.1060  0.7624
 9420SOL    HW229745   2.922   2.756   3.297 -0.2592  1.8743 -0.7446
 9421SOL     OW29746   4.006   7.351   2.568  0.3305  0.1997 -0.0866
 9421SOL    HW129747   3.949   7.312   2.501 -0.0776  0.3420  0.1699
 9421SOL    HW229748   4.016   7.282   2.633 -1.3493  0.8789  0.9454
 9422SOL     OW29749   3.189   3.683   6.618  0.3847  0.3539  0.0585
 9422SOL    HW129750   3.142   3.639   6.547  0.3291  0.4304  0.0476
 9422SOL    HW229751   3.260   3.623   6.641  0.1392  0.1313  0.2352
 9423SOL     OW29752   8.052   7.816   8.203 -0.2582  0.1416 -0.5368
 9423SOL    HW129753   8.136   7.818   8.158  0.3225 -1.7047  0.4220
 9423SOL    HW229754   8.050   7.898   8.253  2.3493 -1.1150  1.7995
 9424SOL     OW29755   0.897   8.250   1.192  0.2320  0.0413 -0.1967
 9424SOL    HW129756   0.801   8.242   1.196  0.2220  0.7037  1.1536
 9424SOL    HW229757   0.917   8.321   1.253  1.6986 -0.9197  0.4490
 9425SOL     OW29758   5.931   6.607   4.976 -0.2317 -0.2396 -0.5426
 9425SOL    HW129759   5.978   6.524   4.974 -1.1140 -0.9767  3.3936
 9425SOL    HW229760   5.995   6.673   4.950  1.5696 -1.7692 -0.0574
 9426SOL     OW29761   3.585   3.146   6.324 -0.2443  0.0863 -0.1102
 9426SOL    HW129762   3.508   3.116   6.372 -0.3905  1.9821  0.9008
 9426SOL    HW229763   3.555   3.155   6.233 -0.6383 -1.1930 -0.1056
 9427SOL     OW29764   3.791   0.269   2.841  0.2454  0.0674  0.2978
 9427SOL    HW129765   3.768   0.233   2.927 -0.4729 -0.7777 -0.2381
 9427SOL    HW229766   3.884   0.245   2.830  0.9186  1.9033  1.6705
 9428SOL     OW29767   7.225   2.141   4.169 -0.2898  0.2739  0.0619
 9428SOL    HW129768   7.316   2.113   4.161 -0.5792 -0.2937 -1.5092
 9428SOL    HW229769   7.185   2.077   4.228 -0.1267 -0.6406 -0.8035
 9429SOL     OW29770   3.047   3.465   2.126 -0.0501  0.0500 -0.4008
 9429SOL    HW129771   3.139   3.475   2.098 -0.2216 -0.4057 -1.1515
 9429SOL    HW229772   2.997   3.510   2.058 -0.3640  0.6901  0.2489
 9430SOL     OW29773   2.224   5.883   5.231  0.0818  0.3343  0.0422
 9430SOL    HW129774   2.175   5.822   5.176 -0.8126  1.1995 -0.1505
 9430SOL    HW229775   2.309   5.892   5.187  0.0645 -0.4263 -0.1573
 9431SOL     OW29776   2.756   3.463   2.559 -0.3736  0.0761  0.1634
 9431SOL    HW129777   2.669   3.497   2.582 -0.0797  0.8982  0.0526
 9431SOL    HW229778   2.795   3.439   2.643 -0.3276  0.6126  0.2937
 9432SOL     OW29779   6.997   0.967   7.158  0.0739  0.2430  0.0381
 9432SOL    HW129780   7.041   0.906   7.216  0.5127  1.1985  0.7108
 9432SOL    HW229781   7.064   0.994   7.095 -0.0499  0.2490 -0.0941
 9433SOL     OW29782   2.233   2.611   5.739 -0.1558  0.3659  0.4461
 9433SOL    HW129783   2.319   2.621   5.699 -0.2134 -0.0851  0.2095
 9433SOL    HW229784   2.243   2.650   5.826  0.0609  1.0320  0.1294
 9434SOL     OW29785   0.061   4.955   1.483  0.6003 -0.0217 -0.1392
 9434SOL    HW129786   0.085   4.946   1.575  2.2417 -0.1707 -0.5649
 9434SOL    HW229787   0.132   4.912   1.435  0.1891  0.7672 -1.4995
 9435SOL     OW29788   5.071   0.327   0.684 -0.1814 -0.0202  0.2707
 9435SOL    HW129789   5.156   0.287   0.704 -0.0024 -0.2277 -0.8677
 9435SOL    HW229790   5.007   0.260   0.710 -0.0151  0.1689  1.2063
 9436SOL     OW29791   0.166   1.088   7.292  0.1184 -0.2462 -0.4386
 9436SOL    HW129792   0.093   1.130   7.339  0.1202  0.0903 -0.7368
 9436SOL    HW229793   0.180   1.006   7.339  0.4829  0.3419  0.5035
 9437SOL     OW29794   7.395   3.118   4.403  0.5177  0.2689  0.2981
 9437SOL    HW129795   7.433   3.133   4.490  0.7922  0.1145  0.2069
 9437SOL    HW229796   7.464   3.146   4.342  0.7203 -0.5739  0.1294
 9438SOL     OW29797   4.523   7.320   1.577 -0.0899  0.1135 -0.6709
 9438SOL    HW129798   4.467   7.243   1.584  0.7630 -0.5625 -1.2024
 9438SOL    HW229799   4.583   7.300   1.505  1.1167  0.6467  0.1679
 9439SOL     OW29800   1.819   3.930   4.791 -0.3827 -0.0959 -0.3278
 9439SOL    HW129801   1.902   3.887   4.770  0.7012  2.0665 -0.6166
 9439SOL    HW229802   1.807   3.995   4.722 -2.1815 -0.1726 -0.1205
 9440SOL     OW29803   3.373   7.803   5.603  0.1202  0.5574 -0.5362
 9440SOL    HW129804   3.371   7.768   5.514  0.3651 -2.0812  0.4430
 9440SOL    HW229805   3.416   7.888   5.595  1.6478 -0.3707 -2.6936
 9441SOL     OW29806   6.811   6.011   3.870  0.0040 -0.4973 -0.1476
 9441SOL    HW129807   6.849   6.042   3.788  0.0148 -2.0647 -0.7510
 9441SOL    HW229808   6.869   5.940   3.898 -1.6890 -2.0222 -0.3918
 9442SOL     OW29809   7.445   4.267   1.769 -0.1535  0.3108 -0.1525
 9442SOL    HW129810   7.418   4.259   1.860 -0.3687  0.4237 -0.2058
 9442SOL    HW229811   7.468   4.178   1.742 -2.2773 -0.1098 -0.6645
 9443SOL     OW29812   1.167   3.359   5.210  0.1363 -0.0837 -0.1122
 9443SOL    HW129813   1.238   3.295   5.197 -0.1089 -0.5650  0.9382
 9443SOL    HW229814   1.087   3.309   5.194 -0.0427  0.0130  0.4787
 9444SOL     OW29815   0.043   1.108   2.816 -0.2390  0.7184  0.7291
 9444SOL    HW129816  -0.050   1.123   2.836 -0.1159  1.4964  0.7583
 9444SOL    HW229817   0.063   1.174   2.749  0.0936  0.0415  0.1659
 9445SOL     OW29818   7.557   3.140   4.177  0.0977 -0.5578 -0.0073
 9445SOL    HW129819   7.616   3.208   4.146 -2.7411  1.6980 -0.6980
 9445SOL    HW229820   7.483   3.144   4.117 -1.1814 -2.6593  1.3698
 9446SOL     OW29821   6.888   2.622   5.998  0.3002 -0.0867 -0.2617
 9446SOL    HW129822   6.800   2.656   6.011  0.7903  1.7392 -1.5505
 9446SOL    HW229823   6.930   2.631   6.084 -0.3906  0.1094  0.0590
 9447SOL     OW29824   0.255   7.454   0.939 -0.5104 -0.7970 -0.1705
 9447SOL    HW129825   0.289   7.406   1.016  0.5161 -0.1876 -0.2320
 9447SOL    HW229826   0.332   7.463   0.882 -1.1256 -0.6690 -0.9785
 9448SOL     OW29827   2.881   2.246   7.808 -0.5981  0.2706  0.4542
 9448SOL    HW129828   2.859   2.329   7.765  1.2297 -0.2600 -1.5926
 9448SOL    HW229829   2.974   2.254   7.828 -1.0265 -0.2245  2.7505
 9449SOL     OW29830   1.780   7.257   7.903  0.8982  0.0815 -0.4477
 9449SOL    HW129831   1.749   7.185   7.958  1.7235  0.4662  0.5179
 9449SOL    HW229832   1.845   7.302   7.956  0.4065  1.5369 -1.0528
 9450SOL     OW29833   1.554   2.963   5.781  0.0788 -0.0847  0.2862
 9450SOL    HW129834   1.478   3.021   5.782  1.3089  1.6308 -1.6073
 9450SOL    HW229835   1.620   3.008   5.833  0.8048 -0.1021 -0.5983
 9451SOL     OW29836   3.965   7.583   5.045  0.2198  0.1715  0.2258
 9451SOL    HW129837   4.052   7.589   5.007  0.6530  2.3179  1.4706
 9451SOL    HW229838   3.974   7.518   5.115  1.0811  1.0701  0.9655
 9452SOL     OW29839   6.066   4.452   7.305  0.1143 -0.2954  0.1688
 9452SOL    HW129840   6.033   4.427   7.391 -1.1591 -1.1149 -0.5402
 9452SOL    HW229841   6.072   4.370   7.257  0.1175  0.2456 -0.7620
 9453SOL     OW29842   4.191   2.992   7.329  0.6277  0.9218 -0.0349
 9453SOL    HW129843   4.243   2.992   7.409 -0.9674  3.0997  1.0269
 9453SOL    HW229844   4.221   3.069   7.281  0.2726  0.6589 -0.6812
 9454SOL     OW29845   1.210   5.356   2.941 -0.2100 -0.0869  0.6464
 9454SOL    HW129846   1.301   5.339   2.964 -0.5773 -0.9499  1.5607
 9454SOL    HW229847   1.168   5.379   3.024 -0.9430 -0.2787  0.3411
 9455SOL     OW29848   5.247   5.477   6.814  0.5985 -0.1973 -0.1381
 9455SOL    HW129849   5.187   5.522   6.873  1.4195 -2.2590  2.3621
 9455SOL    HW229850   5.201   5.397   6.790  0.8277  0.0009 -1.2547
 9456SOL     OW29851   5.857   2.364   2.167 -0.5950  0.2680  0.1798
 9456SOL    HW129852   5.854   2.460   2.176 -0.7397  0.2097  0.7594
 9456SOL    HW229853   5.905   2.350   2.085 -1.8150  0.8648 -0.6683
 9457SOL     OW29854   7.243   3.584   1.382 -0.0373  0.3582  0.0443
 9457SOL    HW129855   7.254   3.525   1.457  0.4932  3.5212  2.6044
 9457SOL    HW229856   7.327   3.581   1.337  0.0284 -0.7435  0.2290
 9458SOL     OW29857   3.399   1.160   1.951 -0.2363  0.0464  0.3086
 9458SOL    HW129858   3.421   1.250   1.927 -1.8852  0.4073  0.0912
 9458SOL    HW229859   3.454   1.106   1.894  0.4488  0.9055  0.1423
 9459SOL     OW29860   8.157   2.481   0.191  0.1280  0.1337 -0.2956
 9459SOL    HW129861   8.229   2.503   0.132  0.3676 -0.5745 -0.2625
 9459SOL    HW229862   8.163   2.387   0.203 -0.4473  0.1543  0.1776
 9460SOL     OW29863   7.993   3.746   7.185 -0.1443  0.1329  0.7109
 9460SOL    HW129864   7.978   3.756   7.279  1.4775 -1.8783  1.2189
 9460SOL    HW229865   7.918   3.697   7.153 -1.4029  2.0412  0.6704
 9461SOL     OW29866   4.624   7.835   3.789  1.0804 -0.5824  0.5942
 9461SOL    HW129867   4.530   7.823   3.775  1.3881 -1.1228 -1.2204
 9461SOL    HW229868   4.631   7.877   3.875 -0.9668  1.7208 -0.2853
 9462SOL     OW29869   6.747   7.215   1.406 -0.9765 -0.1229  0.2053
 9462SOL    HW129870   6.716   7.250   1.323 -1.1573 -1.5804 -0.3440
 9462SOL    HW229871   6.774   7.125   1.387  0.9872  0.2062  1.2654
 9463SOL     OW29872   0.459   5.058   0.386 -0.1389 -0.1684 -0.0862
 9463SOL    HW129873   0.519   5.132   0.392  1.1001 -1.1663 -0.0148
 9463SOL    HW229874   0.456   5.035   0.293 -1.8030  0.9966 -0.3392
 9464SOL     OW29875   5.600   0.337   8.122  0.4869 -0.1214 -0.0171
 9464SOL    HW129876   5.641   0.251   8.118 -0.6195 -0.6842  0.5900
 9464SOL    HW229877   5.603   0.362   8.214 -0.1154  0.0332 -0.0351
 9465SOL     OW29878   1.046   5.357   5.843 -0.1557  0.0283 -0.1571
 9465SOL    HW129879   1.136   5.328   5.830  0.0368 -0.1418  1.4754
 9465SOL    HW229880   0.993   5.278   5.829  0.0506 -0.1498  0.0545
 9466SOL     OW29881   6.026   6.231   3.967 -0.2576  0.5409 -0.0317
 9466SOL    HW129882   6.035   6.320   4.002  0.5345  0.3233  0.3383
 9466SOL    HW229883   5.938   6.229   3.930  0.4828  2.1408 -1.9551
 9467SOL     OW29884   1.410   5.873   6.430 -0.3179  0.0019  0.0401
 9467SOL    HW129885   1.451   5.897   6.514  0.7789  1.1554 -0.7962
 9467SOL    HW229886   1.465   5.916   6.364 -0.6122 -1.6623 -1.3238
 9468SOL     OW29887   7.764   5.458   2.444 -0.2862 -0.8198  0.0251
 9468SOL    HW129888   7.816   5.494   2.373 -0.4755  1.9862  1.2250
 9468SOL    HW229889   7.691   5.413   2.401 -0.2426  0.5899 -1.5626
 9469SOL     OW29890   0.539   0.786   1.730 -0.4321 -0.1592  0.0119
 9469SOL    HW129891   0.600   0.823   1.666  2.2582 -1.2906  1.8666
 9469SOL    HW229892   0.488   0.722   1.681 -0.2751  0.9188 -1.5943
 9470SOL     OW29893   2.445   3.971   1.507 -0.4635  0.0809  0.3387
 9470SOL    HW129894   2.385   4.015   1.568 -1.6566 -0.5926 -0.3387
 9470SOL    HW229895   2.465   4.037   1.441 -1.2300  0.0176  0.0353
 9471SOL     OW29896   5.624   3.353   6.802 -0.0806  0.0984 -0.3848
 9471SOL    HW129897   5.537   3.391   6.790 -0.3070  0.0775  1.0486
 9471SOL    HW229898   5.679   3.397   6.738 -0.8974  0.9937 -0.4842
 9472SOL     OW29899   4.593   2.299   5.255  0.1360  0.2964 -0.4816
 9472SOL    HW129900   4.593   2.215   5.208 -1.7444 -0.2544  0.4470
 9472SOL    HW229901   4.652   2.286   5.329 -0.0025 -0.1510 -0.4478
 9473SOL     OW29902   6.479   2.436   4.773 -0.3501  0.5500  0.1401
 9473SOL    HW129903   6.530   2.366   4.732 -1.6219 -0.0746 -0.3973
 9473SOL    HW229904   6.535   2.513   4.768 -0.1457  0.2839 -2.0357
 9474SOL     OW29905   0.707   8.054   4.225  0.4434 -0.0136 -0.4689
 9474SOL    HW129906   0.727   7.982   4.285  0.0680 -0.6807 -1.1260
 9474SOL    HW229907   0.764   8.125   4.252  0.0238 -0.1969  0.8978
 9475SOL     OW29908   6.708   4.634   7.616 -0.2700 -0.1682  0.5963
 9475SOL    HW129909   6.680   4.558   7.667  0.0594 -0.9869 -0.4426
 9475SOL    HW229910   6.637   4.649   7.553 -1.1268  1.4337  1.8827
 9476SOL     OW29911   1.463   8.122   8.254 -0.5513 -0.4013 -0.1963
 9476SOL    HW129912   1.464   8.079   8.168 -0.5825  0.4281 -0.6194
 9476SOL    HW229913   1.553   8.153   8.267 -1.0177  1.3369 -0.9016
 9477SOL     OW29914   4.547   5.292   5.622 -0.2357  0.4256 -0.0226
 9477SOL    HW129915   4.626   5.271   5.572 -0.3108  0.3087 -0.0917
 9477SOL    HW229916   4.475   5.270   5.564 -0.3095  1.7820 -0.4740
 9478SOL     OW29917   7.529   5.918   3.619 -0.0254  0.0480 -0.2691
 9478SOL    HW129918   7.528   5.840   3.674 -0.9325  0.1835 -0.0832
 9478SOL    HW229919   7.523   5.885   3.530  1.0437 -0.1556 -0.2682
 9479SOL     OW29920   2.867   1.684   2.600 -0.3366 -0.3164  0.5704
 9479SOL    HW129921   2.863   1.773   2.564 -0.0158 -0.7012 -0.4481
 9479SOL    HW229922   2.802   1.635   2.549 -0.2328 -0.7592  0.8626
 9480SOL     OW29923   6.172   4.626   2.529  0.0293  0.3615 -0.5261
 9480SOL    HW129924   6.220   4.568   2.470  1.7874 -1.5093  2.5844
 9480SOL    HW229925   6.230   4.702   2.538  1.0094 -0.5218  0.8012
 9481SOL     OW29926   4.736   1.496   7.422 -0.7946 -0.3716  0.6032
 9481SOL    HW129927   4.767   1.565   7.481  1.1101 -2.6580  2.3433
 9481SOL    HW229928   4.682   1.440   7.477 -0.2410 -1.6805 -0.1661
 9482SOL     OW29929   8.020   1.180   6.876  0.0199  0.1652  0.6108
 9482SOL    HW129930   8.045   1.112   6.813 -2.5144 -0.9878  0.7734
 9482SOL    HW229931   8.100   1.199   6.924  1.3704 -0.8595 -1.1619
 9483SOL     OW29932   3.078   1.291   5.496  0.0885 -0.3952 -0.0144
 9483SOL    HW129933   3.119   1.342   5.426 -1.2470  0.1512 -0.4015
 9483SOL    HW229934   3.088   1.200   5.468 -0.4279 -0.1811 -0.9068
 9484SOL     OW29935   3.140   0.909   7.691  0.4294  0.8069 -0.9507
 9484SOL    HW129936   3.162   0.948   7.776 -2.5724  2.1005 -0.7128
 9484SOL    HW229937   3.079   0.971   7.652  0.3796 -0.6806 -3.3058
 9485SOL     OW29938   5.957   7.069   5.078  0.0929  0.2144 -0.6172
 9485SOL    HW129939   5.932   7.070   4.986 -2.8617 -1.0651  0.1180
 9485SOL    HW229940   5.980   7.160   5.097 -2.6657  1.2062 -1.7737
 9486SOL     OW29941   1.296   0.319   2.234  0.0990  0.1247 -0.1800
 9486SOL    HW129942   1.289   0.318   2.330  1.8147 -1.7152 -0.0352
 9486SOL    HW229943   1.293   0.412   2.211 -0.3837  0.5871  1.6577
 9487SOL     OW29944   8.306   0.297   4.041 -0.0927  0.0592 -0.1764
 9487SOL    HW129945   8.397   0.310   4.068 -0.6473  3.7276  0.2291
 9487SOL    HW229946   8.254   0.333   4.113 -1.8806 -1.7063 -0.5416
 9488SOL     OW29947   4.958   6.364   5.058 -0.0845  0.0492  0.1106
 9488SOL    HW129948   4.864   6.352   5.048 -0.3374  1.9537  0.0438
 9488SOL    HW229949   4.973   6.456   5.036  1.9145 -0.4547 -0.7543
 9489SOL     OW29950   3.661   1.583   4.943 -0.0009 -0.5516  0.1098
 9489SOL    HW129951   3.609   1.510   4.909 -3.7864  2.1595 -0.2197
 9489SOL    HW229952   3.635   1.591   5.035 -0.2339  0.8675 -0.0709
 9490SOL     OW29953   5.399   2.630   7.454  0.0356 -0.6721  0.0003
 9490SOL    HW129954   5.329   2.602   7.513 -0.7256  0.3248 -0.4148
 9490SOL    HW229955   5.357   2.634   7.368  0.7003 -0.4458 -0.3172
 9491SOL     OW29956   4.106   3.714   4.365  0.3027 -0.1882  0.2656
 9491SOL    HW129957   4.126   3.711   4.272 -1.2106  0.0775 -0.0850
 9491SOL    HW229958   4.010   3.707   4.369  0.2224  1.4107  1.6959
 9492SOL     OW29959   3.821   3.056   8.183 -0.2670  0.3320 -0.0404
 9492SOL    HW129960   3.803   2.962   8.194 -0.7388  0.4360  0.0913
 9492SOL    HW229961   3.917   3.061   8.174 -0.0942 -0.0215  1.4663
 9493SOL     OW29962   4.023   3.772   6.985 -0.2282 -0.2318 -0.0481
 9493SOL    HW129963   3.977   3.785   6.902  1.7026  2.7664 -0.7319
 9493SOL    HW229964   3.971   3.821   7.048  0.3190  0.5853 -0.2250
 9494SOL     OW29965   0.188   5.630   5.765 -0.2513 -0.4113  0.2473
 9494SOL    HW129966   0.221   5.656   5.679 -2.4987 -0.5910 -0.6959
 9494SOL    HW229967   0.207   5.705   5.822  0.5075  0.0431 -0.5902
 9495SOL     OW29968   0.494   0.171   0.850 -0.6077  0.1349 -0.4944
 9495SOL    HW129969   0.413   0.149   0.804 -0.0518 -2.6261 -0.2215
 9495SOL    HW229970   0.466   0.197   0.937 -1.3406  1.2552 -1.0511
 9496SOL     OW29971   5.137   5.264   2.516 -0.3718  0.2128 -0.4415
 9496SOL    HW129972   5.232   5.268   2.524 -0.3053 -1.7455  0.0068
 9496SOL    HW229973   5.114   5.338   2.459  1.4778  0.3100 -1.0760
 9497SOL     OW29974   7.195   6.569   3.681  0.1077 -0.2416 -0.0294
 9497SOL    HW129975   7.140   6.510   3.630  1.1599  0.4988 -2.0702
 9497SOL    HW229976   7.276   6.521   3.695  0.7571  0.4681 -1.2276
 9498SOL     OW29977   7.748   6.703   3.055 -0.0428 -0.2292 -0.0283
 9498SOL    HW129978   7.658   6.736   3.049 -0.0118 -0.0865  0.2622
 9498SOL    HW229979   7.757   6.645   2.980 -0.8135 -1.2932  0.6793
 9499SOL     OW29980   5.952   7.465   5.880  0.7030  0.1434  0.1073
 9499SOL    HW129981   5.979   7.530   5.815 -1.3695 -1.1774 -2.1323
 9499SOL    HW229982   5.927   7.517   5.957  0.4384  1.9223 -1.1564
 9500SOL     OW29983   6.483   4.073   6.103 -0.3170  0.6903  0.3252
 9500SOL    HW129984   6.404   4.102   6.147 -1.2369 -1.1939 -0.0090
 9500SOL    HW229985   6.511   3.996   6.153  3.0456  3.0277  2.2751
 9501SOL     OW29986   3.963   1.030   4.936  0.5002 -0.0057  0.2255
 9501SOL    HW129987   4.052   1.000   4.916 -0.0358 -0.6642 -1.1938
 9501SOL    HW229988   3.970   1.126   4.939  1.4588 -0.0950  1.1315
 9502SOL     OW29989   2.806   6.582   6.479 -0.0908  0.5292  0.2917
 9502SOL    HW129990   2.714   6.584   6.507  0.2835  1.7001  1.4837
 9502SOL    HW229991   2.806   6.624   6.393 -0.6418  0.7753  0.4099
 9503SOL     OW29992   6.049   5.014   2.353  0.1811  0.2889 -0.5487
 9503SOL    HW129993   6.072   4.974   2.270 -1.1255 -1.4725 -0.0913
 9503SOL    HW229994   5.974   5.070   2.332 -0.2913 -0.3308 -0.5116
 9504SOL     OW29995   2.124   4.584   1.487 -0.4711  0.5977 -0.5683
 9504SOL    HW129996   2.042   4.595   1.535  0.3624  0.4861  0.9071
 9504SOL    HW229997   2.148   4.673   1.461  0.1660  0.9288  1.0911
 9505SOL     OW29998   1.260   7.231   5.384 -0.3207 -0.1074 -0.0506
 9505SOL    HW129999   1.262   7.299   5.451 -2.7422 -1.4532  1.4553
 9505SOL    HW230000   1.186   7.254   5.329 -1.0916 -1.4218  0.4059
 9506SOL     OW30001   2.558   4.838   4.586 -0.2449 -0.1018  0.3764
 9506SOL    HW130002   2.641   4.838   4.539  0.3559  1.6917  1.4095
 9506SOL    HW230003   2.499   4.786   4.530  0.7150  1.1310 -1.8386
 9507SOL     OW30004   4.722   5.010   7.001  0.2255  0.3123  1.0939
 9507SOL    HW130005   4.759   5.016   7.089 -0.6510  1.8188  1.3743
 9507SOL    HW230006   4.730   5.099   6.966 -1.1876  0.1688  0.3795
 9508SOL     OW30007   5.462   4.435   1.329  0.1851 -0.4370  0.0725
 9508SOL    HW130008   5.545   4.441   1.376  0.2313  0.7904 -0.1324
 9508SOL    HW230009   5.470   4.357   1.274 -0.8382 -3.4018  3.9018
 9509SOL     OW30010   7.819   6.850   6.227  0.2655  0.6802 -0.2565
 9509SOL    HW130011   7.895   6.890   6.183  0.0526  0.2724 -1.0124
 9509SOL    HW230012   7.829   6.875   6.319  2.3881 -0.9877  0.0154
 9510SOL     OW30013   6.984   2.924   0.939 -0.6168 -0.1590  0.2360
 9510SOL    HW130014   7.038   2.979   0.883 -2.7969  1.0784 -0.7063
 9510SOL    HW230015   6.995   2.835   0.904  0.0581  0.2221 -0.5266
 9511SOL     OW30016   5.400   6.209   6.209  0.4175 -0.3564 -0.1875
 9511SOL    HW130017   5.347   6.251   6.141  1.3699  0.1493 -0.6278
 9511SOL    HW230018   5.481   6.260   6.212  0.6256 -0.7363  0.9186
 9512SOL     OW30019   1.099   2.494   3.800 -0.2177  0.3722  0.2444
 9512SOL    HW130020   1.169   2.527   3.856  0.6249 -1.5594  0.3690
 9512SOL    HW230021   1.145   2.453   3.726 -1.2910  1.8047 -1.2544
 9513SOL     OW30022   1.940   2.283   7.112  0.2448 -0.0063 -0.1350
 9513SOL    HW130023   2.007   2.269   7.178  0.2374 -1.5670 -0.4491
 9513SOL    HW230024   1.952   2.374   7.084  0.8928  0.3494  1.2782
 9514SOL     OW30025   2.593   6.316   3.695 -0.2602  0.0178  0.4934
 9514SOL    HW130026   2.558   6.330   3.607 -0.3136 -0.7180  0.3932
 9514SOL    HW230027   2.684   6.288   3.680  0.4959  2.2207  0.7587
 9515SOL     OW30028   0.388   4.746   7.288 -0.4576 -0.4517  0.5891
 9515SOL    HW130029   0.334   4.681   7.333 -0.0487  0.3016  2.2212
 9515SOL    HW230030   0.349   4.830   7.314 -0.0999 -0.0002 -0.3339
 9516SOL     OW30031   1.291   1.728   7.935  0.0287 -0.1104  0.7227
 9516SOL    HW130032   1.306   1.822   7.936 -0.2952  0.0495 -3.0085
 9516SOL    HW230033   1.209   1.716   7.983 -0.2143  1.5648  0.7529
 9517SOL     OW30034   1.555   5.971   5.910 -0.0889 -0.2901  0.6829
 9517SOL    HW130035   1.638   6.012   5.887 -1.0082  0.5865 -1.1236
 9517SOL    HW230036   1.488   6.029   5.874 -1.4610 -1.9889  0.4161
 9518SOL     OW30037   7.034   4.677   3.134  0.0315 -0.6647  0.6769
 9518SOL    HW130038   7.100   4.712   3.194  0.3259  0.1895 -0.1456
 9518SOL    HW230039   7.077   4.677   3.048 -0.5268 -1.5005  0.3915
 9519SOL     OW30040   5.500   6.580   5.559  0.0007  0.1286  0.7209
 9519SOL    HW130041   5.406   6.580   5.577 -0.5183 -1.0090 -1.7261
 9519SOL    HW230042   5.537   6.519   5.624 -1.2218 -0.8299  0.5444
 9520SOL     OW30043   0.665   5.622   0.804 -0.3062 -0.9363  0.1678
 9520SOL    HW130044   0.679   5.529   0.790 -0.6478 -0.7335 -1.5432
 9520SOL    HW230045   0.752   5.661   0.799 -0.2550 -1.0523  0.1607
 9521SOL     OW30046   7.983   2.687   5.359 -0.1300  0.3217 -0.3406
 9521SOL    HW130047   7.929   2.718   5.286 -2.6783 -1.4676  0.7019
 9521SOL    HW230048   8.017   2.602   5.329  1.4374  1.0494 -0.6576
 9522SOL     OW30049   6.078   1.678   6.899 -0.0151 -0.2553 -0.3294
 9522SOL    HW130050   6.143   1.664   6.968 -0.6899 -0.1447  0.3352
 9522SOL    HW230051   6.119   1.642   6.821  1.4236  1.0929 -0.2172
 9523SOL     OW30052   7.681   2.397   6.845  0.3425  0.0697 -0.0134
 9523SOL    HW130053   7.676   2.304   6.820  1.3477  0.8142 -3.2506
 9523SOL    HW230054   7.590   2.423   6.857  0.0231 -1.2362  0.5091
 9524SOL     OW30055   2.288   7.466   2.917  0.0824  0.0211 -0.2426
 9524SOL    HW130056   2.211   7.481   2.862  1.2673  0.5777 -1.8105
 9524SOL    HW230057   2.260   7.400   2.980 -1.2389 -0.9207 -1.7497
 9525SOL     OW30058   4.067   5.616   3.931 -0.2249 -0.0971 -0.4116
 9525SOL    HW130059   3.978   5.644   3.954 -0.3705 -2.0976  1.5731
 9525SOL    HW230060   4.123   5.689   3.957 -1.0557  0.2394  0.4253
 9526SOL     OW30061   8.242   6.448   7.486  0.3840  0.5697  0.7505
 9526SOL    HW130062   8.194   6.402   7.417  0.7476 -0.1383  0.9607
 9526SOL    HW230063   8.217   6.402   7.567  0.0129  1.3467  1.0865
 9527SOL     OW30064   2.173   0.484   0.796  0.1410 -0.3462 -0.3145
 9527SOL    HW130065   2.145   0.576   0.805  0.8923  0.0823 -2.1476
 9527SOL    HW230066   2.121   0.437   0.862 -2.3622  0.9707 -1.2922
 9528SOL     OW30067   3.624   2.890   1.723  0.4931 -0.0320  0.0328
 9528SOL    HW130068   3.627   2.915   1.815 -0.0544  1.9434 -0.4483
 9528SOL    HW230069   3.556   2.822   1.719 -1.7588  2.0797  0.6555
 9529SOL     OW30070   1.092   5.981   2.161 -0.0061  0.4002  0.1403
 9529SOL    HW130071   1.036   5.907   2.183 -0.9564  1.5813  1.8066
 9529SOL    HW230072   1.031   6.051   2.138  0.8826  0.7269 -1.3006
 9530SOL     OW30073   0.203   4.121   6.927 -0.1181  0.3644 -0.0465
 9530SOL    HW130074   0.296   4.136   6.947  0.3078 -1.1760 -0.7792
 9530SOL    HW230075   0.169   4.207   6.905  1.5076  0.7422 -1.2231
 9531SOL     OW30076   6.742   1.420   6.675  0.7590  0.6036 -0.0042
 9531SOL    HW130077   6.749   1.351   6.609 -1.2392 -0.1278  0.4832
 9531SOL    HW230078   6.741   1.374   6.759 -1.5031  1.1034  0.2907
 9532SOL     OW30079   6.796   3.076   1.280 -0.2755  0.4316  0.0315
 9532SOL    HW130080   6.749   3.015   1.223 -0.6594  1.4623 -0.7588
 9532SOL    HW230081   6.823   3.148   1.223  4.2050 -1.1116 -0.0095
 9533SOL     OW30082   0.226   1.177   2.464  0.0953  0.6243  0.2110
 9533SOL    HW130083   0.200   1.086   2.472  0.0620  0.6762  0.7287
 9533SOL    HW230084   0.211   1.199   2.372 -0.6353  0.3415  0.2656
 9534SOL     OW30085   3.427   3.970   4.152 -0.0060  0.2211 -0.2418
 9534SOL    HW130086   3.465   3.904   4.095 -1.0349 -0.5382 -0.0589
 9534SOL    HW230087   3.492   4.040   4.155  0.4839 -0.1651 -1.5586
 9535SOL     OW30088   4.965   5.244   8.005  0.4798 -0.3414 -0.2303
 9535SOL    HW130089   4.934   5.206   8.087  0.1854  1.3306  0.4426
 9535SOL    HW230090   5.058   5.222   8.002  0.4355 -0.6136  0.4258
 9536SOL     OW30091   2.094   4.602   4.405  0.2744 -0.1255 -0.9334
 9536SOL    HW130092   2.094   4.572   4.496  2.0626  1.5309 -0.3549
 9536SOL    HW230093   2.005   4.636   4.391 -0.1356 -0.7595  0.0374
 9537SOL     OW30094   0.466   1.937   1.294  0.2576  0.0400 -0.1169
 9537SOL    HW130095   0.543   1.978   1.256  0.5757  0.5790  1.1011
 9537SOL    HW230096   0.463   1.969   1.384  0.5648 -2.6723  0.9008
 9538SOL     OW30097   1.265   0.972   3.021 -0.1767  0.0312  0.1324
 9538SOL    HW130098   1.294   1.061   3.042 -0.2600 -0.2585  1.5467
 9538SOL    HW230099   1.330   0.940   2.958  1.1769  0.2716  1.3882
 9539SOL     OW30100   6.090   1.587   1.729  0.1549  0.5630 -0.2660
 9539SOL    HW130101   6.180   1.601   1.760  0.5143  0.2521 -1.1706
 9539SOL    HW230102   6.099   1.528   1.655 -1.1092 -2.1294  1.6433
 9540SOL     OW30103   4.678   5.612   5.879  0.6220  0.8495 -0.4200
 9540SOL    HW130104   4.643   5.579   5.961 -1.9284  1.1158 -1.3677
 9540SOL    HW230105   4.759   5.563   5.866  0.1558 -0.4344  1.3819
 9541SOL     OW30106   5.073   5.166   3.681  0.8835 -0.5050 -0.0912
 9541SOL    HW130107   4.982   5.164   3.651  0.7935 -2.0624  0.2752
 9541SOL    HW230108   5.090   5.258   3.701  0.3523  0.2996 -3.1180
 9542SOL     OW30109   5.809   3.100   4.838  0.0271 -0.0952  0.2196
 9542SOL    HW130110   5.844   3.117   4.926  0.1309  0.7369  0.0214
 9542SOL    HW230111   5.717   3.126   4.844 -0.2401 -1.0483  0.3748
 9543SOL     OW30112   1.380   3.158   6.744  0.2128  0.1641  1.0441
 9543SOL    HW130113   1.472   3.162   6.769  0.4826  0.9975 -0.0476
 9543SOL    HW230114   1.333   3.179   6.825  0.9322 -1.2899  1.8659
 9544SOL     OW30115   5.660   0.778   5.439  0.8971 -0.3226 -0.1305
 9544SOL    HW130116   5.710   0.727   5.374  0.9676 -0.3285 -0.0716
 9544SOL    HW230117   5.571   0.780   5.404  0.9089 -0.4299 -0.1676
 9545SOL     OW30118   6.996   7.151   3.398 -0.1668 -0.4256  0.1177
 9545SOL    HW130119   6.941   7.174   3.323 -2.2856 -0.4753  1.6015
 9545SOL    HW230120   7.022   7.060   3.382 -0.6022 -0.4353 -0.5399
 9546SOL     OW30121   5.124   5.561   6.567  0.6311 -0.4333 -0.1161
 9546SOL    HW130122   5.073   5.640   6.552  1.1286 -0.2177 -0.6649
 9546SOL    HW230123   5.173   5.579   6.647 -0.9932 -1.0716  1.0630
 9547SOL     OW30124   7.517   4.832   3.610 -0.6071 -0.5792  0.0464
 9547SOL    HW130125   7.607   4.822   3.640 -0.1920 -1.0546 -1.2980
 9547SOL    HW230126   7.501   4.753   3.557 -1.9213 -0.6554  0.5500
 9548SOL     OW30127   3.061   5.663   4.554  0.4762  0.1456 -0.0140
 9548SOL    HW130128   3.142   5.615   4.570  0.2034 -0.3948 -0.2841
 9548SOL    HW230129   3.081   5.752   4.586  0.6845 -0.3547  1.3092
 9549SOL     OW30130   2.034   0.257   0.929 -0.2501  0.0703  0.5187
 9549SOL    HW130131   1.942   0.234   0.912 -0.4834  1.4489 -0.2007
 9549SOL    HW230132   2.050   0.230   1.019 -1.3555 -0.2255  0.6300
 9550SOL     OW30133   1.624   6.874   3.861 -0.0290 -0.2904 -0.2563
 9550SOL    HW130134   1.634   6.836   3.948  1.2252 -1.3975 -0.8605
 9550SOL    HW230135   1.677   6.954   3.863 -1.7063  0.8409  0.6357
 9551SOL     OW30136   6.755   1.097   1.092  0.2609 -0.5276  0.4294
 9551SOL    HW130137   6.676   1.077   1.141 -0.1060 -1.2135 -0.4078
 9551SOL    HW230138   6.733   1.074   1.001  0.3845  2.2151 -0.3317
 9552SOL     OW30139   0.070   2.654   3.311  0.3608  0.1676  0.5353
 9552SOL    HW130140   0.016   2.708   3.369 -0.0903  1.5022 -1.0828
 9552SOL    HW230141   0.035   2.670   3.223  1.9120 -0.7469 -0.2785
 9553SOL     OW30142   4.785   5.889   7.101 -0.1707  0.2276  0.1492
 9553SOL    HW130143   4.836   5.884   7.020  1.2372  3.1546  0.7794
 9553SOL    HW230144   4.699   5.921   7.073  0.2682  1.1053 -0.2106
 9554SOL     OW30145   6.136   7.434   0.383  0.0498  0.2011 -0.0691
 9554SOL    HW130146   6.139   7.476   0.470 -0.0038 -0.1599  0.1062
 9554SOL    HW230147   6.204   7.480   0.333  0.4991  0.0042  0.3478
 9555SOL     OW30148   3.936   6.647   4.061  0.2132  0.2378 -0.8207
 9555SOL    HW130149   3.847   6.613   4.064 -0.0305  0.8329 -1.3809
 9555SOL    HW230150   3.937   6.708   3.988  1.4961 -0.9295 -1.8111
 9556SOL     OW30151   2.571   3.448   4.274 -0.1969  0.5114  0.3482
 9556SOL    HW130152   2.557   3.542   4.269  0.9328  0.5705 -2.0901
 9556SOL    HW230153   2.495   3.410   4.229  1.7263  0.4758 -3.0550
 9557SOL     OW30154   1.823   3.903   4.074  0.2040 -0.0117 -0.3472
 9557SOL    HW130155   1.872   3.884   3.994  0.4885 -0.2631 -0.1145
 9557SOL    HW230156   1.775   3.822   4.092 -1.3535  0.6745 -1.3179
 9558SOL     OW30157   7.665   5.786   7.666 -0.2045 -0.2046 -0.0275
 9558SOL    HW130158   7.742   5.764   7.613 -0.7744 -4.1574  0.6502
 9558SOL    HW230159   7.604   5.826   7.604  1.9175  1.9556 -0.7923
 9559SOL     OW30160   2.523   1.916   2.135  0.4687  0.1456  0.4389
 9559SOL    HW130161   2.432   1.895   2.155  0.5972 -1.0045 -0.1499
 9559SOL    HW230162   2.566   1.831   2.126  1.2693  0.6667 -0.7952
 9560SOL     OW30163   7.724   6.385   5.968 -0.6787  0.0611 -0.2232
 9560SOL    HW130164   7.713   6.405   5.875 -1.8199 -1.1829 -0.3678
 9560SOL    HW230165   7.643   6.414   6.009 -0.4344  0.0240  0.2909
 9561SOL     OW30166   5.637   7.822   8.202 -0.2585  0.0966 -0.3903
 9561SOL    HW130167   5.631   7.779   8.287 -1.0157  0.8733 -0.0567
 9561SOL    HW230168   5.553   7.865   8.190 -0.4355 -0.6390 -1.8686
 9562SOL     OW30169   3.633   5.079   6.067 -0.0834  0.0452  0.0232
 9562SOL    HW130170   3.635   5.084   5.971  1.2169 -0.0502  0.0331
 9562SOL    HW230171   3.664   4.991   6.086  0.1854  0.2527  0.5439
 9563SOL     OW30172   7.938   4.265   3.995  0.1387  0.4909  0.4836
 9563SOL    HW130173   7.855   4.221   4.013  0.8229 -0.7764  0.6183
 9563SOL    HW230174   7.992   4.248   4.072  2.0018 -2.3655 -1.3673
 9564SOL     OW30175   2.186   6.535   1.732 -0.1347 -0.1180 -0.2356
 9564SOL    HW130176   2.206   6.488   1.651  0.4182 -0.4967  0.1214
 9564SOL    HW230177   2.266   6.530   1.784  0.3682  2.2966 -0.7100
 9565SOL     OW30178   1.926   8.247   0.187  0.7297  0.0806 -0.8219
 9565SOL    HW130179   1.990   8.315   0.164  1.7619 -0.5776  0.1040
 9565SOL    HW230180   1.975   8.184   0.239 -0.7947 -0.1731  0.3342
 9566SOL     OW30181   8.000   4.691   7.568 -0.1882  0.0705 -0.1462
 9566SOL    HW130182   8.041   4.733   7.644  0.4622  1.5445 -1.3080
 9566SOL    HW230183   7.906   4.700   7.584 -0.0577  0.3830  0.4746
 9567SOL     OW30184   4.725   2.659   2.488 -0.1049  0.0500  0.1013
 9567SOL    HW130185   4.672   2.645   2.567  0.8659  0.1690  0.7731
 9567SOL    HW230186   4.785   2.730   2.512 -0.8890  1.2061 -1.2685
 9568SOL     OW30187   6.633   4.813   2.392  0.1720  0.1228  0.1113
 9568SOL    HW130188   6.656   4.899   2.359  1.3540  0.5177  1.9088
 9568SOL    HW230189   6.649   4.754   2.318 -0.6141  1.4055 -1.1105
 9569SOL     OW30190   6.305   5.236   2.085 -0.0674 -0.2009  0.3987
 9569SOL    HW130191   6.322   5.274   1.998 -2.0069 -0.3075 -0.0492
 9569SOL    HW230192   6.364   5.161   2.090  1.0489  0.6146 -0.2696
 9570SOL     OW30193   0.139   0.918   2.472  0.0948  0.4261  0.0229
 9570SOL    HW130194   0.163   0.829   2.449 -1.8674  0.0282 -0.5422
 9570SOL    HW230195   0.053   0.910   2.514  0.3179  1.9490  0.8240
 9571SOL     OW30196   6.852   5.844   4.119  0.2611  0.2309 -0.3804
 9571SOL    HW130197   6.862   5.933   4.152  1.9208 -0.3240  0.6279
 9571SOL    HW230198   6.941   5.812   4.108 -0.3160 -2.4004  2.2425
 9572SOL     OW30199   3.393   0.588   4.703  0.6868  0.0023 -0.4379
 9572SOL    HW130200   3.307   0.578   4.662  0.9344  2.1241 -1.5117
 9572SOL    HW230201   3.448   0.522   4.661 -0.4277 -1.5000  0.3920
 9573SOL     OW30202   6.467   1.014   8.138 -0.2433  0.1553 -0.9425
 9573SOL    HW130203   6.557   1.039   8.116 -0.0759  0.6487  0.2549
 9573SOL    HW230204   6.414   1.085   8.102 -0.1259  0.0443 -1.3404
 9574SOL     OW30205   4.442   3.860   3.180 -0.0012  0.1814  0.2316
 9574SOL    HW130206   4.532   3.865   3.150 -0.2276 -1.0530 -0.6712
 9574SOL    HW230207   4.446   3.884   3.273  1.1916  0.5188  0.0911
 9575SOL     OW30208   3.897   7.632   0.992  0.6350  0.2840  0.3097
 9575SOL    HW130209   3.949   7.694   1.044 -0.2951  1.7135 -0.4032
 9575SOL    HW230210   3.820   7.615   1.047  0.2559  0.8198 -0.0404
 9576SOL     OW30211   0.649   8.090   3.970 -0.2118 -0.4160  0.0915
 9576SOL    HW130212   0.660   8.058   4.060  0.1845 -2.8635 -0.7844
 9576SOL    HW230213   0.600   8.020   3.926 -0.1602  0.6300 -1.6704
 9577SOL     OW30214   7.532   3.909   3.910  0.2631 -0.2242  0.4146
 9577SOL    HW130215   7.515   3.918   4.004 -2.2126 -2.2002  0.2176
 9577SOL    HW230216   7.507   3.994   3.872 -1.4777 -0.3465  1.2199
 9578SOL     OW30217   7.276   2.538   5.674 -0.1528  0.5634 -0.1929
 9578SOL    HW130218   7.208   2.601   5.699 -0.3113 -0.1604  1.2536
 9578SOL    HW230219   7.244   2.455   5.708  0.3298 -0.2013 -1.6001
 9579SOL     OW30220   2.824   4.383   3.592  0.1377 -0.2783 -0.1146
 9579SOL    HW130221   2.882   4.454   3.565  0.9774 -0.8437  0.1771
 9579SOL    HW230222   2.771   4.420   3.663  0.5289  0.0701 -0.0069
 9580SOL     OW30223   7.467   3.448   4.833 -0.0819 -0.2211 -0.3693
 9580SOL    HW130224   7.478   3.540   4.858  0.8164 -0.2388 -0.6970
 9580SOL    HW230225   7.415   3.410   4.904  1.1563  0.0940  0.7212
 9581SOL     OW30226   4.650   2.113   5.528 -0.4261 -0.1472  0.1113
 9581SOL    HW130227   4.739   2.149   5.527  0.0932 -1.3280  1.0629
 9581SOL    HW230228   4.603   2.166   5.591  0.2306 -0.8532  1.2284
 9582SOL     OW30229   3.132   1.417   7.175 -0.1774  0.2296  0.2193
 9582SOL    HW130230   3.084   1.363   7.237  0.8258 -0.9447  0.0041
 9582SOL    HW230231   3.191   1.356   7.131  1.2241  1.5528  0.2102
 9583SOL     OW30232   0.998   3.417   6.306  0.4754 -0.4903 -0.2455
 9583SOL    HW130233   0.927   3.460   6.354  0.8909 -0.2305  0.1434
 9583SOL    HW230234   1.031   3.351   6.367 -0.5675 -1.8108 -1.0643
 9584SOL     OW30235   0.784   4.639   1.190 -0.3729 -0.6729 -0.3709
 9584SOL    HW130236   0.796   4.628   1.095  3.2703  0.8916 -0.1988
 9584SOL    HW230237   0.855   4.587   1.228 -1.5714 -0.9674  1.5195
 9585SOL     OW30238   6.472   0.180   7.644  0.3239  0.2145  0.2137
 9585SOL    HW130239   6.519   0.134   7.573 -2.2709 -1.3449 -0.5718
 9585SOL    HW230240   6.417   0.243   7.598  1.4878  1.9243  1.1222
 9586SOL     OW30241   6.620   1.704   1.823 -0.2093 -0.4308 -0.6976
 9586SOL    HW130242   6.552   1.663   1.770 -0.5739 -0.0456 -0.5354
 9586SOL    HW230243   6.663   1.766   1.764 -1.5016  0.9896 -0.2090
 9587SOL     OW30244   6.396   3.768   5.941  0.2169 -0.0324  0.0730
 9587SOL    HW130245   6.354   3.695   5.986  1.3037  0.5322  2.0415
 9587SOL    HW230246   6.481   3.776   5.983  0.4637  1.7853 -0.7366
 9588SOL     OW30247   0.980   0.139   1.388 -0.1860 -0.3277  0.5356
 9588SOL    HW130248   1.046   0.118   1.454  1.6393  2.6751 -0.2285
 9588SOL    HW230249   0.909   0.180   1.437  0.6773  0.8738  0.8073
 9589SOL     OW30250   4.268   2.720   2.345 -0.2625  0.0127 -0.7810
 9589SOL    HW130251   4.275   2.763   2.430 -0.0376  0.4539 -1.0228
 9589SOL    HW230252   4.210   2.645   2.361 -1.1118  0.7220 -0.4908
 9590SOL     OW30253   0.010   3.851   5.927 -0.2566 -0.2344  0.1659
 9590SOL    HW130254   0.049   3.842   5.840 -1.5737  1.6113 -0.6604
 9590SOL    HW230255  -0.011   3.945   5.934  0.2468 -0.2789  2.6509
 9591SOL     OW30256   0.062   7.784   2.984  0.7085 -0.0049 -0.6642
 9591SOL    HW130257   0.091   7.702   3.026  0.7457 -0.1093 -0.8930
 9591SOL    HW230258   0.132   7.846   3.003  0.5549  0.0490 -0.2578
 9592SOL     OW30259   1.009   3.537   0.559  0.1110 -0.4200 -0.1095
 9592SOL    HW130260   0.960   3.507   0.636  0.5796 -0.6631  0.0908
 9592SOL    HW230261   0.944   3.585   0.508  0.3366  1.7620  1.5527
 9593SOL     OW30262   0.862   4.021   1.658  0.0497 -0.1352 -0.3769
 9593SOL    HW130263   0.809   4.097   1.681 -2.8176 -1.9603 -0.6561
 9593SOL    HW230264   0.811   3.975   1.592  0.8843 -3.2216  1.0397
 9594SOL     OW30265   7.757   4.778   2.427 -0.0389  0.4394  0.0853
 9594SOL    HW130266   7.717   4.743   2.348  0.9252 -0.8228  0.1521
 9594SOL    HW230267   7.849   4.792   2.404  0.6757 -1.7098  1.5208
 9595SOL     OW30268   4.903   4.626   6.879  0.4777 -0.2355  0.0199
 9595SOL    HW130269   4.943   4.552   6.925  0.7688 -0.8126 -1.1314
 9595SOL    HW230270   4.963   4.699   6.895 -0.5868  0.1492  2.4200
 9596SOL     OW30271   3.328   1.727   5.050  0.2026 -0.0934 -0.5791
 9596SOL    HW130272   3.351   1.800   5.108 -2.0393 -0.4323  0.7774
 9596SOL    HW230273   3.390   1.658   5.072  0.5775  0.4460  0.0727
 9597SOL     OW30274   1.184   6.451   1.832 -0.2472 -0.1065  0.0044
 9597SOL    HW130275   1.091   6.430   1.822 -0.7079  1.3783  0.9722
 9597SOL    HW230276   1.187   6.510   1.907  1.2602  1.4305 -1.2250
 9598SOL     OW30277   2.977   5.714   4.110 -0.3696 -0.3408 -0.5109
 9598SOL    HW130278   3.056   5.756   4.144 -0.9382 -0.8524  1.5055
 9598SOL    HW230279   2.947   5.658   4.181 -2.7001  0.0443 -1.1533
 9599SOL     OW30280   6.049   5.248   6.371  0.1165  0.2032  0.4721
 9599SOL    HW130281   6.090   5.237   6.457  2.7196  0.6983 -0.6579
 9599SOL    HW230282   6.004   5.165   6.356  0.0968 -0.0985  2.0742
 9600SOL     OW30283   3.714   2.179   7.684 -0.3451 -0.1647 -0.7208
 9600SOL    HW130284   3.708   2.090   7.649 -0.9118 -0.9258  1.2185
 9600SOL    HW230285   3.788   2.176   7.744 -0.0757  0.8138 -0.9938
 9601SOL     OW30286   6.729   2.281   6.725  0.4576 -0.8707  0.1089
 9601SOL    HW130287   6.768   2.322   6.648  0.1542 -1.0364 -0.1361
 9601SOL    HW230288   6.789   2.210   6.748  0.3915 -1.0181 -0.1639
 9602SOL     OW30289   7.062   8.276   3.717 -0.0361  0.4533  0.4744
 9602SOL    HW130290   7.065   8.216   3.642 -0.5558 -0.8990  1.5239
 9602SOL    HW230291   6.983   8.328   3.703  0.3072  0.7609 -0.3401
 9603SOL     OW30292   2.533   6.281   7.286 -0.3013  0.3154 -0.3900
 9603SOL    HW130293   2.555   6.224   7.213  0.3930 -0.7687  0.6542
 9603SOL    HW230294   2.459   6.334   7.254 -0.9190 -1.1262 -1.3750
 9604SOL     OW30295   0.524   4.304   2.022  0.5664  0.1611 -0.2590
 9604SOL    HW130296   0.536   4.266   2.109  0.6651 -0.6326 -0.6123
 9604SOL    HW230297   0.450   4.256   1.985 -0.1712  1.2287 -0.2152
 9605SOL     OW30298   7.308   5.106   6.293  0.0990  0.1435 -0.5872
 9605SOL    HW130299   7.276   5.196   6.299  0.7701  0.3620 -0.3323
 9605SOL    HW230300   7.241   5.054   6.336  0.3026  0.6514  0.3399
 9606SOL     OW30301   3.801   0.917   7.100  0.4790 -0.7100  0.0625
 9606SOL    HW130302   3.719   0.918   7.148  0.1042 -0.8019 -0.5685
 9606SOL    HW230303   3.850   0.843   7.136  0.2065 -0.7769  0.2956
 9607SOL     OW30304   2.239   8.187   6.863 -0.0072 -0.1283 -0.8825
 9607SOL    HW130305   2.294   8.240   6.805 -0.6423 -1.5817 -2.8562
 9607SOL    HW230306   2.175   8.146   6.805  2.2037 -5.3587  0.0841
 9608SOL     OW30307   4.546   2.866   0.099  0.3579  0.0514 -0.7728
 9608SOL    HW130308   4.538   2.912   0.182  0.4293  1.2936 -1.4351
 9608SOL    HW230309   4.527   2.775   0.120  0.4099  0.3415  0.6064
 9609SOL     OW30310   0.482   7.868   6.305 -0.1485 -0.1967 -0.3028
 9609SOL    HW130311   0.494   7.779   6.272 -2.2200 -1.1381  1.3523
 9609SOL    HW230312   0.454   7.918   6.229  2.8120 -0.4938 -1.6640
 9610SOL     OW30313   7.762   5.583   4.254 -0.3152 -0.2728 -0.1365
 9610SOL    HW130314   7.718   5.621   4.178  1.3463 -1.1646 -1.5823
 9610SOL    HW230315   7.827   5.649   4.279 -1.4502  0.4027  1.0763
 9611SOL     OW30316   1.410   3.883   6.417  0.4847 -0.4716 -0.4085
 9611SOL    HW130317   1.362   3.802   6.402  0.8232 -0.7252 -0.1381
 9611SOL    HW230318   1.463   3.895   6.338  1.2119 -1.0628 -0.0149
 9612SOL     OW30319   6.101   2.769   6.836 -0.1118  0.3463  0.4134
 9612SOL    HW130320   6.153   2.837   6.879  1.5663 -0.7851  0.2089
 9612SOL    HW230321   6.165   2.706   6.803 -1.6505 -1.6971  1.1827
 9613SOL     OW30322   7.666   6.255   3.106 -0.0023  0.0821 -0.0729
 9613SOL    HW130323   7.654   6.257   3.201  0.7158  0.0345  0.0248
 9613SOL    HW230324   7.631   6.339   3.076 -1.1189 -0.3103  0.1179
 9614SOL     OW30325   1.997   6.859   5.973 -0.2903  0.0322  0.0964
 9614SOL    HW130326   1.943   6.817   5.906  0.7894 -0.1441 -0.6922
 9614SOL    HW230327   1.968   6.821   6.056 -2.7731  1.4431 -0.0723
 9615SOL     OW30328   6.563   2.369   3.143  0.6825  0.0837  0.4592
 9615SOL    HW130329   6.529   2.419   3.069  1.0264 -0.5330 -0.1311
 9615SOL    HW230330   6.628   2.310   3.103 -0.3510 -1.4557  0.9936
 9616SOL     OW30331   4.397   7.589   4.719  0.2452  0.1790 -0.6329
 9616SOL    HW130332   4.396   7.683   4.733 -0.2973  0.0210  0.4893
 9616SOL    HW230333   4.393   7.578   4.624  2.6733  1.2966 -0.8893
 9617SOL     OW30334   4.880   8.207   5.096 -0.0097 -0.0018 -0.2302
 9617SOL    HW130335   4.886   8.113   5.082 -2.5013 -0.2804  0.3846
 9617SOL    HW230336   4.965   8.231   5.133  0.7660 -1.9346 -0.6995
 9618SOL     OW30337   7.668   1.039   6.315 -0.0071 -0.0425  0.3879
 9618SOL    HW130338   7.722   1.107   6.275 -1.5651  0.8070 -0.2860
 9618SOL    HW230339   7.731   0.975   6.347  1.4182  1.0525 -0.1738
 9619SOL     OW30340   2.360   2.705   2.905  0.1817  0.1949  0.3214
 9619SOL    HW130341   2.346   2.755   2.825 -0.7788 -0.4976  0.0565
 9619SOL    HW230342   2.346   2.769   2.976  0.7442  0.7325 -0.0496
 9620SOL     OW30343   8.140   3.626   3.687  0.6952  0.0399 -0.5534
 9620SOL    HW130344   8.172   3.574   3.761 -0.2545 -0.7817 -0.7010
 9620SOL    HW230345   8.197   3.702   3.684  1.0314 -0.1555  0.7417
 9621SOL     OW30346   1.539   3.980   8.031  0.0227 -0.0139 -0.2059
 9621SOL    HW130347   1.463   3.948   7.983  0.8467 -1.8898 -0.3075
 9621SOL    HW230348   1.605   3.996   7.963 -0.3282  1.7765 -0.1376
 9622SOL     OW30349   3.076   0.600   6.161  0.6559 -0.2471  0.4377
 9622SOL    HW130350   3.087   0.528   6.100 -0.5915  1.0739 -1.3850
 9622SOL    HW230351   2.982   0.606   6.177  0.5412  2.0657 -0.8277
 9623SOL     OW30352   5.264   3.997   5.718  0.4278  0.1844  0.2705
 9623SOL    HW130353   5.188   4.051   5.742 -1.2877 -2.1906  0.3931
 9623SOL    HW230354   5.271   4.007   5.623  1.4621  2.2922  0.5522
 9624SOL     OW30355   1.382   8.308   7.674  0.1275 -0.1225  0.2188
 9624SOL    HW130356   1.472   8.275   7.683 -0.2848 -1.6571 -1.0378
 9624SOL    HW230357   1.336   8.273   7.750  0.8063  1.5130  1.4202
 9625SOL     OW30358   0.652   6.820   1.667  0.5137 -0.2584  0.0494
 9625SOL    HW130359   0.714   6.887   1.637  0.9214 -0.8257 -0.3870
 9625SOL    HW230360   0.670   6.744   1.612 -3.0463  0.7182 -2.6685
 9626SOL     OW30361   4.734   4.068   1.013  0.4286  0.0848 -0.2461
 9626SOL    HW130362   4.805   4.046   0.954  1.8645  1.8602  0.7573
 9626SOL    HW230363   4.697   4.148   0.976  0.5659  0.5402  0.5848
 9627SOL     OW30364   1.707   1.377   6.755 -0.0401 -0.4172 -0.4137
 9627SOL    HW130365   1.723   1.284   6.773 -2.2365 -0.5140  1.0982
 9627SOL    HW230366   1.619   1.379   6.717  0.2078  1.0102 -0.9298
 9628SOL     OW30367   6.332   4.172   4.936  0.2844  0.8077  0.1607
 9628SOL    HW130368   6.404   4.129   4.983 -0.4069  1.2767  1.6860
 9628SOL    HW230369   6.296   4.103   4.880  1.4861  0.3885 -0.1082
 9629SOL     OW30370   5.403   7.147   1.112 -0.4898  0.3203 -0.0928
 9629SOL    HW130371   5.477   7.139   1.173 -0.3375 -0.6082 -0.3841
 9629SOL    HW230372   5.367   7.234   1.128  1.2461  1.1480 -0.6000
 9630SOL     OW30373   4.897   0.388   2.794 -0.0653  0.3425 -0.0031
 9630SOL    HW130374   4.891   0.461   2.731  0.3262  0.5191  0.1647
 9630SOL    HW230375   4.806   0.360   2.806 -0.1101  0.1117 -0.8757
 9631SOL     OW30376   2.898   1.349   3.395  0.1447  0.3001 -0.2382
 9631SOL    HW130377   2.936   1.320   3.312 -0.8627  1.0399 -0.9541
 9631SOL    HW230378   2.897   1.270   3.449  0.1264 -0.3477 -1.1775
 9632SOL     OW30379   0.908   5.558   7.116 -0.3573 -0.2845  0.1306
 9632SOL    HW130380   0.874   5.576   7.029  1.7946  2.0954 -0.2486
 9632SOL    HW230381   0.851   5.608   7.175 -0.2287  0.1431 -0.1129
 9633SOL     OW30382   7.123   1.860   8.150 -0.4453  0.0250 -0.4623
 9633SOL    HW130383   7.082   1.822   8.228  0.0248 -0.9468 -0.6692
 9633SOL    HW230384   7.122   1.788   8.086  1.3560  0.0401 -0.5356
 9634SOL     OW30385   2.657   4.181   3.115  0.4091 -0.1515  0.2176
 9634SOL    HW130386   2.738   4.215   3.076  1.2635 -2.4830 -0.1277
 9634SOL    HW230387   2.589   4.202   3.052  0.7542  1.6134  0.3965
 9635SOL     OW30388   7.199   2.501   2.224 -0.2338 -0.2556 -0.4244
 9635SOL    HW130389   7.138   2.574   2.214 -1.6032 -1.3346 -0.0843
 9635SOL    HW230390   7.215   2.470   2.134 -1.0496 -0.6541 -0.4393
 9636SOL     OW30391   3.014   6.827   5.904 -0.6453  0.1868  0.5553
 9636SOL    HW130392   3.047   6.817   5.814 -1.4109  1.2463  0.1359
 9636SOL    HW230393   2.999   6.738   5.934 -1.0169 -0.1561 -0.6219
 9637SOL     OW30394   8.134   3.665   2.264  0.7569 -0.1668  0.6346
 9637SOL    HW130395   8.141   3.712   2.348  1.8900  2.1152 -0.6763
 9637SOL    HW230396   8.223   3.635   2.247  0.6131 -0.2615  0.0636
 9638SOL     OW30397   1.431   0.592   2.829  0.1557  0.0155  0.0235
 9638SOL    HW130398   1.346   0.581   2.871  0.9966  0.4210  1.8886
 9638SOL    HW230399   1.414   0.650   2.755 -1.0746  0.6495  0.7841
 9639SOL     OW30400   7.549   3.938   4.196 -0.3896 -0.5768  0.1749
 9639SOL    HW130401   7.456   3.934   4.216 -0.5588  1.5881 -0.0306
 9639SOL    HW230402   7.592   3.943   4.282 -0.4990 -0.8538  0.2465
 9640SOL     OW30403   1.983   7.311   4.585 -0.0461  0.2838 -0.6317
 9640SOL    HW130404   1.990   7.219   4.608 -2.2365  0.3472  0.4423
 9640SOL    HW230405   1.948   7.353   4.664 -1.9543  1.5310 -2.0908
 9641SOL     OW30406   3.125   2.357   7.852  0.1468  0.6575 -0.5169
 9641SOL    HW130407   3.135   2.382   7.944 -0.8398  0.2171 -0.2776
 9641SOL    HW230408   3.133   2.439   7.804 -0.5537  1.0655  0.0581
 9642SOL     OW30409   4.887   1.045   6.667  0.0109  0.0799  0.3097
 9642SOL    HW130410   4.875   1.124   6.719 -0.0161 -0.1555  0.6614
 9642SOL    HW230411   4.845   0.976   6.718 -0.1488 -0.1239 -0.0945
 9643SOL     OW30412   5.892   5.731   0.214  0.7358  0.0615 -0.4525
 9643SOL    HW130413   5.959   5.675   0.253  1.7115  0.1937 -1.9207
 9643SOL    HW230414   5.845   5.674   0.153  0.3565  0.3107 -0.3998
 9644SOL     OW30415   4.239   5.041   0.161 -0.1480 -0.1096  0.0945
 9644SOL    HW130416   4.192   4.982   0.220 -0.4408 -1.1929 -1.1859
 9644SOL    HW230417   4.228   5.001   0.074  1.0947  0.9236 -0.5507
 9645SOL     OW30418   7.741   4.745   4.393 -0.3715  0.3197 -0.5216
 9645SOL    HW130419   7.673   4.801   4.356  1.7871  2.3793 -1.4767
 9645SOL    HW230420   7.818   4.801   4.400  0.4647 -1.1258  3.3130
 9646SOL     OW30421   5.739   4.227   6.649  0.0303  0.7871 -0.3390
 9646SOL    HW130422   5.808   4.279   6.608  1.1380  0.8012  1.4638
 9646SOL    HW230423   5.754   4.138   6.618  1.2218  0.6932  0.4554
 9647SOL     OW30424   3.776   7.949   1.356  0.2375  0.2054 -0.2757
 9647SOL    HW130425   3.818   8.035   1.365  1.5481 -0.4757  0.2960
 9647SOL    HW230426   3.682   7.968   1.359  0.5019  1.7118 -1.1021
 9648SOL     OW30427   8.241   1.174   5.873 -0.5866 -0.5096 -0.0278
 9648SOL    HW130428   8.242   1.222   5.955  1.3637 -0.8844  0.1799
 9648SOL    HW230429   8.215   1.239   5.808 -2.9553 -0.4045  0.9675
 9649SOL     OW30430   4.651   6.690   4.968  0.2003 -0.1735 -0.2473
 9649SOL    HW130431   4.714   6.629   5.007 -0.4505 -0.0828  0.9829
 9649SOL    HW230432   4.700   6.772   4.960  0.6331 -0.4589 -0.5070
 9650SOL     OW30433   2.695   0.861   3.409  0.3029  0.7330 -0.1402
 9650SOL    HW130434   2.729   0.778   3.377 -0.5207 -0.6591  2.4775
 9650SOL    HW230435   2.707   0.857   3.504 -1.8451  2.6137  0.2528
 9651SOL     OW30436   0.032   7.180   6.436  0.1760  0.9489  0.0228
 9651SOL    HW130437   0.011   7.102   6.385 -2.3926  1.8918 -0.4389
 9651SOL    HW230438   0.082   7.235   6.375  0.0324  0.6366 -0.3820
 9652SOL     OW30439   7.085   7.812   3.527 -0.3919 -0.2088 -0.0184
 9652SOL    HW130440   7.125   7.740   3.576 -0.0345  0.7760  1.1710
 9652SOL    HW230441   7.067   7.776   3.441  1.5878 -1.1667 -0.0608
 9653SOL     OW30442   1.879   3.252   7.452 -0.3776  0.0960  0.1610
 9653SOL    HW130443   1.973   3.268   7.440 -0.2465 -0.0667  0.9690
 9653SOL    HW230444   1.868   3.158   7.434 -0.5776  0.3411 -1.0664
 9654SOL     OW30445   4.406   5.132   5.195  0.2305  0.6851 -0.5391
 9654SOL    HW130446   4.428   5.224   5.211  0.1783  0.8974 -1.6781
 9654SOL    HW230447   4.473   5.101   5.133  0.1687 -0.0113 -0.2681
 9655SOL     OW30448   1.126   4.405   8.070  0.0857  0.4899 -0.2992
 9655SOL    HW130449   1.212   4.437   8.098  0.0269  1.6046 -1.3367
 9655SOL    HW230450   1.075   4.485   8.055 -0.8770 -0.1534 -0.4967
 9656SOL     OW30451   1.632   2.862   4.621  0.3335  0.4392 -0.9275
 9656SOL    HW130452   1.662   2.855   4.530 -4.0452 -1.4175 -2.3470
 9656SOL    HW230453   1.551   2.912   4.617 -1.2120 -1.6813  1.5837
 9657SOL     OW30454   2.343   4.935   2.132  0.2972  0.0061  0.3426
 9657SOL    HW130455   2.326   4.886   2.051  0.4034  1.2899 -0.4746
 9657SOL    HW230456   2.418   4.890   2.171  0.9190  0.0074 -0.8236
 9658SOL     OW30457   6.228   6.203   7.008 -0.9150  0.1062 -0.3915
 9658SOL    HW130458   6.235   6.136   6.941  2.6464 -0.0318  0.0513
 9658SOL    HW230459   6.305   6.258   6.995 -1.7663  1.8564  1.6835
 9659SOL     OW30460   6.919   1.050   3.769  1.0155  0.5857 -0.7316
 9659SOL    HW130461   6.847   1.079   3.825  1.5685  0.2763  0.1502
 9659SOL    HW230462   6.917   0.954   3.775  2.6280  0.6081  0.7732
 9660SOL     OW30463   2.016   7.836   1.704 -0.1399  0.4669  0.0847
 9660SOL    HW130464   2.090   7.837   1.644 -0.7939 -0.5809 -0.7375
 9660SOL    HW230465   2.056   7.844   1.791  1.0215 -1.1754 -0.2736
 9661SOL     OW30466   5.655   2.167   7.570  0.0367  0.0173  0.1562
 9661SOL    HW130467   5.573   2.216   7.566  0.1198  0.1169 -0.3130
 9661SOL    HW230468   5.665   2.146   7.663  0.2053  1.2480  0.4275
 9662SOL     OW30469   7.811   3.602   1.325 -0.0816  0.6750  0.1205
 9662SOL    HW130470   7.880   3.622   1.262  0.1950  0.7027  0.4308
 9662SOL    HW230471   7.796   3.684   1.372  1.7877 -0.0743  2.1034
 9663SOL     OW30472   1.886   5.503   0.989  0.5936  0.0181 -0.3515
 9663SOL    HW130473   1.872   5.496   0.895  1.4450  1.5091 -0.6013
 9663SOL    HW230474   1.928   5.421   1.014  0.0406 -0.5222 -1.2052
 9664SOL     OW30475   3.700   0.311   1.828 -0.2813 -0.0612 -0.6436
 9664SOL    HW130476   3.791   0.279   1.835 -0.1052  0.3270 -1.1527
 9664SOL    HW230477   3.688   0.327   1.734 -0.0600  2.2651 -0.3009
 9665SOL     OW30478   3.252   3.121   0.350 -0.0523 -0.2990 -0.3527
 9665SOL    HW130479   3.320   3.177   0.387 -1.5297  0.6622  0.9654
 9665SOL    HW230480   3.277   3.033   0.376  0.3796  0.1078  0.6197
 9666SOL     OW30481   0.243   0.239   8.266  0.0415  0.1497  0.2683
 9666SOL    HW130482   0.256   0.144   8.274 -2.3113 -0.3716 -1.5487
 9666SOL    HW230483   0.300   0.265   8.194  0.4627  0.0690  0.5709
 9667SOL     OW30484   7.834   4.045   2.083  0.5443 -0.2114 -0.1307
 9667SOL    HW130485   7.850   3.950   2.088 -1.2245 -0.5245  0.0876
 9667SOL    HW230486   7.808   4.069   2.172  1.3582  0.5624 -0.0998
 9668SOL     OW30487   7.241   3.622   2.872 -0.2743 -0.6655  0.1100
 9668SOL    HW130488   7.225   3.594   2.782  0.4510 -1.0108  0.0873
 9668SOL    HW230489   7.334   3.606   2.887  0.0156  1.1249  0.3140
 9669SOL     OW30490   3.560   6.355   2.711  0.2507  0.4597  0.0708
 9669SOL    HW130491   3.467   6.358   2.734  1.0599 -0.2125  3.7109
 9669SOL    HW230492   3.576   6.437   2.665 -2.4825 -0.1636 -2.1205
 9670SOL     OW30493   2.066   1.629   1.984 -0.6116  0.4127  0.0627
 9670SOL    HW130494   2.126   1.641   1.910 -0.2760  1.5628  0.5088
 9670SOL    HW230495   2.123   1.621   2.060 -0.9891  0.2565  0.3299
 9671SOL     OW30496   1.413   6.712   5.578  0.0581  0.2177 -0.6708
 9671SOL    HW130497   1.490   6.741   5.628 -1.0947  1.1468  0.6114
 9671SOL    HW230498   1.378   6.793   5.539 -1.8911  0.2525  1.0856
 9672SOL     OW30499   4.807   8.087   7.552 -0.0117 -0.1406  0.3750
 9672SOL    HW130500   4.762   8.106   7.469 -0.0600 -0.8921  0.2290
 9672SOL    HW230501   4.823   8.173   7.590 -1.8795  0.1350  0.5822
 9673SOL     OW30502   7.891   4.932   1.365 -0.3622 -0.1264 -0.0127
 9673SOL    HW130503   7.853   4.995   1.304 -0.4547 -0.7086 -0.5643
 9673SOL    HW230504   7.829   4.859   1.366  0.0677 -0.4957  0.1148
 9674SOL     OW30505   6.634   6.717   7.238  0.2208  0.5183 -0.3056
 9674SOL    HW130506   6.591   6.797   7.269  1.8658  0.6136  1.8563
 9674SOL    HW230507   6.562   6.655   7.227 -0.8174  1.5658  0.3566
 9675SOL     OW30508   4.438   5.732   6.329 -0.0989  0.5191  0.6026
 9675SOL    HW130509   4.529   5.759   6.319 -1.1163  3.9755 -0.1943
 9675SOL    HW230510   4.407   5.718   6.239 -0.9666  1.7278  0.6922
 9676SOL     OW30511   6.916   0.645   5.693  0.0523 -0.1293  0.4150
 9676SOL    HW130512   6.903   0.690   5.609  1.1825  0.3286  0.4774
 9676SOL    HW230513   6.983   0.697   5.737  0.2733 -1.0219  1.1270
 9677SOL     OW30514   1.024   3.612   4.949 -0.1592 -0.4527  0.5450
 9677SOL    HW130515   1.081   3.543   4.915 -0.0894 -0.1932  0.1205
 9677SOL    HW230516   0.957   3.624   4.881  0.6955  0.9184 -0.0907
 9678SOL     OW30517   3.024   5.279   7.770  0.1396  0.5753  0.2969
 9678SOL    HW130518   3.099   5.219   7.761 -0.7661 -0.4155 -0.8032
 9678SOL    HW230519   3.052   5.359   7.726  0.1724 -0.1537 -1.0220
 9679SOL     OW30520   1.748   4.371   0.816 -0.4345  0.2745  0.4311
 9679SOL    HW130521   1.788   4.436   0.874 -0.6001  0.9868 -0.2540
 9679SOL    HW230522   1.815   4.302   0.809 -1.0899 -0.6565  2.8560
 9680SOL     OW30523   4.006   5.400   5.422 -0.1150  0.3323  0.1921
 9680SOL    HW130524   4.065   5.433   5.490  3.4592  1.0757 -3.1337
 9680SOL    HW230525   4.012   5.464   5.352 -3.2015 -0.7903 -1.1682
 9681SOL     OW30526   3.124   3.474   3.514  0.0922  0.1019 -0.3944
 9681SOL    HW130527   3.155   3.389   3.482  0.0870 -0.2334  0.4785
 9681SOL    HW230528   3.063   3.503   3.447  0.0589 -0.6064 -0.6833
 9682SOL     OW30529   1.915   8.128   7.097 -0.0603 -0.1893 -0.0802
 9682SOL    HW130530   1.993   8.073   7.088 -0.6967 -0.8631 -1.5685
 9682SOL    HW230531   1.930   8.200   7.036 -0.8885 -0.6779 -0.8815
 9683SOL     OW30532   1.127   0.448   4.721 -0.5651 -0.8840  0.0230
 9683SOL    HW130533   1.197   0.395   4.758 -1.4926 -0.6492  2.1938
 9683SOL    HW230534   1.096   0.502   4.794 -2.3457 -0.2822 -1.1407
 9684SOL     OW30535   4.187   7.292   5.009 -0.3733  0.9098 -0.1057
 9684SOL    HW130536   4.098   7.278   4.976  0.0084 -0.3746 -0.6069
 9684SOL    HW230537   4.174   7.342   5.090 -1.4704  1.7324 -0.7636
 9685SOL     OW30538   1.306   1.201   4.289  0.3962 -0.2924 -0.1384
 9685SOL    HW130539   1.239   1.173   4.227 -1.0967  0.8620  0.9317
 9685SOL    HW230540   1.327   1.290   4.262  1.3135 -0.5514 -0.2985
 9686SOL     OW30541   4.930   2.933   6.257  0.1705 -0.3138 -0.4881
 9686SOL    HW130542   4.852   2.911   6.206  0.7814 -3.2245 -0.2294
 9686SOL    HW230543   4.946   2.856   6.311  3.2002  0.2669 -0.4586
 9687SOL     OW30544   4.435   0.221   6.423 -0.0882 -0.1195 -0.4437
 9687SOL    HW130545   4.347   0.239   6.458  0.1236  0.8807 -0.3969
 9687SOL    HW230546   4.419   0.170   6.344 -0.6503 -1.0126  0.2343
 9688SOL     OW30547   4.049   4.236   6.914 -0.0493  0.5964  0.1961
 9688SOL    HW130548   4.122   4.174   6.919 -1.1032 -0.9462 -2.4286
 9688SOL    HW230549   3.985   4.203   6.977  1.1309  1.4663  1.8831
 9689SOL     OW30550   2.683   3.187   1.089  0.4827  0.5789 -0.6427
 9689SOL    HW130551   2.726   3.101   1.091  0.2587  0.4111 -2.2924
 9689SOL    HW230552   2.724   3.232   1.015 -3.0508 -0.0550 -3.0728
 9690SOL     OW30553   1.706   4.753   0.890 -0.4380 -0.4731 -0.8023
 9690SOL    HW130554   1.613   4.773   0.902 -0.2855  0.3131 -0.9243
 9690SOL    HW230555   1.717   4.665   0.926 -1.3002 -0.7024 -1.0902
 9691SOL     OW30556   5.274   8.099   4.315  0.0916  0.3496  0.9921
 9691SOL    HW130557   5.204   8.127   4.374  0.2629  0.5092  1.1218
 9691SOL    HW230558   5.233   8.035   4.257 -0.4600  1.3534  0.2704
 9692SOL     OW30559   3.103   5.489   3.978 -0.0006 -0.5959  0.3464
 9692SOL    HW130560   3.069   5.578   3.990 -1.6184 -1.2244  0.6224
 9692SOL    HW230561   3.083   5.468   3.886  0.4175 -0.6501  0.2694
 9693SOL     OW30562   6.951   4.465   7.336  0.4321  0.7121 -0.4669
 9693SOL    HW130563   6.925   4.450   7.245 -0.6434  0.7932 -0.1853
 9693SOL    HW230564   6.914   4.551   7.357  1.2339  0.9831 -0.1522
 9694SOL     OW30565   4.698   3.023   5.228  0.3427  0.0678  0.6890
 9694SOL    HW130566   4.668   2.953   5.170  0.5379  0.8074 -0.3265
 9694SOL    HW230567   4.646   3.013   5.307 -0.0356 -0.8734  0.3238
 9695SOL     OW30568   4.323   8.006   1.885  0.0227  0.3438  0.2543
 9695SOL    HW130569   4.325   7.959   1.969  1.0777  0.8294  0.5022
 9695SOL    HW230570   4.400   7.975   1.838 -1.6441 -1.4796 -1.4071
 9696SOL     OW30571   4.398   6.858   0.439 -0.0638 -0.1029  0.2845
 9696SOL    HW130572   4.481   6.813   0.427  0.7956  1.5485 -0.0727
 9696SOL    HW230573   4.421   6.942   0.478 -1.6516 -0.0068  1.0602
 9697SOL     OW30574   2.726   4.783   7.374 -0.3785 -0.4918 -0.1423
 9697SOL    HW130575   2.768   4.789   7.289  2.1875 -0.0901  1.1098
 9697SOL    HW230576   2.688   4.695   7.376 -0.0285 -0.6877 -1.4855
 9698SOL     OW30577   1.273   2.699   1.456  0.0302 -0.4439  0.0927
 9698SOL    HW130578   1.241   2.682   1.367 -0.1100  2.6691 -0.4800
 9698SOL    HW230579   1.226   2.635   1.510 -0.6876 -1.6614 -1.9021
 9699SOL     OW30580   3.219   0.398   0.132  0.8199  0.4891 -0.3762
 9699SOL    HW130581   3.133   0.433   0.110  0.1644 -0.5738  0.4283
 9699SOL    HW230582   3.280   0.471   0.118 -0.5534  2.0776  1.6410
 9700SOL     OW30583   2.221   0.991   4.442  0.1048  0.2445  0.6156
 9700SOL    HW130584   2.263   1.077   4.449  0.9367 -0.1275  0.2647
 9700SOL    HW230585   2.232   0.952   4.529  0.8802 -0.0240  0.4049
 9701SOL     OW30586   5.290   1.134   7.417  0.5888  0.3014 -0.2524
 9701SOL    HW130587   5.327   1.144   7.505 -0.5552 -1.5597  0.4812
 9701SOL    HW230588   5.358   1.090   7.367  0.8891  0.5056 -0.0237
 9702SOL     OW30589   5.148   2.312   0.749  0.0985 -0.1939 -0.0614
 9702SOL    HW130590   5.065   2.349   0.777  0.3466  0.7477 -0.5185
 9702SOL    HW230591   5.180   2.263   0.824  0.1002  1.1369  0.8198
 9703SOL     OW30592   4.902   0.020   2.594 -0.4377 -0.1664 -0.4760
 9703SOL    HW130593   4.966  -0.013   2.657  1.8055  0.5358 -2.3152
 9703SOL    HW230594   4.938  -0.005   2.509 -1.5754  2.0480 -1.6307
 9704SOL     OW30595   7.687   7.101   8.065  0.0425  0.1431  0.2565
 9704SOL    HW130596   7.617   7.040   8.088  0.2941 -0.1819  0.1552
 9704SOL    HW230597   7.765   7.047   8.055  0.2303  0.4576 -0.0044
 9705SOL     OW30598   7.819   5.421   4.478 -0.1551 -0.1508  0.2218
 9705SOL    HW130599   7.882   5.485   4.511 -1.7360  1.2361  0.6124
 9705SOL    HW230600   7.786   5.459   4.397 -1.1470 -0.4330  0.4823
 9706SOL     OW30601   7.752   6.486   4.742  0.3176 -0.4002 -0.1116
 9706SOL    HW130602   7.786   6.575   4.737 -1.9824  0.4861 -0.4385
 9706SOL    HW230603   7.793   6.449   4.820  1.8908  0.6566 -0.4055
 9707SOL     OW30604   6.345   4.882   6.123 -0.3040 -0.4919  0.5165
 9707SOL    HW130605   6.254   4.906   6.106 -0.1624 -0.6479 -0.4530
 9707SOL    HW230606   6.357   4.897   6.217 -1.4202 -0.7727  0.7009
 9708SOL     OW30607   4.727   6.901   5.910  0.0155  0.5219  0.1505
 9708SOL    HW130608   4.676   6.926   5.987  0.7087 -1.1081  1.1835
 9708SOL    HW230609   4.802   6.961   5.910  0.3611  0.1224  1.1652
 9709SOL     OW30610   6.746   8.104   0.801 -0.0591  0.3945  0.5477
 9709SOL    HW130611   6.710   8.031   0.851 -2.7446  0.1452 -1.6411
 9709SOL    HW230612   6.711   8.183   0.843 -0.0997  0.2879  0.7100
 9710SOL     OW30613   1.020   0.941   2.274  0.3783  0.4281 -0.2999
 9710SOL    HW130614   0.941   0.925   2.224  0.8511 -1.2286 -0.5486
 9710SOL    HW230615   1.045   1.031   2.252 -0.6302  0.4657 -1.3159
 9711SOL     OW30616   4.185   4.893   0.402 -0.0808  0.2056 -0.4493
 9711SOL    HW130617   4.183   4.814   0.456 -1.1622 -0.4702 -1.4560
 9711SOL    HW230618   4.139   4.959   0.454  1.5662  0.4324  0.7602
 9712SOL     OW30619   2.734   1.989   6.295  0.1555  0.3624 -0.2871
 9712SOL    HW130620   2.822   1.987   6.332 -1.1069 -1.3807  2.8312
 9712SOL    HW230621   2.688   2.056   6.347 -0.4315  1.0738 -1.7143
 9713SOL     OW30622   1.830   0.910   3.282 -0.3469  0.1978  0.1624
 9713SOL    HW130623   1.856   0.831   3.330  0.7704  0.6195  0.2772
 9713SOL    HW230624   1.843   0.981   3.345  0.0748  0.6339 -0.4125
 9714SOL     OW30625   6.032   5.111   7.513 -0.5480 -0.4201 -0.2626
 9714SOL    HW130626   6.048   5.109   7.419 -1.9256 -1.0055 -0.4975
 9714SOL    HW230627   6.100   5.055   7.550  0.4860  0.4565 -0.8285
 9715SOL     OW30628   0.456   6.825   3.765  0.0538 -0.0027 -0.1737
 9715SOL    HW130629   0.420   6.912   3.744  1.3014 -0.0020 -2.4453
 9715SOL    HW230630   0.385   6.781   3.811 -1.1675  1.6662 -0.3831
 9716SOL     OW30631   2.552   4.727   2.206  0.5556 -0.1224 -0.1002
 9716SOL    HW130632   2.647   4.733   2.216  0.5882 -0.5189 -0.1849
 9716SOL    HW230633   2.538   4.645   2.160  0.2285  0.3692 -0.8892
 9717SOL     OW30634   7.853   4.390   1.743  0.1726  0.0165  0.1099
 9717SOL    HW130635   7.806   4.327   1.798 -0.7863  0.5737 -0.0588
 9717SOL    HW230636   7.926   4.340   1.707 -1.0168 -1.2289 -0.6337
 9718SOL     OW30637   3.546   5.289   4.446 -0.1826 -0.4584 -0.1632
 9718SOL    HW130638   3.626   5.244   4.418 -0.1917 -0.7558  0.2828
 9718SOL    HW230639   3.550   5.288   4.541 -1.0742 -1.1081 -0.1303
 9719SOL     OW30640   4.388   4.379   7.516 -0.0646  0.3517 -0.3861
 9719SOL    HW130641   4.343   4.355   7.597 -0.0874 -0.9878 -0.7773
 9719SOL    HW230642   4.345   4.459   7.487 -1.5815 -0.4138 -0.2804
 9720SOL     OW30643   0.661   6.574   0.089  0.1708  0.3352 -0.0731
 9720SOL    HW130644   0.567   6.579   0.103  0.0589 -0.5851 -0.4431
 9720SOL    HW230645   0.691   6.506   0.150  0.8164  1.6306  1.0726
 9721SOL     OW30646   7.421   4.422   4.289  0.2779  0.4555  0.2147
 9721SOL    HW130647   7.350   4.462   4.237  2.6803  3.2060 -1.0486
 9721SOL    HW230648   7.495   4.419   4.229  1.3697 -2.1182  1.6282
 9722SOL     OW30649   1.317   5.272   2.432 -0.1053 -0.3934 -0.2771
 9722SOL    HW130650   1.301   5.344   2.371  0.9220  1.3500  1.4813
 9722SOL    HW230651   1.411   5.272   2.445 -0.4747  0.5712  2.8356
 9723SOL     OW30652   7.764   0.743   5.062  0.5101 -0.5783  0.0548
 9723SOL    HW130653   7.717   0.681   5.118  0.5327 -2.6834 -2.1782
 9723SOL    HW230654   7.697   0.780   5.005  0.6970  0.5773  0.5750
 9724SOL     OW30655   6.909   5.630   6.980  0.6429 -0.5404 -0.2701
 9724SOL    HW130656   6.994   5.588   6.971  0.8641 -0.2648  0.5211
 9724SOL    HW230657   6.916   5.709   6.927  1.0450 -0.2694  0.1858
 9725SOL     OW30658   7.765   3.299   6.879  0.3670 -0.6171  0.3578
 9725SOL    HW130659   7.706   3.229   6.908 -0.3266 -0.3803 -0.4468
 9725SOL    HW230660   7.766   3.290   6.784  1.3442 -0.3814  0.3493
 9726SOL     OW30661   8.007   7.437   7.687  0.2814  0.3741 -0.0996
 9726SOL    HW130662   8.039   7.519   7.723 -0.9396 -0.2300  2.4455
 9726SOL    HW230663   8.069   7.371   7.719  1.1723  0.2354 -2.0103
 9727SOL     OW30664   7.715   6.356   1.635 -0.1323 -0.0152 -0.3217
 9727SOL    HW130665   7.661   6.356   1.714 -0.7149 -1.6488 -0.7067
 9727SOL    HW230666   7.805   6.354   1.667 -0.3063  1.6075  0.3109
 9728SOL     OW30667   4.745   7.290   4.608  0.3304  0.7339  0.4295
 9728SOL    HW130668   4.840   7.291   4.622  0.3096 -1.9571  1.1119
 9728SOL    HW230669   4.711   7.345   4.678  1.3817  1.7358  0.1760
 9729SOL     OW30670   1.323   4.474   5.974 -0.4631 -0.0229  0.1363
 9729SOL    HW130671   1.300   4.382   5.985  0.2518 -0.2269 -0.0988
 9729SOL    HW230672   1.418   4.477   5.983 -0.5914  0.8667  1.3853
 9730SOL     OW30673   7.664   5.116   1.688 -0.0442 -0.0632  0.1660
 9730SOL    HW130674   7.613   5.036   1.701  0.0752  0.1261  1.8886
 9730SOL    HW230675   7.599   5.184   1.671 -0.0991 -0.6859 -2.2742
 9731SOL     OW30676   6.861   8.284   1.776  0.1356 -0.3045  0.2211
 9731SOL    HW130677   6.807   8.213   1.742  0.0137 -0.1113  0.0129
 9731SOL    HW230678   6.862   8.270   1.871  0.8296 -1.0994  0.1084
 9732SOL     OW30679   0.493   5.600   4.172 -0.2762 -0.5198  0.3110
 9732SOL    HW130680   0.474   5.692   4.186  1.7511 -0.0124 -0.1753
 9732SOL    HW230681   0.456   5.556   4.249  1.0758  1.0115  1.8898
 9733SOL     OW30682   0.401   4.196   3.956 -0.2170  0.2623  0.0183
 9733SOL    HW130683   0.318   4.239   3.935  0.6442  1.0179 -1.8900
 9733SOL    HW230684   0.436   4.168   3.871  0.3861 -2.1081  1.0010
 9734SOL     OW30685   4.443   5.636   5.732  0.3131  0.2528 -0.1143
 9734SOL    HW130686   4.521   5.612   5.782 -0.3077  0.1693  0.8142
 9734SOL    HW230687   4.374   5.581   5.768 -0.9357  2.7474  1.4123
 9735SOL     OW30688   6.411   1.864   2.301  0.1017 -0.2273 -0.0119
 9735SOL    HW130689   6.411   1.768   2.296 -0.3106 -0.2104 -0.3900
 9735SOL    HW230690   6.460   1.891   2.223 -2.1987 -0.0709 -1.4568
 9736SOL     OW30691   1.168   5.971   4.971  0.0308  0.7406  0.3130
 9736SOL    HW130692   1.149   6.017   5.053  0.8756  2.4849 -0.4273
 9736SOL    HW230693   1.180   5.880   4.996 -0.9758  1.0403  1.9480
 9737SOL     OW30694   6.239   4.845   6.575 -0.3355 -0.7582 -0.3777
 9737SOL    HW130695   6.319   4.812   6.534 -0.0910  0.5357 -0.9772
 9737SOL    HW230696   6.185   4.767   6.590  0.6428 -1.5249 -0.8393
 9738SOL     OW30697   5.855   6.276   7.113  0.3287  0.6039  0.7162
 9738SOL    HW130698   5.908   6.228   7.177  0.5544 -0.4810 -0.2709
 9738SOL    HW230699   5.918   6.305   7.047 -0.0423  0.8961  0.4885
 9739SOL     OW30700   4.725   0.105   6.719  0.0921 -0.5551  0.3015
 9739SOL    HW130701   4.689   0.135   6.803 -0.2885  1.3714 -0.5207
 9739SOL    HW230702   4.649   0.088   6.664  0.3538 -0.9726  0.0643
 9740SOL     OW30703   6.584   5.486   5.785 -0.1680 -0.0003 -0.0862
 9740SOL    HW130704   6.575   5.462   5.692 -2.2099 -1.7768  0.5353
 9740SOL    HW230705   6.599   5.402   5.830 -1.4466  0.5902  1.4509
 9741SOL     OW30706   3.565   1.548   2.775  0.2848  0.0201 -0.1413
 9741SOL    HW130707   3.484   1.521   2.819 -0.6454 -0.4753 -2.1158
 9741SOL    HW230708   3.537   1.577   2.689  2.2825 -0.5871 -1.0216
 9742SOL     OW30709   0.373   1.531   6.719  0.2696  0.0743  0.6916
 9742SOL    HW130710   0.327   1.463   6.670  0.1000  0.9224 -0.3516
 9742SOL    HW230711   0.373   1.500   6.810  0.0399 -1.2171  0.2542
 9743SOL     OW30712   6.785   2.085   1.370 -0.2518  0.2656  0.1741
 9743SOL    HW130713   6.813   2.053   1.284 -1.6166  0.2419 -0.2631
 9743SOL    HW230714   6.864   2.077   1.424  1.2099  2.2069 -1.5715
 9744SOL     OW30715   0.473   0.429   5.611  0.1242 -0.1289  0.3506
 9744SOL    HW130716   0.423   0.483   5.671 -0.7667 -1.6356  1.0109
 9744SOL    HW230717   0.563   0.432   5.645  0.1146  1.0293  0.2887
 9745SOL     OW30718   7.782   2.113   3.321  0.2322  0.2340 -0.2651
 9745SOL    HW130719   7.757   2.114   3.414  1.0640  0.4762 -0.0352
 9745SOL    HW230720   7.736   2.037   3.285  1.1725 -0.8380  0.7222
 9746SOL     OW30721   0.723   3.100   6.922 -0.0955 -0.2234  0.0229
 9746SOL    HW130722   0.806   3.079   6.966  0.7734  0.6119 -1.1944
 9746SOL    HW230723   0.672   3.019   6.927  0.6639 -0.6504  1.0646
 9747SOL     OW30724   6.710   4.956   0.794 -0.3268  0.7543  0.0826
 9747SOL    HW130725   6.790   4.915   0.826 -0.6316  0.5832  0.6264
 9747SOL    HW230726   6.672   4.892   0.734 -0.3997  0.5632  0.3332
 9748SOL     OW30727   5.984   5.459   5.308  0.2516 -0.3591  0.0552
 9748SOL    HW130728   6.047   5.387   5.296  1.3589  0.7189 -0.7263
 9748SOL    HW230729   5.900   5.422   5.279  0.2529 -2.1945  2.2106
 9749SOL     OW30730   5.745   2.864   0.137  0.4778  0.4570  0.3101
 9749SOL    HW130731   5.816   2.887   0.079 -0.1654  1.1182 -0.2186
 9749SOL    HW230732   5.679   2.825   0.080  0.5155 -0.3923  0.8321
 9750SOL     OW30733   0.478   2.751   2.021  0.8149 -0.1914  0.1689
 9750SOL    HW130734   0.464   2.822   2.083 -1.4872 -0.9420  0.5686
 9750SOL    HW230735   0.489   2.673   2.075  0.3024 -0.6118 -0.3252
 9751SOL     OW30736   2.170   6.847   7.628 -0.7544  0.4583 -0.0969
 9751SOL    HW130737   2.152   6.877   7.539  1.3519 -1.3199 -1.1733
 9751SOL    HW230738   2.216   6.920   7.668 -0.9031  0.9264 -0.7645
 9752SOL     OW30739   3.138   0.912   4.079  0.1755 -0.6121  0.1506
 9752SOL    HW130740   3.200   0.949   4.015 -0.4063  0.2859  0.0937
 9752SOL    HW230741   3.057   0.899   4.029 -0.2432 -0.0264  0.6615
 9753SOL     OW30742   5.751   3.022   6.253 -0.5409  0.3735  0.0347
 9753SOL    HW130743   5.786   2.958   6.192 -0.1305 -0.3589  1.0256
 9753SOL    HW230744   5.766   3.107   6.211  1.4656  0.0022 -0.0093
 9754SOL     OW30745   1.220   3.748   0.128  0.0833 -0.1485  0.7230
 9754SOL    HW130746   1.157   3.728   0.059  0.0583  0.5217  0.5522
 9754SOL    HW230747   1.174   3.725   0.209  0.0904 -0.8673  0.5256
 9755SOL     OW30748   6.394   1.799   0.503 -0.2211 -0.4129  0.5551
 9755SOL    HW130749   6.321   1.770   0.557  0.3357 -0.3136  1.3657
 9755SOL    HW230750   6.419   1.883   0.539  1.8557 -1.5391  1.8287
 9756SOL     OW30751   2.168   6.741   0.585 -0.1817  0.2215 -0.3105
 9756SOL    HW130752   2.250   6.787   0.598  0.0208  0.0338 -0.8841
 9756SOL    HW230753   2.192   6.660   0.539 -0.3425 -1.2175  2.0576
 9757SOL     OW30754   7.104   1.020   4.772  0.0685  0.6212 -0.6843
 9757SOL    HW130755   7.114   0.984   4.860 -0.1656  1.5311 -0.2801
 9757SOL    HW230756   7.172   0.977   4.720  0.2628  0.1468 -0.0412
 9758SOL     OW30757   8.155   3.794   0.622  0.4965  0.3670 -0.1042
 9758SOL    HW130758   8.132   3.721   0.564 -0.8498  0.7650 -0.0893
 9758SOL    HW230759   8.139   3.761   0.710  0.1720  0.5762 -0.0831
 9759SOL     OW30760   0.352   7.452   7.158  0.5260 -0.3758  0.5859
 9759SOL    HW130761   0.309   7.487   7.080 -2.3535 -1.0837  1.7661
 9759SOL    HW230762   0.400   7.376   7.127  1.0845  0.5349 -0.8285
 9760SOL     OW30763   4.787   6.516   3.651  0.3034 -0.5869 -0.8163
 9760SOL    HW130764   4.818   6.440   3.701  0.8216  0.0358 -0.1777
 9760SOL    HW230765   4.784   6.485   3.560 -2.2064 -2.2355 -0.2292
 9761SOL     OW30766   7.118   4.366   4.738  0.7297  0.6967  0.5986
 9761SOL    HW130767   7.069   4.315   4.803 -0.0539 -0.2785 -0.7472
 9761SOL    HW230768   7.177   4.302   4.698  1.1585  1.2809  0.3045
 9762SOL     OW30769   6.740   1.969   4.764  0.0251 -0.3958 -0.3126
 9762SOL    HW130770   6.784   2.020   4.696  0.2332  0.0847  0.1812
 9762SOL    HW230771   6.764   1.878   4.745  0.7560 -0.1913 -0.3958
 9763SOL     OW30772   0.075   3.211   6.543  0.0554 -0.0504 -0.3576
 9763SOL    HW130773   0.015   3.273   6.503 -0.6274 -1.4320 -1.5450
 9763SOL    HW230774   0.156   3.260   6.556 -0.5033  1.1053 -1.1727
 9764SOL     OW30775   7.013   6.665   0.186 -0.2728 -0.7445  0.0542
 9764SOL    HW130776   7.022   6.607   0.111  1.3657 -1.0681  0.4743
 9764SOL    HW230777   7.094   6.716   0.187 -1.1357  0.6780  0.4360
 9765SOL     OW30778   7.913   2.000   8.127  0.1394 -0.1084 -0.2241
 9765SOL    HW130779   7.960   2.067   8.079 -0.4173  1.0801  0.8555
 9765SOL    HW230780   7.827   2.038   8.145 -0.0383 -0.9284  0.7654
 9766SOL     OW30781   6.083   0.773   0.378  0.2866 -1.1902 -0.1114
 9766SOL    HW130782   6.153   0.731   0.428 -1.5951 -1.8669  2.0172
 9766SOL    HW230783   6.067   0.855   0.425 -1.1137 -1.5649  0.0696
 9767SOL     OW30784   8.106   7.644   7.839 -0.2831  0.6744  0.0498
 9767SOL    HW130785   8.095   7.713   7.905 -0.0170  0.9299 -0.1689
 9767SOL    HW230786   8.110   7.563   7.889  0.2283  0.8938  0.3725
 9768SOL     OW30787   4.774   0.916   2.134 -0.7642  0.4770  0.2030
 9768SOL    HW130788   4.698   0.860   2.144  0.5418 -1.2567  0.6847
 9768SOL    HW230789   4.806   0.898   2.045  0.6355 -0.8489  0.9426
 9769SOL     OW30790   4.435   4.259   7.066 -0.3607  0.4357 -0.6118
 9769SOL    HW130791   4.377   4.184   7.049  1.6274 -0.7252 -2.5876
 9769SOL    HW230792   4.428   4.313   6.988  0.1071  1.0142 -0.2573
 9770SOL     OW30793   5.065   0.693   6.904  0.0793 -0.0310 -0.6475
 9770SOL    HW130794   4.984   0.674   6.951  0.5151  2.9186  1.4475
 9770SOL    HW230795   5.045   0.673   6.812 -1.6288 -3.4288  0.3829
 9771SOL     OW30796   4.454   0.125   0.626 -0.0947  0.3129  0.6040
 9771SOL    HW130797   4.410   0.200   0.586 -1.2644 -0.3240  0.6668
 9771SOL    HW230798   4.493   0.078   0.552 -0.7890  0.0718  0.3888
 9772SOL     OW30799   6.260   6.417   3.800 -0.5333  0.4858 -0.0300
 9772SOL    HW130800   6.285   6.345   3.742 -1.5255 -1.1184  1.4825
 9772SOL    HW230801   6.168   6.433   3.780 -0.4558  0.9819  0.0098
 9773SOL     OW30802   5.625   1.818   6.845 -0.6364  0.0163  0.1172
 9773SOL    HW130803   5.642   1.843   6.754 -1.9282 -1.6968 -0.6290
 9773SOL    HW230804   5.692   1.752   6.865  0.1295  0.9549  0.6771
 9774SOL     OW30805   5.624   2.139   0.504  0.1579  0.4208 -0.2152
 9774SOL    HW130806   5.676   2.213   0.537 -1.0590  1.0117  0.4105
 9774SOL    HW230807   5.572   2.177   0.433 -0.8988  0.2926  0.4942
 9775SOL     OW30808   3.655   2.268   8.045 -0.3545  0.1597 -0.4913
 9775SOL    HW130809   3.697   2.195   8.000 -1.0232 -0.5193 -0.0494
 9775SOL    HW230810   3.680   2.346   7.996 -1.0556 -0.5620 -2.0025
 9776SOL     OW30811   5.385   5.779   6.287  0.3232  0.7020 -0.3948
 9776SOL    HW130812   5.377   5.725   6.209 -2.0453  1.0687 -0.4350
 9776SOL    HW230813   5.452   5.845   6.264  1.4967 -0.7343 -1.1727
 9777SOL     OW30814   6.368   4.454   0.876 -0.5643 -0.1023  0.1441
 9777SOL    HW130815   6.401   4.398   0.806 -1.7039  0.4877 -0.8905
 9777SOL    HW230816   6.278   4.473   0.850 -1.3344 -0.7341  2.3157
 9778SOL     OW30817   0.292   2.372   3.634  0.2173  0.3051 -0.2158
 9778SOL    HW130818   0.352   2.297   3.643  1.9810  1.6053 -0.8878
 9778SOL    HW230819   0.324   2.435   3.699 -1.0819  0.5995  0.1401
 9779SOL     OW30820   0.023   6.703   0.232 -0.1509  0.2983  0.1159
 9779SOL    HW130821   0.013   6.611   0.205 -0.0859 -0.1668  1.6498
 9779SOL    HW230822  -0.060   6.724   0.275 -0.2689  1.0548 -0.4701
 9780SOL     OW30823   7.804   3.385   6.072  0.4685 -0.3805 -0.1573
 9780SOL    HW130824   7.871   3.394   6.005 -0.5695  0.4705 -1.0895
 9780SOL    HW230825   7.724   3.416   6.031 -0.2771 -0.2961  1.3149
 9781SOL     OW30826   1.367   1.690   2.726 -0.0128 -0.6996 -0.1459
 9781SOL    HW130827   1.451   1.671   2.769  0.3583  1.2430  0.0190
 9781SOL    HW230828   1.309   1.717   2.798 -0.5571 -1.2968 -0.3572
 9782SOL     OW30829   1.277   6.175   4.876 -0.2239 -0.2132  0.4152
 9782SOL    HW130830   1.226   6.098   4.902  0.5184 -0.5100  0.9980
 9782SOL    HW230831   1.366   6.156   4.903 -0.0918  1.0029  0.8764
 9783SOL     OW30832   5.792   3.004   1.116  0.1721  0.1701  0.2770
 9783SOL    HW130833   5.825   2.949   1.045 -0.5215 -0.1435  0.1922
 9783SOL    HW230834   5.829   3.091   1.098 -0.2253  0.1621 -0.6263
 9784SOL     OW30835   1.610   2.626   6.518 -0.2518  0.3837  0.0325
 9784SOL    HW130836   1.560   2.699   6.482 -1.8134 -0.1456  1.0810
 9784SOL    HW230837   1.628   2.569   6.443  0.9611  1.8063 -0.7818
 9785SOL     OW30838   5.163   3.303   7.648  0.0437 -0.0123 -0.5204
 9785SOL    HW130839   5.186   3.334   7.736 -1.2949  0.4070 -0.2977
 9785SOL    HW230840   5.069   3.320   7.641 -0.0140 -0.7736 -1.7416
 9786SOL     OW30841   2.868   5.242   8.035  0.7679 -0.3738  0.8245
 9786SOL    HW130842   2.927   5.171   8.062  0.5689 -0.1736  1.7974
 9786SOL    HW230843   2.904   5.273   7.952  1.2426 -1.1705  0.7286
 9787SOL     OW30844   3.328   0.475   2.460  0.1463  0.0429 -0.0732
 9787SOL    HW130845   3.357   0.389   2.488 -0.2684  0.1547  0.7396
 9787SOL    HW230846   3.324   0.470   2.365  0.7655 -0.6243 -0.0672
 9788SOL     OW30847   8.009   7.052   4.092 -0.0299 -0.3727  0.6663
 9788SOL    HW130848   8.098   7.019   4.088  0.0925 -0.0349  0.5854
 9788SOL    HW230849   7.960   6.997   4.030  0.7040  1.2275 -1.4017
 9789SOL     OW30850   2.637   2.261   5.251 -0.8466  0.1607  0.0460
 9789SOL    HW130851   2.668   2.177   5.283  0.4177  0.2652 -0.8680
 9789SOL    HW230852   2.545   2.246   5.227 -0.5555 -1.0053 -0.3377
 9790SOL     OW30853   1.154   5.939   0.205  0.3452  0.1115  0.1609
 9790SOL    HW130854   1.158   5.986   0.288 -3.5132  0.3788  0.2915
 9790SOL    HW230855   1.186   6.001   0.140  1.7338  0.4976  1.1834
 9791SOL     OW30856   1.229   2.415   1.014 -0.3747 -0.2552 -0.0751
 9791SOL    HW130857   1.302   2.456   0.968 -1.5385  3.6692  1.3431
 9791SOL    HW230858   1.270   2.369   1.087  0.7559  1.5850  0.4899
 9792SOL     OW30859   1.691   6.943   7.436 -0.0410  0.2688 -0.3079
 9792SOL    HW130860   1.683   6.848   7.427 -0.2657 -0.0647  2.6566
 9792SOL    HW230861   1.654   6.979   7.356 -0.0828 -2.1432 -1.4031
 9793SOL     OW30862   3.077   1.578   3.613  0.0890 -0.1181  0.0655
 9793SOL    HW130863   3.140   1.576   3.541 -0.9553  0.5177 -0.8681
 9793SOL    HW230864   2.995   1.606   3.573 -0.4203  0.5722  1.5704
 9794SOL     OW30865   7.861   1.270   0.015 -0.3694 -0.1903  0.0665
 9794SOL    HW130866   7.865   1.338  -0.052 -0.8584 -1.8884 -1.7171
 9794SOL    HW230867   7.938   1.215  -0.002 -0.9334 -1.0862  0.3829
 9795SOL     OW30868   6.099   4.439   1.923  1.0247 -0.2241  0.5360
 9795SOL    HW130869   6.063   4.386   1.994  1.2390  0.1851  0.9494
 9795SOL    HW230870   6.037   4.512   1.914  1.5294  0.2635  0.9792
 9796SOL     OW30871   0.243   2.987   7.309  0.9161  0.0740 -0.1445
 9796SOL    HW130872   0.230   3.081   7.292  2.2543  0.2799 -0.0731
 9796SOL    HW230873   0.253   2.948   7.222  0.2697 -0.0239 -0.1789
 9797SOL     OW30874   6.312   2.237   7.349 -0.1304  0.5701 -0.1286
 9797SOL    HW130875   6.256   2.245   7.427  0.5108 -0.7234  0.4723
 9797SOL    HW230876   6.309   2.324   7.310 -0.0259  1.4039  1.6495
 9798SOL     OW30877   1.485   2.821   4.904  0.2987  0.2754 -0.4780
 9798SOL    HW130878   1.531   2.743   4.874 -1.5205 -1.2243  0.5347
 9798SOL    HW230879   1.418   2.837   4.838  1.3105  1.5965 -1.2038
 9799SOL     OW30880   4.387   4.071   6.637 -0.4285 -0.3620 -0.2175
 9799SOL    HW130881   4.361   3.979   6.646 -0.9867 -0.1675  0.1814
 9799SOL    HW230882   4.482   4.070   6.643 -0.3356 -1.0725 -1.5659
 9800SOL     OW30883   5.239   4.492   4.987  0.1377  0.6827  0.1117
 9800SOL    HW130884   5.316   4.437   5.001 -0.7891 -1.7807 -3.7633
 9800SOL    HW230885   5.238   4.552   5.062  3.5803 -1.7969  2.2710
 9801SOL     OW30886   4.269   3.161   6.388 -0.2051  0.1648  0.0198
 9801SOL    HW130887   4.303   3.074   6.410  1.4455  0.6684 -0.4763
 9801SOL    HW230888   4.295   3.217   6.461 -1.0220  0.3083  0.2050
 9802SOL     OW30889   5.061   7.499   5.756 -0.0875 -0.1531  0.2243
 9802SOL    HW130890   5.116   7.525   5.830 -0.7599  1.1374  0.2748
 9802SOL    HW230891   5.093   7.552   5.683 -1.0833  0.3892  0.1860
 9803SOL     OW30892   6.458   6.149   0.589  0.4897  0.4658  0.2400
 9803SOL    HW130893   6.413   6.111   0.664  1.0348 -1.4488 -0.3584
 9803SOL    HW230894   6.401   6.219   0.559 -0.4012  0.3318  1.5833
 9804SOL     OW30895   6.799   3.418   4.487 -0.6976 -0.4499 -0.2681
 9804SOL    HW130896   6.830   3.505   4.461 -1.8318 -0.3309 -1.2293
 9804SOL    HW230897   6.836   3.359   4.422  0.4186 -0.7583  0.6227
 9805SOL     OW30898   3.187   3.221   4.898  0.0970 -0.4274  0.2583
 9805SOL    HW130899   3.250   3.174   4.953 -0.7650 -0.2648  1.4019
 9805SOL    HW230900   3.102   3.184   4.921 -0.5655  1.4455  0.9452
 9806SOL     OW30901   4.617   0.451   0.147  0.4587 -0.1253 -0.0332
 9806SOL    HW130902   4.618   0.424   0.239 -0.0605  0.1295  0.0458
 9806SOL    HW230903   4.619   0.546   0.151  0.4821 -0.1166 -0.2896
 9807SOL     OW30904   4.019   3.688   2.977 -0.0362  0.0430 -0.1448
 9807SOL    HW130905   4.112   3.698   3.000 -0.2286  0.6817  0.3431
 9807SOL    HW230906   3.993   3.606   3.018  0.4394 -0.4040 -0.7034
 9808SOL     OW30907   7.376   5.436   0.443 -0.1108 -0.5562  0.5781
 9808SOL    HW130908   7.310   5.504   0.429  1.5193  0.9469  0.1409
 9808SOL    HW230909   7.330   5.369   0.494 -1.4834  1.2420  1.7447
 9809SOL     OW30910   6.769   6.192   5.028  0.6785  0.3850  0.6267
 9809SOL    HW130911   6.689   6.239   5.006 -0.5618 -1.7149  0.5165
 9809SOL    HW230912   6.825   6.201   4.951 -0.2024  0.2969 -0.0219
 9810SOL     OW30913   7.649   6.455   0.132 -0.0751  0.3271 -0.6926
 9810SOL    HW130914   7.668   6.486   0.221 -2.6775 -0.2846  0.1150
 9810SOL    HW230915   7.718   6.391   0.114 -0.5673 -0.9024  1.6225
 9811SOL     OW30916   5.895   8.069   3.298 -0.9608 -0.5851  0.4882
 9811SOL    HW130917   5.950   8.032   3.229 -1.3897  1.2821 -0.8737
 9811SOL    HW230918   5.816   8.015   3.297  0.2212 -2.3817  1.4983
 9812SOL     OW30919   2.020   1.727   4.760  0.5439  0.4820  0.2954
 9812SOL    HW130920   2.090   1.792   4.763  0.6668  0.3928 -0.5233
 9812SOL    HW230921   2.062   1.645   4.785  0.3895  0.7024  1.3275
 9813SOL     OW30922   7.483   3.606   5.377  0.7702  0.3954 -0.5469
 9813SOL    HW130923   7.541   3.553   5.434  0.6824 -0.9548 -1.6882
 9813SOL    HW230924   7.416   3.639   5.436  2.2714  1.3617  0.6701
 9814SOL     OW30925   4.577   5.482   3.212  0.0505 -0.9519 -0.1860
 9814SOL    HW130926   4.534   5.476   3.127  0.6986 -1.3255 -0.4861
 9814SOL    HW230927   4.611   5.394   3.229 -1.4846 -1.2954  1.2082
 9815SOL     OW30928   1.802   2.667   1.165 -0.2903  0.4906  0.0457
 9815SOL    HW130929   1.750   2.590   1.185  0.4177 -0.2623 -1.0033
 9815SOL    HW230930   1.756   2.709   1.092  0.4795 -0.1046 -0.7953
 9816SOL     OW30931   5.327   4.644   6.364  0.4052  0.5778 -0.0493
 9816SOL    HW130932   5.239   4.629   6.330 -0.6594 -0.5511  3.0262
 9816SOL    HW230933   5.313   4.686   6.448  2.9007  2.1644 -0.3757
 9817SOL     OW30934   4.368   0.701   5.577  0.1968  0.2681  0.1765
 9817SOL    HW130935   4.418   0.719   5.657 -0.5484  0.4273  0.6096
 9817SOL    HW230936   4.332   0.786   5.552 -2.9311 -0.4607  1.9510
 9818SOL     OW30937   4.705   0.160   6.402  0.6499 -0.4821  0.1331
 9818SOL    HW130938   4.612   0.174   6.390  1.1602 -0.1095 -3.8122
 9818SOL    HW230939   4.717   0.065   6.396  0.5029 -0.5638  1.0334
 9819SOL     OW30940   7.156   4.641   6.643  0.4146 -0.4818 -0.0426
 9819SOL    HW130941   7.182   4.550   6.652 -0.6685 -0.9195 -1.2230
 9819SOL    HW230942   7.131   4.651   6.551  2.1921  1.4605 -0.3489
 9820SOL     OW30943   2.837   4.530   0.886  0.0539 -0.2295 -0.0800
 9820SOL    HW130944   2.840   4.567   0.798 -2.2596 -0.6789 -0.3699
 9820SOL    HW230945   2.812   4.438   0.873 -0.9529 -0.1302  1.0764
 9821SOL     OW30946   3.117   3.233   7.801  0.1736  0.3325  0.0538
 9821SOL    HW130947   3.136   3.294   7.872  2.0408  0.7253 -0.7686
 9821SOL    HW230948   3.090   3.289   7.728 -0.0580  0.0428 -0.0839
 9822SOL     OW30949   1.524   7.580   5.260 -0.1877  0.1380 -0.5775
 9822SOL    HW130950   1.609   7.570   5.304 -1.3314 -2.7889  1.0966
 9822SOL    HW230951   1.528   7.519   5.186 -1.7180 -1.9501  0.9975
 9823SOL     OW30952   3.000   0.829   0.347  0.9605  0.7271 -0.2963
 9823SOL    HW130953   3.065   0.771   0.308  2.0422  2.1047 -0.6016
 9823SOL    HW230954   3.048   0.876   0.416 -0.0945  0.6806  0.4828
 9824SOL     OW30955   5.866   3.866   7.316  0.0710 -0.7794 -0.2253
 9824SOL    HW130956   5.906   3.944   7.356  0.2262 -2.0316  2.0948
 9824SOL    HW230957   5.772   3.885   7.315  0.2538  0.1431 -1.2652
 9825SOL     OW30958   2.895   3.830   5.187 -0.4103  0.4169 -0.3112
 9825SOL    HW130959   2.891   3.735   5.175 -1.8642  0.4384 -0.1509
 9825SOL    HW230960   2.903   3.866   5.099 -1.3539  0.1883 -0.5025
 9826SOL     OW30961   6.849   5.698   7.265  0.3815 -0.2495 -0.1132
 9826SOL    HW130962   6.914   5.694   7.335  0.0738 -0.2311  0.1749
 9826SOL    HW230963   6.900   5.694   7.185  0.6370 -1.7115  0.1143
 9827SOL     OW30964   4.129   4.048   0.693  0.3734 -0.4586  0.0008
 9827SOL    HW130965   4.084   4.094   0.764  0.8536  0.5541 -0.3405
 9827SOL    HW230966   4.222   4.053   0.716  0.5920  0.4458 -1.0082
 9828SOL     OW30967   5.257   5.786   0.603 -0.2052  0.0937  0.2224
 9828SOL    HW130968   5.233   5.731   0.677  0.8207  0.4061  0.8080
 9828SOL    HW230969   5.272   5.872   0.642  1.0577  0.0866 -0.2187
 9829SOL     OW30970   4.255   2.268   3.888  0.5284 -0.5737  0.0696
 9829SOL    HW130971   4.309   2.195   3.917  1.2467  0.2064  0.7242
 9829SOL    HW230972   4.299   2.346   3.922 -0.5941  0.1226 -0.0334
 9830SOL     OW30973   7.569   5.530   2.625  0.2958  0.0180  0.4699
 9830SOL    HW130974   7.647   5.514   2.572 -0.8581  1.2306 -1.6361
 9830SOL    HW230975   7.512   5.456   2.607  0.3072 -0.0781  0.8198
 9831SOL     OW30976   1.011   6.447   0.507 -0.5386 -0.3532  0.1672
 9831SOL    HW130977   1.000   6.364   0.460  0.9262  0.4106 -1.5795
 9831SOL    HW230978   1.031   6.421   0.597 -3.2044 -1.8401  0.3803
 9832SOL     OW30979   7.307   3.135   1.783  0.6584 -0.1573 -0.0959
 9832SOL    HW130980   7.367   3.185   1.726  0.4438 -0.4359 -0.5705
 9832SOL    HW230981   7.263   3.075   1.723  1.2899 -1.2819  0.5601
 9833SOL     OW30982   4.029   0.764   5.562 -0.0081  0.2704  0.6159
 9833SOL    HW130983   4.059   0.766   5.471  1.3911  1.6620  1.0861
 9833SOL    HW230984   3.998   0.674   5.576  0.5668 -0.1809 -0.9684
 9834SOL     OW30985   0.576   4.134   1.716 -0.4139  0.0075 -0.4424
 9834SOL    HW130986   0.505   4.157   1.776  0.0383  2.5056 -0.8009
 9834SOL    HW230987   0.538   4.144   1.628  0.1869  0.7880 -0.6250
 9835SOL     OW30988   3.156   6.153   2.243 -0.3786 -0.3881  0.1488
 9835SOL    HW130989   3.175   6.224   2.182  0.2355 -0.4743  0.2369
 9835SOL    HW230990   3.239   6.105   2.251 -0.8770 -1.3014 -0.1549
 9836SOL     OW30991   1.305   2.958   1.340  0.0790  0.0557  0.2459
 9836SOL    HW130992   1.226   2.979   1.290  0.2896 -1.9539 -0.9774
 9836SOL    HW230993   1.278   2.887   1.398  1.5864 -2.4737 -2.0279
 9837SOL     OW30994   4.685   7.814   5.346 -0.0326  0.2719 -0.2575
 9837SOL    HW130995   4.655   7.804   5.437 -0.0556  0.3767 -0.2544
 9837SOL    HW230996   4.636   7.747   5.297  1.0522 -0.7828  0.0562
 9838SOL     OW30997   5.811   3.578   5.824  0.1907 -0.9367 -0.9527
 9838SOL    HW130998   5.808   3.500   5.770  2.6609 -1.1337 -0.8393
 9838SOL    HW230999   5.839   3.648   5.765 -0.5897 -0.4086 -0.7203
 9839SOL     OW31000   8.262   5.338   0.479  0.4790 -0.4249 -0.2104
 9839SOL    HW131001   8.333   5.300   0.428  1.2498  0.9378 -0.1768
 9839SOL    HW231002   8.198   5.367   0.414  1.1245  0.6427 -0.3800
 9840SOL     OW31003   7.650   6.336   1.221  0.3895 -0.1695  0.2831
 9840SOL    HW131004   7.737   6.341   1.260  0.2901 -2.7587  0.9513
 9840SOL    HW231005   7.596   6.295   1.289 -0.6404 -1.3435 -1.2211
 9841SOL     OW31006   0.120   3.499   7.622  0.6300  0.6079  0.3874
 9841SOL    HW131007   0.043   3.459   7.582  0.7141  1.0002 -0.1679
 9841SOL    HW231008   0.148   3.436   7.689  0.4871 -0.0431 -0.1609
 9842SOL     OW31009   3.557   3.196   2.982  0.4597  0.6075  0.4735
 9842SOL    HW131010   3.526   3.184   2.892 -1.7689  1.2064  1.1538
 9842SOL    HW231011   3.614   3.121   2.997 -0.8571 -0.6562 -0.7090
 9843SOL     OW31012   0.024   0.217   6.036  0.0142  0.1056  0.5094
 9843SOL    HW131013   0.079   0.277   5.987 -0.5356  0.2996  0.1254
 9843SOL    HW231014   0.021   0.254   6.124 -0.3198  0.6394  0.2734
 9844SOL     OW31015   3.392   4.087   7.837 -0.1294  0.4935 -0.4397
 9844SOL    HW131016   3.443   4.055   7.912 -2.3344  0.6078  1.1695
 9844SOL    HW231017   3.363   4.007   7.793 -2.7835  0.2681  1.6099
 9845SOL     OW31018   2.623   1.665   4.078 -0.5594 -0.2355  0.4159
 9845SOL    HW131019   2.570   1.618   4.014  0.5812 -1.3507  0.2679
 9845SOL    HW231020   2.671   1.730   4.027  0.5526 -1.3035  0.0839
 9846SOL     OW31021   7.632   1.760   7.613  0.1947 -0.2768 -0.4803
 9846SOL    HW131022   7.677   1.755   7.697 -0.9331 -2.2133  0.0637
 9846SOL    HW231023   7.571   1.833   7.622  1.7489  1.0428 -0.4970
 9847SOL     OW31024   4.806   3.275   0.947 -0.0237 -0.5870  0.6727
 9847SOL    HW131025   4.767   3.302   0.864 -1.1098 -1.1924  0.9750
 9847SOL    HW231026   4.835   3.185   0.931  1.3898 -0.1043  0.4130
 9848SOL     OW31027   7.356   7.580   0.633 -0.3967  0.3166 -0.8766
 9848SOL    HW131028   7.395   7.648   0.577  1.2696  0.0007 -0.1187
 9848SOL    HW231029   7.290   7.540   0.577 -0.2387  1.4344 -1.9114
 9849SOL     OW31030   4.535   1.176   7.406 -0.5004  0.7797 -0.0849
 9849SOL    HW131031   4.516   1.208   7.494 -1.0358  1.8147 -0.5596
 9849SOL    HW231032   4.497   1.088   7.403  1.1510 -0.0218  1.3033
 9850SOL     OW31033   6.611   0.490   7.546  0.1095  0.6165 -0.4916
 9850SOL    HW131034   6.547   0.436   7.499  1.1326 -0.8415 -0.2366
 9850SOL    HW231035   6.692   0.439   7.544  1.0520  2.0701 -0.0866
 9851SOL     OW31036   4.976   2.676   7.081  0.7703  0.1473 -0.6528
 9851SOL    HW131037   4.969   2.669   6.986  1.9594 -1.5412 -0.6330
 9851SOL    HW231038   4.897   2.724   7.107 -1.4113 -2.5023 -2.1146
 9852SOL     OW31039   8.130   4.406   2.768  1.0035  0.1305 -0.0640
 9852SOL    HW131040   8.143   4.320   2.809  1.2862  0.8337  1.3600
 9852SOL    HW231041   8.218   4.440   2.756  0.8539  0.6815  0.3826
 9853SOL     OW31042   7.447   2.426   2.327  0.5018 -0.0919  0.4692
 9853SOL    HW131043   7.476   2.473   2.405  0.0721  1.2161 -0.1322
 9853SOL    HW231044   7.370   2.475   2.297 -0.9344 -2.1405  0.7357
 9854SOL     OW31045   4.810   4.883   8.292  0.4837 -0.1234 -0.8998
 9854SOL    HW131046   4.753   4.808   8.275  1.3728 -0.4558 -2.4691
 9854SOL    HW231047   4.899   4.850   8.281  0.9517  0.6704  0.4178
 9855SOL     OW31048   6.317   7.910   4.055 -0.0008 -0.0948 -0.0541
 9855SOL    HW131049   6.319   8.003   4.031  2.3488 -0.8846 -3.2181
 9855SOL    HW231050   6.394   7.899   4.110  0.6152 -0.4737 -0.9841
 9856SOL     OW31051   5.364   6.794   2.676  0.1396  0.3519 -0.5111
 9856SOL    HW131052   5.413   6.808   2.595  1.1571 -0.6978 -0.0827
 9856SOL    HW231053   5.343   6.701   2.675  0.6054  0.2304  0.6893
 9857SOL     OW31054   6.133   6.513   6.604  0.2291  0.1926 -0.4197
 9857SOL    HW131055   6.081   6.585   6.639 -0.6983 -1.4880  1.8284
 9857SOL    HW231056   6.212   6.511   6.657  0.2303 -0.4533 -0.4309
 9858SOL     OW31057   1.007   2.690   4.245 -0.2576 -0.2426 -0.6624
 9858SOL    HW131058   1.028   2.678   4.337  0.9654 -0.0072 -0.8915
 9858SOL    HW231059   1.061   2.624   4.200 -1.3049 -0.7723 -1.1618
 9859SOL     OW31060   3.545   4.132   7.585  0.6505 -0.2139 -0.8131
 9859SOL    HW131061   3.501   4.176   7.657  0.1272 -1.0687 -0.5979
 9859SOL    HW231062   3.580   4.202   7.530  2.2203  0.4255  0.9783
 9860SOL     OW31063   8.259   6.062   3.275  0.1427 -0.0790 -0.2725
 9860SOL    HW131064   8.256   5.983   3.221  0.5509  1.2981 -2.3320
 9860SOL    HW231065   8.233   6.133   3.217 -0.7397  1.2649  1.6907
 9861SOL     OW31066   0.308   7.566   7.760  0.1089  0.2386  0.1117
 9861SOL    HW131067   0.291   7.637   7.698 -0.4180  0.7900  0.8748
 9861SOL    HW231068   0.340   7.494   7.706  0.5770  1.0287 -0.6894
 9862SOL     OW31069   2.350   0.494   6.855 -0.0348  0.3379  0.5832
 9862SOL    HW131070   2.369   0.426   6.919  2.4765 -1.3003 -1.7998
 9862SOL    HW231071   2.392   0.572   6.890  1.1900 -0.5062  1.0182
 9863SOL     OW31072   3.094   2.085   0.420  0.4357 -0.2618 -0.1777
 9863SOL    HW131073   3.025   2.028   0.455 -0.2075 -0.4363 -1.6623
 9863SOL    HW231074   3.123   2.138   0.494  0.1976 -1.6889  0.9528
 9864SOL     OW31075   4.951   3.107   4.405  0.2246 -0.1217  0.2179
 9864SOL    HW131076   4.917   3.018   4.418  1.1363 -0.5776 -0.4769
 9864SOL    HW231077   5.024   3.114   4.466 -0.1609  0.3295  0.6309
 9865SOL     OW31078   5.184   1.919   2.129  0.5160  0.0802 -0.0138
 9865SOL    HW131079   5.181   1.850   2.195 -0.6173  0.2763  0.1624
 9865SOL    HW231080   5.236   1.989   2.169  0.5125 -0.1298  0.3624
 9866SOL     OW31081   5.779   1.128   6.960 -0.6578  0.5560 -0.2027
 9866SOL    HW131082   5.715   1.081   6.906  0.4484  0.2489 -1.2597
 9866SOL    HW231083   5.808   1.063   7.024 -0.4785  0.3319 -0.5114
 9867SOL     OW31084   6.220   3.531   5.193 -0.6437  0.0710 -0.3518
 9867SOL    HW131085   6.280   3.458   5.208 -0.8818 -0.0073  0.2194
 9867SOL    HW231086   6.259   3.579   5.119  0.4016  0.3261  0.3582
 9868SOL     OW31087   6.691   7.441   4.185 -0.2034  0.3183  0.0336
 9868SOL    HW131088   6.660   7.350   4.190  0.2926  0.1397 -0.1790
 9868SOL    HW231089   6.763   7.439   4.123  1.4817  0.3857  1.9289
 9869SOL     OW31090   5.474   1.936   7.951  0.6905  0.2331 -0.3576
 9869SOL    HW131091   5.451   1.986   8.029 -0.5137 -1.9146  0.7075
 9869SOL    HW231092   5.390   1.914   7.910  1.2224 -0.3972 -1.1471
 9870SOL     OW31093   8.300   1.736   5.014 -0.1558  0.3727 -0.0344
 9870SOL    HW131094   8.264   1.822   5.037  0.7184  0.6174  0.4422
 9870SOL    HW231095   8.395   1.750   5.011 -0.0185 -0.5440 -0.1112
 9871SOL     OW31096   2.321   2.684   4.478 -0.0655  0.1555  0.8551
 9871SOL    HW131097   2.349   2.621   4.545  1.6752  0.5645  0.5599
 9871SOL    HW231098   2.293   2.630   4.404  1.5670 -0.2957  0.5435
 9872SOL     OW31099   3.418   4.797   0.754 -0.3847 -0.0833  0.0983
 9872SOL    HW131100   3.480   4.780   0.825 -2.6340 -4.1556  1.1984
 9872SOL    HW231101   3.336   4.821   0.797 -0.9472  0.4901 -1.2398
 9873SOL     OW31102   6.794   3.196   6.618 -0.0945 -0.0770 -0.0001
 9873SOL    HW131103   6.807   3.111   6.575  1.8163  1.8303 -3.4647
 9873SOL    HW231104   6.867   3.203   6.680 -0.8506 -1.3948  1.0447
 9874SOL     OW31105   1.267   5.310   7.020  0.1534 -0.4503  0.3004
 9874SOL    HW131106   1.240   5.335   7.109  0.5895  0.6937  0.1202
 9874SOL    HW231107   1.354   5.348   7.010  0.5682 -1.5164 -0.2330
 9875SOL     OW31108   4.435   4.397   6.819  0.6075 -0.0624  0.5836
 9875SOL    HW131109   4.344   4.388   6.792  0.8341 -1.4000  0.2530
 9875SOL    HW231110   4.486   4.372   6.742  1.2578 -3.3750  2.0266
 9876SOL     OW31111   4.753   7.854   1.289  0.4867 -0.8105  0.0336
 9876SOL    HW131112   4.709   7.823   1.368  1.1559 -0.6787  0.4600
 9876SOL    HW231113   4.846   7.844   1.308  0.6920  0.7274 -0.1327
 9877SOL     OW31114   2.990   6.979   3.045  0.3134  0.0221  0.3829
 9877SOL    HW131115   3.040   6.900   3.064  0.9831  0.3051 -0.2067
 9877SOL    HW231116   3.028   7.046   3.101  1.3282  0.5036 -0.8587
 9878SOL     OW31117   0.411   4.463   3.691  0.3368 -0.1307  0.1722
 9878SOL    HW131118   0.490   4.471   3.744 -0.7678  2.2491  1.5606
 9878SOL    HW231119   0.339   4.483   3.752 -1.1659 -0.0998 -1.5666
 9879SOL     OW31120   4.360   3.853   2.877  0.6966  0.1684  0.3311
 9879SOL    HW131121   4.335   3.906   2.802 -2.9500  0.5577  1.7201
 9879SOL    HW231122   4.380   3.916   2.946  0.3376 -0.2038  0.7830
 9880SOL     OW31123   8.043   5.770   3.944  0.1810 -0.3946 -0.0168
 9880SOL    HW131124   8.103   5.773   3.869  1.1038 -1.9660  0.6172
 9880SOL    HW231125   7.970   5.716   3.915  0.8708 -1.5924  0.4109
 9881SOL     OW31126   1.831   3.874   5.505  0.1018 -0.3115 -0.2079
 9881SOL    HW131127   1.820   3.903   5.414 -0.7384 -1.6582 -0.5580
 9881SOL    HW231128   1.890   3.798   5.499  0.6782  0.0787  0.4592
 9882SOL     OW31129   8.171   6.633   5.901 -0.0283  0.0281 -0.1930
 9882SOL    HW131130   8.138   6.601   5.984  1.7558 -1.6519 -0.0888
 9882SOL    HW231131   8.210   6.556   5.859 -1.1524  0.7836 -2.7087
 9883SOL     OW31132   7.463   2.933   2.634 -0.3113 -0.2828 -0.1213
 9883SOL    HW131133   7.368   2.940   2.637 -0.3566 -0.4693 -1.0629
 9883SOL    HW231134   7.488   2.973   2.550  0.3420 -1.2822 -0.4118
 9884SOL     OW31135   1.667   7.340   3.901  0.3370  0.6133  0.0900
 9884SOL    HW131136   1.704   7.336   3.813  0.8138 -0.2856  0.3190
 9884SOL    HW231137   1.743   7.345   3.959  0.0410  0.6791  0.4751
 9885SOL     OW31138   6.092   3.594   2.687 -0.3911 -0.0041  0.2428
 9885SOL    HW131139   6.152   3.628   2.620 -0.0778 -0.2993  0.3771
 9885SOL    HW231140   6.011   3.643   2.672 -0.6757 -0.8517 -1.0649
 9886SOL     OW31141   5.333   4.295   6.522  0.9993 -0.0544 -0.1662
 9886SOL    HW131142   5.402   4.261   6.578  2.0359  1.2099 -0.6406
 9886SOL    HW231143   5.311   4.380   6.560 -0.5036 -0.5547  0.1420
 9887SOL     OW31144   3.644   5.055   5.795  0.3069 -0.1638 -0.2243
 9887SOL    HW131145   3.564   5.011   5.766 -0.5945  0.1905  1.6287
 9887SOL    HW231146   3.646   5.137   5.745 -0.2361 -0.3936 -0.6249
 9888SOL     OW31147   3.109   3.595   5.550 -0.1627 -0.1836  0.2000
 9888SOL    HW131148   3.159   3.522   5.512  0.4655  0.2802  0.1313
 9888SOL    HW231149   3.135   3.596   5.642 -1.3283 -1.0076  0.5549
 9889SOL     OW31150   1.637   4.652   0.543  0.4185  0.2734  0.1165
 9889SOL    HW131151   1.716   4.623   0.589 -0.4289  1.5194  2.4118
 9889SOL    HW231152   1.667   4.726   0.490  0.2476  2.7021  3.3038
 9890SOL     OW31153   3.687   6.174   3.581 -0.2182  0.3192 -0.2103
 9890SOL    HW131154   3.619   6.241   3.577  0.0852  0.6377 -0.0979
 9890SOL    HW231155   3.662   6.109   3.516 -1.4332 -0.3216  0.8670
 9891SOL     OW31156   7.128   2.703   0.617  0.3706 -0.1917 -0.4544
 9891SOL    HW131157   7.216   2.722   0.648 -0.0095  0.1503  0.4381
 9891SOL    HW231158   7.134   2.614   0.581  0.4296 -1.3654  2.2694
 9892SOL     OW31159   7.809   1.431   3.835  0.2125 -0.1063  0.6272
 9892SOL    HW131160   7.791   1.471   3.921  0.7763  2.0264 -0.2189
 9892SOL    HW231161   7.895   1.391   3.845  0.6172  0.8063  0.8234
 9893SOL     OW31162   2.399   7.106   6.474 -0.6083  0.1553 -0.1469
 9893SOL    HW131163   2.408   7.186   6.526  0.9413  0.5833 -1.0139
 9893SOL    HW231164   2.473   7.109   6.413  0.8379 -3.0610  1.3012
 9894SOL     OW31165   5.600   1.613   4.572  0.2451  0.2345  0.8632
 9894SOL    HW131166   5.689   1.649   4.578 -0.3528  1.6390  1.7302
 9894SOL    HW231167   5.563   1.654   4.494  0.6309 -0.9964  0.0282
 9895SOL     OW31168   5.492   8.089   1.080  0.1186 -0.4505 -0.4153
 9895SOL    HW131169   5.504   8.000   1.112 -0.5049 -0.7794 -1.0921
 9895SOL    HW231170   5.422   8.125   1.135  0.6312 -0.2391  0.1128
 9896SOL     OW31171   5.701   8.255   3.058 -0.1961 -0.5121  0.1051
 9896SOL    HW131172   5.767   8.188   3.076 -0.4911 -0.6714  0.6182
 9896SOL    HW231173   5.641   8.214   2.996  0.4530 -0.1966 -0.7371
 9897SOL     OW31174   6.233   1.962   7.174  0.8100 -0.5702 -0.2016
 9897SOL    HW131175   6.217   1.889   7.233 -0.1417 -1.2792 -1.3208
 9897SOL    HW231176   6.289   1.925   7.105  1.2688  0.0523 -0.1693
 9898SOL     OW31177   1.045   4.847   2.662  0.0403  0.1134  0.0905
 9898SOL    HW131178   1.138   4.825   2.661  0.2779  1.0658  0.3957
 9898SOL    HW231179   1.038   4.921   2.723 -0.6834  1.0564 -1.1032
 9899SOL     OW31180   2.698   0.601   7.417 -0.0762 -0.1276  0.2299
 9899SOL    HW131181   2.639   0.675   7.429  0.4602  0.3303  0.0755
 9899SOL    HW231182   2.641   0.530   7.387 -0.4703  0.4664 -0.4496
 9900SOL     OW31183   7.814   2.904   0.579 -0.4229 -0.5225  0.7253
 9900SOL    HW131184   7.837   2.839   0.512 -1.6306 -0.1549 -0.0714
 9900SOL    HW231185   7.781   2.979   0.530 -1.7757 -0.4255  1.7421
 9901SOL     OW31186   0.314   4.367   0.891  0.2062 -0.5863  0.3090
 9901SOL    HW131187   0.249   4.307   0.856  0.6442 -1.0956  0.3628
 9901SOL    HW231188   0.264   4.446   0.913 -0.3837 -0.9502  0.2990
 9902SOL     OW31189   2.969   6.776   5.095  0.0346 -0.3695 -0.0178
 9902SOL    HW131190   2.900   6.836   5.065  0.7490 -0.6287 -2.2574
 9902SOL    HW231191   3.026   6.831   5.148 -0.1318  0.6008 -0.8185
 9903SOL     OW31192   6.596   7.302   1.191  0.3026 -0.3017 -0.1152
 9903SOL    HW131193   6.527   7.246   1.228 -0.7490 -0.9001 -2.9140
 9903SOL    HW231194   6.558   7.389   1.190  1.0236  0.0621  1.8977
 9904SOL     OW31195   0.812   2.541   1.908 -0.1876  0.6223  0.0159
 9904SOL    HW131196   0.744   2.501   1.963  1.9280 -0.1323  2.1280
 9904SOL    HW231197   0.826   2.627   1.945  0.2570  0.6530 -0.2256
 9905SOL     OW31198   7.815   2.956   2.696  0.5581 -0.4930  0.0214
 9905SOL    HW131199   7.792   3.047   2.675  1.1126 -0.1815  0.7366
 9905SOL    HW231200   7.850   2.960   2.785  0.1835 -1.4740  0.2266
 9906SOL     OW31201   7.972   2.194   5.860  0.1891 -0.1899  0.0885
 9906SOL    HW131202   7.889   2.225   5.825  0.5450 -0.0074 -0.6099
 9906SOL    HW231203   8.016   2.272   5.892 -0.1878 -0.3728  1.0702
 9907SOL     OW31204   7.983   6.332   1.003  0.3234 -0.1630  0.6280
 9907SOL    HW131205   8.064   6.362   0.962  1.0894 -2.5761  0.2859
 9907SOL    HW231206   7.954   6.406   1.056  0.9340  1.9572 -1.8704
 9908SOL     OW31207   7.256   5.450   1.826  0.6442 -0.4606 -0.2494
 9908SOL    HW131208   7.210   5.461   1.909 -0.8689 -2.5855 -0.7587
 9908SOL    HW231209   7.296   5.535   1.808 -0.7857  0.6123  1.5984
 9909SOL     OW31210   0.530   7.736   7.581 -0.1592  0.1459 -0.5487
 9909SOL    HW131211   0.447   7.784   7.578 -1.6509 -2.2088  1.5908
 9909SOL    HW231212   0.526   7.675   7.507  0.0590  0.5972 -0.9396
 9910SOL     OW31213   1.704   1.045   3.080 -0.3518 -0.3895  0.4491
 9910SOL    HW131214   1.637   1.099   3.121 -0.3538  0.1847 -0.2924
 9910SOL    HW231215   1.750   1.004   3.153 -1.5229 -0.8113  0.9679
 9911SOL     OW31216   5.304   6.591   2.493  1.1918  0.2094 -0.1078
 9911SOL    HW131217   5.211   6.589   2.470  1.0742  0.8954  0.3019
 9911SOL    HW231218   5.319   6.509   2.541  0.7347  0.2415  0.0876
 9912SOL     OW31219   5.931   2.703   7.469  0.1296  0.5324 -0.5053
 9912SOL    HW131220   5.860   2.658   7.424  0.7056 -0.4843 -0.4152
 9912SOL    HW231221   5.949   2.650   7.546  1.4310  0.4023 -0.8717
 9913SOL     OW31222   5.983   6.647   7.093  0.2102  0.3011 -0.2799
 9913SOL    HW131223   5.964   6.686   7.008  0.9985 -0.7027 -0.9242
 9913SOL    HW231224   5.982   6.553   7.077  3.3384  0.1377  0.1498
 9914SOL     OW31225   0.078   6.501   1.971  0.0280  0.1052  0.3982
 9914SOL    HW131226   0.019   6.571   1.999 -1.4588 -1.5932  1.6888
 9914SOL    HW231227   0.165   6.540   1.973 -0.9260  2.3930 -0.5952
 9915SOL     OW31228   1.659   5.193   4.952 -0.1221  0.4116  0.6432
 9915SOL    HW131229   1.610   5.209   5.033 -0.8416  2.8182 -0.2357
 9915SOL    HW231230   1.691   5.279   4.926  0.4605 -0.4058 -1.4030
 9916SOL     OW31231   3.128   1.800   3.780 -0.3255 -0.0299  0.1266
 9916SOL    HW131232   3.171   1.748   3.848  4.2369  0.1124 -2.4368
 9916SOL    HW231233   3.111   1.738   3.709 -1.7350  0.5296 -0.0436
 9917SOL     OW31234   5.382   7.917   7.445  0.0217 -0.2476  0.0783
 9917SOL    HW131235   5.466   7.942   7.485  1.1618 -3.2014 -0.3273
 9917SOL    HW231236   5.397   7.926   7.351 -0.9017  1.4269  0.0681
 9918SOL     OW31237   7.975   6.046   1.245  0.0946 -0.4979  0.0501
 9918SOL    HW131238   7.939   6.122   1.199 -0.2094 -0.4163  0.4189
 9918SOL    HW231239   8.018   5.994   1.177 -0.1871 -0.2805 -0.2904
 9919SOL     OW31240   2.449   7.686   1.156  0.1599 -0.3554  0.1832
 9919SOL    HW131241   2.499   7.704   1.236 -0.4215 -0.1806  0.5119
 9919SOL    HW231242   2.487   7.744   1.091  0.0231  0.1924  0.5785
 9920SOL     OW31243   4.186   7.793   6.360 -0.3579 -0.4014  0.1535
 9920SOL    HW131244   4.266   7.760   6.401 -0.6033 -1.1734  0.0046
 9920SOL    HW231245   4.167   7.730   6.291 -0.0269  0.8132 -1.0630
 9921SOL     OW31246   1.808   0.031   3.747 -0.2976  0.0437 -0.1709
 9921SOL    HW131247   1.861  -0.010   3.815 -0.8795  2.3721  1.7891
 9921SOL    HW231248   1.719   0.000   3.765 -0.4297  0.5445  0.0486
 9922SOL     OW31249   6.645   2.934   4.055 -0.0829 -0.1123  0.2130
 9922SOL    HW131250   6.571   2.873   4.065 -0.7953  0.8811  1.1945
 9922SOL    HW231251   6.655   2.973   4.142  1.7487 -0.3955  0.1362
 9923SOL     OW31252   6.703   7.684   1.456  0.2674  0.2860  0.1707
 9923SOL    HW131253   6.690   7.619   1.525  0.1760 -0.3069 -0.4012
 9923SOL    HW231254   6.622   7.683   1.407  0.9788 -0.5955 -1.0288
 9924SOL     OW31255   0.062   4.400   6.962  0.0989 -0.0009 -0.0256
 9924SOL    HW131256   0.048   4.434   6.873  0.1776  0.1097  0.0043
 9924SOL    HW231257   0.129   4.457   6.999  1.3524 -1.1328 -0.5158
 9925SOL     OW31258   1.864   5.345   0.531  0.4129  0.4770  0.1018
 9925SOL    HW131259   1.912   5.387   0.460  0.2055  1.0186  0.2733
 9925SOL    HW231260   1.818   5.272   0.489  0.7947  0.4102 -0.1992
 9926SOL     OW31261   7.874   4.754   0.693  0.0900 -0.0702 -0.3631
 9926SOL    HW131262   7.860   4.812   0.618  0.9042  0.1033 -0.3863
 9926SOL    HW231263   7.944   4.796   0.743  0.2778 -0.7255 -0.0684
 9927SOL     OW31264   0.956   8.116   4.654 -0.5088 -0.2078  0.2689
 9927SOL    HW131265   0.957   8.153   4.742  0.4999  1.3661 -0.3957
 9927SOL    HW231266   1.046   8.088   4.638 -0.0619  2.0066 -1.2872
 9928SOL     OW31267   4.533   2.442   5.946  0.2931  0.8289 -0.1003
 9928SOL    HW131268   4.442   2.415   5.956 -0.4047  2.6805 -1.1771
 9928SOL    HW231269   4.554   2.486   6.029  1.2791 -2.4449  1.4580
 9929SOL     OW31270   1.303   0.701   3.058 -0.1868 -0.7686  0.0545
 9929SOL    HW131271   1.338   0.685   3.146  0.5265 -0.7664 -0.2240
 9929SOL    HW231272   1.282   0.794   3.057 -1.7947 -1.1160  0.7851
 9930SOL     OW31273   1.868   0.361   2.978 -0.0898  0.8933 -0.2158
 9930SOL    HW131274   1.963   0.364   2.984 -0.0991  0.5049  0.2344
 9930SOL    HW231275   1.846   0.271   3.003 -0.3984  0.1047 -3.1607
 9931SOL     OW31276   5.362   4.676   3.800  0.1103  0.0453  0.0776
 9931SOL    HW131277   5.370   4.585   3.770 -0.4376  0.0806 -0.1920
 9931SOL    HW231278   5.269   4.697   3.786 -0.0094  0.2762  1.2170
 9932SOL     OW31279   2.494   5.031   0.156  0.4059 -0.0445 -0.1460
 9932SOL    HW131280   2.527   5.095   0.219  0.7715  0.5232 -0.8984
 9932SOL    HW231281   2.573   4.985   0.125  0.3347  0.2841 -0.8305
 9933SOL     OW31282   3.647   2.026   2.989 -0.5799  0.1471  0.0528
 9933SOL    HW131283   3.644   2.107   2.939 -2.1902 -0.1250 -0.2980
 9933SOL    HW231284   3.670   1.959   2.925  0.0133  0.2059  0.2006
 9934SOL     OW31285   1.212   0.109   5.322  0.3044 -0.0335 -0.0702
 9934SOL    HW131286   1.287   0.167   5.337 -0.1917  0.5927  0.0008
 9934SOL    HW231287   1.185   0.129   5.232 -1.3956  1.6242  0.7792
 9935SOL     OW31288   7.227   1.757   4.391  0.0525 -0.6037 -0.3771
 9935SOL    HW131289   7.309   1.747   4.342  0.1388 -1.3994 -0.0751
 9935SOL    HW231290   7.254   1.795   4.475  0.1354 -1.0373 -0.2069
 9936SOL     OW31291   7.792   5.629   5.194  0.1892 -0.0406 -0.4788
 9936SOL    HW131292   7.809   5.611   5.102  2.1733 -2.5516  0.3305
 9936SOL    HW231293   7.863   5.687   5.222  2.0261 -2.6940  0.4876
 9937SOL     OW31294   4.114   2.255   6.852  0.0375 -0.5619 -0.5583
 9937SOL    HW131295   4.184   2.196   6.882 -0.2067 -0.1390  0.8729
 9937SOL    HW231296   4.083   2.297   6.932 -2.2657 -1.1726 -1.1099
 9938SOL     OW31297   5.461   0.662   6.341 -0.1138 -0.1611 -0.1080
 9938SOL    HW131298   5.541   0.619   6.310  2.0108  0.5689  4.0608
 9938SOL    HW231299   5.468   0.752   6.309  0.1369 -0.4030 -0.7363
 9939SOL     OW31300   6.376   1.308   1.944 -0.1475 -0.5992  0.5394
 9939SOL    HW131301   6.367   1.213   1.950  0.3435 -0.6686  0.1707
 9939SOL    HW231302   6.463   1.327   1.978 -0.1123 -0.3155  0.3013
 9940SOL     OW31303   6.813   5.449   4.143  0.0069  0.7824 -0.5978
 9940SOL    HW131304   6.901   5.464   4.108 -0.2316 -0.4328 -1.7635
 9940SOL    HW231305   6.777   5.379   4.089 -1.1347  0.2355  0.8215
 9941SOL     OW31306   4.292   6.025   1.766  0.6143 -0.4524 -0.2546
 9941SOL    HW131307   4.385   6.015   1.788  0.1788 -0.5948  1.6140
 9941SOL    HW231308   4.247   6.016   1.850 -1.1167 -0.7305 -1.1962
 9942SOL     OW31309   0.333   2.077   6.222 -0.0264  0.5139 -0.0224
 9942SOL    HW131310   0.275   2.057   6.296 -0.3455 -0.4797 -0.5353
 9942SOL    HW231311   0.377   2.158   6.248 -0.2036  0.2279  1.2145
 9943SOL     OW31312   8.114   3.310   2.208  0.2545 -0.3189  0.3508
 9943SOL    HW131313   8.132   3.320   2.301  0.2671 -0.7494  0.3978
 9943SOL    HW231314   8.126   3.397   2.171  0.4418 -0.1888  0.7190
 9944SOL     OW31315   0.696   5.073   8.023 -0.1137 -0.0633  0.1759
 9944SOL    HW131316   0.747   5.003   7.983 -0.8413 -1.5639  1.8037
 9944SOL    HW231317   0.617   5.079   7.969 -0.7310 -1.5280  0.9038
 9945SOL     OW31318   0.333   5.293   2.771 -0.4625 -0.1211 -0.3072
 9945SOL    HW131319   0.379   5.371   2.802 -0.8046  0.2617 -0.7582
 9945SOL    HW231320   0.358   5.285   2.679  0.2228 -1.0176 -0.0539
 9946SOL     OW31321   5.148   3.172   4.595  0.1396  0.3172  0.0714
 9946SOL    HW131322   5.161   3.098   4.656  1.6195 -0.4250 -1.1026
 9946SOL    HW231323   5.237   3.194   4.566 -0.6029  0.2121 -2.3593
 9947SOL     OW31324   1.320   6.819   6.500  0.0632 -0.3411  0.3773
 9947SOL    HW131325   1.243   6.768   6.524 -0.3283  0.4436  0.7837
 9947SOL    HW231326   1.326   6.810   6.405  0.3666 -1.6673  0.5088
 9948SOL     OW31327   3.913   7.328   3.102 -0.0281  0.5460 -0.1537
 9948SOL    HW131328   3.932   7.408   3.052  1.8150  1.3419  1.7404
 9948SOL    HW231329   3.840   7.353   3.159  0.4307  0.8136  0.3126
 9949SOL     OW31330   0.682   5.285   7.004 -0.4152  0.2871  0.6669
 9949SOL    HW131331   0.608   5.269   6.945  0.9995  0.3074 -1.1376
 9949SOL    HW231332   0.747   5.330   6.950  0.2718  1.7728  2.6759
 9950SOL     OW31333   6.100   5.788   6.119 -0.0595  0.2674  0.1159
 9950SOL    HW131334   6.009   5.810   6.137  0.1483 -0.2569  1.9240
 9950SOL    HW231335   6.098   5.694   6.100  0.0236  0.3757 -0.4269
 9951SOL     OW31336   1.861   2.498   1.451  0.2399  0.0775  0.4969
 9951SOL    HW131337   1.877   2.509   1.544 -0.3311  0.4074  0.5589
 9951SOL    HW231338   1.860   2.587   1.416  0.8433 -0.0668  0.1113
 9952SOL     OW31339   2.196   6.525   2.150  0.4280  0.3435 -1.0432
 9952SOL    HW131340   2.161   6.518   2.239  0.3787  0.9512 -1.0163
 9952SOL    HW231341   2.147   6.597   2.111  1.0457  0.6316 -1.2868
 9953SOL     OW31342   3.600   3.286   5.270  0.3387 -0.7813 -0.4650
 9953SOL    HW131343   3.661   3.264   5.340 -2.3326 -0.2777  2.1319
 9953SOL    HW231344   3.586   3.380   5.278  0.0597 -0.7009 -1.7352
 9954SOL     OW31345   1.689   3.430   7.388  0.6820  0.3522 -0.1062
 9954SOL    HW131346   1.709   3.508   7.439  1.8593  1.3287 -2.0239
 9954SOL    HW231347   1.767   3.375   7.397  0.9616  0.6022 -0.9897
 9955SOL     OW31348   0.629   6.771   1.352  0.6621 -0.4590  0.3905
 9955SOL    HW131349   0.625   6.740   1.262  0.1416  0.6655  0.0192
 9955SOL    HW231350   0.715   6.812   1.360  0.4156  0.1003  0.1853
 9956SOL     OW31351   8.210   5.112   8.036  0.2408 -0.1359  0.4759
 9956SOL    HW131352   8.234   5.176   8.102  1.1025 -0.4613  0.4764
 9956SOL    HW231353   8.252   5.031   8.064 -0.8479 -0.7155  0.4870
 9957SOL     OW31354   3.458   5.324   4.189  0.2622 -0.6048 -0.3383
 9957SOL    HW131355   3.494   5.331   4.277 -0.4942  0.2496 -0.0835
 9957SOL    HW231356   3.515   5.262   4.144  0.4737 -1.2755  0.8415
 9958SOL     OW31357   3.180   0.698   7.047 -0.2317  0.2246 -0.1523
 9958SOL    HW131358   3.240   0.771   7.033 -0.9334  0.8318 -0.0596
 9958SOL    HW231359   3.185   0.681   7.141  0.0392  0.0658 -0.1965
 9959SOL     OW31360   3.610   5.684   5.635 -0.2406 -0.2792 -0.2182
 9959SOL    HW131361   3.524   5.725   5.637 -0.0277  0.1391  0.5181
 9959SOL    HW231362   3.667   5.746   5.680  0.1055 -1.3279  0.8295
 9960SOL     OW31363   0.558   0.470   3.826 -0.0315  0.2747 -0.2415
 9960SOL    HW131364   0.547   0.468   3.731 -1.0961 -0.0195 -0.1227
 9960SOL    HW231365   0.609   0.549   3.843 -0.0507  0.4596 -1.0473
 9961SOL     OW31366   5.325   4.899   1.016 -0.1327 -0.4476 -0.3604
 9961SOL    HW131367   5.339   4.809   1.045 -0.7240 -0.9058 -1.4531
 9961SOL    HW231368   5.241   4.924   1.054  1.1445  0.4916  1.9161
 9962SOL     OW31369   7.690   2.460   8.263  0.3509 -0.2277 -0.4293
 9962SOL    HW131370   7.765   2.497   8.310  0.6904 -0.4870 -0.7683
 9962SOL    HW231371   7.614   2.491   8.313  0.6802  0.0101 -0.0651
 9963SOL     OW31372   2.395   4.062   4.817  0.1662  0.3722 -0.0578
 9963SOL    HW131373   2.347   4.032   4.894  0.2032  1.5133  0.4200
 9963SOL    HW231374   2.468   4.001   4.809 -0.2378 -0.1716  0.4013
 9964SOL     OW31375   0.799   0.949   1.108 -0.6709 -0.6268 -0.4386
 9964SOL    HW131376   0.749   1.002   1.046 -1.4658 -0.1257  0.6110
 9964SOL    HW231377   0.733   0.913   1.168  0.1737 -0.1914  0.7848
 9965SOL     OW31378   0.998   4.728   2.058 -0.3722 -0.0792  0.4714
 9965SOL    HW131379   1.049   4.778   2.122  1.4393  0.4592 -1.3398
 9965SOL    HW231380   0.950   4.794   2.008  0.4556 -0.2771 -0.5993
 9966SOL     OW31381   6.537   4.351   0.157 -0.1618 -0.2345  0.2649
 9966SOL    HW131382   6.537   4.262   0.192  2.1082  0.1841  1.4204
 9966SOL    HW231383   6.627   4.365   0.125 -0.2879  1.8749  0.7527
 9967SOL     OW31384   7.016   4.646   4.613  0.1154 -0.4229 -0.1425
 9967SOL    HW131385   7.055   4.565   4.648  0.7760  0.3065  0.8551
 9967SOL    HW231386   6.925   4.643   4.642  0.4190 -0.2815  0.8565
 9968SOL     OW31387   6.521   0.518   7.012 -0.0503 -0.9092  0.0597
 9968SOL    HW131388   6.437   0.509   6.966 -0.9579  0.9085  1.2800
 9968SOL    HW231389   6.499   0.562   7.094  1.9438 -1.5284  0.9621
 9969SOL     OW31390   7.466   4.113   0.268  0.3544  0.0577  0.0063
 9969SOL    HW131391   7.477   4.208   0.273  0.4979  0.1918 -2.2913
 9969SOL    HW231392   7.534   4.083   0.208 -0.4952 -1.3351 -0.3076
 9970SOL     OW31393   5.540   8.131   5.842  0.0743  0.2341  0.4882
 9970SOL    HW131394   5.496   8.049   5.819  1.3630 -0.1758 -0.5833
 9970SOL    HW231395   5.513   8.192   5.774 -1.8804  1.0893  1.9720
 9971SOL     OW31396   8.129   2.084   0.769 -0.1188 -0.0247 -0.4581
 9971SOL    HW131397   8.076   2.023   0.719  0.1073 -0.9647  0.4326
 9971SOL    HW231398   8.179   2.133   0.703 -1.7066  0.5233 -1.2682
 9972SOL     OW31399   2.582   7.280   2.421  0.2433  0.1573  0.1826
 9972SOL    HW131400   2.602   7.229   2.498  1.2952  0.9450  0.4485
 9972SOL    HW231401   2.487   7.286   2.419  0.0950 -2.1353 -0.0904
 9973SOL     OW31402   5.967   1.417   0.158 -0.1087 -0.3745 -1.5009
 9973SOL    HW131403   6.026   1.466   0.216 -0.7109  0.9991 -2.0294
 9973SOL    HW231404   6.024   1.353   0.116  0.2556 -1.7497  0.9563
 9974SOL     OW31405   7.324   7.130   2.606  0.3017  0.5734 -0.4349
 9974SOL    HW131406   7.245   7.092   2.567 -0.5129  2.9008 -1.1285
 9974SOL    HW231407   7.394   7.110   2.543 -0.2395  0.7998 -1.1076
 9975SOL     OW31408   3.420   4.743   5.824 -0.2892 -0.4350  0.4259
 9975SOL    HW131409   3.498   4.706   5.782  0.5357 -0.1817  1.6974
 9975SOL    HW231410   3.356   4.672   5.821  0.3484 -1.0177  0.3214
 9976SOL     OW31411   3.796   4.715   1.201 -0.1371  0.1094  0.5594
 9976SOL    HW131412   3.790   4.806   1.172  0.3762 -0.3374 -0.9942
 9976SOL    HW231413   3.743   4.712   1.281  1.3893  2.1895  1.6920
 9977SOL     OW31414   0.962   8.019   6.608 -0.2427  0.2727  0.0130
 9977SOL    HW131415   1.041   7.986   6.565 -0.1639  0.1160  0.2821
 9977SOL    HW231416   0.895   8.015   6.539 -0.3068 -0.7379  0.1311
 9978SOL     OW31417   7.836   5.709   6.098 -0.2867 -0.3935  0.3246
 9978SOL    HW131418   7.857   5.751   6.015  1.6424  1.0094  1.4868
 9978SOL    HW231419   7.869   5.620   6.090  0.5920 -0.0298 -0.1277
 9979SOL     OW31420   4.841   3.980   2.166  0.0561 -0.2124 -0.6299
 9979SOL    HW131421   4.812   4.070   2.153 -1.1003 -0.0166  2.8180
 9979SOL    HW231422   4.761   3.928   2.162  0.5624 -0.9417 -1.3665
 9980SOL     OW31423   0.468   0.140   6.886 -0.3640 -0.5788 -0.5658
 9980SOL    HW131424   0.547   0.109   6.930 -0.1131  1.5855  0.5941
 9980SOL    HW231425   0.418   0.061   6.867  0.9988 -1.7975  0.7890
 9981SOL     OW31426   5.205   3.818   2.493 -0.1373  0.2728 -0.0831
 9981SOL    HW131427   5.267   3.813   2.566  0.9206 -0.2211 -0.9789
 9981SOL    HW231428   5.119   3.824   2.534  0.2418 -2.2315  1.2251
 9982SOL     OW31429   4.146   1.731   5.317  0.4892  0.3521 -0.2815
 9982SOL    HW131430   4.219   1.723   5.256  0.2651  0.5175 -0.5700
 9982SOL    HW231431   4.092   1.654   5.301  1.2586 -0.4370  0.8117
 9983SOL     OW31432   4.339   5.581   2.997 -0.0491 -0.5394 -0.5316
 9983SOL    HW131433   4.281   5.531   2.940  0.2714 -1.5059 -0.0171
 9983SOL    HW231434   4.285   5.602   3.073  0.4743 -2.0858  0.2896
 9984SOL     OW31435   7.241   5.206   2.088  0.5461 -0.5796 -0.2005
 9984SOL    HW131436   7.305   5.276   2.104 -1.0270  1.3167 -1.9515
 9984SOL    HW231437   7.175   5.219   2.156 -0.0836  0.0682 -0.9286
 9985SOL     OW31438   4.936   4.500   3.496 -0.4790  0.4328  0.0059
 9985SOL    HW131439   4.856   4.495   3.442 -1.4777  1.3603  1.3632
 9985SOL    HW231440   5.003   4.532   3.436 -0.7813 -1.6137 -1.5110
 9986SOL     OW31441   0.728   0.525   6.555  0.1517 -0.3370 -0.0438
 9986SOL    HW131442   0.671   0.517   6.631  0.7872  2.0509  0.7266
 9986SOL    HW231443   0.741   0.619   6.544  2.9570 -0.7651 -0.9181
 9987SOL     OW31444   1.540   1.068   7.813  0.1808  0.2884  0.0319
 9987SOL    HW131445   1.471   1.045   7.876 -0.5798  1.1520 -0.4722
 9987SOL    HW231446   1.510   1.032   7.730 -0.3486  1.8680 -0.4747
 9988SOL     OW31447   3.475   2.550   0.498  0.5114 -0.6229  0.2651
 9988SOL    HW131448   3.470   2.459   0.470  2.1983 -0.3203 -1.1365
 9988SOL    HW231449   3.547   2.553   0.560 -0.4395 -0.4851  1.3817
 9989SOL     OW31450   1.958   8.005   4.386  0.2024  0.1780  0.0830
 9989SOL    HW131451   1.918   8.037   4.467 -0.0506 -0.1941  0.1080
 9989SOL    HW231452   2.033   7.952   4.416  0.0147 -0.0907  0.0825
 9990SOL     OW31453   2.155   1.653   6.020  0.4833  0.1001  0.2438
 9990SOL    HW131454   2.200   1.580   6.062  1.5961  0.1597 -0.8133
 9990SOL    HW231455   2.225   1.710   5.989 -0.3755  1.6595  1.1220
 9991SOL     OW31456   6.033   0.073   2.924  0.5461  0.6499  0.2088
 9991SOL    HW131457   6.024  -0.000   2.863  0.1101  0.2543  0.7424
 9991SOL    HW231458   6.066   0.034   3.005  0.6106  1.0873  0.3955
 9992SOL     OW31459   1.185   7.571   7.130  0.4420  0.0778 -0.1839
 9992SOL    HW131460   1.120   7.537   7.068 -0.3915 -0.6436  1.0661
 9992SOL    HW231461   1.236   7.494   7.156  1.9274  0.6612 -1.2678
 9993SOL     OW31462   4.513   2.602   5.145 -0.0407 -0.3543 -0.2739
 9993SOL    HW131463   4.512   2.574   5.053 -4.0287 -0.2605 -0.3228
 9993SOL    HW231464   4.523   2.521   5.195  0.9628 -0.5239 -0.7407
 9994SOL     OW31465   3.881   6.520   2.987 -0.3632  0.2734 -0.8005
 9994SOL    HW131466   3.960   6.470   3.007 -1.0284 -0.3036  0.4582
 9994SOL    HW231467   3.819   6.456   2.951 -0.5580  0.5526 -0.9698
 9995SOL     OW31468   4.609   0.902   1.830 -0.3245  0.2421  0.0438
 9995SOL    HW131469   4.538   0.838   1.824  1.0932 -1.3275 -0.1964
 9995SOL    HW231470   4.615   0.939   1.741 -0.4565 -0.0242 -0.0749
 9996SOL     OW31471   7.946   1.280   7.295 -0.2706 -0.0465  0.1035
 9996SOL    HW131472   7.853   1.266   7.278 -0.1973  0.4749 -0.7349
 9996SOL    HW231473   7.964   1.367   7.259 -0.0565  0.9959  2.6724
 9997SOL     OW31474   7.186   3.774   4.064  0.5944  0.3190 -0.2808
 9997SOL    HW131475   7.170   3.826   3.985  2.5027 -0.3078 -1.1292
 9997SOL    HW231476   7.215   3.689   4.031  0.8518 -0.1414  1.0926
 9998SOL     OW31477   1.616   7.165   3.099  0.1866 -0.6851  0.1744
 9998SOL    HW131478   1.610   7.132   3.188 -0.6399  2.0578  1.1755
 9998SOL    HW231479   1.527   7.193   3.077  0.6851  0.0282 -0.9801
 9999SOL     OW31480   3.869   5.101   2.229  0.2684 -0.5892  0.5933
 9999SOL    HW131481   3.959   5.100   2.196  0.1823  0.5830  0.3001
 9999SOL    HW231482   3.862   5.183   2.277 -0.3778 -1.0988  1.3999
10000SOL     OW31483   4.083   7.422   4.401 -0.3483 -0.0865  0.5963
10000SOL    HW131484   4.105   7.409   4.493 -0.6028  0.6918  0.7620
10000SOL    HW231485   4.026   7.348   4.380  2.6447 -2.3686  0.0629
10001SOL     OW31486   2.455   7.420   5.140  0.1955  0.1853  0.0256
10001SOL    HW131487   2.408   7.343   5.172  0.5852 -0.2842 -0.5172
10001SOL    HW231488   2.394   7.461   5.078  0.8510 -0.9348 -1.3706
10002SOL     OW31489   6.375   4.260   1.686 -0.0793 -0.2176  0.1924
10002SOL    HW131490   6.420   4.179   1.662 -0.0699  0.2413 -1.3663
10002SOL    HW231491   6.438   4.329   1.669 -0.4717  0.2174  0.4785
10003SOL     OW31492   8.280   2.471   1.894 -0.3184 -0.0584 -0.4724
10003SOL    HW131493   8.328   2.438   1.970  0.4455  1.2078 -0.4020
10003SOL    HW231494   8.188   2.449   1.913 -0.2787  1.3051  1.3795
10004SOL     OW31495   2.878   3.688   5.620  0.3294 -0.4351 -0.5088
10004SOL    HW131496   2.827   3.617   5.660  0.7793  0.2388  1.3072
10004SOL    HW231497   2.954   3.645   5.582  0.3609 -0.9759  0.1659
10005SOL     OW31498   3.362   4.614   6.592  0.0247 -0.4169  0.3695
10005SOL    HW131499   3.298   4.561   6.544  0.6282 -0.7098 -0.1175
10005SOL    HW231500   3.382   4.562   6.670 -1.1206  0.1604  1.0548
10006SOL     OW31501   4.860   2.055   0.725 -0.1142 -0.4354 -0.6684
10006SOL    HW131502   4.935   2.088   0.675 -0.0894  0.0586 -0.3115
10006SOL    HW231503   4.784   2.100   0.688 -0.4716 -2.2440 -2.2140
10007SOL     OW31504   4.058   0.984   6.106  0.1355  0.1388  0.4947
10007SOL    HW131505   4.043   1.079   6.108  1.0404  0.3036  0.0177
10007SOL    HW231506   4.131   0.973   6.045 -0.8466 -0.9951 -0.5005
10008SOL     OW31507   4.332   3.084   0.569 -0.1340  0.2369  1.1057
10008SOL    HW131508   4.385   3.100   0.647  0.6276 -0.9223  0.8351
10008SOL    HW231509   4.285   3.003   0.589  0.9306 -0.6865 -0.0888
10009SOL     OW31510   6.494   5.261   7.572  0.3652 -0.0382 -0.2255
10009SOL    HW131511   6.486   5.225   7.484  2.7152  1.4248 -1.0848
10009SOL    HW231512   6.572   5.316   7.569  0.8645 -0.4403  2.9447
10010SOL     OW31513   5.921   5.426   3.124  0.3590 -0.0330 -0.1140
10010SOL    HW131514   5.981   5.453   3.054  0.1828  0.9280  0.0992
10010SOL    HW231515   5.917   5.330   3.117 -0.3230  0.1207 -1.9576
10011SOL     OW31516   1.108   7.015   2.369  0.5666  0.0967 -0.9116
10011SOL    HW131517   1.105   7.045   2.278 -1.5250 -0.3609 -1.0287
10011SOL    HW231518   1.072   7.088   2.419 -0.8221 -0.6628 -0.7697
10012SOL     OW31519   2.739   5.670   0.803  0.6670  0.3879 -0.3222
10012SOL    HW131520   2.801   5.653   0.732  2.1873  1.4352  0.7365
10012SOL    HW231521   2.793   5.703   0.875 -1.1426  1.5013  0.5481
10013SOL     OW31522   7.197   1.041   1.073  0.1569 -0.0953  0.0963
10013SOL    HW131523   7.122   1.003   1.027 -0.6867  1.8450 -0.1621
10013SOL    HW231524   7.188   1.135   1.062  1.2874  0.3002  2.1506
10014SOL     OW31525   8.160   4.208   4.904  0.5458  0.4847  0.0754
10014SOL    HW131526   8.119   4.291   4.930  0.3792  0.2099  0.6959
10014SOL    HW231527   8.156   4.154   4.983 -1.1021 -0.8217 -0.8690
10015SOL     OW31528   2.625   0.581   2.450 -0.4815  0.1436  0.4027
10015SOL    HW131529   2.650   0.674   2.449 -1.5400  0.4399  0.0160
10015SOL    HW231530   2.628   0.555   2.358 -0.4861 -0.1178  0.4784
10016SOL     OW31531   3.820   2.543   5.822 -0.2384 -0.1404 -0.1607
10016SOL    HW131532   3.877   2.471   5.795  0.1158 -0.1471  0.5638
10016SOL    HW231533   3.811   2.532   5.917  1.0638  1.6419  0.2000
10017SOL     OW31534   4.109   0.319   6.832 -0.0278  0.2202  0.5602
10017SOL    HW131535   4.127   0.315   6.926 -1.8684  2.3724  1.0352
10017SOL    HW231536   4.167   0.388   6.799  0.3417 -0.2699  0.1741
10018SOL     OW31537   7.965   8.105   6.667 -0.0686  0.5740 -0.2344
10018SOL    HW131538   7.963   8.015   6.699 -1.3549  1.5798  2.6850
10018SOL    HW231539   7.896   8.109   6.601 -0.6071 -0.3779  0.2547
10019SOL     OW31540   4.984   6.024   2.620  0.5621  0.4843 -0.0783
10019SOL    HW131541   5.028   6.098   2.577  0.6448  0.1758 -0.5331
10019SOL    HW231542   4.907   6.062   2.661  0.4342  0.7753 -0.5767
10020SOL     OW31543   3.944   2.362   0.664  0.0585  0.2924 -0.2470
10020SOL    HW131544   3.946   2.375   0.758  1.4034  3.9037 -0.6779
10020SOL    HW231545   3.965   2.269   0.652 -1.2190 -0.4817  2.9972
10021SOL     OW31546   6.729   0.698   0.106 -0.4881 -0.1971 -0.1611
10021SOL    HW131547   6.675   0.620   0.095  0.9479 -0.9218 -2.5177
10021SOL    HW231548   6.742   0.706   0.201 -1.1335 -2.4938  0.1335
10022SOL     OW31549   7.768   2.434   1.520 -0.6451  0.0881  0.0444
10022SOL    HW131550   7.695   2.392   1.473  0.4165 -1.3289 -0.4055
10022SOL    HW231551   7.730   2.511   1.561 -1.2364  2.5625 -4.8348
10023SOL     OW31552   7.825   8.045   0.147 -0.2728 -0.0857  0.0155
10023SOL    HW131553   7.901   8.087   0.186 -0.8235  1.9812 -1.0885
10023SOL    HW231554   7.776   8.009   0.222  2.0256 -1.9346  0.6915
10024SOL     OW31555   2.374   6.979   7.747 -0.6099  0.0921  0.2000
10024SOL    HW131556   2.356   6.983   7.841 -2.0066 -1.9534  0.0510
10024SOL    HW231557   2.469   6.967   7.741 -0.1790  2.6420  1.2450
10025SOL     OW31558   2.248   4.299   1.163 -0.4453 -0.5635  0.1813
10025SOL    HW131559   2.321   4.360   1.170 -0.0675 -1.0354  0.3904
10025SOL    HW231560   2.289   4.213   1.158 -0.9160 -0.7098 -1.5404
10026SOL     OW31561   7.683   0.329   2.384 -0.3568  0.0068  0.8183
10026SOL    HW131562   7.659   0.297   2.297  0.0416 -0.0987  0.7451
10026SOL    HW231563   7.765   0.284   2.405  0.1368  0.8724  0.7735
10027SOL     OW31564   5.495   0.455   7.020  0.1327  0.2717 -0.0158
10027SOL    HW131565   5.401   0.443   7.036  0.5229  0.2244  2.4927
10027SOL    HW231566   5.521   0.377   6.971 -0.6219 -1.0294  1.6092
10028SOL     OW31567   0.607   3.407   3.380  0.6366 -0.0469 -0.5166
10028SOL    HW131568   0.538   3.342   3.371  0.0408  0.6235 -0.8987
10028SOL    HW231569   0.687   3.356   3.393 -0.1349 -0.8028  1.3445
10029SOL     OW31570   3.890   4.603   4.769 -0.1077 -0.2562  0.0272
10029SOL    HW131571   3.868   4.625   4.860 -0.2126  0.6505 -0.2118
10029SOL    HW231572   3.979   4.635   4.757 -0.2208 -0.0540 -0.2899
10030SOL     OW31573   6.463   8.093   0.144  0.4936  0.2299  0.2311
10030SOL    HW131574   6.413   8.022   0.103 -0.7400  0.4742  1.2671
10030SOL    HW231575   6.551   8.057   0.154 -0.2738 -1.4085  1.3148
10031SOL     OW31576   8.242   5.015   3.097 -0.6550  0.0663 -0.1150
10031SOL    HW131577   8.314   5.077   3.102 -1.1108  0.5431  0.6475
10031SOL    HW231578   8.241   4.986   3.005  1.0925 -0.6574  0.0870
10032SOL     OW31579   5.697   5.258   7.040  0.4185 -0.0476 -0.3636
10032SOL    HW131580   5.716   5.194   7.109  2.1945 -1.4360 -2.1146
10032SOL    HW231581   5.630   5.217   6.986 -0.5309  0.7967  0.1335
10033SOL     OW31582   6.557   1.993   3.239  0.6018  0.4771  0.1142
10033SOL    HW131583   6.618   1.947   3.297 -0.5267 -1.6296 -0.3108
10033SOL    HW231584   6.598   1.989   3.153  1.3716  1.9105  0.4077
10034SOL     OW31585   6.818   3.356   2.030  0.5844 -0.0421  0.5012
10034SOL    HW131586   6.757   3.282   2.029  0.9512 -0.3531 -1.2981
10034SOL    HW231587   6.899   3.321   1.991  0.2623  1.6831 -1.8474
10035SOL     OW31588   0.639   0.832   6.245  0.2574  0.2528  0.1370
10035SOL    HW131589   0.562   0.877   6.208 -1.5703 -0.7582  2.5454
10035SOL    HW231590   0.632   0.743   6.212  0.0828  0.0310  0.7563
10036SOL     OW31591   7.465   5.656   2.856 -0.2781 -0.2844 -0.3100
10036SOL    HW131592   7.481   5.628   2.766 -1.4347 -0.5666 -0.4376
10036SOL    HW231593   7.482   5.577   2.908 -0.2813 -0.3104 -0.3481
10037SOL     OW31594   5.045   3.364   8.017  0.4934 -0.0312  0.6535
10037SOL    HW131595   5.136   3.379   7.990  0.0956 -0.1028 -0.7838
10037SOL    HW231596   5.042   3.390   8.109  1.5696  1.6442  0.2306
10038SOL     OW31597   0.252   3.325   5.684 -0.3653  0.0844 -0.0417
10038SOL    HW131598   0.172   3.310   5.634 -0.2751 -0.5144 -0.0138
10038SOL    HW231599   0.321   3.286   5.631 -0.3047 -0.8005  0.6615
10039SOL     OW31600   1.971   3.093   0.722 -0.1077  0.7410 -0.0409
10039SOL    HW131601   1.877   3.078   0.719 -0.2428  1.4473  0.3524
10039SOL    HW231602   1.998   3.100   0.631 -0.2845 -0.3629 -0.1771
10040SOL     OW31603   7.494   4.778   5.296  0.5420 -0.0719  0.4835
10040SOL    HW131604   7.551   4.804   5.224 -0.0113  1.4546  0.5856
10040SOL    HW231605   7.533   4.818   5.373 -0.7824  1.1722  0.5219
10041SOL     OW31606   2.242   1.722   3.824 -0.3822  0.2558  0.7521
10041SOL    HW131607   2.198   1.776   3.759 -1.0018  0.2308  1.1477
10041SOL    HW231608   2.212   1.755   3.908 -0.3059 -0.3183  1.0128
10042SOL     OW31609   3.701   1.388   1.673  0.3467  0.3762 -0.8442
10042SOL    HW131610   3.711   1.305   1.720  0.3272 -0.8986 -2.9953
10042SOL    HW231611   3.787   1.429   1.678  0.7033 -0.3600 -0.7879
10043SOL     OW31612   5.432   8.123   8.108 -0.2897  0.2093  0.3920
10043SOL    HW131613   5.428   8.162   8.020 -0.3015 -0.4047  0.1177
10043SOL    HW231614   5.506   8.167   8.150  0.9765 -0.9039 -0.6180
10044SOL     OW31615   6.565   6.792   6.120 -0.1088  0.0894 -0.5601
10044SOL    HW131616   6.479   6.752   6.109 -0.1905  0.7463 -2.6500
10044SOL    HW231617   6.561   6.871   6.066  1.4589  0.6619  0.1447
10045SOL     OW31618   3.686   1.005   0.424  0.0887 -0.3599  0.3073
10045SOL    HW131619   3.608   0.958   0.454 -0.4895  1.2913  1.5004
10045SOL    HW231620   3.759   0.963   0.469 -0.2801 -0.9592  0.3450
10046SOL     OW31621   5.579   0.110   4.740 -0.3849  0.4336  0.1305
10046SOL    HW131622   5.582   0.159   4.822  0.7765 -1.8013  1.4850
10046SOL    HW231623   5.647   0.149   4.685 -1.6837  2.4292 -0.0888
10047SOL     OW31624   6.709   6.358   0.081 -0.0052 -0.1212 -0.0488
10047SOL    HW131625   6.680   6.321   0.164 -0.0091 -1.8574 -0.8146
10047SOL    HW231626   6.761   6.434   0.105 -0.0402 -0.5945  1.5338
10048SOL     OW31627   4.202   7.841   4.851 -0.4735  0.4068  0.3984
10048SOL    HW131628   4.125   7.787   4.835  0.4514 -0.7257 -0.2789
10048SOL    HW231629   4.180   7.927   4.813 -1.6566  0.3048  0.8287
10049SOL     OW31630   6.597   5.553   2.830  0.5315  0.0643  0.2688
10049SOL    HW131631   6.595   5.463   2.796 -1.9380  1.4174 -3.4760
10049SOL    HW231632   6.672   5.593   2.787 -0.7453  0.8927 -1.2354
10050SOL     OW31633   4.967   4.184   6.088  0.0771  0.1057  0.0163
10050SOL    HW131634   5.020   4.241   6.144 -1.1169  1.3355 -0.0806
10050SOL    HW231635   4.880   4.224   6.088 -0.0266 -0.0371 -2.4981
10051SOL     OW31636   6.061   5.766   3.270 -0.2529 -0.5889 -0.2855
10051SOL    HW131637   6.084   5.682   3.230  0.8555 -0.4702  0.0689
10051SOL    HW231638   5.968   5.777   3.253 -0.6864 -2.4817  0.7272
10052SOL     OW31639   3.486   0.514   2.132 -0.1056  0.0443 -0.2713
10052SOL    HW131640   3.431   0.591   2.149 -0.4064 -0.0803 -0.6689
10052SOL    HW231641   3.445   0.472   2.057 -0.4048 -0.9612  0.4533
10053SOL     OW31642   2.114   0.601   4.352 -0.0616 -0.1904 -0.4580
10053SOL    HW131643   2.181   0.663   4.323 -1.3491  1.7126  0.5378
10053SOL    HW231644   2.146   0.516   4.322  1.5860  0.9733 -2.1311
10054SOL     OW31645   5.307   1.812   8.188  0.7024  0.0697 -0.0803
10054SOL    HW131646   5.275   1.791   8.100 -0.4123 -1.2552  0.6170
10054SOL    HW231647   5.402   1.796   8.184  0.8253  1.0845 -1.3333
10055SOL     OW31648   2.693   5.829   3.224  0.0922  0.5367 -0.1700
10055SOL    HW131649   2.681   5.841   3.130  0.2473  0.4153 -0.2059
10055SOL    HW231650   2.624   5.768   3.249  0.3494  0.1953 -0.2925
10056SOL     OW31651   4.856   5.081   5.067 -0.6809  0.0757 -0.6540
10056SOL    HW131652   4.903   5.086   4.983 -1.0261  3.1386 -0.7087
10056SOL    HW231653   4.805   5.001   5.060  0.9234 -0.8488 -2.5088
10057SOL     OW31654   1.496   6.865   1.027 -0.0395  0.4797  0.0390
10057SOL    HW131655   1.553   6.937   1.056  1.3244 -1.3356  2.0380
10057SOL    HW231656   1.538   6.832   0.947 -1.3123  2.6012 -1.5501
10058SOL     OW31657   7.025   4.917   6.607 -0.3856  0.0899  0.1593
10058SOL    HW131658   6.986   4.944   6.524 -0.9280  0.6954  0.6074
10058SOL    HW231659   7.106   4.872   6.582 -0.3729  0.5673 -0.6750
10059SOL     OW31660   7.087   1.487   4.523  0.6290  0.7278  0.9004
10059SOL    HW131661   7.042   1.431   4.586  0.6623 -1.0712 -0.6180
10059SOL    HW231662   7.161   1.524   4.572  1.6737 -2.0120  1.5001
10060SOL     OW31663   5.745   4.524   3.830  0.5937 -0.1473  0.0805
10060SOL    HW131664   5.703   4.458   3.775 -0.3100  0.2598  0.2731
10060SOL    HW231665   5.682   4.542   3.900  1.1880  0.2926  0.5101
10061SOL     OW31666   4.627   5.285   7.827 -0.0646 -0.3761 -0.0061
10061SOL    HW131667   4.606   5.298   7.920  0.1564  0.7801 -0.1113
10061SOL    HW231668   4.668   5.367   7.800 -1.6293 -0.0633 -1.5492
10062SOL     OW31669   5.922   0.481   8.074 -0.1250 -0.8066 -0.0633
10062SOL    HW131670   5.959   0.548   8.016  0.1116 -1.4273 -0.6309
10062SOL    HW231671   5.896   0.530   8.152 -0.6347  0.0736 -0.7706
10063SOL     OW31672   8.218   1.343   6.093 -0.1636 -0.9652  0.0295
10063SOL    HW131673   8.244   1.426   6.052 -2.1080 -1.6127 -2.5630
10063SOL    HW231674   8.291   1.322   6.152  0.6574  2.2342  0.2380
10064SOL     OW31675   5.268   6.010   6.635  0.5132  0.0128  0.3552
10064SOL    HW131676   5.248   6.054   6.553  1.3047 -0.5147 -0.1233
10064SOL    HW231677   5.332   6.066   6.678 -1.1931  1.2048  1.4449
10065SOL     OW31678   6.675   4.785   6.741 -0.1286  0.0779  0.5805
10065SOL    HW131679   6.764   4.755   6.757 -0.6814 -1.9516  0.0541
10065SOL    HW231680   6.643   4.814   6.826  0.8413  0.3020  0.8716
10066SOL     OW31681   0.730   3.300   6.747  0.1074  0.2621  0.3083
10066SOL    HW131682   0.718   3.266   6.658 -0.1503  1.0596  0.0408
10066SOL    HW231683   0.719   3.223   6.803  0.3939 -0.2663 -0.3556
10067SOL     OW31684   6.856   7.194   2.916  0.0984 -0.8562 -0.0323
10067SOL    HW131685   6.766   7.161   2.921 -0.5777  0.6467 -1.4065
10067SOL    HW231686   6.907   7.122   2.880 -0.9179 -1.1600 -0.9039
10068SOL     OW31687   1.145   1.917   5.647 -0.1163 -1.1151  0.4602
10068SOL    HW131688   1.211   1.851   5.631  0.7859 -0.2688  0.6357
10068SOL    HW231689   1.148   1.932   5.742 -0.2410 -0.7398  0.4061
10069SOL     OW31690   7.485   3.584   1.937  0.7125  0.1556  0.1601
10069SOL    HW131691   7.571   3.618   1.912  0.7444 -0.4819 -0.6268
10069SOL    HW231692   7.464   3.521   1.868  0.0898 -0.4624  0.9073
10070SOL     OW31693   0.261   5.341   4.723  0.1192  0.0185 -0.0087
10070SOL    HW131694   0.209   5.383   4.654  1.2163 -0.8105 -1.3872
10070SOL    HW231695   0.273   5.251   4.692  0.6847 -0.3463  1.2380
10071SOL     OW31696   1.433   7.231   1.019 -0.1137 -0.1475 -0.4149
10071SOL    HW131697   1.371   7.235   1.091 -1.9943  1.2057 -2.0542
10071SOL    HW231698   1.517   7.208   1.060 -1.4661 -1.0018  1.9533
10072SOL     OW31699   3.776   5.683   5.945 -0.0380 -0.0419  0.0852
10072SOL    HW131700   3.792   5.668   6.038  2.7219  2.3746  0.0776
10072SOL    HW231701   3.726   5.764   5.942  1.6521  0.9916 -0.6000
10073SOL     OW31702   8.172   2.006   1.523  0.4938 -0.0811  0.3880
10073SOL    HW131703   8.146   1.980   1.612 -0.2424  2.0027  0.8090
10073SOL    HW231704   8.116   1.955   1.465  0.0919 -0.5232  1.1597
10074SOL     OW31705   7.063   4.522   6.411 -0.5955 -0.5041  0.1549
10074SOL    HW131706   7.025   4.604   6.378 -0.0862 -0.0754  0.6183
10074SOL    HW231707   7.098   4.478   6.334  0.1005  0.2317  0.0520
10075SOL     OW31708   0.278   0.788   4.951  0.4695 -0.6589  1.0935
10075SOL    HW131709   0.210   0.789   4.884  1.4294 -3.2907  0.0171
10075SOL    HW231710   0.344   0.850   4.918  1.1754 -2.3050 -0.7079
10076SOL     OW31711   1.284   8.012   2.438 -0.2108 -0.2398  0.5583
10076SOL    HW131712   1.374   8.003   2.470 -0.7470  1.1759  2.5143
10076SOL    HW231713   1.254   8.095   2.473 -1.8293 -0.0216 -1.2692
10077SOL     OW31714   5.825   2.050   0.162 -0.6471  0.0284 -0.0452
10077SOL    HW131715   5.858   2.076   0.248  0.1255  0.5908 -0.5037
10077SOL    HW231716   5.819   1.955   0.166  2.5176 -0.2400 -0.4518
10078SOL     OW31717   5.227   1.032   6.776 -0.1499 -0.0566  0.5307
10078SOL    HW131718   5.172   1.034   6.854  0.2787  1.0098  0.8194
10078SOL    HW231719   5.274   0.948   6.782 -0.5288 -0.2313  1.1258
10079SOL     OW31720   5.575   7.439   0.467  0.3092 -0.2734  0.4195
10079SOL    HW131721   5.569   7.485   0.383 -2.0532 -1.1643  0.0530
10079SOL    HW231722   5.623   7.499   0.524 -0.2234  1.4097 -0.8526
10080SOL     OW31723   1.639   4.629   6.114  0.0142  0.4564 -0.1915
10080SOL    HW131724   1.671   4.698   6.055 -1.3427  1.4804  0.2392
10080SOL    HW231725   1.623   4.554   6.056 -0.8882  1.3093 -1.0766
10081SOL     OW31726   2.308   0.031   1.698  0.0237  0.8278 -0.2425
10081SOL    HW131727   2.366   0.033   1.774 -1.2891 -0.3443  0.8339
10081SOL    HW231728   2.287  -0.062   1.687 -0.3716  1.0703 -1.5958
10082SOL     OW31729   1.970   1.670   4.245 -0.4162 -0.0149  0.1446
10082SOL    HW131730   1.964   1.666   4.150 -2.3706 -1.0643  0.2706
10082SOL    HW231731   2.036   1.604   4.269  1.8481  1.9354 -0.5942
10083SOL     OW31732   0.605   6.097   6.150  0.4542 -0.6967 -0.5587
10083SOL    HW131733   0.532   6.037   6.164  2.6635 -3.5276 -0.7782
10083SOL    HW231734   0.613   6.146   6.232  0.3511 -2.6658  0.6454
10084SOL     OW31735   6.388   6.324   5.427  0.5754  1.1139  0.8861
10084SOL    HW131736   6.427   6.237   5.434  1.0553  1.1593 -0.8985
10084SOL    HW231737   6.456   6.378   5.388 -0.4983  1.7180 -0.2182
10085SOL     OW31738   6.999   7.756   3.241  0.2005 -0.0386  0.5613
10085SOL    HW131739   6.978   7.700   3.166  1.7760  1.0433 -0.7086
10085SOL    HW231740   7.076   7.804   3.214  1.1242 -0.0303  3.1179
10086SOL     OW31741   7.668   4.574   6.503 -0.4296  0.4418  1.0691
10086SOL    HW131742   7.634   4.571   6.592  0.1143 -0.3061  1.2526
10086SOL    HW231743   7.589   4.578   6.448 -0.8340 -1.4240  1.4842
10087SOL     OW31744   3.953   1.238   6.050 -0.3839  0.3355  0.0198
10087SOL    HW131745   4.045   1.267   6.047  1.0768 -3.8538  0.7246
10087SOL    HW231746   3.933   1.213   5.960  0.1943 -1.5282  0.3827
10088SOL     OW31747   1.107   3.814   8.033  0.1296  0.2035  0.7290
10088SOL    HW131748   1.069   3.805   8.120 -0.7608 -0.0445  0.3230
10088SOL    HW231749   1.111   3.724   7.999  0.4439  0.3028  0.4980
10089SOL     OW31750   7.579   7.394   5.270  0.6486  0.6620  0.2185
10089SOL    HW131751   7.569   7.439   5.186  0.3248 -0.1860 -0.2008
10089SOL    HW231752   7.499   7.413   5.318 -0.1964 -0.7985 -0.5975
10090SOL     OW31753   7.280   4.841   4.950  0.0619 -0.1732  0.1803
10090SOL    HW131754   7.371   4.854   4.975 -0.0801  1.9908 -0.2474
10090SOL    HW231755   7.273   4.749   4.927  1.9466 -0.5270  0.9790
10091SOL     OW31756   7.568   2.485   7.601  0.0146 -0.1595  0.8601
10091SOL    HW131757   7.519   2.407   7.574 -0.0653  0.0722  0.3274
10091SOL    HW231758   7.503   2.540   7.645 -0.7488  1.1163 -1.7341
10092SOL     OW31759   6.581   4.542   1.949 -0.8283 -0.0844 -0.2578
10092SOL    HW131760   6.635   4.546   1.870 -2.7505  0.5651 -1.5909
10092SOL    HW231761   6.511   4.480   1.927 -0.9840 -0.4350  1.1934
10093SOL     OW31762   7.869   4.026   0.199  0.4636  0.4387  0.5809
10093SOL    HW131763   7.812   4.080   0.143 -0.7044 -2.0701 -0.7503
10093SOL    HW231764   7.957   4.055   0.179 -0.1257  1.5388 -0.4698
10094SOL     OW31765   3.222   1.259   0.425 -0.6819 -0.1723  0.3982
10094SOL    HW131766   3.133   1.286   0.401 -0.0190  1.1630 -0.6249
10094SOL    HW231767   3.264   1.237   0.342  0.8276  1.9926  0.5453
10095SOL     OW31768   4.240   1.686   3.020  0.4700  0.4231  0.3942
10095SOL    HW131769   4.167   1.724   2.971 -0.2852 -1.6666 -0.1416
10095SOL    HW231770   4.200   1.616   3.071  2.0288 -0.4437  0.4412
10096SOL     OW31771   3.680   6.246   2.385  0.4680  0.8373 -0.2903
10096SOL    HW131772   3.658   6.284   2.300 -0.8659 -3.5836 -2.0956
10096SOL    HW231773   3.616   6.282   2.446 -0.9935  1.1786 -1.9883
10097SOL     OW31774   6.589   5.021   6.012 -0.6043  0.7219  0.2046
10097SOL    HW131775   6.525   4.993   6.077  1.7266 -1.5899  1.6155
10097SOL    HW231776   6.553   4.991   5.929 -1.2744 -0.7260  0.9896
10098SOL     OW31777   6.746   2.231   2.047 -0.1393 -0.0591 -0.3396
10098SOL    HW131778   6.677   2.182   2.092  1.0224 -1.9313 -0.5379
10098SOL    HW231779   6.767   2.304   2.107 -3.9953  2.0504 -1.4105
10099SOL     OW31780   8.177   6.210   6.359 -0.8431 -0.3495  0.2047
10099SOL    HW131781   8.096   6.259   6.372 -0.1685  0.9906 -0.5028
10099SOL    HW231782   8.164   6.128   6.407 -3.0310 -0.6134 -0.8041
10100SOL     OW31783   1.480   7.273   6.971 -0.6460  0.0357 -0.3431
10100SOL    HW131784   1.500   7.338   7.038  0.2309 -0.0493 -0.5039
10100SOL    HW231785   1.556   7.276   6.912 -0.7097 -0.9608 -0.4845
10101SOL     OW31786   5.136   7.347   7.377 -0.0435 -0.1384  0.3340
10101SOL    HW131787   5.211   7.325   7.323 -0.8966 -2.4342  0.0289
10101SOL    HW231788   5.062   7.304   7.335 -1.0861 -0.1569  2.1269
10102SOL     OW31789   7.199   3.474   5.454  0.2650 -0.1017  0.2015
10102SOL    HW131790   7.179   3.553   5.403  1.2120  0.4890  0.7390
10102SOL    HW231791   7.137   3.408   5.421  1.0341  0.1923 -1.9117
10103SOL     OW31792   1.447   1.064   6.994  0.5624 -0.6518 -0.1799
10103SOL    HW131793   1.489   1.129   7.050 -1.1798  1.7549 -1.6014
10103SOL    HW231794   1.409   1.000   7.055  1.4152  0.1944  1.2610
10104SOL     OW31795   1.828   7.594   8.043  0.1282 -0.4301  0.4320
10104SOL    HW131796   1.914   7.612   8.006 -0.2045 -0.1645 -0.2032
10104SOL    HW231797   1.832   7.501   8.068  0.1915 -0.7245 -0.6807
10105SOL     OW31798   3.297   6.978   6.590 -0.2413  0.7847 -0.4497
10105SOL    HW131799   3.231   6.935   6.644  2.5954 -1.5980  1.3191
10105SOL    HW231800   3.268   6.961   6.500 -0.9841 -2.0300  0.2507
10106SOL     OW31801   7.650   8.248   3.511  0.0628  0.5114  0.7260
10106SOL    HW131802   7.577   8.199   3.549  0.5285 -1.3950 -0.7440
10106SOL    HW231803   7.632   8.340   3.533 -3.0810  0.1488 -0.1037
10107SOL     OW31804   4.279   4.197   4.295  0.5819  0.2583  0.2754
10107SOL    HW131805   4.359   4.156   4.328  1.6736  1.2175 -1.1282
10107SOL    HW231806   4.305   4.286   4.273 -0.8918  0.5989 -0.1333
10108SOL     OW31807   5.774   7.568   7.802 -0.1844 -0.5917  0.2460
10108SOL    HW131808   5.748   7.515   7.878 -0.6809 -0.0095  0.4943
10108SOL    HW231809   5.697   7.621   7.783  0.9282  1.4367  1.2212
10109SOL     OW31810   2.279   6.502   0.469 -0.4903  0.0446 -0.6100
10109SOL    HW131811   2.321   6.493   0.554  0.2585  1.3323 -0.8379
10109SOL    HW231812   2.204   6.442   0.473 -0.9494  0.7104  1.2572
10110SOL     OW31813   4.593   8.086   3.101 -0.6954  0.5983 -0.3266
10110SOL    HW131814   4.538   8.110   3.175 -2.8249  0.6844 -1.8959
10110SOL    HW231815   4.644   8.012   3.133 -3.9997 -1.5513  0.2177
10111SOL     OW31816   0.803   5.718   0.344  0.2594  0.0365 -0.8823
10111SOL    HW131817   0.762   5.639   0.308 -2.7247  0.6856  0.8663
10111SOL    HW231818   0.874   5.685   0.398 -2.7213 -1.7618  2.1462
10112SOL     OW31819   6.475   6.646   5.173 -0.1950 -0.1873 -0.0618
10112SOL    HW131820   6.507   6.578   5.232  0.4289  1.8259  1.9980
10112SOL    HW231821   6.548   6.708   5.167 -1.0337  0.6858 -1.2919
10113SOL     OW31822   6.612   7.309   3.696  0.3352 -0.1986  0.4822
10113SOL    HW131823   6.591   7.302   3.603 -1.1712  1.7373  0.6411
10113SOL    HW231824   6.671   7.384   3.702  0.2648 -0.1851  1.1047
10114SOL     OW31825   3.127   3.832   4.239  0.9565  0.4011 -0.6341
10114SOL    HW131826   3.134   3.749   4.286  0.0487  1.3922  1.3522
10114SOL    HW231827   3.172   3.895   4.296 -0.3295  1.6746 -1.0038
10115SOL     OW31828   3.398   7.124   4.482  0.7250  0.1613  0.2084
10115SOL    HW131829   3.452   7.189   4.527  0.5605  0.7062 -0.3800
10115SOL    HW231830   3.340   7.091   4.550 -1.4091  2.9655 -0.1624
10116SOL     OW31831   0.397   3.024   1.323 -0.4501  0.0583  0.3309
10116SOL    HW131832   0.397   2.998   1.231 -0.5307  1.3751 -0.0505
10116SOL    HW231833   0.386   3.119   1.321  2.2714  0.4257  1.6095
10117SOL     OW31834   3.713   5.997   3.055  0.2626  0.6766  0.0370
10117SOL    HW131835   3.687   5.987   2.964  2.4449 -0.8071 -0.4393
10117SOL    HW231836   3.681   5.918   3.098 -0.5628  1.2697  0.5464
10118SOL     OW31837   4.628   5.205   0.795  0.6399 -0.1812  0.2716
10118SOL    HW131838   4.707   5.253   0.821  0.0879  0.7319  0.3006
10118SOL    HW231839   4.659   5.143   0.729  0.9650  2.0035 -1.6970
10119SOL     OW31840   5.692   3.832   0.032 -0.7531  0.3482  0.0326
10119SOL    HW131841   5.704   3.919  -0.004  0.4185 -0.4235 -1.4884
10119SOL    HW231842   5.632   3.788  -0.028 -0.8799 -0.0940  0.4707
10120SOL     OW31843   4.247   0.630   0.798  0.2372 -0.2523 -0.5313
10120SOL    HW131844   4.219   0.660   0.885  1.4616  0.0661 -0.2315
10120SOL    HW231845   4.305   0.556   0.816 -2.3329 -2.4973 -1.2448
10121SOL     OW31846   4.298   6.607   5.391  0.5756  0.4162 -0.2433
10121SOL    HW131847   4.370   6.669   5.379  0.2555  0.6777 -0.8156
10121SOL    HW231848   4.248   6.612   5.310  0.4216 -0.4332 -0.2062
10122SOL     OW31849   5.128   7.871   7.483  0.0638  0.4790 -0.0498
10122SOL    HW131850   5.219   7.870   7.453  0.0223  2.6640 -0.3094
10122SOL    HW231851   5.078   7.831   7.411  0.8090 -0.8616  0.1583
10123SOL     OW31852   5.325   5.814   3.247  0.6768 -0.6280 -0.0164
10123SOL    HW131853   5.312   5.744   3.311 -1.7546 -0.6456 -0.4810
10123SOL    HW231854   5.346   5.891   3.300  1.2624 -1.2249  0.6289
10124SOL     OW31855   4.904   0.565   4.858  0.7375  0.4471 -0.0350
10124SOL    HW131856   4.944   0.593   4.776 -0.6158  1.2664 -0.4388
10124SOL    HW231857   4.966   0.592   4.926  2.6762 -1.7557 -0.8781
10125SOL     OW31858   7.574   2.077   1.147 -0.1151 -0.6544 -0.0469
10125SOL    HW131859   7.654   2.121   1.118  0.8274 -2.8714 -0.9861
10125SOL    HW231860   7.503   2.133   1.115  1.0445  0.6886 -0.3180
10126SOL     OW31861   1.489   1.211   6.227  0.1119  0.0195 -0.0773
10126SOL    HW131862   1.415   1.258   6.189  0.3377  0.6177  0.2202
10126SOL    HW231863   1.511   1.145   6.162 -1.0131 -0.5099  0.0546
10127SOL     OW31864   3.202   3.555   1.756 -0.6426 -0.0012 -0.4353
10127SOL    HW131865   3.121   3.606   1.748 -0.3783  0.0753 -3.3680
10127SOL    HW231866   3.231   3.544   1.665  1.5521 -1.7764  0.4596
10128SOL     OW31867   1.154   7.483   2.172 -0.6512  0.0805  0.4227
10128SOL    HW131868   1.114   7.451   2.092 -0.6932  0.2780  0.3628
10128SOL    HW231869   1.241   7.444   2.173 -0.6924 -0.0132  0.3383
10129SOL     OW31870   5.914   0.521   3.669  0.7677 -0.2063  0.0410
10129SOL    HW131871   5.881   0.591   3.613 -1.1716 -1.6143 -0.6425
10129SOL    HW231872   5.952   0.457   3.608 -0.8957 -1.5070  0.3367
10130SOL     OW31873   7.376   7.695   5.204  0.1971  0.0089 -0.5320
10130SOL    HW131874   7.323   7.702   5.125 -0.0921 -0.0689 -0.3451
10130SOL    HW231875   7.347   7.614   5.246  1.0394 -0.4658 -0.8469
10131SOL     OW31876   4.007   4.631   8.292  0.1872  0.5784 -0.2566
10131SOL    HW131877   4.059   4.561   8.331  0.3033  1.2590  0.8089
10131SOL    HW231878   3.922   4.590   8.274  0.6342 -0.1567 -0.7339
10132SOL     OW31879   6.158   6.150   7.776  0.0066 -0.2202  0.2616
10132SOL    HW131880   6.068   6.165   7.746 -0.9653 -2.6271  1.7605
10132SOL    HW231881   6.149   6.133   7.870  2.1578  0.4465  0.6132
10133SOL     OW31882   5.969   0.480   4.898  0.3322  0.5836 -0.3767
10133SOL    HW131883   6.023   0.429   4.838 -0.1445  1.1475 -1.3005
10133SOL    HW231884   5.923   0.542   4.842 -3.1188 -1.4766  0.0511
10134SOL     OW31885   8.274   4.276   3.605 -0.3647  0.3765  0.4877
10134SOL    HW131886   8.195   4.241   3.564 -0.6238  0.8789  0.5654
10134SOL    HW231887   8.344   4.217   3.575 -0.2995  1.6024 -1.8617
10135SOL     OW31888   1.270   7.265   2.345 -0.0073  0.2928 -0.0477
10135SOL    HW131889   1.188   7.272   2.392  0.1886  0.8659  0.2135
10135SOL    HW231890   1.337   7.291   2.408  0.1782  1.9236 -0.8861
10136SOL     OW31891   6.334   7.738   4.508 -0.1208  0.3794 -0.3251
10136SOL    HW131892   6.249   7.754   4.468 -0.7698 -1.0157  0.4332
10136SOL    HW231893   6.382   7.686   4.443  0.1805  1.2324 -0.7845
10137SOL     OW31894   0.277   2.014   3.237 -0.0572 -0.1340  0.5646
10137SOL    HW131895   0.288   1.947   3.170 -1.2137 -1.0041  1.2132
10137SOL    HW231896   0.314   2.094   3.199  0.3490 -0.8967 -0.6371
10138SOL     OW31897   3.539   7.876   6.768  0.2907 -0.0334  0.3360
10138SOL    HW131898   3.576   7.948   6.820  1.3889  1.0505 -1.9126
10138SOL    HW231899   3.460   7.914   6.729  1.6301  0.4130 -1.9796
10139SOL     OW31900   5.003   4.418   3.994  0.4049  0.1299 -0.0767
10139SOL    HW131901   5.091   4.455   4.001  0.4069 -0.4655  4.1058
10139SOL    HW231902   5.007   4.336   4.043 -2.0886 -0.6914 -1.1567
10140SOL     OW31903   1.704   7.883   7.059  0.1441 -0.1549 -0.3696
10140SOL    HW131904   1.628   7.927   7.096 -0.8140 -2.3655  0.3465
10140SOL    HW231905   1.750   7.846   7.135  1.1966  0.0069 -0.9175
10141SOL     OW31906   4.680   5.635   2.267 -0.4787 -0.5046  0.3223
10141SOL    HW131907   4.635   5.600   2.343 -2.1181 -0.2147 -0.4952
10141SOL    HW231908   4.762   5.585   2.262 -0.8329 -1.2237  1.6508
10142SOL     OW31909   5.768   4.229   5.218 -0.5969  0.0663  0.0795
10142SOL    HW131910   5.740   4.181   5.139 -0.3515 -1.2128  0.7523
10142SOL    HW231911   5.731   4.316   5.207  0.0766  0.1403 -1.8251
10143SOL     OW31912   7.248   7.314   0.333 -0.1932  0.0973 -1.0760
10143SOL    HW131913   7.242   7.219   0.321 -1.3731  0.0185  0.0346
10143SOL    HW231914   7.158   7.341   0.351  0.6027  0.9756  1.8079
10144SOL     OW31915   2.487   1.025   1.462 -0.0596  0.1823 -0.4130
10144SOL    HW131916   2.418   1.091   1.462 -2.0480 -1.8042 -3.3588
10144SOL    HW231917   2.495   0.999   1.554 -0.6951  2.9639  0.4772
10145SOL     OW31918   6.723   7.355   5.684  0.7552 -0.2682  0.4803
10145SOL    HW131919   6.792   7.415   5.711 -0.3341  1.6338 -0.8286
10145SOL    HW231920   6.643   7.394   5.718 -0.2290  0.2834 -2.3449
10146SOL     OW31921   1.708   6.763   4.715 -0.1802  0.4252 -0.1162
10146SOL    HW131922   1.633   6.822   4.716 -0.2199  0.3770 -0.3238
10146SOL    HW231923   1.684   6.694   4.778 -0.6131  0.0333 -0.7034
10147SOL     OW31924   6.562   0.783   6.342  0.2714 -0.3157  0.1357
10147SOL    HW131925   6.625   0.757   6.409 -1.3017 -0.4887  1.5726
10147SOL    HW231926   6.478   0.787   6.388 -0.4770  1.7013 -1.3380
10148SOL     OW31927   5.451   1.359   2.896 -0.2465  0.5617 -0.2534
10148SOL    HW131928   5.428   1.357   2.989 -0.6432  1.4907 -0.3186
10148SOL    HW231929   5.393   1.426   2.860 -0.7950 -0.5030 -1.3674
10149SOL     OW31930   6.426   7.536   0.519  0.0342 -0.1097  0.0733
10149SOL    HW131931   6.419   7.564   0.610  0.5375 -1.0474  0.4073
10149SOL    HW231932   6.517   7.553   0.495  0.1535 -0.7466  0.0530
10150SOL     OW31933   1.674   1.574   6.149 -0.2753 -0.6995  0.6168
10150SOL    HW131934   1.689   1.657   6.104  0.3686 -2.5242 -2.7332
10150SOL    HW231935   1.579   1.566   6.153 -0.3431 -0.3463 -0.1648
10151SOL     OW31936   1.677   5.569   5.769  0.3596  0.4483  0.6373
10151SOL    HW131937   1.670   5.506   5.697 -0.9449  1.6582 -0.3248
10151SOL    HW231938   1.639   5.523   5.844  0.0709 -0.1727  0.1242
10152SOL     OW31939   0.694   2.113   1.203  0.8041  0.0761  0.1751
10152SOL    HW131940   0.647   2.126   1.121 -0.8317 -0.7144  0.9739
10152SOL    HW231941   0.729   2.199   1.225 -3.2428  1.5020  1.3688
10153SOL     OW31942   8.029   2.894   2.514  0.7913  0.1328 -0.9605
10153SOL    HW131943   7.996   2.831   2.450  0.6047  1.2417 -1.9879
10153SOL    HW231944   7.976   2.880   2.592  1.1805 -1.4041 -0.9630
10154SOL     OW31945   4.703   4.215   2.201 -0.1739  0.8253  0.9138
10154SOL    HW131946   4.676   4.239   2.290  0.0171  3.3141  0.3460
10154SOL    HW231947   4.720   4.299   2.158  1.2934 -0.4044 -0.9928
10155SOL     OW31948   6.483   5.184   0.705 -0.4809  0.1980  0.8367
10155SOL    HW131949   6.530   5.105   0.734  0.4556  0.3943 -0.1371
10155SOL    HW231950   6.539   5.222   0.637 -1.7788  0.7398  0.0547
10156SOL     OW31951   2.476   5.392   7.250  0.2013 -0.1577 -0.4687
10156SOL    HW131952   2.501   5.341   7.328  1.7620  1.7281  0.3086
10156SOL    HW231953   2.491   5.483   7.276  1.4331  0.4590 -3.2402
10157SOL     OW31954   0.313   4.568   4.874  0.3397 -0.0738  0.0003
10157SOL    HW131955   0.376   4.547   4.943  0.1488 -0.1613  0.1480
10157SOL    HW231956   0.350   4.529   4.795 -0.5424 -1.9316  0.4691
10158SOL     OW31957   4.569   5.330   5.121  0.0223 -0.4914 -0.2760
10158SOL    HW131958   4.503   5.368   5.179 -0.9595 -2.2155 -0.2195
10158SOL    HW231959   4.652   5.364   5.153 -0.5996 -0.6090  1.5279
10159SOL     OW31960   4.242   1.975   3.716 -0.2559 -0.0718 -0.1503
10159SOL    HW131961   4.192   1.946   3.793 -1.1727  0.7228 -0.4323
10159SOL    HW231962   4.175   2.003   3.654  0.4705 -1.0094 -1.3667
10160SOL     OW31963   0.010   3.943   0.295 -0.3352 -0.2002  0.2822
10160SOL    HW131964   0.087   3.954   0.240 -1.3091 -1.0676 -1.2854
10160SOL    HW231965  -0.015   4.032   0.320  1.4211  0.0723  1.1973
10161SOL     OW31966   1.623   1.429   5.638 -0.3526 -0.5866  0.1082
10161SOL    HW131967   1.528   1.438   5.641 -0.2335  1.0811 -0.3058
10161SOL    HW231968   1.649   1.473   5.557  0.8272 -0.3968  0.5735
10162SOL     OW31969   6.421   1.566   3.826  0.0665  0.0251  0.5153
10162SOL    HW131970   6.359   1.496   3.808  0.8068 -0.8517  1.3317
10162SOL    HW231971   6.388   1.607   3.906 -0.2529  0.4897  0.1508
10163SOL     OW31972   3.538   5.396   3.779 -0.0974  0.1854  0.4027
10163SOL    HW131973   3.509   5.306   3.791  0.0672  0.2406  1.2494
10163SOL    HW231974   3.491   5.427   3.702  0.0600 -0.7139 -0.0523
10164SOL     OW31975   0.963   1.446   4.381 -0.2473  0.5333 -0.0963
10164SOL    HW131976   0.887   1.411   4.427 -2.2442  1.8799 -2.2334
10164SOL    HW231977   0.953   1.415   4.291  0.6420  2.4159 -0.8728
10165SOL     OW31978   2.897   4.217   0.153 -0.0284 -0.3991 -0.3972
10165SOL    HW131979   2.847   4.144   0.189  0.2030 -1.2614 -1.7654
10165SOL    HW231980   2.878   4.215   0.059  1.7245 -0.0716 -0.7722
10166SOL     OW31981   4.491   5.870   6.755 -0.3234 -0.2221 -0.2628
10166SOL    HW131982   4.525   5.901   6.838  0.2700  0.6620 -0.8300
10166SOL    HW231983   4.418   5.812   6.779  1.0749 -1.5407  0.9425
10167SOL     OW31984   6.649   5.662   4.098  1.1087  0.6618 -0.3587
10167SOL    HW131985   6.712   5.595   4.124  0.7395  0.6313  0.4713
10167SOL    HW231986   6.693   5.745   4.118  1.0187  0.6475 -0.1084
10168SOL     OW31987   7.299   1.143   7.713 -0.4826 -0.2531 -0.3120
10168SOL    HW131988   7.334   1.157   7.625 -0.4845 -0.6777 -0.3841
10168SOL    HW231989   7.205   1.155   7.705 -0.4995 -0.4419 -0.4016
10169SOL     OW31990   4.600   0.918   0.389 -0.3212  0.0855 -0.0900
10169SOL    HW131991   4.511   0.954   0.396 -1.0757 -1.8440  0.7528
10169SOL    HW231992   4.635   0.923   0.478  0.3770  0.7076 -0.3936
10170SOL     OW31993   6.475   6.730   0.621 -0.2465 -0.0427 -0.1076
10170SOL    HW131994   6.419   6.785   0.567 -1.5109  0.7037  1.9154
10170SOL    HW231995   6.422   6.710   0.698  1.9972  0.0040  1.4805
10171SOL     OW31996   7.722   6.563   4.089  0.0135  0.5045 -1.0239
10171SOL    HW131997   7.649   6.503   4.072 -1.7509  2.5738 -1.0259
10171SOL    HW231998   7.710   6.589   4.180  1.1221  0.4333 -0.8469
10172SOL     OW31999   0.747   6.675   4.912 -0.2966 -0.1022  0.6288
10172SOL    HW132000   0.838   6.671   4.942 -0.3605 -1.3542  0.6652
10172SOL    HW232001   0.712   6.588   4.929 -0.8655 -0.2940 -1.4300
10173SOL     OW32002   3.051   4.560   5.523 -0.1466  0.4497 -0.4425
10173SOL    HW132003   2.977   4.612   5.490 -0.1862  0.9312  0.4090
10173SOL    HW232004   3.038   4.473   5.483 -0.9409  0.6462 -0.6293
10174SOL     OW32005   2.345   3.526   0.318 -0.3280 -0.0445 -0.3854
10174SOL    HW132006   2.293   3.481   0.385  1.0897 -1.3118 -0.1075
10174SOL    HW232007   2.359   3.614   0.354 -0.7694 -0.2614  0.3296
10175SOL     OW32008   1.516   6.000   6.190  0.5225  0.1118  0.3082
10175SOL    HW132009   1.533   5.975   6.100  0.6942 -0.7160  0.5641
10175SOL    HW232010   1.486   6.091   6.185 -0.9908 -0.4308 -0.7399
10176SOL     OW32011   3.387   7.792   3.458  0.4769  0.1389  0.1106
10176SOL    HW132012   3.418   7.793   3.368 -0.0723  0.7784 -0.0760
10176SOL    HW232013   3.376   7.884   3.481 -2.1731 -0.0541 -0.1522
10177SOL     OW32014   5.591   3.316   6.445 -0.2820  0.5845 -0.4012
10177SOL    HW132015   5.587   3.354   6.357 -1.0378  3.2755  0.7421
10177SOL    HW232016   5.647   3.377   6.495 -0.3652 -0.5731  1.1417
10178SOL     OW32017   3.571   2.807   1.981 -0.2300 -0.6190 -0.4934
10178SOL    HW132018   3.658   2.779   2.009 -0.1008  0.6948  0.4593
10178SOL    HW232019   3.511   2.773   2.048 -0.4569 -1.4763 -1.1190
10179SOL     OW32020   0.764   1.152   1.588  0.3012 -0.0461  0.0068
10179SOL    HW132021   0.694   1.098   1.550  0.1264 -0.3346  0.7394
10179SOL    HW232022   0.719   1.214   1.645  0.5287  0.6928 -0.6052
10180SOL     OW32023   3.635   5.592   4.197  0.1374 -0.2696 -0.0282
10180SOL    HW132024   3.562   5.550   4.153  0.0874 -0.0820 -0.1238
10180SOL    HW232025   3.710   5.534   4.180 -0.2733 -1.2017  1.2573
10181SOL     OW32026   4.898   0.320   7.675 -0.1660 -0.0269 -0.6579
10181SOL    HW132027   4.993   0.307   7.674 -0.0593  0.7156 -1.7095
10181SOL    HW232028   4.880   0.364   7.758  0.2330 -1.3617  0.1406
10182SOL     OW32029   6.673   4.636   1.342  0.0210  0.6459 -0.3385
10182SOL    HW132030   6.643   4.553   1.305 -0.5160  1.4902 -1.8767
10182SOL    HW232031   6.604   4.661   1.404 -0.5650  0.6702 -0.9868
10183SOL     OW32032   7.207   6.827   1.768  0.0820 -0.2868 -0.2245
10183SOL    HW132033   7.168   6.812   1.682 -0.1251  1.8009 -0.5219
10183SOL    HW232034   7.134   6.820   1.829  0.1767 -1.4804 -0.2413
10184SOL     OW32035   3.160   3.959   3.987 -0.6608  0.0231 -0.0378
10184SOL    HW132036   3.202   3.899   3.925  1.5409  2.0557 -0.5653
10184SOL    HW232037   3.160   3.911   4.069  0.1415 -1.1348 -0.6915
10185SOL     OW32038   7.207   7.112   0.719  0.0815  0.0195  0.1112
10185SOL    HW132039   7.154   7.166   0.660 -1.1615 -0.8244  0.4449
10185SOL    HW232040   7.250   7.175   0.777  0.1420  0.7612 -0.7265
10186SOL     OW32041   2.666   1.471   6.856 -0.1477  0.2241 -0.3329
10186SOL    HW132042   2.703   1.389   6.888 -2.5394 -1.3751 -1.4578
10186SOL    HW232043   2.577   1.472   6.892  0.4972  3.3581  1.3521
10187SOL     OW32044   7.203   6.810   2.840 -0.1771  0.0848  0.7260
10187SOL    HW132045   7.197   6.882   2.902  0.0650  1.0434 -0.3429
10187SOL    HW232046   7.273   6.835   2.780 -0.4926 -0.7545 -0.0124
10188SOL     OW32047   0.544   4.008   5.641 -0.7306  0.1181 -0.1535
10188SOL    HW132048   0.612   3.983   5.579 -1.2495  0.6223 -0.9290
10188SOL    HW232049   0.581   3.989   5.727  0.1527 -0.1798 -0.6041
10189SOL     OW32050   6.389   4.473   7.276 -0.7385 -0.2099 -0.0553
10189SOL    HW132051   6.432   4.556   7.295  3.9375 -2.5640  0.4483
10189SOL    HW232052   6.300   4.484   7.307  0.7433  3.4317  3.3098
10190SOL     OW32053   3.334   1.325   6.690 -0.1301  0.5856  0.1281
10190SOL    HW132054   3.337   1.400   6.631 -0.2925  0.1755 -0.4103
10190SOL    HW232055   3.412   1.334   6.745  0.5294  0.4741 -0.7753
10191SOL     OW32056   5.883   2.203   1.453  0.7547 -0.1112 -0.0021
10191SOL    HW132057   5.875   2.174   1.543 -0.6657 -1.5009 -0.5519
10191SOL    HW232058   5.971   2.174   1.426 -0.5470 -3.9178 -0.4797
10192SOL     OW32059   5.401   6.236   5.286 -0.5298 -0.1082  0.0512
10192SOL    HW132060   5.472   6.282   5.330  0.7830 -1.8809 -0.1351
10192SOL    HW232061   5.423   6.143   5.297 -1.6956 -0.6270 -1.8515
10193SOL     OW32062   5.969   7.479   3.147  0.5993  0.1945  0.4313
10193SOL    HW132063   5.996   7.565   3.115  0.0604  0.1782 -0.0678
10193SOL    HW232064   5.961   7.490   3.242 -1.7730  1.3565  0.1495
10194SOL     OW32065   7.852   1.961   7.485 -0.3678  0.2895 -0.4305
10194SOL    HW132066   7.841   1.888   7.546  1.9048  1.1060  1.0047
10194SOL    HW232067   7.815   1.929   7.403 -3.2319 -0.9562  1.2481
10195SOL     OW32068   0.993   6.428   2.968 -0.1215 -0.2571 -0.2591
10195SOL    HW132069   0.931   6.442   3.041 -0.8681  1.6809 -1.2248
10195SOL    HW232070   1.056   6.365   3.002 -1.2150 -0.3787  1.6215
10196SOL     OW32071   6.583   0.249   3.452 -0.0340 -0.4154  0.1816
10196SOL    HW132072   6.576   0.270   3.359  1.2662  0.3986  0.2550
10196SOL    HW232073   6.589   0.154   3.454  2.1930 -0.3424 -0.7556
10197SOL     OW32074   6.976   5.729   2.941 -0.4081 -0.3061 -0.1544
10197SOL    HW132075   6.957   5.672   2.867  1.6570  1.2589 -1.9297
10197SOL    HW232076   7.069   5.750   2.933 -0.7762  2.1054  1.3137
10198SOL     OW32077   4.681   0.628   5.572  0.9778  0.0629  0.1413
10198SOL    HW132078   4.645   0.707   5.613 -1.2315 -0.8212  0.0307
10198SOL    HW232079   4.703   0.654   5.483 -2.2789 -0.0279 -0.7663
10199SOL     OW32080   5.130   0.843   7.401 -0.4644  0.1152  0.3901
10199SOL    HW132081   5.039   0.835   7.373  0.0151 -0.1441 -1.1281
10199SOL    HW232082   5.131   0.804   7.489 -1.9351  0.6950  0.6773
10200SOL     OW32083   4.652   8.270   4.724  0.3446 -0.4119  0.0381
10200SOL    HW132084   4.725   8.315   4.683  0.0359  0.8426  0.8371
10200SOL    HW232085   4.659   8.292   4.817 -1.3987  0.2300  0.0335
10201SOL     OW32086   7.451   2.344   4.847 -0.2603  0.3104 -0.2919
10201SOL    HW132087   7.359   2.345   4.872 -0.9547 -0.3462 -2.6868
10201SOL    HW232088   7.493   2.403   4.909 -2.3795  1.0262  0.5112
10202SOL     OW32089   3.709   4.957   1.150 -0.3236 -0.3658 -0.2768
10202SOL    HW132090   3.773   5.026   1.165 -2.3780  1.3405  0.9018
10202SOL    HW232091   3.624   5.000   1.160 -1.6578 -3.1230  0.8507
10203SOL     OW32092   0.843   4.460   0.981 -0.2928  0.4412 -0.5113
10203SOL    HW132093   0.935   4.456   1.009 -0.0792 -0.1874 -1.2587
10203SOL    HW232094   0.848   4.465   0.885 -1.0746 -0.9564 -0.6287
10204SOL     OW32095   3.579   3.403   0.943 -0.6517 -0.0863  0.0445
10204SOL    HW132096   3.546   3.321   0.978 -0.0519  0.2711  1.4606
10204SOL    HW232097   3.670   3.408   0.973 -0.3193  0.5337 -1.0129
10205SOL     OW32098   1.123   0.684   2.296  0.4729 -0.7380 -0.0161
10205SOL    HW132099   1.112   0.639   2.212  0.5942 -1.4836  0.3615
10205SOL    HW232100   1.094   0.773   2.279  0.1705 -0.9720 -0.7664
10206SOL     OW32101   8.226   1.568   6.878  0.0526  0.5419 -0.2678
10206SOL    HW132102   8.165   1.518   6.825  1.3473 -0.7228 -0.5943
10206SOL    HW232103   8.247   1.511   6.952 -0.2029  1.5020  0.5682
10207SOL     OW32104   2.969   8.089   2.926  0.4888  0.1094  0.1258
10207SOL    HW132105   3.018   8.016   2.966  1.3636  0.4506 -0.3122
10207SOL    HW232106   2.985   8.080   2.832  0.5389  0.8188  0.0629
10208SOL     OW32107   4.309   1.255   1.338 -0.0164 -0.6437  0.2406
10208SOL    HW132108   4.288   1.348   1.350  0.5337 -0.5399  0.4179
10208SOL    HW232109   4.390   1.255   1.287  0.3668 -1.0060  0.8317
10209SOL     OW32110   1.551   3.981   0.405  0.8116  0.2980  0.0522
10209SOL    HW132111   1.610   3.969   0.330  1.2586  2.1876  0.0848
10209SOL    HW232112   1.485   4.043   0.373  0.4247  0.3246  0.9104
10210SOL     OW32113   5.120   4.682   0.347 -0.9274  0.2471 -0.4618
10210SOL    HW132114   5.116   4.770   0.309 -0.6510  0.5481  0.2108
10210SOL    HW232115   5.100   4.624   0.273 -2.5271  0.9325 -0.6031
10211SOL     OW32116   0.426   6.376   0.591  0.5275 -0.5503 -0.6001
10211SOL    HW132117   0.519   6.381   0.571  0.6257 -2.1534 -0.6674
10211SOL    HW232118   0.421   6.375   0.686  0.4440  1.4202 -0.5752
10212SOL     OW32119   1.858   2.073   0.153 -0.1596 -0.3093 -0.3476
10212SOL    HW132120   1.906   2.010   0.207 -0.2716 -0.4807 -0.4472
10212SOL    HW232121   1.767   2.064   0.181 -0.3978 -1.2656 -1.4112
10213SOL     OW32122   0.835   1.898   1.242 -0.0751 -0.6732  0.2432
10213SOL    HW132123   0.901   1.919   1.309  0.5602 -3.0002  0.3662
10213SOL    HW232124   0.786   1.980   1.231  1.3141  0.4112  1.8594
10214SOL     OW32125   2.520   5.716   5.576  0.0585 -0.0214 -0.0664
10214SOL    HW132126   2.613   5.733   5.564 -0.1042  0.4588 -0.6773
10214SOL    HW232127   2.504   5.735   5.669  0.4808  0.3292 -0.0631
10215SOL     OW32128   6.827   1.242   0.528 -0.2555  0.0841  0.0840
10215SOL    HW132129   6.814   1.191   0.448 -1.4260 -0.5861  0.6705
10215SOL    HW232130   6.768   1.317   0.518 -0.2930  0.0759  0.2390
10216SOL     OW32131   0.858   2.004   0.166  0.0415  0.1113 -0.0325
10216SOL    HW132132   0.909   2.079   0.136  0.4631 -0.8175 -1.6527
10216SOL    HW232133   0.912   1.928   0.147 -0.0554 -0.5945  2.2879
10217SOL     OW32134   4.537   1.185   0.904  0.6509 -0.1516  0.1726
10217SOL    HW132135   4.619   1.193   0.856  0.3474  2.7217  0.0345
10217SOL    HW232136   4.477   1.244   0.859 -1.2914 -1.6628  0.7115
10218SOL     OW32137   7.052   1.677   6.477  0.1900 -0.2340 -0.3598
10218SOL    HW132138   7.110   1.616   6.431  1.4033  0.3817  0.3015
10218SOL    HW232139   7.085   1.764   6.454 -1.7525  0.2057 -1.5825
10219SOL     OW32140   4.560   1.292   0.057 -0.5054  0.3644  0.0129
10219SOL    HW132141   4.588   1.203   0.079  0.7190  0.3730 -1.4240
10219SOL    HW232142   4.624   1.322  -0.008 -0.1531  2.7823  1.4074
10220SOL     OW32143   5.785   5.916   7.961 -0.0577 -0.4392 -0.2832
10220SOL    HW132144   5.699   5.879   7.940  0.1467 -0.9980 -0.1519
10220SOL    HW232145   5.782   5.931   8.055  0.2137 -1.0738 -0.1655
10221SOL     OW32146   5.112   3.147   2.943  0.2133 -0.4249 -0.0596
10221SOL    HW132147   5.120   3.098   3.025  1.6807  2.3023  1.5071
10221SOL    HW232148   5.154   3.091   2.878  0.7415 -1.8123  1.4167
10222SOL     OW32149   8.031   2.546   4.516  0.0121 -0.2540  0.8193
10222SOL    HW132150   8.066   2.569   4.602 -0.3847  2.1179  0.3874
10222SOL    HW232151   8.106   2.515   4.466  0.2339 -1.7193  2.0143
10223SOL     OW32152   1.402   8.114   4.776 -0.3534  0.0619 -0.1579
10223SOL    HW132153   1.465   8.050   4.809 -1.9498 -1.2148  0.4956
10223SOL    HW232154   1.376   8.163   4.853  1.3942  2.0177 -0.7718
10224SOL     OW32155   5.644   1.446   4.769 -0.1517  0.6315 -0.1362
10224SOL    HW132156   5.713   1.486   4.822 -1.1884  2.2310  0.0568
10224SOL    HW232157   5.634   1.504   4.694 -0.9886  0.1959 -0.3745
10225SOL     OW32158   0.699   0.607   3.468 -0.0217  0.3334 -0.0835
10225SOL    HW132159   0.773   0.604   3.529 -0.6285  1.1064  0.6987
10225SOL    HW232160   0.739   0.593   3.382  1.1044  1.2616  0.2766
10226SOL     OW32161   0.613   4.366   4.507 -0.1195  0.0430 -0.0508
10226SOL    HW132162   0.536   4.364   4.565 -0.0404 -1.8012 -0.0017
10226SOL    HW232163   0.676   4.422   4.553 -1.4037  1.5550 -0.0739
10227SOL     OW32164   0.980   1.135   7.899 -0.2123  0.1137 -0.2650
10227SOL    HW132165   0.920   1.105   7.830 -1.5953  0.7469  0.6431
10227SOL    HW232166   0.988   1.059   7.957  0.2483 -0.1208 -0.6240
10228SOL     OW32167   1.336   4.162   1.751  0.3432 -0.2702  1.0494
10228SOL    HW132168   1.409   4.168   1.813  1.6931  1.2342 -0.6329
10228SOL    HW232169   1.277   4.233   1.777  0.7676  0.1801  0.7790
10229SOL     OW32170   1.780   7.988   5.876 -0.2866  0.2931  0.8064
10229SOL    HW132171   1.873   8.010   5.870  0.1076 -1.0855  1.6773
10229SOL    HW232172   1.735   8.063   5.836  1.2540  0.3013 -0.9871
10230SOL     OW32173   2.820   3.612   0.317 -0.3122 -0.4318 -0.0818
10230SOL    HW132174   2.872   3.565   0.252 -0.6969  0.8680 -1.3578
10230SOL    HW232175   2.867   3.695   0.329 -0.4359 -0.5222  1.0450
10231SOL     OW32176   0.564   7.148   1.364 -0.3675 -0.2590  0.7477
10231SOL    HW132177   0.654   7.178   1.377 -0.0603 -1.4377  1.3876
10231SOL    HW232178   0.513   7.228   1.356  0.6050  0.4206  1.3286
10232SOL     OW32179   2.318   4.752   1.947 -0.4021 -0.0343  0.2412
10232SOL    HW132180   2.303   4.659   1.965 -1.3884  0.3699  1.5348
10232SOL    HW232181   2.320   4.757   1.851 -0.1171 -1.4183  0.1550
10233SOL     OW32182   5.445   6.444   2.202 -0.1272  0.0875 -0.1006
10233SOL    HW132183   5.501   6.429   2.278 -0.3682  0.2728  0.1172
10233SOL    HW232184   5.454   6.365   2.149  0.3921  0.1451 -0.1023
10234SOL     OW32185   0.067   1.256   1.467  0.5081 -0.4236 -0.0290
10234SOL    HW132186   0.051   1.162   1.460 -0.1565 -0.5215  2.5423
10234SOL    HW232187   0.146   1.262   1.521  1.1610  0.4924 -1.0582
10235SOL     OW32188   4.064   4.675   1.250 -0.1642  0.9592 -0.3314
10235SOL    HW132189   4.098   4.660   1.162  3.2734  2.6176  0.6148
10235SOL    HW232190   3.971   4.692   1.237 -0.0696 -0.5149 -3.4535
10236SOL     OW32191   2.457   1.730   3.548  0.2107 -0.3788 -0.1444
10236SOL    HW132192   2.493   1.793   3.486 -0.6335 -0.6098 -0.8740
10236SOL    HW232193   2.534   1.689   3.587  0.7568  0.4360 -0.3457
10237SOL     OW32194   6.298   4.053   7.095 -0.0072  0.1443 -0.1500
10237SOL    HW132195   6.366   4.119   7.108  0.2837  0.2055 -1.8989
10237SOL    HW232196   6.311   4.022   7.006 -1.6340 -0.5959 -0.1484
10238SOL     OW32197   4.727   4.341   6.053  0.0349 -0.3726 -0.2703
10238SOL    HW132198   4.666   4.267   6.055 -0.2973 -0.1627 -1.6630
10238SOL    HW232199   4.673   4.416   6.030  0.7607 -0.1405 -1.2905
10239SOL     OW32200   4.905   7.569   2.889 -0.3919  0.6340  0.2633
10239SOL    HW132201   4.888   7.663   2.880  1.1143  0.8760 -0.1084
10239SOL    HW232202   4.933   7.541   2.802  1.5171  0.3322  0.9615
10240SOL     OW32203   7.888   6.278   0.466  0.3328 -0.1831 -0.0855
10240SOL    HW132204   7.903   6.292   0.372 -2.7244 -2.2804 -0.9706
10240SOL    HW232205   7.939   6.199   0.486  0.4986 -0.0880 -0.1293
10241SOL     OW32206   1.236   5.176   6.694  0.2842  0.3447  0.3464
10241SOL    HW132207   1.233   5.154   6.601  0.3390  2.3947 -0.1625
10241SOL    HW232208   1.296   5.250   6.699 -1.3806  1.6420  1.6963
10242SOL     OW32209   6.538   0.304   1.353  0.3274 -0.6166 -0.1975
10242SOL    HW132210   6.454   0.348   1.365  1.0230  0.6495  0.1159
10242SOL    HW232211   6.541   0.282   1.260  0.8545  1.8944 -0.8184
10243SOL     OW32212   0.572   0.147   1.441 -0.1939  0.0395 -0.8494
10243SOL    HW132213   0.582   0.054   1.425  2.5516  0.2471 -0.5762
10243SOL    HW232214   0.512   0.153   1.516 -1.2998 -1.4328 -1.6033
10244SOL     OW32215   5.073   6.275   7.309 -0.2528  0.9912 -0.2485
10244SOL    HW132216   5.084   6.238   7.397 -1.4364  0.4238 -0.3208
10244SOL    HW232217   4.993   6.328   7.316  0.6650  2.4188 -0.5151
10245SOL     OW32218   2.807   2.867   4.768  0.5264  0.0467  0.2624
10245SOL    HW132219   2.832   2.775   4.759  2.6060  0.5232  1.0986
10245SOL    HW232220   2.711   2.864   4.778  0.2934 -1.8407 -2.0358
10246SOL     OW32221   3.832   3.432   0.282 -0.1651 -0.8266  0.1699
10246SOL    HW132222   3.787   3.350   0.259  0.1009 -1.0856  0.5611
10246SOL    HW232223   3.924   3.416   0.258 -0.2400 -0.3904 -0.3988
10247SOL     OW32224   2.023   4.984   1.247 -0.2169  0.6478  0.5336
10247SOL    HW132225   1.943   4.989   1.301 -2.6472 -1.9393 -2.6179
10247SOL    HW232226   2.067   5.067   1.263 -3.3032  1.9972  2.7237
10248SOL     OW32227   7.128   1.643   4.769 -0.7342 -0.2486 -0.4791
10248SOL    HW132228   7.210   1.593   4.765 -0.9276 -0.5920 -0.1975
10248SOL    HW232229   7.117   1.662   4.862 -0.1749  1.1323 -0.6893
10249SOL     OW32230   3.350   3.808   6.224  0.7120  0.7949  0.4980
10249SOL    HW132231   3.380   3.746   6.157  0.1868  0.9972  0.0683
10249SOL    HW232232   3.427   3.821   6.280  1.6659  1.8422 -0.9882
10250SOL     OW32233   0.886   0.838   5.009  0.3415 -0.0079  0.1733
10250SOL    HW132234   0.855   0.758   5.051 -0.1362 -0.5205 -1.1379
10250SOL    HW232235   0.951   0.807   4.946 -2.4320  0.2512 -2.9151
10251SOL     OW32236   3.191   2.957   4.480  0.2811 -0.0705  0.7887
10251SOL    HW132237   3.286   2.964   4.479  0.3385 -0.6826  1.2653
10251SOL    HW232238   3.160   3.047   4.490  0.8455  0.0097  2.0128
10252SOL     OW32239   3.059   5.067   6.040 -0.0294 -0.4542  0.2639
10252SOL    HW132240   3.069   5.078   6.135 -2.2503  0.5500  0.4150
10252SOL    HW232241   2.970   5.097   6.022  1.4309  2.4471 -2.6143
10253SOL     OW32242   6.011   2.440   6.957 -0.3043 -0.4609 -0.0735
10253SOL    HW132243   6.003   2.511   7.020  0.0286  0.6351 -1.2359
10253SOL    HW232244   6.084   2.388   6.989 -0.8744 -0.5856  1.0651
10254SOL     OW32245   0.159   4.369   8.240  0.2805  0.3565 -0.0678
10254SOL    HW132246   0.255   4.369   8.235  0.2204 -1.0944 -1.4865
10254SOL    HW232247   0.130   4.386   8.151 -0.7810 -2.0270 -0.2111
10255SOL     OW32248   5.305   4.865   7.461 -0.3153  0.0039 -0.5615
10255SOL    HW132249   5.331   4.921   7.534  1.5694  0.3482 -1.4604
10255SOL    HW232250   5.262   4.925   7.399 -3.4985 -0.5902  0.9891
10256SOL     OW32251   1.761   4.526   1.075  0.2670  0.4284  0.0456
10256SOL    HW132252   1.676   4.550   1.113  0.0383 -2.9884  1.8250
10256SOL    HW232253   1.820   4.518   1.150  1.6159  0.5184 -0.9793
10257SOL     OW32254   7.760   4.775   3.727  0.3408  0.0264  0.2477
10257SOL    HW132255   7.839   4.720   3.732 -0.1143 -0.6319  0.2252
10257SOL    HW232256   7.715   4.759   3.810  0.3333  0.5707  0.3520
10258SOL     OW32257   8.050   3.040   3.618 -0.3029  0.2276  0.3496
10258SOL    HW132258   8.130   2.988   3.622  0.2029  0.8656 -1.1880
10258SOL    HW232259   8.013   3.020   3.532 -0.9332  1.2084  0.3905
10259SOL     OW32260   1.543   5.932   5.274  0.4355 -0.1463 -0.7066
10259SOL    HW132261   1.636   5.952   5.260  0.0167  0.5109 -2.6230
10259SOL    HW232262   1.523   5.974   5.358  2.2827 -1.7807  0.6257
10260SOL     OW32263   8.002   2.494   3.715  0.1010 -0.4897 -0.0011
10260SOL    HW132264   8.016   2.439   3.638  1.0741 -1.4864  0.8852
10260SOL    HW232265   8.085   2.492   3.762 -0.2310  0.7808  0.6645
10261SOL     OW32266   5.643   7.968   4.333 -0.1764  0.0955 -0.6402
10261SOL    HW132267   5.554   7.957   4.298 -0.5677 -0.7692  0.5817
10261SOL    HW232268   5.699   7.920   4.273 -0.8133 -1.1845 -0.2264
10262SOL     OW32269   7.249   3.095   7.773  0.9718 -0.4232  0.2022
10262SOL    HW132270   7.295   3.146   7.840  2.0615 -1.4640  0.2616
10262SOL    HW232271   7.161   3.083   7.808  0.1860  2.7643 -0.5242
10263SOL     OW32272   4.595   4.168   3.453  0.6857 -0.1459 -0.3617
10263SOL    HW132273   4.536   4.093   3.461  2.1817 -1.3564 -0.4680
10263SOL    HW232274   4.587   4.195   3.361 -2.4769  2.0605  0.4877
10264SOL     OW32275   7.902   0.255   6.938  0.1130 -0.6495  0.3873
10264SOL    HW132276   7.899   0.292   6.850  1.8612 -1.2420  0.0583
10264SOL    HW232277   7.857   0.171   6.930  0.6019 -0.8756 -0.0466
10265SOL     OW32278   1.094   3.750   7.072  0.4065 -0.5542  0.6751
10265SOL    HW132279   1.120   3.662   7.101 -0.1274 -0.4457  1.4904
10265SOL    HW232280   1.177   3.792   7.048  0.4160 -2.3578 -2.8045
10266SOL     OW32281   0.920   6.024   6.358 -0.5505 -0.2511 -0.7383
10266SOL    HW132282   0.987   5.960   6.384 -0.4064  0.2328  0.0920
10266SOL    HW232283   0.862   5.976   6.299  0.4515 -0.7168 -1.3544
10267SOL     OW32284   1.220   0.192   3.255  0.6263  0.0262 -0.1182
10267SOL    HW132285   1.211   0.279   3.217 -2.3777  0.0484  0.5712
10267SOL    HW232286   1.231   0.207   3.348  2.8085 -0.2565 -0.3004
10268SOL     OW32287   6.653   0.950   6.651 -0.3166 -0.1947  0.2731
10268SOL    HW132288   6.643   1.023   6.590  1.1347  0.0230  0.2803
10268SOL    HW232289   6.734   0.969   6.698 -0.0310 -1.7093  0.4192
10269SOL     OW32290   6.445   6.416   6.950  0.3589 -0.0304 -0.4837
10269SOL    HW132291   6.479   6.423   7.039  0.2301 -2.0937 -0.2424
10269SOL    HW232292   6.522   6.394   6.897  0.3240  0.5676 -0.7801
10270SOL     OW32293   7.236   4.844   2.917 -0.1075  0.0462 -0.0471
10270SOL    HW132294   7.304   4.827   2.982 -0.0959 -0.1047 -0.0965
10270SOL    HW232295   7.210   4.756   2.888 -1.4291  0.0299  1.1205
10271SOL     OW32296   4.836   3.214   6.662 -0.0664 -0.5005  0.0730
10271SOL    HW132297   4.868   3.291   6.709 -0.6499 -1.0896  1.4598
10271SOL    HW232298   4.892   3.142   6.692 -0.5841 -0.9246  0.0216
10272SOL     OW32299   3.492   5.764   8.060 -0.4569 -0.3280 -0.0504
10272SOL    HW132300   3.556   5.754   7.989 -1.5150 -3.4389 -0.6274
10272SOL    HW232301   3.537   5.732   8.138  0.4362  2.3769  0.6127
10273SOL     OW32302   0.263   3.643   0.233 -0.1326 -0.1387 -0.3882
10273SOL    HW132303   0.337   3.698   0.208  0.7831 -0.8788  0.6568
10273SOL    HW232304   0.188   3.703   0.237  0.7026  0.8812  0.0188
10274SOL     OW32305   3.929   1.462   5.286 -0.1203  0.3757 -0.3632
10274SOL    HW132306   3.883   1.427   5.209 -1.5574  1.4954 -0.0324
10274SOL    HW232307   3.892   1.549   5.298  0.1839  0.2622  1.5345
10275SOL     OW32308   7.722   8.077   2.801 -0.6424 -0.6754  0.1104
10275SOL    HW132309   7.694   7.987   2.819 -0.2668 -0.6778  0.7075
10275SOL    HW232310   7.668   8.104   2.727  0.3346 -1.9411 -1.1059
10276SOL     OW32311   5.965   8.153   1.088  0.5179 -0.5166 -0.0910
10276SOL    HW132312   6.023   8.228   1.076  0.6661 -0.4959  0.7012
10276SOL    HW232313   5.942   8.126   1.000 -0.4869  1.2037 -0.3881
10277SOL     OW32314   1.181   6.948   8.016  0.3087  0.0670 -0.3341
10277SOL    HW132315   1.129   6.909   8.086  0.6147  0.1029 -0.0838
10277SOL    HW232316   1.184   6.880   7.948 -0.5090  0.2691 -0.5767
10278SOL     OW32317   6.221   6.836   3.957  0.0225 -0.6591 -0.2723
10278SOL    HW132318   6.172   6.763   3.996  0.2586 -1.0839 -0.7579
10278SOL    HW232319   6.242   6.806   3.868  1.3672 -0.5828  0.0063
10279SOL     OW32320   6.794   7.602   6.238 -0.1458  0.1207 -0.0493
10279SOL    HW132321   6.781   7.557   6.154 -0.4629  2.0130 -1.0327
10279SOL    HW232322   6.843   7.681   6.216 -0.6590  0.8917  1.4793
10280SOL     OW32323   3.494   1.857   3.248  0.2708 -0.1212 -0.3498
10280SOL    HW132324   3.500   1.763   3.266  1.0259  0.0079  0.0520
10280SOL    HW232325   3.584   1.888   3.247  0.0762  0.4433 -1.3372
10281SOL     OW32326   7.010   4.920   2.823  0.1806  0.2100 -0.3282
10281SOL    HW132327   7.028   4.954   2.735 -0.3191 -3.1776 -1.8337
10281SOL    HW232328   7.091   4.876   2.848 -0.9500 -2.2918 -0.8660
10282SOL     OW32329   2.722   6.409   5.536  0.4552  0.2971  0.9674
10282SOL    HW132330   2.635   6.449   5.537  0.0851 -0.5012  2.9758
10282SOL    HW232331   2.782   6.484   5.533 -0.2838  0.8836  0.6125
10283SOL     OW32332   7.715   1.224   6.689  0.3252  0.3086 -0.5299
10283SOL    HW132333   7.633   1.271   6.672  0.3282  0.3169 -0.5227
10283SOL    HW232334   7.751   1.206   6.603 -0.4452 -1.0213 -0.5802
10284SOL     OW32335   6.927   6.642   3.237  0.0956  0.5900  0.1101
10284SOL    HW132336   6.878   6.568   3.272  0.9110  0.4109  0.9162
10284SOL    HW232337   6.977   6.605   3.164 -1.3487  0.8886 -1.0556
10285SOL     OW32338   2.283   1.250   3.302  0.0046  0.2014  0.3232
10285SOL    HW132339   2.220   1.311   3.262  1.8940  1.6693 -0.5479
10285SOL    HW232340   2.317   1.298   3.377  0.8182 -0.1677  0.1873
10286SOL     OW32341   0.376   6.618   6.948  0.1241  0.0094 -0.7693
10286SOL    HW132342   0.373   6.596   7.041 -2.4263  0.2404 -0.7593
10286SOL    HW232343   0.341   6.707   6.942  0.5541  0.1198 -1.9126
10287SOL     OW32344   6.305   3.489   6.575  0.6695 -0.3221 -0.3838
10287SOL    HW132345   6.237   3.516   6.636  0.9658 -0.7506  0.1406
10287SOL    HW232346   6.352   3.419   6.620  0.5754 -1.0012 -1.3052
10288SOL     OW32347   3.649   6.439   4.517  0.4890 -0.3680  0.3822
10288SOL    HW132348   3.555   6.435   4.501  0.5890  0.3242 -0.3598
10288SOL    HW232349   3.687   6.465   4.434  1.3922 -1.2070  0.5249
10289SOL     OW32350   8.249   1.212   4.522  0.6454 -0.0357  0.9959
10289SOL    HW132351   8.333   1.176   4.552  1.4640  1.1514  0.2278
10289SOL    HW232352   8.274   1.290   4.471 -0.9730  0.7336  1.3485
10290SOL     OW32353   4.477   3.269   6.906 -0.0186 -0.5051  0.6360
10290SOL    HW132354   4.444   3.345   6.952  1.1350  0.3863  0.0202
10290SOL    HW232355   4.543   3.232   6.964  2.7678  1.6912 -1.0301
10291SOL     OW32356   0.966   0.248   5.478 -0.2800  0.1558  0.5729
10291SOL    HW132357   1.037   0.198   5.436 -0.9244  0.3467 -0.7674
10291SOL    HW232358   0.949   0.320   5.418 -1.5236  0.1932  0.9567
10292SOL     OW32359   8.128   2.286   0.534 -0.5497  0.6958 -0.1405
10292SOL    HW132360   8.201   2.264   0.476 -1.2042  1.5432 -1.3088
10292SOL    HW232361   8.169   2.334   0.606  0.0030  1.4726 -0.9619
10293SOL     OW32362   2.618   1.595   2.834  0.0420 -0.1058  0.2862
10293SOL    HW132363   2.661   1.521   2.876 -0.7125 -0.3686  0.6054
10293SOL    HW232364   2.556   1.555   2.773  1.2413  0.2667 -1.2256
10294SOL     OW32365   8.096   3.350   2.483 -0.1692 -0.0641  0.0926
10294SOL    HW132366   8.186   3.373   2.503 -0.4970 -0.7581  2.4154
10294SOL    HW232367   8.043   3.417   2.526 -0.9094 -2.0187  2.3394
10295SOL     OW32368   4.665   6.121   1.474  0.3009 -0.0192 -0.5676
10295SOL    HW132369   4.721   6.196   1.497 -1.1974  1.0204 -0.2612
10295SOL    HW232370   4.590   6.160   1.430 -0.0691 -1.4407 -1.2285
10296SOL     OW32371   3.555   7.569   7.461 -0.2389 -0.2237  0.0922
10296SOL    HW132372   3.603   7.490   7.487 -1.2919 -0.2866  1.8983
10296SOL    HW232373   3.579   7.634   7.526 -1.4762  0.1638  0.1712
10297SOL     OW32374   4.329   6.778   5.648 -0.3761  0.0125  0.1650
10297SOL    HW132375   4.355   6.781   5.740 -0.2189 -0.2666  0.1319
10297SOL    HW232376   4.397   6.725   5.606  1.1675  2.5149 -0.6368
10298SOL     OW32377   4.331   4.187   3.681 -0.8253  0.2749 -0.1711
10298SOL    HW132378   4.347   4.218   3.770  0.1305 -0.6524 -0.0074
10298SOL    HW232379   4.385   4.244   3.626 -1.7344  1.1172 -0.2131
10299SOL     OW32380   5.700   7.288   7.134  0.5598  0.3218 -0.0864
10299SOL    HW132381   5.696   7.345   7.058  1.3009 -0.7111 -0.9097
10299SOL    HW232382   5.612   7.251   7.141  0.8067 -0.4840 -1.1490
10300SOL     OW32383   6.182   5.678   4.923 -0.1113  0.2203  0.1677
10300SOL    HW132384   6.117   5.729   4.875  1.3556  0.7910 -1.2347
10300SOL    HW232385   6.258   5.735   4.931  1.4396 -1.5756 -1.1495
10301SOL     OW32386   4.640   5.305   6.439  0.0118  0.0798 -0.1864
10301SOL    HW132387   4.714   5.327   6.495 -0.4800  0.2982  0.3915
10301SOL    HW232388   4.666   5.225   6.393  1.3275  1.1608 -1.3606
10302SOL     OW32389   4.398   3.225   8.282  0.5617  0.0965 -0.3052
10302SOL    HW132390   4.324   3.247   8.340 -0.0530 -0.4356 -0.8747
10302SOL    HW232391   4.391   3.130   8.269 -0.3608  0.4495 -2.6392
10303SOL     OW32392   5.818   3.338   5.224  0.0754 -0.2762  0.2555
10303SOL    HW132393   5.744   3.355   5.283  0.5466  0.8545  0.5395
10303SOL    HW232394   5.894   3.375   5.270  0.7023 -0.7693 -0.3711
10304SOL     OW32395   2.860   8.066   4.909  0.4449 -0.0510 -0.4775
10304SOL    HW132396   2.819   8.086   4.993  0.4820  0.3368 -0.5502
10304SOL    HW232397   2.813   7.989   4.877 -0.0135  0.2050 -0.4159
10305SOL     OW32398   5.033   3.422   5.250 -0.9085 -0.7270 -0.0531
10305SOL    HW132399   4.987   3.357   5.197  0.6052  0.1528 -2.4831
10305SOL    HW232400   4.969   3.445   5.318 -2.4165 -2.8062 -0.6932
10306SOL     OW32401   3.696   5.122   2.591 -0.5802 -0.3353  0.5268
10306SOL    HW132402   3.756   5.185   2.629 -1.3217 -1.0568  2.9675
10306SOL    HW232403   3.633   5.175   2.542  0.0351  0.6593  0.8021
10307SOL     OW32404   4.753   2.390   5.538 -0.0401  0.1370 -0.2215
10307SOL    HW132405   4.680   2.449   5.521  0.4622  0.5736 -0.8877
10307SOL    HW232406   4.822   2.446   5.573  0.2882 -0.1184 -0.4460
10308SOL     OW32407   3.557   0.669   1.499  0.2918 -0.1767 -0.6233
10308SOL    HW132408   3.564   0.627   1.585  1.2138  0.7213 -0.2399
10308SOL    HW232409   3.475   0.637   1.463  0.4202 -1.3992  0.1445
10309SOL     OW32410   6.663   1.688   3.878  0.0209 -0.3351  0.3183
10309SOL    HW132411   6.679   1.603   3.919  1.7634 -0.0655  0.2675
10309SOL    HW232412   6.602   1.670   3.807  1.0532 -1.7186 -0.2442
10310SOL     OW32413   6.328   3.409   7.177  0.2862  0.0929 -0.3763
10310SOL    HW132414   6.344   3.364   7.094 -0.7693 -0.0217 -0.5177
10310SOL    HW232415   6.240   3.444   7.169 -0.3435 -1.0796  1.2460
10311SOL     OW32416   8.061   0.504   4.451  0.2483  0.0399  0.8574
10311SOL    HW132417   8.102   0.443   4.390 -0.5473 -1.4615  1.8172
10311SOL    HW232418   8.132   0.530   4.509  0.7680  0.6593 -0.0353
10312SOL     OW32419   4.648   7.240   0.790 -1.1284  0.2181  0.3671
10312SOL    HW132420   4.554   7.228   0.796 -0.9250 -1.1368  0.9864
10312SOL    HW232421   4.676   7.259   0.879 -0.8439  0.8213  0.1511
10313SOL     OW32422   7.114   5.821   3.480 -0.6431  0.0672  0.1130
10313SOL    HW132423   7.110   5.917   3.470 -1.4480  0.0926  0.6592
10313SOL    HW232424   7.098   5.806   3.573  1.0866 -0.5081  0.3299
10314SOL     OW32425   1.037   0.873   3.530  0.2891  0.6053 -0.5811
10314SOL    HW132426   1.043   0.875   3.435  0.4206 -3.6093 -0.7530
10314SOL    HW232427   1.118   0.915   3.560  1.6638 -0.6693 -2.3781
10315SOL     OW32428   0.756   1.691   4.222  0.0603  0.2463 -0.3206
10315SOL    HW132429   0.740   1.776   4.181  0.5059  0.1058 -0.7813
10315SOL    HW232430   0.824   1.651   4.169 -0.2026 -0.4320 -0.1493
10316SOL     OW32431   3.065   3.791   1.646  0.0369 -0.1586 -0.1022
10316SOL    HW132432   3.006   3.831   1.710  0.9950  1.3929 -0.1659
10316SOL    HW232433   3.149   3.834   1.661  0.9202 -1.6668 -0.6482
10317SOL     OW32434   6.014   7.659   5.698  0.4140 -0.4880 -0.0086
10317SOL    HW132435   6.025   7.693   5.609 -0.3959  0.6838  0.3353
10317SOL    HW232436   5.977   7.731   5.748  0.1166 -1.3841  1.1064
10318SOL     OW32437   5.499   7.664   7.845 -0.6815 -1.0588 -0.0014
10318SOL    HW132438   5.446   7.744   7.844  0.5502 -0.2320 -0.2523
10318SOL    HW232439   5.482   7.626   7.932  0.9684  1.0278  1.2929
10319SOL     OW32440   5.794   6.342   0.153  0.1125  0.4225  0.1698
10319SOL    HW132441   5.881   6.303   0.144 -0.2302 -0.5506  0.9535
10319SOL    HW232442   5.782   6.393   0.073  1.2422  0.2482 -0.1182
10320SOL     OW32443   3.890   0.296   5.731  0.1524 -0.2421 -0.2744
10320SOL    HW132444   3.841   0.240   5.671 -0.7516 -1.6712  1.7119
10320SOL    HW232445   3.974   0.252   5.741  0.2721 -0.0506 -0.4512
10321SOL     OW32446   6.830   4.405   4.374 -0.6521  0.3877 -0.0297
10321SOL    HW132447   6.855   4.332   4.431 -2.3354 -0.4651 -0.3472
10321SOL    HW232448   6.908   4.422   4.322 -0.7299 -2.3282 -1.1392
10322SOL     OW32449   3.650   4.389   1.917 -0.6004 -0.2182  0.5054
10322SOL    HW132450   3.730   4.400   1.969 -0.3202  0.5004 -0.0580
10322SOL    HW232451   3.619   4.301   1.938  0.4310 -0.5662  0.6074
10323SOL     OW32452   4.811   5.792   2.065 -0.5028 -0.3324 -0.3147
10323SOL    HW132453   4.889   5.745   2.036 -0.6991 -0.4335 -0.6823
10323SOL    HW232454   4.755   5.724   2.103 -0.7714 -0.3973 -0.8147
10324SOL     OW32455   0.367   0.162   7.709 -0.1217 -0.1214 -0.6622
10324SOL    HW132456   0.452   0.119   7.704  0.1413  0.4357 -1.0648
10324SOL    HW232457   0.325   0.125   7.786  2.1137  2.5642  1.9391
10325SOL     OW32458   5.093   7.791   2.278 -0.1777  0.4338  0.6042
10325SOL    HW132459   5.120   7.882   2.280  0.8811  0.1133  0.9551
10325SOL    HW232460   5.008   7.790   2.322  1.0431  0.8490  3.0534
10326SOL     OW32461   5.221   3.492   3.632 -0.5404 -0.5274 -0.2578
10326SOL    HW132462   5.129   3.506   3.654 -0.0081  1.4669  0.8265
10326SOL    HW232463   5.239   3.557   3.564 -0.1052 -1.3593 -0.9362
10327SOL     OW32464   1.586   5.728   7.549 -1.3493 -0.0519  0.2466
10327SOL    HW132465   1.556   5.695   7.634  0.2905  0.5078  1.0641
10327SOL    HW232466   1.566   5.658   7.488 -1.1074 -1.1225  1.3720
10328SOL     OW32467   0.984   7.060   7.458  0.2055 -0.4293 -0.3386
10328SOL    HW132468   1.019   6.972   7.457  0.2284 -0.4294 -3.3775
10328SOL    HW232469   1.034   7.106   7.526  2.9927 -1.6397 -1.5282
10329SOL     OW32470   3.599   5.129   2.117  0.5766  0.4391  0.2836
10329SOL    HW132471   3.694   5.125   2.107  0.5966 -0.0975  0.6593
10329SOL    HW232472   3.585   5.119   2.211  0.2579  2.5784  0.4948
10330SOL     OW32473   6.397   6.726   6.972 -0.3594 -0.7333 -0.3236
10330SOL    HW132474   6.415   6.658   6.907  1.5406 -0.9599  0.3862
10330SOL    HW232475   6.330   6.687   7.029  2.0359 -2.8284  1.1856
10331SOL     OW32476   6.279   7.403   4.192 -0.6390 -0.7442  0.2231
10331SOL    HW132477   6.317   7.344   4.126 -1.0385 -0.1063 -0.5917
10331SOL    HW232478   6.202   7.357   4.224 -1.3189 -0.4081 -0.8794
10332SOL     OW32479   5.517   0.390   1.496 -0.6305 -0.2844 -0.3713
10332SOL    HW132480   5.514   0.484   1.513  1.7728 -0.2094 -0.2020
10332SOL    HW232481   5.520   0.350   1.583 -3.1938 -0.6193 -0.4045
10333SOL     OW32482   6.560   0.901   5.421 -0.6515  0.3321  0.2228
10333SOL    HW132483   6.546   0.994   5.404  1.4809  0.6344  0.0098
10333SOL    HW232484   6.594   0.897   5.510  0.5364 -0.1100 -0.2371
10334SOL     OW32485   2.992   2.770   7.150  0.4772 -0.2887  0.2177
10334SOL    HW132486   3.075   2.815   7.165  0.8548 -0.9997  0.2904
10334SOL    HW232487   2.931   2.839   7.124  0.9704  0.3055  0.6316
10335SOL     OW32488   3.993   0.369   3.628  0.2208  0.0728 -0.0801
10335SOL    HW132489   3.962   0.321   3.552 -2.1644  0.3148  0.7018
10335SOL    HW232490   4.021   0.453   3.594 -1.8326  0.5755 -0.5700
10336SOL     OW32491   3.330   4.130   7.412  0.2504 -0.1679  0.3109
10336SOL    HW132492   3.402   4.117   7.474  0.6361 -4.3839 -0.8286
10336SOL    HW232493   3.251   4.112   7.463  0.4656 -1.9432  0.0668
10337SOL     OW32494   1.420   6.335   5.823  0.2254 -0.4614  0.1032
10337SOL    HW132495   1.468   6.288   5.755  0.4540 -0.7475  0.4560
10337SOL    HW232496   1.382   6.410   5.779  0.0171 -0.8785 -0.4325
10338SOL     OW32497   1.533   7.977   1.302 -0.2834  0.5384  0.4914
10338SOL    HW132498   1.544   7.886   1.332 -0.2400  0.2683 -0.3310
10338SOL    HW232499   1.572   8.029   1.372 -1.3896 -0.0125  1.5404
10339SOL     OW32500   6.957   1.608   0.299 -0.3807  0.1923 -0.5293
10339SOL    HW132501   7.015   1.668   0.346 -0.3414 -0.4196  0.2077
10339SOL    HW232502   7.010   1.528   0.288 -0.6520  0.0701 -0.9408
10340SOL     OW32503   2.591   5.096   1.679 -0.7707  0.0113 -0.1985
10340SOL    HW132504   2.629   5.011   1.698  0.9941 -0.1848 -4.0106
10340SOL    HW232505   2.498   5.078   1.661 -1.0926 -0.6090  1.9949
10341SOL     OW32506   7.544   6.677   0.006 -0.2863  0.0870 -0.2717
10341SOL    HW132507   7.591   6.610   0.054  0.0705 -0.2328 -1.0647
10341SOL    HW232508   7.580   6.760   0.038  1.4343 -0.1687 -1.4822
10342SOL     OW32509   1.633   7.996   7.723  0.0295 -0.1418  0.0663
10342SOL    HW132510   1.683   8.055   7.666  0.6855 -0.2390  0.5423
10342SOL    HW232511   1.674   7.910   7.710 -0.4285 -0.3465 -0.0340
10343SOL     OW32512   2.556   3.389   7.658  0.2928  0.2876  0.0512
10343SOL    HW132513   2.605   3.467   7.630 -0.8569  0.4929 -1.5011
10343SOL    HW232514   2.471   3.424   7.686  0.8774 -0.0991  2.3489
10344SOL     OW32515   2.610   1.636   7.785  0.0004 -0.6801 -0.3691
10344SOL    HW132516   2.655   1.635   7.700  0.6293 -2.9279 -0.0320
10344SOL    HW232517   2.655   1.569   7.836 -1.1920 -0.1952  1.3252
10345SOL     OW32518   4.902   7.234   3.322  0.4659  0.3296  0.2601
10345SOL    HW132519   4.894   7.280   3.239 -0.9010 -1.8888 -0.8782
10345SOL    HW232520   4.813   7.212   3.347  0.9640 -0.2129  1.6431
10346SOL     OW32521   1.362   4.176   0.363 -0.0350 -0.0178  0.5470
10346SOL    HW132522   1.399   4.236   0.428 -1.0439 -0.6833  1.7779
10346SOL    HW232523   1.271   4.166   0.390 -0.3447 -0.6583 -0.7274
10347SOL     OW32524   4.267   1.794   1.883 -0.0218 -0.2326  0.7848
10347SOL    HW132525   4.251   1.812   1.975 -1.8514  2.2741  0.0504
10347SOL    HW232526   4.180   1.775   1.847  0.4812  0.1137 -0.6674
10348SOL     OW32527   6.748   6.157   4.436 -0.0450  0.1639 -0.1372
10348SOL    HW132528   6.821   6.141   4.375 -0.0260  0.2132 -0.1287
10348SOL    HW232529   6.761   6.094   4.506 -0.3609 -0.2378 -0.4397
10349SOL     OW32530   3.475   0.785   5.358  0.2324  0.0226 -0.2583
10349SOL    HW132531   3.424   0.836   5.421 -0.6896  0.2156 -1.1440
10349SOL    HW232532   3.478   0.839   5.279  0.6677 -0.5659 -0.6523
10350SOL     OW32533   7.999   6.526   3.457 -0.0811  0.3135  0.3472
10350SOL    HW132534   8.082   6.479   3.454 -0.8362 -0.9428 -2.0332
10350SOL    HW232535   7.941   6.469   3.508 -0.4189 -0.3889 -0.8148
10351SOL     OW32536   4.845   6.772   2.891 -0.6711 -0.5257 -0.4223
10351SOL    HW132537   4.899   6.829   2.836 -0.6160  1.1287  1.3060
10351SOL    HW232538   4.905   6.703   2.921 -0.2046 -0.2801 -0.7929
10352SOL     OW32539   7.016   0.498   7.610 -0.3063 -0.6457  0.1313
10352SOL    HW132540   6.972   0.560   7.551 -1.7236 -0.0833  1.7167
10352SOL    HW232541   6.982   0.520   7.697  1.8124 -1.3960  1.1748
10353SOL     OW32542   8.143   0.329   1.199  0.1230 -0.1739  0.3899
10353SOL    HW132543   8.054   0.364   1.192  0.7286  1.8598  2.3144
10353SOL    HW232544   8.193   0.379   1.133  0.1130 -0.3813  0.2257
10354SOL     OW32545   7.271   2.619   4.629  0.4442 -0.2203  0.7515
10354SOL    HW132546   7.238   2.623   4.539  0.2164  1.8658  0.8922
10354SOL    HW232547   7.322   2.538   4.633  0.2673 -0.4478 -1.1902
10355SOL     OW32548   7.548   4.062   4.653  0.1951  0.4682  0.6937
10355SOL    HW132549   7.618   3.998   4.662 -1.1424 -1.3754 -1.4435
10355SOL    HW232550   7.579   4.123   4.586  0.8778  1.2715  1.7224
10356SOL     OW32551   1.587   0.964   1.988  0.4595 -0.2545  1.1623
10356SOL    HW132552   1.530   1.030   1.948  1.4339 -0.3223 -0.3820
10356SOL    HW232553   1.543   0.880   1.970  1.2880 -0.3511 -0.4887
10357SOL     OW32554   2.692   0.152   7.997  0.7203 -0.1159  0.2695
10357SOL    HW132555   2.724   0.236   7.965 -0.6133  0.3561  0.1283
10357SOL    HW232556   2.760   0.121   8.057  1.7030  0.5561 -0.4828
10358SOL     OW32557   7.027   3.142   6.791 -0.0800  0.3724 -0.1568
10358SOL    HW132558   7.061   3.161   6.704 -0.8163 -1.9291 -0.9925
10358SOL    HW232559   7.095   3.173   6.851  1.7085 -0.5695 -1.6458
10359SOL     OW32560   2.431   7.097   3.660 -0.2211  0.1822 -0.2519
10359SOL    HW132561   2.387   7.019   3.694  0.4525  0.0679  0.3580
10359SOL    HW232562   2.366   7.167   3.667 -0.2273  0.0622  0.8353
10360SOL     OW32563   1.327   7.424   6.450  0.1595 -0.1495 -0.2464
10360SOL    HW132564   1.365   7.410   6.536 -1.4583 -3.1997  0.0378
10360SOL    HW232565   1.251   7.480   6.465 -0.1066 -0.6620  0.3152
10361SOL     OW32566   1.182   1.608   7.713 -0.0696 -0.2139 -0.0138
10361SOL    HW132567   1.182   1.675   7.781 -0.6802  0.1869 -0.4002
10361SOL    HW232568   1.263   1.558   7.727  0.7729  1.0823 -0.1967
10362SOL     OW32569   5.517   3.430   7.625  1.0046  0.1937 -0.1394
10362SOL    HW132570   5.596   3.380   7.644  0.8274  0.0642  0.2465
10362SOL    HW232571   5.463   3.423   7.704  0.6117  0.2918 -0.3953
10363SOL     OW32572   4.984   4.061   0.829  0.5743  0.4927  0.0996
10363SOL    HW132573   4.950   4.142   0.792  0.0544  0.3701  0.3090
10363SOL    HW232574   5.079   4.075   0.835  0.5360  0.9044 -0.2979
10364SOL     OW32575   7.878   2.953   6.382  0.1128  0.4739  0.1826
10364SOL    HW132576   7.865   3.005   6.302  0.2987 -0.1252 -0.2401
10364SOL    HW232577   7.791   2.949   6.422 -0.2716 -0.3640 -0.6968
10365SOL     OW32578   5.460   5.617   1.691 -0.3380  0.2435  0.0428
10365SOL    HW132579   5.521   5.584   1.757 -1.5520 -0.4954  0.8135
10365SOL    HW232580   5.476   5.562   1.614  1.7179  1.6924 -0.6255
10366SOL     OW32581   2.403   6.973   6.702  0.1705  0.1203  0.2379
10366SOL    HW132582   2.307   6.974   6.708  0.1775 -0.5633  0.5308
10366SOL    HW232583   2.421   6.998   6.611 -0.2367  1.4648  0.5179
10367SOL     OW32584   3.812   2.078   6.494 -0.4374  0.0666 -0.1397
10367SOL    HW132585   3.737   2.102   6.548 -0.0322  0.2813  0.3256
10367SOL    HW232586   3.783   2.000   6.447 -1.1594  0.4893 -0.3981
10368SOL     OW32587   7.443   1.987   4.126  0.2614 -0.0221  0.5681
10368SOL    HW132588   7.442   1.891   4.125  1.7113 -0.0823  2.3656
10368SOL    HW232589   7.535   2.010   4.140 -0.0778  1.6381  0.1581
10369SOL     OW32590   8.292   7.084   1.538  0.3786  0.3098  0.3824
10369SOL    HW132591   8.320   6.993   1.534  0.3013  0.2647  0.7689
10369SOL    HW232592   8.253   7.101   1.452  0.1726 -0.0960  0.3923
10370SOL     OW32593   0.323   6.642   0.616 -0.0018  0.7566  0.4851
10370SOL    HW132594   0.394   6.675   0.561 -0.7311  1.3972 -0.0873
10370SOL    HW232595   0.332   6.547   0.612  0.8485  0.8365  0.4570
10371SOL     OW32596   7.507   4.676   1.907  0.6486 -0.0468 -0.3822
10371SOL    HW132597   7.560   4.700   1.983  0.8048 -0.4797 -0.3575
10371SOL    HW232598   7.496   4.581   1.913  1.4124 -0.2053 -1.3947
10372SOL     OW32599   7.290   6.627   2.402 -0.5357  0.0871 -0.3412
10372SOL    HW132600   7.265   6.709   2.359 -1.7226  0.4029  0.9253
10372SOL    HW232601   7.208   6.593   2.439 -0.0032 -1.5218 -0.5871
10373SOL     OW32602   5.484   8.015   1.710  0.2911 -0.0449 -0.6886
10373SOL    HW132603   5.440   7.931   1.702 -0.9678  0.4330  0.8531
10373SOL    HW232604   5.457   8.064   1.632  0.3725 -0.7791 -1.1771
10374SOL     OW32605   7.159   4.139   0.198 -1.0931 -0.0394 -0.3931
10374SOL    HW132606   7.132   4.050   0.176 -0.3162 -0.4148  0.1512
10374SOL    HW232607   7.254   4.135   0.202 -1.1594  0.0891  2.6353
10375SOL     OW32608   4.515   3.597   6.000  0.1403  0.4324  0.6715
10375SOL    HW132609   4.523   3.690   5.979  2.6326  0.4320  1.5213
10375SOL    HW232610   4.540   3.591   6.092  1.6071 -1.2831  0.1884
10376SOL     OW32611   4.680   2.938   2.178 -0.7878 -0.1313 -0.0730
10376SOL    HW132612   4.758   2.884   2.194 -1.1446 -0.9049 -0.9399
10376SOL    HW232613   4.663   2.979   2.262 -0.1727 -0.9258  0.4536
10377SOL     OW32614   0.318   4.440   6.030 -0.5553 -0.3354  0.1194
10377SOL    HW132615   0.363   4.361   6.060 -1.7105 -2.6973 -4.0106
10377SOL    HW232616   0.225   4.422   6.046 -0.7319  0.7721  0.3780
10378SOL     OW32617   4.540   3.764   1.236 -0.0556 -0.6638  0.3850
10378SOL    HW132618   4.626   3.803   1.252 -0.1987  0.8394 -2.1913
10378SOL    HW232619   4.477   3.826   1.273 -0.1188 -0.5063  0.0194
10379SOL     OW32620   6.350   1.724   1.407  0.6477 -0.1839 -0.0615
10379SOL    HW132621   6.387   1.688   1.488  0.1667 -1.0130 -0.2009
10379SOL    HW232622   6.423   1.770   1.366  0.7961  0.5835  1.0433
10380SOL     OW32623   0.050   4.872   8.099  0.1267 -0.0940 -0.0802
10380SOL    HW132624   0.053   4.860   8.004 -0.4952  2.3151 -0.4457
10380SOL    HW232625   0.136   4.845   8.129  1.0144  0.9909 -1.5860
10381SOL     OW32626   2.499   0.956   5.788 -0.3315  0.5222  0.7130
10381SOL    HW132627   2.592   0.956   5.813 -0.3578 -0.3475  0.7934
10381SOL    HW232628   2.501   0.964   5.693 -0.2240  3.2902  0.8895
10382SOL     OW32629   2.727   7.492   0.564 -0.6072 -0.0890  0.1670
10382SOL    HW132630   2.817   7.507   0.535 -1.6195  2.6849 -1.8288
10382SOL    HW232631   2.732   7.488   0.659  1.5935  0.4062  0.0886
10383SOL     OW32632   2.757   5.995   7.424 -0.1240 -0.3368  0.0182
10383SOL    HW132633   2.713   5.925   7.473 -1.5927  0.0184 -0.7619
10383SOL    HW232634   2.725   6.076   7.463  0.0433 -0.0809 -0.3748
10384SOL     OW32635   7.778   0.383   8.072  0.0659 -0.6833 -0.0036
10384SOL    HW132636   7.729   0.386   8.155 -0.2018 -1.1535 -0.1425
10384SOL    HW232637   7.870   0.389   8.098 -0.0552 -0.0149  0.2737
10385SOL     OW32638   2.749   2.993   3.524  0.1106  0.1286 -0.4037
10385SOL    HW132639   2.795   2.959   3.601  0.7340  0.0476 -0.8025
10385SOL    HW232640   2.680   2.929   3.507 -0.3952  0.4471  0.4294
10386SOL     OW32641   4.797   4.755   5.839 -0.0197  0.1819  0.1244
10386SOL    HW132642   4.862   4.799   5.784 -0.8375  1.1678 -0.0587
10386SOL    HW232643   4.716   4.804   5.825 -0.3829  0.0596  1.7271
10387SOL     OW32644   5.636   1.195   0.375  0.0654  0.1326  0.4145
10387SOL    HW132645   5.686   1.276   0.389  0.6790  0.7610 -4.5820
10387SOL    HW232646   5.702   1.130   0.351 -0.7647 -1.0586  1.3227
10388SOL     OW32647   8.186   6.442   5.243 -0.3625 -0.4144  0.1893
10388SOL    HW132648   8.239   6.516   5.211  0.1714  0.0111  2.0086
10388SOL    HW232649   8.249   6.386   5.288 -1.1316 -0.9122  0.6463
10389SOL     OW32650   3.635   3.097   5.672  0.0254 -0.5376 -0.1433
10389SOL    HW132651   3.572   3.046   5.723 -1.5143  2.0218  0.6299
10389SOL    HW232652   3.689   3.141   5.737  0.6032 -0.3129 -0.7657
10390SOL     OW32653   4.653   3.278   3.965 -0.2209  0.1071  0.1402
10390SOL    HW132654   4.594   3.345   3.930  1.5803  1.7657  0.2216
10390SOL    HW232655   4.638   3.281   4.060  0.4605  1.0266  0.2339
10391SOL     OW32656   2.643   6.375   6.752  0.2048 -0.4670 -0.3810
10391SOL    HW132657   2.554   6.338   6.757  0.3343 -0.8107 -0.5985
10391SOL    HW232658   2.699   6.300   6.733  0.2164  0.1625 -2.9894
10392SOL     OW32659   3.075   2.551   6.393  0.0168  0.2830  0.3025
10392SOL    HW132660   2.997   2.540   6.339  0.2596 -1.7568  0.3128
10392SOL    HW232661   3.060   2.494   6.469 -0.1295  2.7626  2.2067
10393SOL     OW32662   5.447   2.426   1.662  0.0717 -0.3514 -0.1456
10393SOL    HW132663   5.486   2.393   1.581 -0.1400  0.4355 -0.5742
10393SOL    HW232664   5.416   2.514   1.639  0.3802  0.0304  0.8993
10394SOL     OW32665   0.774   6.568   4.186  0.6171  0.2354 -0.0690
10394SOL    HW132666   0.680   6.549   4.179  0.5063  0.3100  1.0578
10394SOL    HW232667   0.806   6.563   4.096 -0.2409 -0.9957 -0.3219
10395SOL     OW32668   2.757   5.719   2.403 -0.2022 -0.1933 -0.2388
10395SOL    HW132669   2.752   5.685   2.313  0.1476 -0.0867 -0.2995
10395SOL    HW232670   2.667   5.716   2.435 -0.2126 -0.9751 -0.3218
10396SOL     OW32671   7.167   6.263   6.443  0.2366 -0.0579  0.0379
10396SOL    HW132672   7.225   6.262   6.519  1.3233 -1.5039 -0.7736
10396SOL    HW232673   7.227   6.271   6.368 -0.6463 -0.8699 -0.7714
10397SOL     OW32674   8.049   7.433   8.064 -0.1215 -0.1448 -0.0651
10397SOL    HW132675   8.116   7.410   8.129  0.0118 -1.1125 -0.5362
10397SOL    HW232676   7.986   7.486   8.112  0.3234 -0.3046  0.7019
10398SOL     OW32677   7.962   6.825   0.556  0.5249 -0.5404 -0.9439
10398SOL    HW132678   7.983   6.755   0.619  1.3303  0.4530 -0.0841
10398SOL    HW232679   7.867   6.834   0.561  0.7401  0.8187  1.5863
10399SOL     OW32680   0.852   6.568   7.926  0.0520  0.3481 -0.4694
10399SOL    HW132681   0.846   6.603   8.015  1.5815 -2.8208  0.9590
10399SOL    HW232682   0.764   6.540   7.905 -0.9679  3.8177 -1.1972
10400SOL     OW32683   5.399   6.086   3.716 -0.3032  0.5953  0.5150
10400SOL    HW132684   5.487   6.088   3.755 -0.1862 -0.2548  0.2934
10400SOL    HW232685   5.342   6.123   3.784  0.2716  1.4860  0.5253
10401SOL     OW32686   1.453   5.142   7.892 -0.1909  0.1188 -0.7457
10401SOL    HW132687   1.414   5.194   7.822  2.2272  0.9540 -1.5008
10401SOL    HW232688   1.459   5.201   7.966  1.6139  0.6657 -1.2972
10402SOL     OW32689   8.122   1.629   4.734  0.0533  0.1504 -0.4174
10402SOL    HW132690   8.169   1.550   4.708 -1.4007 -0.2857 -1.7208
10402SOL    HW232691   8.191   1.696   4.739  1.2705 -1.1314  0.5529
10403SOL     OW32692   7.342   6.137   6.931 -0.4788  0.2363 -0.1301
10403SOL    HW132693   7.299   6.054   6.953  0.9127 -0.8286 -1.2638
10403SOL    HW232694   7.424   6.110   6.889 -0.2979  2.1915 -1.0840
10404SOL     OW32695   7.213   7.297   5.807 -0.1335  0.6129 -0.4477
10404SOL    HW132696   7.284   7.327   5.751 -0.4873  2.6121  0.1419
10404SOL    HW232697   7.232   7.334   5.893 -1.9683  1.3339 -0.3179
10405SOL     OW32698   0.259   3.746   2.535 -0.2949  0.4244  0.2911
10405SOL    HW132699   0.317   3.674   2.559 -1.0892 -0.7101 -1.1185
10405SOL    HW232700   0.303   3.789   2.462 -1.0627 -0.2329 -0.5611
10406SOL     OW32701   2.964   4.936   4.185 -0.0483 -0.1480 -0.3387
10406SOL    HW132702   3.048   4.900   4.212  0.5406  0.9966 -0.6370
10406SOL    HW232703   2.903   4.863   4.195  0.5512 -0.3647  1.9689
10407SOL     OW32704   1.878   7.803   4.875  0.4277 -0.4234 -0.3337
10407SOL    HW132705   1.942   7.873   4.890  1.4424 -1.5816  0.8767
10407SOL    HW232706   1.809   7.820   4.938  1.6330 -1.6281  1.3533
10408SOL     OW32707   6.387   3.760   5.499  0.2603  0.2337  0.0918
10408SOL    HW132708   6.304   3.721   5.472 -0.0945  0.1547  1.2868
10408SOL    HW232709   6.364   3.849   5.526  0.5994  0.2836  0.2164
10409SOL     OW32710   4.670   6.174   4.192 -0.0129  0.3086 -0.0908
10409SOL    HW132711   4.635   6.085   4.184 -1.3188  0.8063 -0.0621
10409SOL    HW232712   4.688   6.201   4.101 -0.5547  0.3822 -0.1754
10410SOL     OW32713   5.917   3.238   1.059 -0.1527 -0.0857  0.0231
10410SOL    HW132714   5.931   3.316   1.005  1.2975  0.0303  0.5216
10410SOL    HW232715   6.006   3.205   1.076 -0.5299  0.1251  2.6507
10411SOL     OW32716   3.172   3.362   7.510  0.2720  0.1656  0.6792
10411SOL    HW132717   3.213   3.278   7.531 -0.5426 -0.7936 -1.3699
10411SOL    HW232718   3.240   3.411   7.466 -0.2690 -0.8341 -1.3386
10412SOL     OW32719   0.310   0.150   4.581 -0.6260  0.4868 -0.5607
10412SOL    HW132720   0.230   0.203   4.586 -0.7388  0.3137 -0.5418
10412SOL    HW232721   0.348   0.172   4.496 -0.8799  0.3002 -0.7243
10413SOL     OW32722   7.914   2.782   5.104  0.0378 -0.0205 -0.2847
10413SOL    HW132723   7.881   2.708   5.053 -0.0487 -1.1752  1.4255
10413SOL    HW232724   8.009   2.773   5.101  0.0592  0.3502 -0.8638
10414SOL     OW32725   0.094   0.420   0.106  0.3997  0.3628 -0.8519
10414SOL    HW132726   0.162   0.448   0.167 -0.0865 -1.7615  0.7202
10414SOL    HW232727   0.135   0.352   0.053 -0.2328 -0.3182 -0.4762
10415SOL     OW32728   0.812   7.771   7.422  0.5469  0.5536  0.5317
10415SOL    HW132729   0.768   7.840   7.372  1.1326  1.7351  1.5879
10415SOL    HW232730   0.789   7.690   7.378 -2.0513  1.2118  0.5909
10416SOL     OW32731   1.284   5.721   0.330  0.3105  0.4476 -0.2064
10416SOL    HW132732   1.374   5.754   0.323  0.6051  0.1073  1.7377
10416SOL    HW232733   1.231   5.788   0.287  1.5109  0.5015 -1.6662
10417SOL     OW32734   1.083   5.001   2.876  0.7956  0.6097  0.2966
10417SOL    HW132735   1.069   5.082   2.828  0.9878  0.1155 -0.6113
10417SOL    HW232736   1.140   5.025   2.949  1.4705  1.1543 -0.3973
10418SOL     OW32737   2.897   3.895   4.885 -0.1688 -1.0737 -0.0443
10418SOL    HW132738   2.855   3.814   4.854 -1.0681 -1.5311  2.2593
10418SOL    HW232739   2.832   3.963   4.869 -0.1841 -1.1232 -0.1964
10419SOL     OW32740   0.035   4.271   7.226  0.0489 -0.5316 -0.0394
10419SOL    HW132741   0.049   4.326   7.148  1.8681 -0.7772  0.0786
10419SOL    HW232742  -0.053   4.292   7.255  0.2425  1.3829 -0.7624
10420SOL     OW32743   6.670   4.107   3.862 -0.5374  0.2032  0.0081
10420SOL    HW132744   6.581   4.079   3.837 -0.4522 -0.8023  0.8311
10420SOL    HW232745   6.724   4.030   3.848  0.8298  1.6632 -3.5130
10421SOL     OW32746   0.361   6.493   1.855 -0.4605 -0.2656 -0.2402
10421SOL    HW132747   0.410   6.434   1.913  1.0101  0.4670 -0.6901
10421SOL    HW232748   0.355   6.445   1.772  0.3384  0.0082 -0.4675
10422SOL     OW32749   7.598   2.084   4.469  0.0109 -0.2643 -0.1328
10422SOL    HW132750   7.531   2.123   4.413 -2.1473 -2.5798  0.7615
10422SOL    HW232751   7.586   2.126   4.554  0.8333  0.5431 -0.4066
10423SOL     OW32752   5.849   5.619   7.959 -0.0794 -0.3884 -0.1225
10423SOL    HW132753   5.886   5.677   8.026 -0.9663 -0.6201  0.5890
10423SOL    HW232754   5.900   5.637   7.880 -0.2416  1.2444  0.1253
10424SOL     OW32755   3.627   8.109   1.985 -0.3000  0.3015  0.5383
10424SOL    HW132756   3.546   8.160   1.978  0.1435  1.0442  0.7029
10424SOL    HW232757   3.661   8.131   2.072  0.2254  0.2158  0.3545
10425SOL     OW32758   7.374   3.204   4.011  0.6790  0.0984 -0.4784
10425SOL    HW132759   7.281   3.189   4.024  0.7975 -1.7099 -1.4466
10425SOL    HW232760   7.384   3.211   3.916  1.6050 -0.4134 -0.4319
10426SOL     OW32761   2.828   8.209   3.764  0.5500  0.0695 -0.0586
10426SOL    HW132762   2.844   8.218   3.858 -0.3519  1.0418  0.0128
10426SOL    HW232763   2.763   8.139   3.758  0.4949  0.1093  0.0517
10427SOL     OW32764   6.740   1.376   2.329 -0.4978  0.4797  0.0032
10427SOL    HW132765   6.701   1.432   2.396 -1.9987  0.0550 -0.5107
10427SOL    HW232766   6.689   1.392   2.250  0.5142  0.0972 -0.7469
10428SOL     OW32767   0.570   7.553   8.046 -0.2329  0.5208  0.3247
10428SOL    HW132768   0.514   7.598   8.109 -0.6030  1.4311 -0.6305
10428SOL    HW232769   0.634   7.618   8.019  0.2733 -0.0280  0.1754
10429SOL     OW32770   1.533   5.837   4.733  0.0629 -0.0562  0.1223
10429SOL    HW132771   1.608   5.777   4.733 -0.3647 -0.6458  2.0609
10429SOL    HW232772   1.538   5.882   4.818 -1.2793  0.5125 -0.0815
10430SOL     OW32773   5.562   3.636   6.582 -0.0688 -0.4352 -0.3894
10430SOL    HW132774   5.486   3.580   6.598  0.8184 -1.3386  0.7538
10430SOL    HW232775   5.554   3.663   6.491 -0.7384 -2.0955 -0.8323
10431SOL     OW32776   5.812   7.428   6.492  0.0539  0.5382  0.7753
10431SOL    HW132777   5.758   7.507   6.491 -0.6619  0.0485 -0.1661
10431SOL    HW232778   5.840   7.417   6.401 -1.0334 -1.0773  0.6189
10432SOL     OW32779   6.168   2.180   5.187  0.8951 -0.0646  0.7239
10432SOL    HW132780   6.207   2.123   5.253  0.3211 -1.9484 -0.5300
10432SOL    HW232781   6.078   2.148   5.178  0.2659  1.6584  0.6796
10433SOL     OW32782   4.400   6.609   3.736 -0.1151  0.0525  0.4395
10433SOL    HW132783   4.406   6.644   3.646 -0.1155 -0.4045  0.2632
10433SOL    HW232784   4.350   6.528   3.727 -1.6730  0.9097  1.0978
10434SOL     OW32785   7.928   6.931   6.467  0.0129  0.1614  0.5548
10434SOL    HW132786   8.011   6.912   6.422 -0.7555 -1.9359 -0.0296
10434SOL    HW232787   7.941   6.898   6.555  0.0640  0.5375  0.6892
10435SOL     OW32788   0.508   4.287   2.314 -0.2682 -0.0245  0.4913
10435SOL    HW132789   0.564   4.224   2.360  0.9203  1.0780  0.5717
10435SOL    HW232790   0.527   4.371   2.356 -1.2555  0.5228 -0.1479
10436SOL     OW32791   2.730   7.933   0.470 -0.1101 -0.2296  0.0881
10436SOL    HW132792   2.780   7.955   0.391 -0.7862 -1.6302 -0.7383
10436SOL    HW232793   2.673   7.862   0.443 -2.8823  1.5996  0.9083
10437SOL     OW32794   3.611   8.106   6.542 -0.2411  0.6744 -0.1006
10437SOL    HW132795   3.624   8.016   6.572 -0.1474  0.2603 -1.3672
10437SOL    HW232796   3.618   8.159   6.622  0.2005 -0.3919  0.5777
10438SOL     OW32797   7.809   1.809   5.651 -0.2751 -0.0988 -0.7264
10438SOL    HW132798   7.895   1.850   5.663  0.3135 -0.9546 -1.9242
10438SOL    HW232799   7.776   1.797   5.740  1.3407 -0.8053 -0.2053
10439SOL     OW32800   6.316   7.074   1.776  0.3739  0.6420 -0.5160
10439SOL    HW132801   6.338   7.139   1.710  1.7293 -1.0893 -1.8223
10439SOL    HW232802   6.242   7.112   1.824 -0.2390  2.1775 -2.6299
10440SOL     OW32803   4.203   1.903   4.019 -0.4609 -0.4177  0.3240
10440SOL    HW132804   4.129   1.931   4.073 -0.6555 -0.0106 -0.1480
10440SOL    HW232805   4.238   1.826   4.064 -0.4363  0.0963  1.1859
10441SOL     OW32806   2.557   1.144   3.380  0.5985 -0.5785  0.5073
10441SOL    HW132807   2.650   1.128   3.362  1.0721  1.2096  1.2489
10441SOL    HW232808   2.557   1.200   3.458 -1.1073 -0.5836  0.5332
10442SOL     OW32809   7.934   2.856   0.067  0.5607  0.4100 -0.1205
10442SOL    HW132810   7.854   2.890   0.026  0.6211  0.3097 -0.3214
10442SOL    HW232811   7.982   2.934   0.095  1.1358  0.5259 -1.4033
10443SOL     OW32812   4.789   7.734   4.781 -0.1791  0.3966  0.4976
10443SOL    HW132813   4.739   7.722   4.701  0.3620  1.5809 -0.0289
10443SOL    HW232814   4.770   7.824   4.808  0.8668  0.5192  0.8469
10444SOL     OW32815   7.165   2.632   4.389 -0.1358 -0.2081 -0.7888
10444SOL    HW132816   7.218   2.682   4.327  0.2128 -0.2910 -0.5546
10444SOL    HW232817   7.075   2.659   4.370 -0.2013 -1.6466 -2.6091
10445SOL     OW32818   3.109   0.340   7.610  0.3598 -0.4861  0.0249
10445SOL    HW132819   3.095   0.251   7.641  1.3750 -0.0800  1.7211
10445SOL    HW232820   3.062   0.345   7.527 -1.9919 -1.7749  1.2461
10446SOL     OW32821   6.977   2.210   3.333  0.5949 -0.1902  0.0117
10446SOL    HW132822   7.056   2.188   3.283 -1.3581 -0.8315 -2.9508
10446SOL    HW232823   6.929   2.271   3.277 -1.6440 -0.8600  1.1221
10447SOL     OW32824   3.390   1.044   7.235 -0.2216  0.0939 -0.0326
10447SOL    HW132825   3.397   1.055   7.330  1.2366 -1.1293  0.0255
10447SOL    HW232826   3.442   1.117   7.199  1.5039 -1.0096  0.1749
10448SOL     OW32827   8.078   2.978   0.483 -0.0316 -0.2728 -0.5143
10448SOL    HW132828   8.119   2.905   0.530  0.9104 -0.4320 -1.5515
10448SOL    HW232829   8.067   3.046   0.549  0.3796 -0.8359  0.1474
10449SOL     OW32830   2.478   5.641   1.042 -0.0405  0.0394  0.3239
10449SOL    HW132831   2.454   5.718   1.094 -1.0405 -0.0159 -0.0379
10449SOL    HW232832   2.398   5.587   1.041  0.5412 -0.8353  0.2797
10450SOL     OW32833   2.127   5.010   7.511 -0.6379  0.1234 -0.3833
10450SOL    HW132834   2.068   5.057   7.570 -0.3554 -0.1756  0.1375
10450SOL    HW232835   2.089   4.923   7.504  0.6456 -0.5766  1.2609
10451SOL     OW32836   0.385   3.532   7.506 -0.2380 -0.3433 -0.2340
10451SOL    HW132837   0.372   3.540   7.411 -1.5343 -1.3611 -0.1658
10451SOL    HW232838   0.301   3.558   7.544 -0.4802 -2.1239  0.5124
10452SOL     OW32839   2.960   1.064   6.860 -0.4602  0.2605 -0.3418
10452SOL    HW132840   2.966   1.045   6.766  2.4481 -1.2882  0.1155
10452SOL    HW232841   2.969   1.159   6.866 -0.2984  0.3331 -1.6031
10453SOL     OW32842   1.834   7.517   4.380  0.0999  0.0574  0.0128
10453SOL    HW132843   1.754   7.530   4.431 -0.3015  1.2161 -0.8747
10453SOL    HW232844   1.880   7.446   4.425 -1.1665 -0.2584  0.8438
10454SOL     OW32845   1.233   7.138   7.046  0.4002 -0.1016  0.3749
10454SOL    HW132846   1.256   7.217   7.094  1.3571 -0.8708  1.2110
10454SOL    HW232847   1.311   7.083   7.051  0.4315 -0.2833 -1.8870
10455SOL     OW32848   4.121   4.418   3.047 -0.2348 -0.6550  0.2022
10455SOL    HW132849   4.059   4.441   2.979  1.0123 -0.4899 -0.9087
10455SOL    HW232850   4.104   4.480   3.118 -0.6891 -0.0082 -0.4686
10456SOL     OW32851   4.809   1.057   5.250 -0.6582 -0.0060 -0.0786
10456SOL    HW132852   4.748   1.101   5.192  0.3228 -1.2553 -2.1399
10456SOL    HW232853   4.812   0.967   5.217  0.9454 -0.3890  1.0611
10457SOL     OW32854   3.343   2.811   5.250 -0.1897 -0.7836  0.5569
10457SOL    HW132855   3.319   2.729   5.293 -0.2416 -1.1886 -0.2394
10457SOL    HW232856   3.365   2.786   5.160  1.1449 -0.1229  0.6875
10458SOL     OW32857   0.680   6.691   5.820  0.2099 -0.1483  0.0421
10458SOL    HW132858   0.592   6.726   5.835  0.1849 -0.4093  0.5014
10458SOL    HW232859   0.723   6.697   5.905 -0.1076 -2.1099  0.3748
10459SOL     OW32860   5.965   4.835   7.189 -0.3170  0.1108 -0.1488
10459SOL    HW132861   5.977   4.835   7.094  0.0563  0.8602 -0.1058
10459SOL    HW232862   6.052   4.817   7.224 -0.7413 -1.6589  0.0295
10460SOL     OW32863   7.661   7.461   6.648  0.1255  0.1800 -0.0317
10460SOL    HW132864   7.678   7.555   6.657  0.5264  0.0590  0.5079
10460SOL    HW232865   7.708   7.436   6.568  1.4151  0.1128  0.7284
10461SOL     OW32866   7.079   2.305   2.846 -0.6302 -0.0010 -0.5644
10461SOL    HW132867   7.009   2.342   2.792 -2.3420 -0.2979  1.3792
10461SOL    HW232868   7.125   2.245   2.788 -0.9931  1.3694 -2.3196
10462SOL     OW32869   5.337   1.828   6.673 -0.9378  0.1771 -0.1887
10462SOL    HW132870   5.387   1.851   6.751  0.3935  0.2267 -1.0386
10462SOL    HW232871   5.281   1.755   6.700 -0.4236  0.1497  0.7794
10463SOL     OW32872   2.306   6.167   1.592  0.1974  0.2901 -0.1030
10463SOL    HW132873   2.248   6.208   1.528  1.9645  0.4348 -1.6696
10463SOL    HW232874   2.386   6.220   1.589  1.5129 -1.6489 -0.1916
10464SOL     OW32875   0.538   3.993   5.245  0.5186  0.2908  0.0503
10464SOL    HW132876   0.591   3.929   5.292  0.8217  1.4696  1.3551
10464SOL    HW232877   0.478   4.028   5.311 -1.7029 -0.7777 -1.3146
10465SOL     OW32878   6.412   0.575   0.282  0.1897 -0.5563 -0.4092
10465SOL    HW132879   6.395   0.566   0.188 -2.7921  2.2080 -0.2070
10465SOL    HW232880   6.348   0.518   0.323  1.1092 -1.3128 -0.0139
10466SOL     OW32881   7.158   1.269   3.437 -0.0846  0.3067  0.5457
10466SOL    HW132882   7.201   1.201   3.488 -1.2988 -0.7734  0.1391
10466SOL    HW232883   7.123   1.330   3.502 -0.4675 -0.3568  0.9637
10467SOL     OW32884   7.890   7.964   4.580  0.0381 -0.2479  0.4645
10467SOL    HW132885   7.923   8.052   4.596  1.1713 -0.3598 -1.0908
10467SOL    HW232886   7.893   7.921   4.665 -0.8629  1.3114  1.3081
10468SOL     OW32887   5.007   5.628   3.992 -0.1366  0.0386  0.6665
10468SOL    HW132888   4.946   5.701   3.996 -0.4320 -0.2299  1.1741
10468SOL    HW232889   5.079   5.653   4.050  0.5073  0.6050 -0.3863
10469SOL     OW32890   2.417   0.151   1.451 -0.5104 -0.4617  0.0047
10469SOL    HW132891   2.378   0.097   1.382 -1.3063 -1.1876  1.0175
10469SOL    HW232892   2.386   0.111   1.532  0.8513  0.0798  0.7861
10470SOL     OW32893   0.640   8.150   5.420  0.0828  0.2688 -0.0978
10470SOL    HW132894   0.717   8.178   5.371 -0.4333 -0.0809 -1.1353
10470SOL    HW232895   0.675   8.100   5.494  0.8074 -1.2282 -1.4323
10471SOL     OW32896   2.529   3.194   0.440  0.5300 -0.3961  0.2614
10471SOL    HW132897   2.608   3.245   0.424  1.1429 -1.1880  0.7389
10471SOL    HW232898   2.561   3.108   0.467 -0.4930 -0.8511  0.0386
10472SOL     OW32899   0.889   3.785   3.316  0.2380  0.0441  0.0932
10472SOL    HW132900   0.805   3.758   3.353  0.9741 -3.0412 -0.3582
10472SOL    HW232901   0.939   3.818   3.391 -0.5541 -0.2687  0.7670
10473SOL     OW32902   6.153   5.990   7.542  0.0364 -0.4093 -0.4029
10473SOL    HW132903   6.242   5.994   7.507 -0.4614  0.6512 -1.6037
10473SOL    HW232904   6.158   6.040   7.624  0.1376  1.2897 -1.4195
10474SOL     OW32905   1.204   0.037   2.213  0.0040 -0.3654  0.0825
10474SOL    HW132906   1.235  -0.004   2.132 -0.9039 -0.3344 -0.2966
10474SOL    HW232907   1.219   0.131   2.199  1.6907 -0.5260  0.7759
10475SOL     OW32908   8.151   5.882   6.649 -0.1403 -0.7805 -0.2520
10475SOL    HW132909   8.245   5.900   6.648 -0.2608 -0.1501 -0.6641
10475SOL    HW232910   8.144   5.790   6.673  0.5432 -0.5874  0.6870
10476SOL     OW32911   5.720   0.946   4.948 -0.4516  0.1343 -0.2616
10476SOL    HW132912   5.765   0.984   5.023  0.3689 -1.0628 -0.1326
10476SOL    HW232913   5.788   0.899   4.900 -1.3357 -0.7665 -0.6621
10477SOL     OW32914   5.939   1.844   0.585 -0.0276 -0.7154  0.1788
10477SOL    HW132915   5.865   1.792   0.554 -0.8374  0.3259  0.3384
10477SOL    HW232916   5.988   1.865   0.505 -1.7054  1.3329 -0.3486
10478SOL     OW32917   0.906   6.674   1.764  0.0518 -0.3400 -1.1238
10478SOL    HW132918   0.831   6.732   1.776  1.2665  0.9490  0.4803
10478SOL    HW232919   0.922   6.674   1.670 -1.5667 -0.1265 -1.4067
10479SOL     OW32920   4.791   2.448   3.850 -0.5657  0.7536  0.3244
10479SOL    HW132921   4.769   2.377   3.789  0.0134  1.2147 -0.4303
10479SOL    HW232922   4.864   2.413   3.901  0.5364  1.2472 -0.8812
10480SOL     OW32923   0.132   4.764   5.749 -0.0950  0.6844  0.0692
10480SOL    HW132924   0.104   4.673   5.742  0.3203  0.6259 -0.8356
10480SOL    HW232925   0.057   4.809   5.790 -0.4820  0.0354  0.0795
10481SOL     OW32926   4.538   1.733   6.230 -0.7279 -0.1449  0.4690
10481SOL    HW132927   4.492   1.807   6.192  0.2920 -0.4048 -1.3188
10481SOL    HW232928   4.470   1.683   6.275 -1.5133  1.5463  1.1871
10482SOL     OW32929   7.582   4.320   4.522 -0.2695 -0.3176 -0.0320
10482SOL    HW132930   7.668   4.360   4.510  0.3823 -1.8315 -0.5148
10482SOL    HW232931   7.524   4.370   4.466  0.3647  0.4927  0.0295
10483SOL     OW32932   5.814   5.134   3.652 -0.1277 -0.0611 -0.3179
10483SOL    HW132933   5.788   5.051   3.612  1.5396 -0.9844  0.4803
10483SOL    HW232934   5.868   5.109   3.727  0.4019  1.7544 -0.0745
10484SOL     OW32935   2.674   7.989   3.469 -0.1841  0.1636  0.0773
10484SOL    HW132936   2.692   7.948   3.384  0.6104 -0.3395  0.4805
10484SOL    HW232937   2.690   7.919   3.533 -1.5176  0.3261  0.5943
10485SOL     OW32938   0.688   5.127   0.652  0.0973  0.6509 -0.6156
10485SOL    HW132939   0.618   5.075   0.612  0.2224  0.0218 -0.0317
10485SOL    HW232940   0.719   5.073   0.725  0.5445  1.3460 -0.2831
10486SOL     OW32941   6.368   5.726   1.156  0.3495  0.1360  0.3515
10486SOL    HW132942   6.424   5.791   1.114 -1.5964  0.9379 -1.0966
10486SOL    HW232943   6.316   5.689   1.084 -1.3771 -0.1709  1.7230
10487SOL     OW32944   7.441   8.249   7.986  0.2023 -0.9564  0.3746
10487SOL    HW132945   7.531   8.218   7.977  0.8966  0.6244  1.6310
10487SOL    HW232946   7.444   8.309   8.060 -1.5995  0.1824 -0.4387
10488SOL     OW32947   2.553   0.990   4.967  0.2463  0.0459 -0.2906
10488SOL    HW132948   2.611   0.935   4.916 -1.2131 -2.1199  0.3317
10488SOL    HW232949   2.525   1.058   4.906  0.8598 -0.7816 -1.5120
10489SOL     OW32950   0.763   1.874   7.972 -0.2515  0.1523  0.4742
10489SOL    HW132951   0.696   1.846   8.034 -0.0565 -2.0217 -0.2511
10489SOL    HW232952   0.716   1.888   7.889  0.1306 -1.1235  0.0301
10490SOL     OW32953   0.047   3.935   2.760 -0.1085  0.0694  0.5206
10490SOL    HW132954  -0.001   3.896   2.833  0.4608 -1.6499 -0.0048
10490SOL    HW232955   0.135   3.898   2.768  0.4879  1.3768  0.0886
10491SOL     OW32956   7.924   4.421   0.177 -0.1878  0.4488  0.0895
10491SOL    HW132957   8.011   4.423   0.136  0.2120  0.3142  0.9204
10491SOL    HW232958   7.865   4.394   0.106  0.8309 -2.1233  0.1838
10492SOL     OW32959   1.568   3.104   6.138 -0.3056  0.4459 -0.2400
10492SOL    HW132960   1.567   3.186   6.087 -0.8892 -0.2046 -1.2847
10492SOL    HW232961   1.477   3.090   6.163 -0.5228 -0.9249 -1.7622
10493SOL     OW32962   7.073   7.896   1.601 -0.7264 -0.4141  0.5058
10493SOL    HW132963   7.131   7.918   1.528 -0.6433 -1.0247  0.3874
10493SOL    HW232964   6.985   7.898   1.563 -0.7514  0.0973  0.5873
10494SOL     OW32965   4.353   0.889   2.092  0.0259  0.0052 -0.1233
10494SOL    HW132966   4.262   0.917   2.099 -0.0298 -0.0764 -0.5360
10494SOL    HW232967   4.382   0.881   2.183 -0.5436 -0.4912  0.0178
10495SOL     OW32968   4.911   4.296   5.593 -0.0514  0.3561  0.2559
10495SOL    HW132969   4.978   4.362   5.577  0.2686  0.1929  0.8695
10495SOL    HW232970   4.939   4.220   5.542 -0.3181  0.6367 -0.3003
10496SOL     OW32971   3.788   0.951   4.109 -0.6434 -0.3207 -0.9444
10496SOL    HW132972   3.727   0.917   4.175  0.1163 -1.3878 -0.7840
10496SOL    HW232973   3.755   1.039   4.089 -2.8954 -1.2847 -1.6612
10497SOL     OW32974   6.430   7.813   1.591  0.0273 -0.2693 -0.5684
10497SOL    HW132975   6.419   7.765   1.672  1.8328  0.3595  0.0777
10497SOL    HW232976   6.432   7.905   1.617  0.0590 -0.0310 -1.3806
10498SOL     OW32977   4.768   4.837   4.917  0.6206  0.0600 -0.2173
10498SOL    HW132978   4.696   4.785   4.881  1.9128 -1.4817 -0.6474
10498SOL    HW232979   4.831   4.771   4.948  1.5620  1.3829  0.7256
10499SOL     OW32980   3.664   4.682   4.960 -0.5875  0.3434  0.3886
10499SOL    HW132981   3.667   4.591   4.989 -1.1872  0.9230  2.3769
10499SOL    HW232982   3.592   4.686   4.898  0.6554 -0.9223 -1.1512
10500SOL     OW32983   4.036   0.113   2.811 -0.4076  0.6486  0.1715
10500SOL    HW132984   4.112   0.155   2.770 -1.4114  1.5386 -0.7820
10500SOL    HW232985   4.059   0.109   2.904  0.8236  0.8597 -0.1086
10501SOL     OW32986   3.136   1.725   5.390 -0.0485 -0.0063 -0.6234
10501SOL    HW132987   3.090   1.799   5.349  0.1114  0.1193 -0.5782
10501SOL    HW232988   3.087   1.648   5.361  0.1768  0.0655 -1.2161
10502SOL     OW32989   5.086   1.230   2.084  0.1900 -0.4225  0.2974
10502SOL    HW132990   5.064   1.264   1.997  3.1101 -0.5184 -0.5135
10502SOL    HW232991   5.016   1.263   2.141 -0.9406  0.8938 -1.7986
10503SOL     OW32992   7.671   4.153   7.551 -0.2732 -0.2832  0.2154
10503SOL    HW132993   7.691   4.096   7.625  0.9092 -0.1233  0.0324
10503SOL    HW232994   7.583   4.129   7.524 -0.3842 -0.9205  1.1455
10504SOL     OW32995   4.335   1.656   0.692  0.0900  0.3016  0.2209
10504SOL    HW132996   4.420   1.618   0.715 -0.4075 -0.8725  0.1673
10504SOL    HW232997   4.272   1.589   0.718 -0.7344  0.5886 -1.0128
10505SOL     OW32998   0.213   7.643   6.707 -0.0026  0.2049  0.2989
10505SOL    HW132999   0.157   7.611   6.636 -1.2983 -0.6114  1.6512
10505SOL    HW233000   0.208   7.738   6.701 -0.2352  0.1441 -0.5997
10506SOL     OW33001   0.057   5.214   1.707  0.1589 -0.7647 -0.0843
10506SOL    HW133002   0.086   5.234   1.618 -3.3704 -2.8130 -1.7927
10506SOL    HW233003   0.066   5.119   1.715 -1.3271 -0.8388  1.0350
10507SOL     OW33004   0.315   6.121   0.541 -0.2177 -0.1279  1.2009
10507SOL    HW133005   0.353   6.208   0.552 -0.3828  0.1068 -0.0216
10507SOL    HW233006   0.228   6.127   0.579 -1.6983  1.3495 -2.2574
10508SOL     OW33007   6.459   3.374   2.738 -0.6319 -0.3553  0.1472
10508SOL    HW133008   6.432   3.363   2.647 -0.1843 -0.3284  0.0072
10508SOL    HW233009   6.536   3.317   2.747 -0.1853  0.2629  0.2814
10509SOL     OW33010   5.217   3.457   1.981  0.0824 -0.4985  0.1501
10509SOL    HW133011   5.245   3.409   2.059  2.3618 -1.0274 -0.9442
10509SOL    HW233012   5.290   3.515   1.961 -1.0391  0.5911 -0.8195
10510SOL     OW33013   7.545   2.301   1.399 -0.0029  0.1841 -0.2788
10510SOL    HW133014   7.450   2.288   1.387 -0.4017  0.1340  2.5536
10510SOL    HW233015   7.585   2.226   1.356 -1.4410 -1.4272  1.1162
10511SOL     OW33016   0.177   5.354   1.960  0.3424 -0.0234 -0.1087
10511SOL    HW133017   0.136   5.313   1.884 -0.0644  0.9604 -0.4397
10511SOL    HW233018   0.137   5.311   2.036  0.2344 -0.5249 -0.4474
10512SOL     OW33019   7.540   7.492   3.510  0.2029 -0.5736 -0.0996
10512SOL    HW133020   7.458   7.455   3.477  0.7063 -1.1716 -0.6877
10512SOL    HW233021   7.586   7.523   3.432  0.4220  0.0036  0.2505
10513SOL     OW33022   3.786   2.763   0.752  0.3189 -0.6293 -0.4560
10513SOL    HW133023   3.709   2.775   0.696 -0.4484 -0.4060  0.6296
10513SOL    HW233024   3.801   2.849   0.791  1.4772 -0.5267 -1.0967
10514SOL     OW33025   4.902   1.833   2.957  0.1652  0.1061  0.2227
10514SOL    HW133026   4.811   1.859   2.947  0.3117  0.2544 -0.7872
10514SOL    HW233027   4.905   1.784   3.039 -0.3740  2.0911  1.4418
10515SOL     OW33028   5.348   2.700   6.558  0.7047 -0.0866 -0.1257
10515SOL    HW133029   5.382   2.702   6.648  0.9288  3.1219 -0.2277
10515SOL    HW233030   5.407   2.640   6.512  2.0160  0.0567  1.3269
10516SOL     OW33031   8.102   2.691   1.198 -0.0094 -0.3122 -0.0789
10516SOL    HW133032   8.179   2.746   1.185 -0.6027  0.9810  1.7294
10516SOL    HW233033   8.111   2.658   1.287 -1.2499 -0.6430 -0.0707
10517SOL     OW33034   3.906   7.497   3.851  0.4723 -0.6789 -0.5127
10517SOL    HW133035   3.956   7.417   3.860 -0.1541 -0.8288  1.9389
10517SOL    HW233036   3.874   7.516   3.939 -1.4026  0.9461 -1.4934
10518SOL     OW33037   2.140   2.853   1.629  0.2042 -0.6924 -0.8135
10518SOL    HW133038   2.196   2.822   1.700  0.3671  0.0064 -0.6417
10518SOL    HW233039   2.093   2.774   1.600 -0.5979 -0.7892  0.7137
10519SOL     OW33040   3.787   2.494   5.147  0.2267  0.0542 -0.3310
10519SOL    HW133041   3.762   2.480   5.056  2.2812 -0.9986 -0.7430
10519SOL    HW233042   3.876   2.528   5.143  0.7582 -1.0991  1.3380
10520SOL     OW33043   5.894   1.583   5.717 -0.2406  0.6328  0.3856
10520SOL    HW133044   5.964   1.630   5.672  2.1025 -0.6834  2.5351
10520SOL    HW233045   5.936   1.503   5.750 -3.0924 -0.8700  0.5341
10521SOL     OW33046   7.422   6.575   2.635 -0.4997 -0.2152  0.2830
10521SOL    HW133047   7.369   6.578   2.555 -2.3679 -1.1005  1.4649
10521SOL    HW233048   7.443   6.667   2.653  1.6385 -0.1224 -2.2921
10522SOL     OW33049   0.014   6.396   4.028  0.0541  0.5132 -0.1701
10522SOL    HW133050   0.077   6.334   4.065 -0.9288  0.1859  0.9962
10522SOL    HW233051  -0.070   6.372   4.069 -0.6225  1.6355 -0.8718
10523SOL     OW33052   2.124   2.908   4.865  0.0973 -0.2245  0.6192
10523SOL    HW133053   2.142   2.925   4.772  0.6463 -2.6826  0.2384
10523SOL    HW233054   2.188   2.960   4.912  1.5696 -1.0070 -0.4731
10524SOL     OW33055   3.443   0.449   5.160 -0.0030 -0.1427 -0.0845
10524SOL    HW133056   3.444   0.472   5.253 -1.7448 -2.3341  0.5355
10524SOL    HW233057   3.372   0.501   5.123  0.0827  0.0466  0.0195
10525SOL     OW33058   4.207   3.992   2.662 -0.1747 -0.3064  0.1719
10525SOL    HW133059   4.153   3.976   2.585 -1.6245 -0.8995  1.2954
10525SOL    HW233060   4.180   4.078   2.694  0.4867 -0.0213 -0.0258
10526SOL     OW33061   1.813   7.677   7.289 -0.0728 -0.1107 -0.0190
10526SOL    HW133062   1.788   7.585   7.291  0.0929 -0.1304  1.8851
10526SOL    HW233063   1.899   7.680   7.332  0.8658  0.6627 -1.8824
10527SOL     OW33064   6.788   0.646   6.472 -0.2007  0.3671 -0.1371
10527SOL    HW133065   6.781   0.577   6.539 -0.0791  0.5182  0.0300
10527SOL    HW233066   6.859   0.616   6.415 -1.0251 -0.3010 -0.8267
10528SOL     OW33067   1.717   2.079   2.973 -0.4809  0.6677  0.5036
10528SOL    HW133068   1.808   2.074   3.000 -0.7969  0.2579  1.5005
10528SOL    HW233069   1.709   2.015   2.902 -0.2530 -0.0532  1.1295
10529SOL     OW33070   5.966   3.202   0.433 -0.3770 -0.8248  0.4649
10529SOL    HW133071   5.983   3.212   0.527  1.4001  0.8390  0.0006
10529SOL    HW233072   6.004   3.117   0.411  1.2954 -0.1863  0.8166
10530SOL     OW33073   1.227   6.955   4.272 -0.2533  0.2678 -0.1978
10530SOL    HW133074   1.247   6.959   4.179  1.5185  0.0140  0.1582
10530SOL    HW233075   1.230   7.046   4.302  1.4533  0.1463  0.0555
10531SOL     OW33076   7.568   7.488   5.000 -0.1005  0.1237 -0.5195
10531SOL    HW133077   7.516   7.548   4.946  1.4016  0.1260 -1.9993
10531SOL    HW233078   7.659   7.505   4.974  0.3761 -2.5063 -0.6603
10532SOL     OW33079   1.751   7.088   5.984 -0.6174  0.6505 -0.4329
10532SOL    HW133080   1.802   7.112   5.907  0.6542  1.6899  0.7039
10532SOL    HW233081   1.816   7.081   6.054 -1.6177 -1.3064  0.3321
10533SOL     OW33082   5.237   4.151   3.124 -0.0943  0.0215  0.0747
10533SOL    HW133083   5.295   4.225   3.106  0.6694 -0.5793  0.0510
10533SOL    HW233084   5.192   4.176   3.205 -0.6614  0.9983 -0.5367
10534SOL     OW33085   4.806   3.403   2.119  0.0243 -0.0985  0.1980
10534SOL    HW133086   4.880   3.462   2.106 -2.3510  3.1828  0.9100
10534SOL    HW233087   4.792   3.362   2.033  2.8048 -1.0114  0.1469
10535SOL     OW33088   6.255   0.578   6.523  0.2315 -0.3026  0.1999
10535SOL    HW133089   6.342   0.545   6.547  1.0086 -0.0658 -2.0916
10535SOL    HW233090   6.266   0.673   6.519 -0.1159 -0.2733 -0.1097
10536SOL     OW33091   2.032   3.608   7.251 -0.4445 -0.7729 -0.0508
10536SOL    HW133092   1.982   3.604   7.333 -1.2542 -1.1192 -0.5509
10536SOL    HW233093   2.123   3.611   7.278 -0.7618  1.0690  0.9322
10537SOL     OW33094   6.086   7.130   4.196 -0.1384  0.2520 -0.2965
10537SOL    HW133095   6.027   7.117   4.121  2.0589  4.3085 -2.8884
10537SOL    HW233096   6.056   7.211   4.237 -0.4609 -1.2204  2.4668
10538SOL     OW33097   6.292   2.165   6.809 -0.0473 -0.4370 -0.5988
10538SOL    HW133098   6.374   2.140   6.766 -0.6440 -0.1409 -1.9566
10538SOL    HW233099   6.247   2.218   6.744  0.7288  3.3651  1.8091
10539SOL     OW33100   4.894   7.766   3.708  0.3096 -0.4254  0.3184
10539SOL    HW133101   4.838   7.832   3.667  1.2217 -0.1965 -0.5886
10539SOL    HW233102   4.840   7.728   3.777 -0.5943  0.5215  0.1467
10540SOL     OW33103   2.567   2.150   2.699  0.0474 -0.3425  0.4960
10540SOL    HW133104   2.609   2.194   2.773 -0.9790  3.5885 -1.1392
10540SOL    HW233105   2.618   2.070   2.687  1.1795 -0.3054  4.4307
10541SOL     OW33106   1.331   6.803   2.698 -0.3002 -0.5044  0.2912
10541SOL    HW133107   1.307   6.889   2.662  0.7549 -0.4316 -0.2492
10541SOL    HW233108   1.312   6.742   2.627  0.0374 -0.5772  0.2620
10542SOL     OW33109   3.888   3.166   7.539  0.0276 -0.1484  0.6319
10542SOL    HW133110   3.901   3.226   7.465 -0.2818 -0.7712  0.0711
10542SOL    HW233111   3.826   3.213   7.596  0.8291  0.6465  0.8613
10543SOL     OW33112   6.317   2.283   3.996  0.6442 -0.2863  0.1557
10543SOL    HW133113   6.350   2.264   4.084  1.1410 -1.7586 -0.3417
10543SOL    HW233114   6.344   2.208   3.944  0.0042  0.4027 -1.1712
10544SOL     OW33115   4.970   1.322   0.217 -0.7319  0.6372  0.0505
10544SOL    HW133116   4.957   1.282   0.131 -1.4640 -1.7613  1.2182
10544SOL    HW233117   4.882   1.333   0.252 -0.4589  1.9725  0.3334
10545SOL     OW33118   1.614   1.071   4.694  0.1916  0.2975  0.1844
10545SOL    HW133119   1.527   1.046   4.664 -0.0706  0.9147  0.4342
10545SOL    HW233120   1.620   1.038   4.783  1.1048 -1.8570 -0.6380
10546SOL     OW33121   4.575   5.554   4.418  0.4950  0.1663 -0.2371
10546SOL    HW133122   4.651   5.541   4.362 -0.3316  0.6299 -1.4865
10546SOL    HW233123   4.575   5.647   4.438  0.3892  0.1251 -0.0386
10547SOL     OW33124   7.385   7.887   1.240  0.0431  0.3590  0.5638
10547SOL    HW133125   7.434   7.898   1.322 -0.5155 -2.1016  1.2690
10547SOL    HW233126   7.332   7.808   1.254 -2.1454  1.4646 -1.1608
10548SOL     OW33127   3.363   6.816   3.881  0.4039 -0.3896 -0.0820
10548SOL    HW133128   3.367   6.749   3.813 -0.0619 -0.0136 -0.4798
10548SOL    HW233129   3.311   6.887   3.843  1.6136  0.5608  0.0179
10549SOL     OW33130   2.758   7.451   7.307  0.4414 -0.0096 -0.8713
10549SOL    HW133131   2.690   7.519   7.302  0.4709  0.0423 -0.5544
10549SOL    HW233132   2.820   7.474   7.238  0.9148  0.7872 -0.1781
10550SOL     OW33133   7.435   8.019   3.041 -0.4166  0.0030  0.3161
10550SOL    HW133134   7.393   7.990   2.960 -1.6311 -0.0252  0.9439
10550SOL    HW233135   7.482   7.942   3.073  0.2947  0.0908 -0.4946
10551SOL     OW33136   3.938   6.183   3.953 -0.1666  0.5299  0.5634
10551SOL    HW133137   3.873   6.245   3.985 -0.2964  0.2470  0.8479
10551SOL    HW233138   3.955   6.126   4.028 -0.5505 -0.2047  0.0896
10552SOL     OW33139   0.692   0.590   4.744  0.2888  0.3634  0.2649
10552SOL    HW133140   0.701   0.616   4.835 -1.6993  2.4387 -0.0876
10552SOL    HW233141   0.600   0.566   4.735  0.7721 -1.1657 -0.8851
10553SOL     OW33142   6.349   1.476   7.998 -0.0823  0.2937  0.0696
10553SOL    HW133143   6.359   1.530   7.921 -0.8809 -0.8467 -0.8574
10553SOL    HW233144   6.435   1.437   8.012 -0.2874 -0.5836 -1.0796
10554SOL     OW33145   6.942   7.917   7.690 -0.1151 -0.2363 -0.2134
10554SOL    HW133146   6.884   7.893   7.762  0.6593  2.3704  1.3413
10554SOL    HW233147   7.029   7.888   7.719  0.1595  0.5826 -0.2029
10555SOL     OW33148   3.636   5.829   5.044  0.4043 -0.2652 -0.1125
10555SOL    HW133149   3.668   5.743   5.016  1.4112 -0.0621  0.4326
10555SOL    HW233150   3.712   5.873   5.080 -0.1919  0.7306 -0.0587
10556SOL     OW33151   4.200   3.363   7.539  0.0238 -0.2522 -0.0795
10556SOL    HW133152   4.205   3.450   7.499 -0.1843 -0.8294 -1.4046
10556SOL    HW233153   4.143   3.313   7.480 -1.8955 -0.5802  1.9977
10557SOL     OW33154   1.957   4.305   5.085  0.3837  0.1120  0.0804
10557SOL    HW133155   2.045   4.339   5.103  0.4899 -1.4026  2.6747
10557SOL    HW233156   1.971   4.227   5.032  0.7558 -1.1617  2.0143
10558SOL     OW33157   0.996   7.413   0.297  0.2566 -0.7327 -0.1071
10558SOL    HW133158   0.958   7.492   0.258  0.8877 -0.6257 -0.5068
10558SOL    HW233159   0.920   7.365   0.331  0.0084  0.9406  1.8248
10559SOL     OW33160   1.301   0.986   6.355  0.2935 -0.0561  0.1368
10559SOL    HW133161   1.348   1.038   6.420 -0.4226 -0.8274  1.2859
10559SOL    HW233162   1.344   0.900   6.358 -0.3586 -0.3753  0.2664
10560SOL     OW33163   0.205   0.972   3.139  0.0123 -0.2842 -0.7227
10560SOL    HW133164   0.121   0.991   3.181  0.4869  2.2758 -0.8525
10560SOL    HW233165   0.244   0.904   3.194  0.0655  2.1096  2.3600
10561SOL     OW33166   6.962   0.277   3.922  0.3606  0.3083  0.1755
10561SOL    HW133167   7.037   0.218   3.914 -0.4375 -1.0220  1.9627
10561SOL    HW233168   6.903   0.251   3.852  1.1539  0.7633 -0.6797
10562SOL     OW33169   7.532   3.839   5.659  0.0499  0.2913  0.3064
10562SOL    HW133170   7.599   3.889   5.705  0.7608 -0.6369  0.2935
10562SOL    HW233171   7.570   3.752   5.649 -1.0125 -0.1388 -0.0266
10563SOL     OW33172   5.739   5.340   8.229 -0.0716 -0.7323 -0.0802
10563SOL    HW133173   5.646   5.358   8.242 -0.6643  0.2127 -4.5943
10563SOL    HW233174   5.746   5.245   8.232 -1.3888 -0.8562 -0.5904
10564SOL     OW33175   4.545   5.995   1.877  0.2158 -0.7845 -0.4839
10564SOL    HW133176   4.518   5.948   1.956 -0.2839 -0.0854 -0.2300
10564SOL    HW233177   4.608   6.060   1.909  2.5351 -2.6443 -1.1156
10565SOL     OW33178   4.514   1.945   0.431 -0.0860  0.3880  0.1800
10565SOL    HW133179   4.546   1.855   0.430  1.0050  0.7599  0.7434
10565SOL    HW233180   4.465   1.953   0.514  1.1703  0.7674  0.8937
10566SOL     OW33181   6.512   3.176   3.149 -0.0704 -0.4247 -0.0915
10566SOL    HW133182   6.489   3.257   3.196 -0.1410 -0.4777 -0.0341
10566SOL    HW233183   6.434   3.122   3.155  1.1445 -1.9969  3.0387
10567SOL     OW33184   0.780   1.889   6.348 -0.1199 -0.0147 -0.5628
10567SOL    HW133185   0.693   1.895   6.308 -1.0963  0.4354  1.5472
10567SOL    HW233186   0.822   1.972   6.328  0.0759 -0.4954 -2.1581
10568SOL     OW33187   0.612   5.994   7.686  0.2911  0.3970  0.5546
10568SOL    HW133188   0.535   5.961   7.640  1.0171 -0.0430 -0.3569
10568SOL    HW233189   0.580   6.013   7.774 -1.1747  1.5131 -0.1891
10569SOL     OW33190   6.011   4.388   6.258  0.3238  0.0782  0.0738
10569SOL    HW133191   5.995   4.481   6.243 -2.6731 -0.4349 -0.2362
10569SOL    HW233192   6.005   4.348   6.171  1.2364 -0.4403  0.2462
10570SOL     OW33193   7.804   0.320   2.684  0.4200 -0.3094 -0.2235
10570SOL    HW133194   7.824   0.414   2.681 -2.1674  0.4140  2.3660
10570SOL    HW233195   7.889   0.277   2.687  1.6565  1.9495 -1.2920
10571SOL     OW33196   0.462   0.094   3.986  0.5248  0.1820  0.2310
10571SOL    HW133197   0.446   0.071   4.078  0.0088 -0.1307  0.0653
10571SOL    HW233198   0.385   0.145   3.960  1.3365  1.5018  0.3863
10572SOL     OW33199   1.046   0.800   7.176 -0.1600 -0.2073 -0.3133
10572SOL    HW133200   0.954   0.825   7.171  0.5881  2.4652 -1.7904
10572SOL    HW233201   1.055   0.728   7.115 -1.5713 -1.5224  1.0022
10573SOL     OW33202   5.653   6.813   7.861  0.1107 -0.1424 -0.3126
10573SOL    HW133203   5.653   6.864   7.780  0.9016  1.2540  0.5376
10573SOL    HW233204   5.563   6.819   7.893 -0.0128 -0.0274 -0.6806
10574SOL     OW33205   1.220   0.174   7.511 -0.7808  0.3157 -0.6942
10574SOL    HW133206   1.264   0.173   7.427  0.0281 -1.6968 -0.2674
10574SOL    HW233207   1.281   0.131   7.571 -1.4324  1.5132  0.8905
10575SOL     OW33208   1.725   2.297   4.772 -0.0671  0.1712  0.4884
10575SOL    HW133209   1.810   2.292   4.728  0.0044  1.2455  0.5136
10575SOL    HW233210   1.661   2.284   4.702  0.0728  0.9115  0.2244
10576SOL     OW33211   2.812   5.037   7.409 -0.2402 -0.1827 -0.5295
10576SOL    HW133212   2.762   4.958   7.387 -1.4893  0.9111 -1.7583
10576SOL    HW233213   2.902   5.007   7.419 -0.8624 -1.9273  0.0618
10577SOL     OW33214   1.565   0.474   6.295 -0.5413  0.5013  0.0749
10577SOL    HW133215   1.483   0.425   6.309 -1.1786  1.3490 -0.6238
10577SOL    HW233216   1.628   0.433   6.355 -1.2808 -0.6420  0.0927
10578SOL     OW33217   2.154   3.614   2.156  0.0880 -0.0255  0.1936
10578SOL    HW133218   2.146   3.577   2.068 -1.0750  0.2352  0.1936
10578SOL    HW233219   2.245   3.596   2.180 -0.1922 -2.1240 -0.1564
10579SOL     OW33220   7.946   7.212   2.099 -0.1839 -0.2984 -0.6094
10579SOL    HW133221   8.021   7.271   2.100  0.8365 -1.5651 -0.9182
10579SOL    HW233222   7.879   7.257   2.151  0.2634  1.5154 -1.5675
10580SOL     OW33223   5.724   3.969   0.496  0.0056  0.0831  0.0351
10580SOL    HW133224   5.736   4.003   0.585 -1.5777 -2.2031  1.1555
10580SOL    HW233225   5.803   3.918   0.479  0.0693  0.0847  0.3274
10581SOL     OW33226   3.063   1.574   8.188  0.4599  0.0675  0.6094
10581SOL    HW133227   3.053   1.651   8.132  2.3124  0.0594  0.2210
10581SOL    HW233228   3.064   1.500   8.127 -0.4348 -0.1987  0.9093
10582SOL     OW33229   0.470   1.685   7.682  0.4776 -0.2471  0.0032
10582SOL    HW133230   0.563   1.709   7.682  1.1356 -2.4013 -3.1934
10582SOL    HW233231   0.428   1.752   7.628  0.7195 -1.0178 -1.1495
10583SOL     OW33232   2.044   0.194   2.157  0.2101 -0.2546 -0.6223
10583SOL    HW133233   1.983   0.124   2.180 -0.5733 -0.1758 -2.3868
10583SOL    HW233234   2.060   0.241   2.239 -0.9298 -1.1864  0.1367
10584SOL     OW33235   5.910   3.997   4.885  0.3452 -0.1804 -0.5314
10584SOL    HW133236   5.865   3.919   4.852 -1.7010  0.3601  0.9118
10584SOL    HW233237   5.979   3.962   4.943  0.0916 -0.9453 -0.6872
10585SOL     OW33238   2.679   3.590   5.242 -0.4600 -0.7227  0.1573
10585SOL    HW133239   2.749   3.557   5.298  0.2742 -0.9540 -0.8702
10585SOL    HW233240   2.633   3.512   5.212 -1.0519 -0.5806  0.6949
10586SOL     OW33241   7.253   6.885   5.402  0.0375  0.4269 -0.1043
10586SOL    HW133242   7.269   6.827   5.476  0.9766  0.8344  0.0214
10586SOL    HW233243   7.316   6.956   5.413  2.0030 -0.8073 -2.6769
10587SOL     OW33244   5.740   0.400   1.301 -0.3386 -0.1019 -0.0288
10587SOL    HW133245   5.787   0.449   1.369 -0.2347  0.4124 -0.4648
10587SOL    HW233246   5.662   0.366   1.345 -0.3836  0.4090  0.2903
10588SOL     OW33247   5.311   7.529   0.602 -0.4563 -0.4442  0.2543
10588SOL    HW133248   5.279   7.598   0.544 -0.6443 -0.4806  0.3122
10588SOL    HW233249   5.363   7.472   0.546  0.4351  0.2283  0.3861
10589SOL     OW33250   6.978   4.078   4.069  0.2519 -0.2961  0.5775
10589SOL    HW133251   6.884   4.091   4.084  0.4714  1.8490  0.1795
10589SOL    HW233252   6.996   3.991   4.105 -1.7786 -0.4988  1.1502
10590SOL     OW33253   7.458   7.054   6.696 -0.5895 -0.1138  0.0554
10590SOL    HW133254   7.421   7.009   6.772 -1.5676  1.7072  0.6861
10590SOL    HW233255   7.506   7.127   6.733  1.3567 -0.8673 -0.9370
10591SOL     OW33256   6.977   5.217   3.326  0.0785  0.2327  0.2579
10591SOL    HW133257   6.896   5.261   3.354  0.6555 -0.1310  2.5815
10591SOL    HW233258   6.948   5.156   3.258 -0.9687  3.0182 -1.9138
10592SOL     OW33259   8.274   0.625   6.410  0.9547 -0.7185 -0.1983
10592SOL    HW133260   8.369   0.615   6.405  1.3362  2.2194  0.4415
10592SOL    HW233261   8.258   0.665   6.495 -0.7604 -0.0563 -0.8134
10593SOL     OW33262   2.971   6.910   2.202  0.3586  0.3169  0.3408
10593SOL    HW133263   3.040   6.853   2.167  2.2880  1.9028  1.4666
10593SOL    HW233264   2.972   6.987   2.144 -1.7259 -0.4113 -0.7190
10594SOL     OW33265   8.236   1.516   0.079  0.8074  0.4174  0.4139
10594SOL    HW133266   8.258   1.423   0.080 -1.1206 -0.0609  2.8673
10594SOL    HW233267   8.194   1.530  -0.006  1.4281 -0.8529 -0.1145
10595SOL     OW33268   3.478   5.839   3.330 -0.1791  0.5464  0.4574
10595SOL    HW133269   3.519   5.824   3.415 -0.5031 -0.5811  0.4153
10595SOL    HW233270   3.539   5.801   3.267 -0.3090  0.6940  0.2434
10596SOL     OW33271   0.976   2.682   6.287  0.7864 -0.5253 -0.7684
10596SOL    HW133272   0.969   2.595   6.249 -0.5172 -0.0814 -1.5778
10596SOL    HW233273   0.931   2.675   6.371  0.8364 -0.6719 -0.7540
10597SOL     OW33274   0.765   5.361   0.764 -1.3070 -0.4671  0.4862
10597SOL    HW133275   0.736   5.288   0.709  2.6110 -0.5318 -1.6756
10597SOL    HW233276   0.779   5.322   0.851  1.8527 -2.6397 -0.9230
10598SOL     OW33277   3.268   2.888   4.004  0.1932  0.1497 -0.1395
10598SOL    HW133278   3.239   2.944   4.076 -0.8934  1.6587 -1.7230
10598SOL    HW233279   3.220   2.806   4.016  1.4744 -0.3417  1.9488
10599SOL     OW33280   8.002   6.009   0.642  0.2319 -0.1989  0.0541
10599SOL    HW133281   8.038   5.926   0.673 -0.4523 -0.3504  0.4576
10599SOL    HW233282   7.910   5.990   0.624  0.1940  0.3453 -0.3342
10600SOL     OW33283   3.287   4.016   4.377 -0.1889  0.3034  0.4515
10600SOL    HW133284   3.343   3.997   4.301 -0.7048  0.0217  0.1342
10600SOL    HW233285   3.280   4.111   4.379 -1.5498  0.2595 -0.8828
10601SOL     OW33286   3.496   5.285   2.479 -0.1624  0.4634  0.2652
10601SOL    HW133287   3.463   5.294   2.390 -1.9420 -3.8254  0.3545
10601SOL    HW233288   3.430   5.327   2.534 -0.5516  0.5086 -0.2384
10602SOL     OW33289   1.425   1.129   1.782  0.3337  0.1407 -0.2114
10602SOL    HW133290   1.344   1.090   1.816  0.0903  0.8346  0.0151
10602SOL    HW233291   1.412   1.129   1.687  0.1440  0.0760 -0.1874
10603SOL     OW33292   3.133   8.079   0.603 -0.6560 -0.6052  0.4169
10603SOL    HW133293   3.100   8.004   0.554  0.4326 -0.2326 -0.8953
10603SOL    HW233294   3.074   8.151   0.579 -0.6036 -0.6120  0.2682
10604SOL     OW33295   5.199   8.214   0.796  0.0422  0.0740  0.7074
10604SOL    HW133296   5.236   8.224   0.883  1.0526  2.8902 -0.0118
10604SOL    HW233297   5.268   8.242   0.736 -2.4106  3.2801 -0.7574
10605SOL     OW33298   1.703   7.170   2.775 -0.1827 -0.3020  0.2190
10605SOL    HW133299   1.612   7.200   2.775 -0.2805 -0.5778  0.9892
10605SOL    HW233300   1.707   7.106   2.846  0.5556 -0.4733  0.0263
10606SOL     OW33301   2.285   5.659   4.017  0.3347 -0.5744  0.1381
10606SOL    HW133302   2.193   5.634   4.008  0.6585 -1.1000 -1.9545
10606SOL    HW233303   2.293   5.739   3.965  0.3844  1.3199  2.9031
10607SOL     OW33304   6.842   5.553   0.755 -0.0119  0.1301  0.1771
10607SOL    HW133305   6.752   5.566   0.724  0.5030  1.5645 -0.7398
10607SOL    HW233306   6.897   5.580   0.681  1.2040  1.3418  1.5004
10608SOL     OW33307   7.052   0.784   8.092  0.5165  1.2093  0.0770
10608SOL    HW133308   6.964   0.749   8.106 -0.1046  3.0027  0.6951
10608SOL    HW233309   7.043   0.844   8.018  1.7172 -0.4016 -1.4243
10609SOL     OW33310   7.727   2.441   3.559 -0.2795  0.2974 -0.1452
10609SOL    HW133311   7.807   2.475   3.599 -1.1791  1.9661  0.3005
10609SOL    HW233312   7.658   2.461   3.622 -0.9782 -1.7501 -0.2016
10610SOL     OW33313   6.119   2.115   1.183  0.1670 -0.0630 -0.1242
10610SOL    HW133314   6.190   2.113   1.119 -0.9471  1.5132 -1.4469
10610SOL    HW233315   6.149   2.057   1.254  2.8505  0.7347 -0.5376
10611SOL     OW33316   6.401   5.268   3.742  0.1758  0.3120 -0.1421
10611SOL    HW133317   6.367   5.226   3.663  0.1999  0.1506 -0.0665
10611SOL    HW233318   6.462   5.334   3.709  2.4564 -1.7393 -0.1738
10612SOL     OW33319   0.765   2.347   6.423 -0.6035  0.8341  0.3221
10612SOL    HW133320   0.779   2.295   6.501  0.1417  1.6277  0.7188
10612SOL    HW233321   0.848   2.392   6.407 -0.8879  1.0430 -0.6510
10613SOL     OW33322   4.982   7.036   6.159  0.4531  0.4894 -0.5615
10613SOL    HW133323   5.030   6.959   6.189 -0.1438  0.0268 -0.7898
10613SOL    HW233324   4.986   7.097   6.233 -2.2418 -1.2024  1.0921
10614SOL     OW33325   1.693   7.076   0.131  0.0506 -0.0483  0.2057
10614SOL    HW133326   1.669   7.093   0.040  0.4184 -0.2123  0.0742
10614SOL    HW233327   1.698   6.981   0.137 -0.5103 -0.0585  0.5418
10615SOL     OW33328   1.524   7.739   4.295 -0.1302 -0.7277 -0.1163
10615SOL    HW133329   1.540   7.661   4.242  0.5807 -0.1615 -0.7447
10615SOL    HW233330   1.611   7.780   4.305 -0.1997 -0.9587  1.6938
10616SOL     OW33331   4.872   8.176   3.585  0.1670  0.1697 -0.0830
10616SOL    HW133332   4.872   8.181   3.680 -1.6857  1.3847 -0.1434
10616SOL    HW233333   4.951   8.224   3.558 -0.3661  1.5173  0.7495
10617SOL     OW33334   3.750   2.194   3.405 -0.3549  0.9135 -0.3841
10617SOL    HW133335   3.803   2.218   3.328  1.1394  0.7436  0.5841
10617SOL    HW233336   3.799   2.125   3.448 -2.3622 -0.6705 -0.5445
10618SOL     OW33337   7.336   7.273   7.971 -0.7916  0.1803  0.0331
10618SOL    HW133338   7.319   7.224   8.051 -1.2159  1.9980  1.0999
10618SOL    HW233339   7.320   7.364   7.996  0.7232  0.9352 -1.6698
10619SOL     OW33340   5.682   4.958   1.700 -0.3417 -0.1250 -0.2436
10619SOL    HW133341   5.610   4.976   1.641 -1.3661 -0.3538  0.9063
10619SOL    HW233342   5.757   5.004   1.663 -1.3947  1.1715 -0.7575
10620SOL     OW33343   1.257   1.394   5.083 -0.4540 -0.3549  1.1942
10620SOL    HW133344   1.282   1.480   5.119 -0.8985  0.0101  0.6442
10620SOL    HW233345   1.334   1.367   5.032 -0.5243 -0.0284  0.9138
10621SOL     OW33346   3.504   1.878   3.911  0.3969 -0.4633 -0.2380
10621SOL    HW133347   3.515   1.891   4.006  1.3456 -2.1998 -0.1015
10621SOL    HW233348   3.448   1.801   3.904  1.8408 -1.4471 -1.1093
10622SOL     OW33349   5.300   3.699   3.998  0.0674 -0.3719  0.2871
10622SOL    HW133350   5.220   3.689   4.050  1.6684  0.3733  2.9731
10622SOL    HW233351   5.280   3.769   3.935 -1.9974 -1.4969 -0.3320
10623SOL     OW33352   4.428   0.553   2.401  0.7191 -0.0219 -0.0752
10623SOL    HW133353   4.423   0.477   2.343  2.6210 -0.9519  0.9495
10623SOL    HW233354   4.504   0.537   2.456  0.2516  1.9117  1.1983
10624SOL     OW33355   6.061   7.450   6.824 -0.3499  0.1418  0.2241
10624SOL    HW133356   6.121   7.428   6.753 -0.0903  1.2534  0.0910
10624SOL    HW233357   5.977   7.412   6.798 -0.0700 -0.1154 -0.2980
10625SOL     OW33358   6.003   0.322   4.623 -0.2782  0.6517  0.6022
10625SOL    HW133359   6.051   0.383   4.567 -0.3470 -1.7752 -2.1836
10625SOL    HW233360   5.913   0.328   4.594 -0.4951  0.0922  1.1345
10626SOL     OW33361   2.107   5.222   2.523  0.2500  0.6032 -0.4925
10626SOL    HW133362   2.031   5.208   2.467  0.2636 -0.6945 -0.2051
10626SOL    HW233363   2.182   5.220   2.463  0.5293 -3.6033 -0.1759
10627SOL     OW33364   5.929   2.498   2.803  1.0172 -0.3189 -0.1146
10627SOL    HW133365   5.936   2.512   2.898  1.4839 -1.6679  0.0633
10627SOL    HW233366   5.835   2.501   2.785  0.8200 -1.6037  0.6454
10628SOL     OW33367   8.233   6.736   1.083  0.1079  0.2228  0.1141
10628SOL    HW133368   8.229   6.754   0.989 -0.5674 -0.9859 -0.0971
10628SOL    HW233369   8.307   6.789   1.115 -1.1704  2.5285 -0.6475
10629SOL     OW33370   1.794   8.271   4.820 -0.4749 -0.4639  0.2735
10629SOL    HW133371   1.889   8.275   4.830 -0.2754 -2.0158 -0.9097
10629SOL    HW233372   1.761   8.270   4.910  0.7211 -1.8911  0.7127
10630SOL     OW33373   6.539   7.302   3.415 -0.0948  0.0061  0.2784
10630SOL    HW133374   6.618   7.251   3.394 -0.3204  0.0992 -0.8535
10630SOL    HW233375   6.489   7.302   3.333 -0.3260  1.6377  0.4121
10631SOL     OW33376   5.096   1.161   0.438 -0.0881  0.1487 -0.1352
10631SOL    HW133377   5.176   1.123   0.400  0.6064  0.6522  0.7891
10631SOL    HW233378   5.077   1.236   0.382 -0.2123 -0.2850 -0.6744
10632SOL     OW33379   3.407   1.821   1.477  0.7521 -0.1740 -0.3208
10632SOL    HW133380   3.342   1.891   1.472  3.3346  2.1854 -2.1774
10632SOL    HW233381   3.385   1.763   1.404 -0.0595 -0.1715 -0.0948
10633SOL     OW33382   3.930   5.028   1.316 -0.2060 -0.2324  0.4510
10633SOL    HW133383   3.867   5.042   1.387 -0.4409 -1.8165  0.5573
10633SOL    HW233384   3.997   4.971   1.353  0.7025  0.5105 -0.0164
10634SOL     OW33385   6.012   7.658   6.369  0.2368 -0.1048  0.5495
10634SOL    HW133386   6.005   7.738   6.317 -0.0732 -0.0221  0.7197
10634SOL    HW233387   6.095   7.619   6.341  0.6159  0.5108  0.7891
10635SOL     OW33388   5.191   0.092   1.418 -0.3541  0.1181 -0.2304
10635SOL    HW133389   5.122   0.054   1.363 -0.3293 -0.5459  0.1941
10635SOL    HW233390   5.209   0.177   1.378  0.6828 -0.9621 -2.0804
10636SOL     OW33391   5.977   0.949   2.193  0.0319 -0.1938 -0.9315
10636SOL    HW133392   5.933   0.988   2.269 -0.8929 -1.4561 -0.8078
10636SOL    HW233393   6.029   1.021   2.157 -0.9968  0.9359 -0.2248
10637SOL     OW33394   6.501   4.483   5.944 -0.6419  0.0846  0.3527
10637SOL    HW133395   6.422   4.430   5.944 -0.0025 -0.8931 -0.2256
10637SOL    HW233396   6.572   4.421   5.961  0.1795  0.6392 -0.9609
10638SOL     OW33397   5.319   4.190   4.283  0.6287 -0.0778  0.4342
10638SOL    HW133398   5.384   4.125   4.310  2.2060  1.1496 -0.3136
10638SOL    HW233399   5.304   4.171   4.191 -0.9033 -1.0166  0.8492
10639SOL     OW33400   2.947   4.916   0.649  0.4582  0.0223 -0.2628
10639SOL    HW133401   2.959   4.906   0.744  0.4046  0.8452 -0.1622
10639SOL    HW233402   3.019   4.867   0.610  0.0023 -1.0334  0.1822
10640SOL     OW33403   3.761   6.395   4.139 -0.3984  0.2332  0.2869
10640SOL    HW133404   3.801   6.439   4.215  2.1988  0.5191 -1.1950
10640SOL    HW233405   3.710   6.324   4.177 -1.1168  1.8567  2.4584
10641SOL     OW33406   8.040   0.147   5.019 -0.2814  0.2783 -0.5058
10641SOL    HW133407   7.988   0.161   4.940 -0.1413 -1.0463 -0.8444
10641SOL    HW233408   8.128   0.176   4.995 -0.3422  0.3178 -0.6810
10642SOL     OW33409   1.167   2.512   2.790  0.2484 -0.1315 -0.0048
10642SOL    HW133410   1.223   2.442   2.825  0.6487 -0.6585 -1.6581
10642SOL    HW233411   1.085   2.467   2.767  0.2876  0.0534 -0.5054
10643SOL     OW33412   7.750   4.416   7.214  0.1075 -0.1228 -0.1223
10643SOL    HW133413   7.665   4.383   7.187  0.4215 -1.4951  0.5132
10643SOL    HW233414   7.805   4.408   7.136  0.5211 -2.3412  0.3638
10644SOL     OW33415   4.890   3.915   6.930  0.1553  0.0548 -0.1464
10644SOL    HW133416   4.910   3.885   7.019 -1.6172 -1.0710 -0.0808
10644SOL    HW233417   4.947   3.863   6.874 -0.7655 -1.3584  0.1765
10645SOL     OW33418   8.091   4.129   6.249 -0.1767 -0.1094  0.5722
10645SOL    HW133419   8.169   4.089   6.210 -1.6581 -0.2645 -2.3426
10645SOL    HW233420   8.021   4.066   6.232 -1.6412  1.6723 -0.0990
10646SOL     OW33421   0.257   4.675   3.301  0.2547  0.5954  0.3223
10646SOL    HW133422   0.237   4.685   3.208 -1.0123 -0.1413  0.5040
10646SOL    HW233423   0.201   4.740   3.344 -0.1828 -0.0206  0.6770
10647SOL     OW33424   6.533   4.478   1.610  0.6313 -0.1230 -0.3460
10647SOL    HW133425   6.617   4.496   1.653 -0.9068 -0.2514  2.8029
10647SOL    HW233426   6.495   4.565   1.594  0.1637 -0.1338  0.6919
10648SOL     OW33427   0.935   6.216   1.518 -0.5774  0.5451  0.7879
10648SOL    HW133428   0.892   6.140   1.558  1.2475 -1.0523 -0.2452
10648SOL    HW233429   1.014   6.229   1.570 -0.4570  1.2096  0.4374
10649SOL     OW33430   4.224   1.284   6.063  0.0813  0.5087 -0.1470
10649SOL    HW133431   4.225   1.317   5.973 -0.3887 -0.1960 -0.4167
10649SOL    HW233432   4.296   1.330   6.107 -0.7302  2.0872 -0.4375
10650SOL     OW33433   4.617   8.053   6.083 -0.2902 -0.3822 -0.3557
10650SOL    HW133434   4.543   8.076   6.139  0.1933 -0.7382  0.4436
10650SOL    HW233435   4.579   8.042   5.996 -1.0998 -0.1134 -0.0419
10651SOL     OW33436   7.717   0.474   3.600 -0.3524 -0.2076  0.1618
10651SOL    HW133437   7.804   0.487   3.638 -0.2942  0.0304 -0.0483
10651SOL    HW233438   7.720   0.523   3.517 -1.0605  0.7431  0.6837
10652SOL     OW33439   5.151   1.684   1.411 -0.1631  0.3984  0.8673
10652SOL    HW133440   5.080   1.674   1.348 -0.2751  1.6619  0.7775
10652SOL    HW233441   5.110   1.671   1.496 -0.3871  0.5449  0.7831
10653SOL     OW33442   2.441   2.429   5.899  0.5351  0.3772 -0.2278
10653SOL    HW133443   2.483   2.514   5.907  0.1382  0.5162  0.4116
10653SOL    HW233444   2.512   2.366   5.913  0.7848  0.6053 -0.4706
10654SOL     OW33445   2.252   1.984   3.410 -0.0884  0.2082 -0.1246
10654SOL    HW133446   2.264   2.055   3.347 -0.9289 -0.2286 -0.7907
10654SOL    HW233447   2.268   1.904   3.359  0.8397 -0.0857  0.6146
10655SOL     OW33448   0.332   7.742   5.293  0.5967 -0.5823 -0.1188
10655SOL    HW133449   0.276   7.703   5.360 -1.7857  1.2258 -0.9750
10655SOL    HW233450   0.305   7.699   5.212  1.3933 -0.6274 -0.3679
10656SOL     OW33451   0.045   4.499   5.717  0.1420  0.2854  0.4103
10656SOL    HW133452  -0.029   4.458   5.762  1.0189 -0.4664  1.1754
10656SOL    HW233453   0.122   4.453   5.749  0.8923  0.5674 -0.9379
10657SOL     OW33454   2.152   7.987   7.057  0.1377 -0.2395 -0.1782
10657SOL    HW133455   2.193   8.060   7.009  0.6621 -0.9022 -0.7500
10657SOL    HW233456   2.147   7.916   6.992 -2.7704  0.1248 -0.3927
10658SOL     OW33457   7.468   1.963   7.697  0.4457 -0.8819  0.0489
10658SOL    HW133458   7.435   1.902   7.763  2.1415 -1.7893  0.1102
10658SOL    HW233459   7.395   2.023   7.680 -0.9621 -2.4118  0.6090
10659SOL     OW33460   7.764   5.195   8.135  0.6227 -0.1896  0.5855
10659SOL    HW133461   7.764   5.253   8.059 -2.6404 -1.0237 -0.1339
10659SOL    HW233462   7.834   5.133   8.119 -0.7454 -1.0460 -2.3367
10660SOL     OW33463   2.193   4.387   4.008 -0.7678 -0.5507 -0.0400
10660SOL    HW133464   2.126   4.319   4.002  0.1501 -1.2653 -2.6633
10660SOL    HW233465   2.154   4.463   3.964 -0.2704 -0.6240 -0.6074
10661SOL     OW33466   3.738   0.813   6.870  0.4922  0.0794  0.3952
10661SOL    HW133467   3.745   0.861   6.952 -1.9373  1.7875 -0.3381
10661SOL    HW233468   3.727   0.880   6.803  2.3350 -1.2992 -1.3360
10662SOL     OW33469   1.963   2.221   6.330  0.0824  0.0503  0.1878
10662SOL    HW133470   2.014   2.145   6.356  0.5646  0.8976  1.7245
10662SOL    HW233471   2.008   2.255   6.253  0.0614 -1.0012 -0.2994
10663SOL     OW33472   0.525   8.287   5.764 -0.0744 -0.0845  0.1747
10663SOL    HW133473   0.553   8.269   5.853  0.4818  0.8140  0.1860
10663SOL    HW233474   0.602   8.272   5.710 -0.2004  0.1175 -0.0672
10664SOL     OW33475   0.888   0.836   4.296 -0.2800  0.2097 -0.6822
10664SOL    HW133476   0.944   0.907   4.328 -0.4566  0.0302  0.0568
10664SOL    HW233477   0.799   0.867   4.312 -0.3439 -1.0226  1.6058
10665SOL     OW33478   2.148   8.207   7.810 -0.4823  0.1581 -0.0967
10665SOL    HW133479   2.220   8.268   7.793 -1.3263  0.6655 -1.8653
10665SOL    HW233480   2.190   8.132   7.852  1.1060  0.3935 -1.2361
10666SOL     OW33481   7.122   7.884   7.908 -0.2050 -0.5236  0.5861
10666SOL    HW133482   7.182   7.811   7.891 -0.2633 -0.3597 -0.3332
10666SOL    HW233483   7.169   7.961   7.876 -0.6764 -0.3200  0.3872
10667SOL     OW33484   4.592   1.859   5.599  0.5556 -0.1852  0.0946
10667SOL    HW133485   4.685   1.839   5.602  0.5517 -0.2623 -0.2825
10667SOL    HW233486   4.586   1.937   5.543  0.4558  0.1827  0.6186
10668SOL     OW33487   0.442   1.855   2.157  0.1510  0.1033 -0.2630
10668SOL    HW133488   0.358   1.851   2.112 -0.2790  0.3622  0.5055
10668SOL    HW233489   0.507   1.836   2.089 -0.6532 -2.4002 -0.3880
10669SOL     OW33490   2.844   3.633   4.179 -0.3491  0.3487 -0.1320
10669SOL    HW133491   2.853   3.655   4.272 -0.6574  1.3583 -0.3319
10669SOL    HW233492   2.845   3.538   4.177 -1.0658  0.3007  0.9915
10670SOL     OW33493   0.158   5.553   6.288  0.2723  0.7430 -0.3958
10670SOL    HW133494   0.089   5.585   6.229 -0.1304 -0.3621 -0.5374
10670SOL    HW233495   0.221   5.624   6.291 -0.0600  1.1106 -1.6016
10671SOL     OW33496   3.766   7.573   3.386  0.2766 -0.5639  0.1747
10671SOL    HW133497   3.796   7.640   3.325  1.0693 -1.2199 -0.1679
10671SOL    HW233498   3.755   7.619   3.469 -1.4663  0.4894 -0.6071
10672SOL     OW33499   4.203   3.008   1.948 -1.0022  0.3317 -0.4333
10672SOL    HW133500   4.286   2.988   1.906 -0.7884  1.6419 -0.6640
10672SOL    HW233501   4.144   3.031   1.876 -1.2045  0.6187 -0.1792
10673SOL     OW33502   3.222   4.356   2.800 -0.6888 -0.0036  0.1443
10673SOL    HW133503   3.217   4.414   2.876 -1.0292 -0.0826  0.1845
10673SOL    HW233504   3.135   4.363   2.759  0.1109  1.5327 -1.3445
10674SOL     OW33505   4.084   2.510   6.151 -0.3348 -0.1709  0.3740
10674SOL    HW133506   4.105   2.445   6.218 -0.3567  1.3727  1.9123
10674SOL    HW233507   3.992   2.492   6.129 -0.9087  0.4667  2.1246
10675SOL     OW33508   1.570   3.329   2.157 -0.2031 -0.3242  0.0861
10675SOL    HW133509   1.608   3.388   2.091  1.3830  0.2342  1.4556
10675SOL    HW233510   1.531   3.258   2.106  1.9719 -0.4714 -1.4441
10676SOL     OW33511   7.873   1.095   0.784 -0.3240 -0.1109 -0.0412
10676SOL    HW133512   7.954   1.144   0.767  0.2461 -0.7722  0.7543
10676SOL    HW233513   7.902   1.007   0.806 -1.3902 -1.1208 -2.5048
10677SOL     OW33514   2.527   7.768   0.167  0.0291  0.2907  0.3057
10677SOL    HW133515   2.441   7.795   0.136 -0.1167 -2.0223 -1.4355
10677SOL    HW233516   2.511   7.740   0.258 -1.1123 -0.3669 -0.0804
10678SOL     OW33517   5.220   0.535   7.073 -0.1330 -0.8036  0.1828
10678SOL    HW133518   5.177   0.587   7.005  2.4156  0.2378 -0.7013
10678SOL    HW233519   5.163   0.459   7.085 -2.0140  0.3554 -1.1683
10679SOL     OW33520   2.846   6.794   1.765 -0.0647  0.3664  0.3540
10679SOL    HW133521   2.799   6.746   1.833 -0.5955  1.3526  0.6826
10679SOL    HW233522   2.797   6.776   1.684  0.1399 -0.1982  0.3492
10680SOL     OW33523   0.827   6.706   6.052  0.2900 -0.2779  0.0558
10680SOL    HW133524   0.874   6.790   6.053  0.1960 -0.2130 -0.5250
10680SOL    HW233525   0.888   6.645   6.011  0.2851 -0.4486  0.3033
10681SOL     OW33526   4.036   1.680   8.198 -0.3232  0.2144 -0.1872
10681SOL    HW133527   3.948   1.678   8.235  0.3218  0.5081  1.4015
10681SOL    HW233528   4.023   1.669   8.103 -2.0981  0.9811 -0.0425
10682SOL     OW33529   1.074   5.546   2.055  0.2790  0.6701  0.4516
10682SOL    HW133530   1.165   5.558   2.084  0.4025 -3.0461  1.8767
10682SOL    HW233531   1.079   5.476   1.990 -1.6657 -0.3099  1.3240
10683SOL     OW33532   2.133   7.267   3.087 -0.4297  0.2998  0.5042
10683SOL    HW133533   2.042   7.291   3.103 -0.7346 -0.0351 -0.6741
10683SOL    HW233534   2.139   7.175   3.112  0.0063  0.7650  2.1726
10684SOL     OW33535   3.607   4.733   7.878  0.1012  0.0757 -0.3551
10684SOL    HW133536   3.629   4.804   7.938 -2.4969  1.0437 -0.4989
10684SOL    HW233537   3.594   4.657   7.935 -0.2842  0.4886  0.1094
10685SOL     OW33538   7.819   5.141   4.559  0.1758  0.1710  0.1212
10685SOL    HW133539   7.809   5.234   4.538  0.7351 -0.0702 -1.2642
10685SOL    HW233540   7.900   5.115   4.514 -0.8136 -1.3509 -0.8121
10686SOL     OW33541   3.151   0.965   3.567  0.0120 -0.2571  0.4263
10686SOL    HW133542   3.172   1.053   3.535  2.2629 -0.2535  1.8500
10686SOL    HW233543   3.068   0.943   3.524 -1.9939  3.6239  2.1001
10687SOL     OW33544   6.674   8.277   0.055  0.2512 -0.1154 -0.3107
10687SOL    HW133545   6.756   8.231   0.039 -0.3160 -1.0006 -0.7218
10687SOL    HW233546   6.632   8.228   0.126  0.6595  1.0949  0.7764
10688SOL     OW33547   0.348   7.563   2.849  0.0822  0.7686 -0.4902
10688SOL    HW133548   0.273   7.544   2.906  0.3397 -0.0962 -0.4401
10688SOL    HW233549   0.308   7.591   2.766 -0.2970  2.6842  0.3091
10689SOL     OW33550   4.166   7.808   2.849  0.0036 -0.2304  0.4727
10689SOL    HW133551   4.210   7.731   2.814  0.5385 -1.1060  3.0082
10689SOL    HW233552   4.236   7.862   2.884 -0.4533  1.0247 -0.5225
10690SOL     OW33553   2.910   0.310   8.142  0.1983 -0.4416 -0.0858
10690SOL    HW133554   2.955   0.367   8.081 -0.3078  1.6470  1.4307
10690SOL    HW233555   2.978   0.252   8.176  1.0156  0.2458 -0.5441
10691SOL     OW33556   0.482   6.314   3.935  0.2658 -0.1546  0.2597
10691SOL    HW133557   0.404   6.258   3.934 -0.2147  0.4163  2.2264
10691SOL    HW233558   0.551   6.259   3.972  0.5728 -0.3756 -0.6294
10692SOL     OW33559   0.011   7.928   6.806 -0.4455  0.1965  0.0256
10692SOL    HW133560  -0.049   8.002   6.795  0.8936  1.3727  0.3568
10692SOL    HW233561  -0.035   7.867   6.864 -1.6612  0.6647 -0.4315
10693SOL     OW33562   5.617   4.922   5.468  0.6372  0.2347 -0.0250
10693SOL    HW133563   5.666   4.889   5.393 -1.4183 -1.7097 -0.5833
10693SOL    HW233564   5.533   4.952   5.432  0.1234  0.4643  1.3088
10694SOL     OW33565   4.601   2.802   0.865  0.2228 -0.6274 -0.2193
10694SOL    HW133566   4.638   2.725   0.907 -0.6712 -1.8963 -1.6944
10694SOL    HW233567   4.518   2.773   0.829  0.8370  0.4357 -2.6552
10695SOL     OW33568   0.470   4.040   6.934  0.4872 -0.5610  0.2005
10695SOL    HW133569   0.547   4.081   6.894  0.4684 -0.0074  0.7273
10695SOL    HW233570   0.432   3.988   6.863  0.1860  0.8002 -0.6629
10696SOL     OW33571   0.573   1.408   0.865 -0.1767 -0.1503 -0.3470
10696SOL    HW133572   0.502   1.449   0.815 -1.2862  1.9043  2.7541
10696SOL    HW233573   0.648   1.410   0.806 -2.2197 -0.7838 -3.0725
10697SOL     OW33574   2.064   6.342   2.618 -0.2906  0.0687 -0.1747
10697SOL    HW133575   2.053   6.251   2.592  0.2002 -0.6372  2.0277
10697SOL    HW233576   2.010   6.352   2.697  3.8236  0.1842  2.7793
10698SOL     OW33577   0.727   1.535   2.789  0.2645  0.4211 -0.8085
10698SOL    HW133578   0.659   1.551   2.724 -0.6321  0.8664  0.2404
10698SOL    HW233579   0.809   1.550   2.742 -0.3764  0.6073 -1.8726
10699SOL     OW33580   0.831   0.855   2.668 -0.4218 -0.2822  0.5555
10699SOL    HW133581   0.893   0.920   2.635 -0.1501  0.3531  2.2627
10699SOL    HW233582   0.876   0.771   2.658 -0.2517 -0.0778 -0.4356
10700SOL     OW33583   6.786   4.082   0.205 -0.0410  0.1590  0.1127
10700SOL    HW133584   6.797   4.177   0.208  0.9580  0.0440  0.3355
10700SOL    HW233585   6.703   4.065   0.249 -0.6579  1.0005 -0.7090
10701SOL     OW33586   0.376   0.384   0.265  0.3744  0.1193  0.2044
10701SOL    HW133587   0.432   0.313   0.234  0.1882  0.4365 -0.8633
10701SOL    HW233588   0.310   0.341   0.319  1.5162 -0.2784  1.3228
10702SOL     OW33589   8.138   1.606   3.507  0.4811 -0.0112 -0.3647
10702SOL    HW133590   8.233   1.608   3.493  0.5607  1.7800  0.3540
10702SOL    HW233591   8.127   1.549   3.583  1.0622  0.5597  0.1512
10703SOL     OW33592   6.272   4.397   6.786  0.4088 -0.0903 -0.0932
10703SOL    HW133593   6.246   4.488   6.770  0.6808 -0.0600 -0.3732
10703SOL    HW233594   6.364   4.401   6.808  0.5226 -0.3337 -0.4987
10704SOL     OW33595   2.052   1.996   1.512  0.5863  0.2234 -0.3308
10704SOL    HW133596   2.010   2.062   1.567 -0.8305 -1.3879  0.5213
10704SOL    HW233597   1.980   1.948   1.472  1.5290 -3.6336  2.4022
10705SOL     OW33598   5.127   5.727   3.680  0.0666 -0.1795  0.2388
10705SOL    HW133599   5.155   5.673   3.753  0.7789  0.6978  0.6290
10705SOL    HW233600   5.192   5.709   3.611 -0.2009 -0.4805  0.0658
10706SOL     OW33601   0.545   6.113   2.775  0.0414  0.0076 -0.2531
10706SOL    HW133602   0.565   6.203   2.800  0.5002  0.6383 -2.7460
10706SOL    HW233603   0.630   6.068   2.776 -0.3781 -0.7902  2.3753
10707SOL     OW33604   0.973   3.527   1.706  0.3714  0.0624  0.0297
10707SOL    HW133605   0.902   3.585   1.732  2.0254  1.2652  2.0327
10707SOL    HW233606   1.040   3.586   1.669  1.0938 -0.8314 -0.1127
10708SOL     OW33607   3.661   3.745   2.643  0.0824  0.3417  0.4539
10708SOL    HW133608   3.688   3.679   2.706  0.8994  1.7189  1.5712
10708SOL    HW233609   3.715   3.822   2.663 -2.0756  1.9407  0.3403
10709SOL     OW33610   1.505   0.445   4.588  0.1317 -0.2113 -0.3636
10709SOL    HW133611   1.586   0.396   4.576  0.1398  0.3289 -2.6527
10709SOL    HW233612   1.462   0.442   4.503 -0.9263  1.8789  0.0702
10710SOL     OW33613   6.284   0.969   6.127 -0.0497  0.1195  0.4925
10710SOL    HW133614   6.367   1.017   6.132  1.2803 -2.2337  2.1884
10710SOL    HW233615   6.310   0.877   6.124 -2.5170 -0.5745 -2.9647
10711SOL     OW33616   2.216   5.306   2.763 -0.3340 -0.5009  0.0944
10711SOL    HW133617   2.163   5.291   2.684  0.7009 -0.7972 -0.5538
10711SOL    HW233618   2.290   5.246   2.754  0.7650  0.7751  0.3861
10712SOL     OW33619   3.373   1.043   2.185  0.1742  0.2544  0.0553
10712SOL    HW133620   3.289   1.076   2.217  0.5728  2.0940 -0.7092
10712SOL    HW233621   3.377   1.073   2.094  0.7781 -1.5448 -0.5231
10713SOL     OW33622   6.309   4.350   5.603 -0.2765 -0.3577  0.2480
10713SOL    HW133623   6.331   4.312   5.518 -3.9826  0.5329 -1.2095
10713SOL    HW233624   6.347   4.438   5.600 -0.8319 -0.1421 -0.7222
10714SOL     OW33625   6.956   5.561   5.463  0.0844  0.8378  0.4311
10714SOL    HW133626   7.004   5.644   5.465 -1.6195  1.8223  1.9883
10714SOL    HW233627   6.956   5.532   5.554  1.3705 -1.3059 -0.2355
10715SOL     OW33628   6.952   6.136   6.663  0.2192  0.1544  0.0425
10715SOL    HW133629   6.897   6.119   6.739  0.4296  1.1581  0.4252
10715SOL    HW233630   7.033   6.172   6.700 -0.5869  2.9167 -0.7990
10716SOL     OW33631   7.227   0.107   8.004  0.3788 -1.0245  0.7390
10716SOL    HW133632   7.183   0.080   7.923 -0.8871  1.7514  0.4584
10716SOL    HW233633   7.265   0.192   7.984  1.9233 -1.2769  2.4458
10717SOL     OW33634   2.877   5.636   7.686  0.0164 -0.3369 -0.0870
10717SOL    HW133635   2.911   5.574   7.621  0.3183  0.0092 -0.2597
10717SOL    HW233636   2.925   5.614   7.766  1.6590  1.0627 -0.6770
10718SOL     OW33637   5.667   7.316   1.697 -0.3127 -0.3848  0.1475
10718SOL    HW133638   5.724   7.240   1.705 -0.3121 -0.2895  1.1090
10718SOL    HW233639   5.721   7.389   1.728 -0.9873 -0.3097  1.1594
10719SOL     OW33640   2.638   6.158   8.186 -0.3935 -0.5541  0.0362
10719SOL    HW133641   2.559   6.121   8.224  0.3595 -0.5306  1.6686
10719SOL    HW233642   2.634   6.251   8.207  0.3963 -0.6696  0.7383
10720SOL     OW33643   6.745   5.784   4.384  0.2874 -0.0670 -0.1805
10720SOL    HW133644   6.788   5.815   4.304  0.5524 -1.2470 -0.5187
10720SOL    HW233645   6.784   5.698   4.400  0.8402  0.5106  1.7055
10721SOL     OW33646   7.520   6.751   5.802  0.5588  0.0417 -0.2605
10721SOL    HW133647   7.505   6.738   5.895 -2.3673 -0.6653 -0.7897
10721SOL    HW233648   7.552   6.841   5.795  1.0036  0.0219  1.4248
10722SOL     OW33649   2.089   7.198   6.014  0.0607  0.0688  0.4734
10722SOL    HW133650   2.046   7.129   5.964  0.3245  0.3048 -0.0867
10722SOL    HW233651   2.018   7.258   6.038  0.2059  0.9259 -1.2162
10723SOL     OW33652   4.422   0.731   1.884  0.5995  0.2305  0.1775
10723SOL    HW133653   4.448   0.647   1.920  1.1291  0.4013  0.2002
10723SOL    HW233654   4.401   0.785   1.960 -1.1197 -0.3267  0.1008
10724SOL     OW33655   3.011   4.811   5.956 -0.0571  0.0561  0.3242
10724SOL    HW133656   2.941   4.818   5.892  1.1544 -0.8761 -1.1426
10724SOL    HW233657   3.046   4.899   5.964  0.6378 -0.0471 -1.3145
10725SOL     OW33658   1.753   6.317   7.091  0.0734  0.6642  0.4176
10725SOL    HW133659   1.816   6.248   7.071 -0.5776  0.4629 -0.9422
10725SOL    HW233660   1.744   6.314   7.186  1.6283  0.2684  0.5671
10726SOL     OW33661   6.370   0.346   5.595  0.4173 -0.5542  0.0435
10726SOL    HW133662   6.425   0.419   5.622 -1.5913  1.1993 -0.4326
10726SOL    HW233663   6.289   0.358   5.644 -0.7766 -1.1511 -1.7247
10727SOL     OW33664   0.810   6.188   5.285  0.3567  0.1270 -0.4957
10727SOL    HW133665   0.730   6.150   5.322  0.2364 -0.2901 -1.1753
10727SOL    HW233666   0.878   6.123   5.300  0.1129 -0.4625 -1.8144
10728SOL     OW33667   5.014   6.581   3.300 -0.2007  0.5876  0.8695
10728SOL    HW133668   4.974   6.508   3.348  0.5510  0.2463  0.9727
10728SOL    HW233669   5.108   6.571   3.315 -0.0309  1.0353  0.1053
10729SOL     OW33670   5.520   5.122   0.559 -1.1941  0.0959 -0.0294
10729SOL    HW133671   5.511   5.053   0.624 -0.9968 -0.3232 -0.4441
10729SOL    HW233672   5.434   5.127   0.518 -1.5251  0.8499  0.7502
10730SOL     OW33673   3.168   1.778   4.838  0.4193  0.7890  0.0504
10730SOL    HW133674   3.229   1.750   4.905 -0.7668  1.3485  1.3785
10730SOL    HW233675   3.095   1.717   4.844 -0.3053  1.6483  0.2043
10731SOL     OW33676   3.591   3.813   6.402  0.2044  0.0478 -0.1255
10731SOL    HW133677   3.687   3.823   6.401 -0.0202  2.2992 -1.7103
10731SOL    HW233678   3.561   3.877   6.466 -0.3773  0.6618 -1.0129
10732SOL     OW33679   3.379   1.264   2.724 -0.1326 -0.0305  0.0336
10732SOL    HW133680   3.381   1.333   2.790  0.8254  0.8128 -0.8581
10732SOL    HW233681   3.323   1.197   2.762  0.8244  0.1938  1.9447
10733SOL     OW33682   1.271   8.179   6.724 -0.2248 -0.0315  0.5137
10733SOL    HW133683   1.176   8.188   6.734 -0.3612  1.4956 -1.9653
10733SOL    HW233684   1.283   8.155   6.632  1.7761 -0.8088  0.9626
10734SOL     OW33685   1.617   2.581   4.794  0.4131  0.5944  0.0858
10734SOL    HW133686   1.681   2.512   4.813  0.4862 -0.0908 -2.4561
10734SOL    HW233687   1.655   2.628   4.720 -1.1848  1.3006 -0.2994
10735SOL     OW33688   3.695   4.311   1.365  0.9247  0.5295 -0.0068
10735SOL    HW133689   3.720   4.345   1.451 -0.2709 -0.1088  0.6086
10735SOL    HW233690   3.599   4.308   1.367  0.9129 -0.2445 -1.0672
10736SOL     OW33691   1.513   7.987   2.578  0.2601 -0.1232  0.3879
10736SOL    HW133692   1.516   8.035   2.661  0.0602  0.4223  0.0788
10736SOL    HW233693   1.604   7.987   2.547  0.4567 -0.8991  0.9246
10737SOL     OW33694   7.445   2.674   0.723 -0.8684  0.6388  0.0003
10737SOL    HW133695   7.528   2.669   0.676 -0.8148 -1.9392  0.3023
10737SOL    HW233696   7.404   2.589   0.708 -2.7408  1.3064  1.1736
10738SOL     OW33697   6.690   6.239   2.556 -0.3218  0.7892 -0.7738
10738SOL    HW133698   6.697   6.145   2.537  0.3673  0.7735 -0.4635
10738SOL    HW233699   6.630   6.244   2.630 -0.7628  0.6320 -1.1199
10739SOL     OW33700   0.421   7.623   3.832 -0.3128  0.6620 -0.2472
10739SOL    HW133701   0.492   7.598   3.891 -0.3386  0.8709 -0.1256
10739SOL    HW233702   0.343   7.622   3.887 -0.4893 -0.1010 -0.5125
10740SOL     OW33703   6.703   0.914   5.132  0.1156 -0.8187 -0.1964
10740SOL    HW133704   6.787   0.954   5.109  0.1688 -2.1295 -2.4763
10740SOL    HW233705   6.702   0.914   5.227  2.2549  0.1606 -0.1335
10741SOL     OW33706   0.580   7.624   1.210 -0.4491  0.4149 -0.1575
10741SOL    HW133707   0.583   7.691   1.142 -1.1970  1.3027  0.6801
10741SOL    HW233708   0.577   7.672   1.292 -1.7536 -0.6143  0.4269
10742SOL     OW33709   0.913   8.050   1.775 -0.1994 -0.1755  0.0010
10742SOL    HW133710   0.856   8.075   1.848 -0.3680  0.9018 -0.5028
10742SOL    HW233711   0.870   8.084   1.697  1.0248  0.4620 -0.4064
10743SOL     OW33712   3.514   0.656   3.882  0.5577 -0.1973  0.1669
10743SOL    HW133713   3.483   0.580   3.832  1.1005 -1.4286  1.6784
10743SOL    HW233714   3.489   0.732   3.828 -2.6747 -1.2693  0.0488
10744SOL     OW33715   2.227   4.932   0.597  0.4408  0.1396 -0.0505
10744SOL    HW133716   2.162   4.941   0.527  0.9717  1.2004 -0.4124
10744SOL    HW233717   2.201   4.998   0.662  1.7320  1.2328 -0.6449
10745SOL     OW33718   5.286   7.897   5.735 -0.2055 -0.0120 -0.0300
10745SOL    HW133719   5.322   7.862   5.817 -0.5401  0.7351  0.4415
10745SOL    HW233720   5.232   7.971   5.763  0.1467  0.6072 -0.9777
10746SOL     OW33721   2.394   5.610   5.301  0.0929 -0.1843 -0.0496
10746SOL    HW133722   2.386   5.623   5.396 -3.0716 -0.7789 -0.1820
10746SOL    HW233723   2.487   5.593   5.287  0.7765  0.9192  2.8206
10747SOL     OW33724   1.804   4.760   7.101  0.0049 -0.5866 -0.1136
10747SOL    HW133725   1.742   4.823   7.139 -0.4255 -1.0233 -0.0873
10747SOL    HW233726   1.793   4.681   7.154 -0.4461 -1.1288 -0.9985
10748SOL     OW33727   6.344   3.281   2.504 -0.4161 -0.2422  0.4078
10748SOL    HW133728   6.394   3.324   2.435  0.5975  1.1873  1.9982
10748SOL    HW233729   6.388   3.197   2.517 -0.9853 -0.7831 -1.0950
10749SOL     OW33730   3.110   3.943   7.564  0.2987  0.3617  0.1655
10749SOL    HW133731   3.057   3.993   7.626  1.3769  1.7643  0.0016
10749SOL    HW233732   3.047   3.896   7.510 -0.7111  0.6845  1.0584
10750SOL     OW33733   3.284   5.871   8.212 -0.7089  0.0767  0.0352
10750SOL    HW133734   3.346   5.839   8.146 -1.3905 -0.0378 -0.5617
10750SOL    HW233735   3.211   5.809   8.209 -0.3579 -0.4171  1.5277
10751SOL     OW33736   7.297   7.512   6.965  0.1229 -0.3305 -0.3606
10751SOL    HW133737   7.260   7.441   6.912 -0.1365 -0.1702 -0.3905
10751SOL    HW233738   7.224   7.545   7.016  0.3065 -0.2748 -0.1324
10752SOL     OW33739   8.145   4.479   5.910 -0.6974 -0.0313 -0.3360
10752SOL    HW133740   8.088   4.411   5.875 -1.6496  0.4813  0.2013
10752SOL    HW233741   8.086   4.552   5.930  0.0464  0.2687  0.8347
10753SOL     OW33742   4.019   1.254   1.449  0.0704  0.7480 -0.5123
10753SOL    HW133743   4.103   1.230   1.410 -0.6214 -0.5007 -1.2607
10753SOL    HW233744   3.971   1.296   1.377 -0.3291  0.5367 -0.3700
10754SOL     OW33745   4.048   8.036   0.868 -0.2514  0.2236  0.3141
10754SOL    HW133746   3.972   7.977   0.864  0.0687 -0.2717  1.3417
10754SOL    HW233747   4.013   8.122   0.842 -0.8488 -0.2912 -0.5945
10755SOL     OW33748   0.655   2.822   2.417  0.7815  0.3528 -0.1109
10755SOL    HW133749   0.631   2.730   2.405  0.9903  0.2362  0.3885
10755SOL    HW233750   0.724   2.837   2.352  1.4710 -0.1217  0.5053
10756SOL     OW33751   8.148   3.376   7.629  0.0497 -0.5366  0.0523
10756SOL    HW133752   8.166   3.288   7.596  4.4260 -0.0775  0.8810
10756SOL    HW233753   8.125   3.362   7.721 -1.8651 -0.9903 -0.4802
10757SOL     OW33754   1.488   2.830   1.207 -0.1062  0.2862  0.1983
10757SOL    HW133755   1.428   2.882   1.261 -0.8595 -0.4263  0.0610
10757SOL    HW233756   1.509   2.754   1.260 -0.1407  0.0270 -0.1527
10758SOL     OW33757   6.307   4.851   3.400  0.4155  0.4104  0.1780
10758SOL    HW133758   6.277   4.925   3.454 -0.9241 -0.4509  0.6633
10758SOL    HW233759   6.265   4.866   3.315  1.3845  1.0154 -0.1987
10759SOL     OW33760   0.422   8.106   3.713 -0.1013  0.2115 -0.1466
10759SOL    HW133761   0.453   8.021   3.745 -1.8095  0.0581  1.1829
10759SOL    HW233762   0.486   8.169   3.747 -1.2487 -0.0822  2.7344
10760SOL     OW33763   4.036   0.857   6.402  0.0757  0.3112 -0.1798
10760SOL    HW133764   4.111   0.848   6.343 -0.1706  0.8738 -0.5870
10760SOL    HW233765   4.071   0.902   6.479  0.5581 -1.0645  0.4232
10761SOL     OW33766   4.660   6.935   6.342 -0.0860 -0.3152 -0.0467
10761SOL    HW133767   4.750   6.933   6.373  0.0143  1.9680 -0.1124
10761SOL    HW233768   4.618   6.861   6.386  1.4298 -0.4793  1.1721
10762SOL     OW33769   3.517   4.989   6.933 -0.2504 -0.1787  0.4223
10762SOL    HW133770   3.463   5.032   6.999 -1.0917  0.2520 -0.5200
10762SOL    HW233771   3.479   4.902   6.924 -0.3656 -0.1095  0.2423
10763SOL     OW33772   0.747   6.960   8.170  0.5130  0.3606  0.1576
10763SOL    HW133773   0.821   7.017   8.149  1.3414 -0.4756  0.7760
10763SOL    HW233774   0.755   6.944   8.264  0.0593 -0.4713  0.0590
10764SOL     OW33775   3.161   7.557   5.470  0.6348  0.2834 -0.0039
10764SOL    HW133776   3.128   7.495   5.534 -1.1490  1.0370 -0.1739
10764SOL    HW233777   3.129   7.642   5.500  0.3703  0.7298 -1.4984
10765SOL     OW33778   1.581   4.023   5.191  0.8184 -0.0748 -0.2181
10765SOL    HW133779   1.597   3.948   5.134  0.8628 -1.3862  1.4702
10765SOL    HW233780   1.641   4.090   5.159  1.8260 -1.2418 -0.8570
10766SOL     OW33781   2.399   7.547   7.598 -0.6112 -0.1206  0.1825
10766SOL    HW133782   2.429   7.463   7.563 -2.5764 -0.2763 -1.2201
10766SOL    HW233783   2.430   7.547   7.689  2.7113 -0.6588 -0.8792
10767SOL     OW33784   7.441   5.638   1.740  0.2548 -1.0066  0.3740
10767SOL    HW133785   7.494   5.642   1.820 -0.0246 -0.0473  0.5215
10767SOL    HW233786   7.384   5.715   1.745  1.3905  0.0208 -1.5549
10768SOL     OW33787   1.889   6.812   8.002 -0.0098  0.3842  0.9035
10768SOL    HW133788   1.980   6.792   7.980 -0.1162  0.2073  0.6309
10768SOL    HW233789   1.839   6.736   7.973 -0.1653  0.2015  1.6460
10769SOL     OW33790   4.049   4.378   4.859  0.1106  0.3006 -0.4548
10769SOL    HW133791   3.986   4.431   4.811  0.3972  2.7014  1.7365
10769SOL    HW233792   3.996   4.324   4.917 -0.0076  2.0099  1.0775
10770SOL     OW33793   1.945   0.571   0.502 -0.0087  0.0980 -0.2732
10770SOL    HW133794   2.035   0.542   0.487  0.3536  0.6418  0.7724
10770SOL    HW233795   1.893   0.491   0.499  0.4288 -0.1478 -1.4660
10771SOL     OW33796   6.681   0.732   2.096 -0.0067  0.2316  0.0062
10771SOL    HW133797   6.765   0.688   2.113  0.0338  0.5985  0.7787
10771SOL    HW233798   6.685   0.811   2.149 -1.8896 -1.0139  2.1058
10772SOL     OW33799   3.682   5.731   3.163 -0.2915 -0.1617 -0.0555
10772SOL    HW133800   3.744   5.711   3.233 -0.2155 -1.8967 -0.6048
10772SOL    HW233801   3.649   5.646   3.134  0.4885  0.4141 -2.8499
10773SOL     OW33802   7.359   4.399   2.258  0.0543  0.1586  0.0255
10773SOL    HW133803   7.300   4.370   2.189 -0.4823 -0.2180  0.6341
10773SOL    HW233804   7.436   4.432   2.212 -1.4058  2.4351 -0.8490
10774SOL     OW33805   4.456   2.194   6.711 -0.0766 -0.1665  0.3645
10774SOL    HW133806   4.541   2.172   6.747  0.7991  0.5335 -1.2295
10774SOL    HW233807   4.393   2.152   6.770  1.3863 -1.8711  0.7469
10775SOL     OW33808   7.643   5.070   5.119  0.1741 -0.2719  0.7789
10775SOL    HW133809   7.582   5.093   5.190  0.5982 -0.4101  1.1934
10775SOL    HW233810   7.704   5.009   5.159  1.0483  0.4481  0.5749
10776SOL     OW33811   1.018   5.859   7.181 -0.2306  0.5189  0.5632
10776SOL    HW133812   0.979   5.943   7.161 -0.0956  0.1673 -1.3047
10776SOL    HW233813   0.944   5.799   7.190 -0.2903  0.6677  1.0645
10777SOL     OW33814   2.587   3.106   6.625 -0.2138 -0.2489 -0.0269
10777SOL    HW133815   2.524   3.038   6.602  0.3638 -1.0118  0.6103
10777SOL    HW233816   2.534   3.184   6.641 -0.9487 -0.7416 -0.0588
10778SOL     OW33817   0.734   4.713   5.554  0.3161 -0.1316 -0.4887
10778SOL    HW133818   0.719   4.668   5.637 -0.0468  0.7283 -0.0706
10778SOL    HW233819   0.828   4.706   5.538  1.0247  2.8098  1.8649
10779SOL     OW33820   1.117   4.805   4.460  0.8263  0.5118 -0.4831
10779SOL    HW133821   1.052   4.843   4.519  1.8165 -1.2554  1.8514
10779SOL    HW233822   1.199   4.850   4.482  0.6068  2.1845 -2.8678
10780SOL     OW33823   1.174   7.220   4.419  0.2885 -0.9774  0.7551
10780SOL    HW133824   1.106   7.188   4.360 -0.2571  0.3456  0.6476
10780SOL    HW233825   1.127   7.263   4.490  1.0039  1.8622 -0.4094
10781SOL     OW33826   2.048   6.728   5.154  0.7980  0.4387 -0.0859
10781SOL    HW133827   2.058   6.710   5.060  1.3591  1.3877 -0.2127
10781SOL    HW233828   1.983   6.798   5.158 -0.5630 -0.8247  0.3433
10782SOL     OW33829   5.558   5.215   4.896 -0.4486 -0.3914 -0.2263
10782SOL    HW133830   5.538   5.218   4.802  0.3916 -0.4383 -0.4085
10782SOL    HW233831   5.586   5.304   4.916  1.7629 -0.9943 -0.5554
10783SOL     OW33832   6.945   0.490   8.091  0.1870 -0.2315 -0.4128
10783SOL    HW133833   6.942   0.500   8.186 -0.0248 -1.0855 -0.3280
10783SOL    HW233834   6.870   0.540   8.059  0.2307  0.0165 -0.1310
10784SOL     OW33835   3.769   5.304   3.207  0.4926 -0.1376 -0.0065
10784SOL    HW133836   3.819   5.384   3.191  2.5865 -1.4960 -0.4653
10784SOL    HW233837   3.775   5.290   3.302  2.2829 -1.0720 -0.2271
10785SOL     OW33838   4.079   3.551   1.063  0.1826 -0.4252 -0.1540
10785SOL    HW133839   4.110   3.578   0.977  1.3639  1.2133  0.7358
10785SOL    HW233840   4.144   3.587   1.124 -1.3970 -0.3090  1.5135
10786SOL     OW33841   3.986   3.231   1.388 -0.0457  0.2950  0.2327
10786SOL    HW133842   4.024   3.237   1.301 -0.0128  0.2655  0.2450
10786SOL    HW233843   4.061   3.218   1.446 -0.1513 -0.6654  0.1637
10787SOL     OW33844   5.212   6.651   7.379 -0.1256 -0.0758 -0.5106
10787SOL    HW133845   5.236   6.662   7.471 -2.3050  0.4666  0.0325
10787SOL    HW233846   5.151   6.723   7.362 -1.1121 -1.2168 -1.8886
10788SOL     OW33847   7.634   7.520   5.868 -0.9011 -0.0305  0.3029
10788SOL    HW133848   7.548   7.548   5.896 -1.2226 -0.2243 -0.4596
10788SOL    HW233849   7.617   7.453   5.802 -0.1725  0.2867 -0.2198
10789SOL     OW33850   3.392   4.501   7.032  0.3489  0.0136  0.2023
10789SOL    HW133851   3.353   4.454   7.105 -0.8011  1.6769  0.6865
10789SOL    HW233852   3.484   4.513   7.057 -0.1709  1.0978  1.6783
10790SOL     OW33853   0.568   1.452   1.392  0.7987 -0.4815  0.5317
10790SOL    HW133854   0.519   1.462   1.474  1.5791 -0.9716  1.0607
10790SOL    HW233855   0.526   1.514   1.332 -0.2374 -0.6321  1.0804
10791SOL     OW33856   7.976   3.041   5.443  0.3749 -0.2896  0.5771
10791SOL    HW133857   7.908   3.062   5.507  0.2107  1.5091 -0.1475
10791SOL    HW233858   8.021   2.965   5.479 -0.7242 -0.2580  2.0549
10792SOL     OW33859   5.165   8.279   3.782 -0.5878 -0.1701  0.4378
10792SOL    HW133860   5.141   8.303   3.693 -0.2680 -1.4550  0.0092
10792SOL    HW233861   5.088   8.300   3.834 -2.3234 -3.2976 -0.7625
10793SOL     OW33862   7.649   4.490   0.699  0.1577 -0.1742  0.1355
10793SOL    HW133863   7.677   4.436   0.625  2.2488  3.6772 -2.0361
10793SOL    HW233864   7.730   4.532   0.731 -1.4365  2.1390  1.3033
10794SOL     OW33865   0.886   7.501   6.411 -0.1257  0.0975  0.1014
10794SOL    HW133866   0.922   7.467   6.329 -0.1688 -0.4524  0.3054
10794SOL    HW233867   0.953   7.561   6.444 -1.1755  2.2782 -1.5964
10795SOL     OW33868   3.172   8.221   4.430  0.1121 -0.2188  0.0952
10795SOL    HW133869   3.183   8.143   4.376 -3.3350 -1.4658  1.0531
10795SOL    HW233870   3.233   8.209   4.503  0.1882 -1.6474 -0.1908
10796SOL     OW33871   0.881   2.464   4.795  0.6554 -0.0563  0.1850
10796SOL    HW133872   0.832   2.382   4.787  2.1739 -0.8394 -1.4145
10796SOL    HW233873   0.843   2.506   4.872 -1.2593 -1.4879  0.0910
10797SOL     OW33874   3.097   7.073   4.188  0.2549 -0.4415  0.5673
10797SOL    HW133875   3.129   6.984   4.177  1.0034 -0.3175  1.6602
10797SOL    HW233876   3.080   7.104   4.099  1.8251 -0.9952  0.0673
10798SOL     OW33877   4.916   6.066   7.518 -0.2408 -0.0561 -0.0461
10798SOL    HW133878   4.919   6.153   7.559 -0.8430  0.1581 -0.4600
10798SOL    HW233879   4.852   6.018   7.570  0.4856 -0.4336  0.5198
10799SOL     OW33880   6.377   0.628   3.868 -0.0956 -0.0974 -0.0250
10799SOL    HW133881   6.311   0.697   3.869  1.3921  1.3504 -0.1441
10799SOL    HW233882   6.326   0.547   3.860 -2.0850  0.6464  3.9930
10800SOL     OW33883   4.106   7.467   5.883  0.5036 -0.0738 -0.3603
10800SOL    HW133884   4.077   7.376   5.894 -0.4720 -0.1722 -3.2867
10800SOL    HW233885   4.193   7.460   5.843  0.8162  0.2765  0.2615
10801SOL     OW33886   2.689   6.673   5.122 -0.5329  0.2607  0.4821
10801SOL    HW133887   2.688   6.763   5.089 -2.0207  0.0578 -0.0982
10801SOL    HW233888   2.674   6.619   5.044  1.5285 -0.5651  0.6455
10802SOL     OW33889   5.688   1.910   6.592 -0.8402  0.3209 -0.5166
10802SOL    HW133890   5.605   1.939   6.554 -0.5968  0.4646 -0.9409
10802SOL    HW233891   5.714   1.982   6.649 -1.7279 -0.3335  0.7548
10803SOL     OW33892   1.428   5.519   8.268  0.8600  0.0419 -0.1712
10803SOL    HW133893   1.428   5.504   8.362 -0.7192 -1.5975 -0.4076
10803SOL    HW233894   1.353   5.576   8.253  3.1677  3.2304 -0.0499
10804SOL     OW33895   0.466   5.532   4.467  0.1319  0.7185  0.2436
10804SOL    HW133896   0.472   5.440   4.442  2.1460  0.5978  1.0884
10804SOL    HW233897   0.472   5.531   4.563  1.8553  1.8447  0.1616
10805SOL     OW33898   6.064   6.133   3.667  0.1949 -0.5385 -0.1752
10805SOL    HW133899   6.053   6.096   3.755 -0.3760 -0.0251 -0.0252
10805SOL    HW233900   6.156   6.158   3.664  0.2996 -0.8734  0.1576
10806SOL     OW33901   4.856   4.833   1.994  0.6097  0.2214  0.3532
10806SOL    HW133902   4.812   4.883   1.925  1.9052  0.5666 -0.2474
10806SOL    HW233903   4.857   4.743   1.961  1.1412  0.3690 -0.0507
10807SOL     OW33904   6.578   0.034   0.863  0.6406 -0.5989 -0.2398
10807SOL    HW133905   6.487   0.059   0.851  1.0962  0.4352 -1.6624
10807SOL    HW233906   6.598   0.059   0.954  0.2631  1.6330 -0.7470
10808SOL     OW33907   1.708   5.265   3.179 -0.2889 -0.2118 -0.2239
10808SOL    HW133908   1.751   5.191   3.221  0.5407  1.5528  2.1687
10808SOL    HW233909   1.762   5.284   3.103  0.8335 -0.5972  0.4643
10809SOL     OW33910   3.355   5.376   0.075 -0.6654 -0.8698 -0.1258
10809SOL    HW133911   3.336   5.459   0.120  0.3336 -1.4636  1.4715
10809SOL    HW233912   3.270   5.335   0.062 -1.2463  0.7147 -1.5958
10810SOL     OW33913   0.102   7.676   0.593 -0.1881  0.3125 -0.3215
10810SOL    HW133914   0.075   7.663   0.684  0.9977  0.8420  0.1161
10810SOL    HW233915   0.123   7.769   0.588  2.4931 -0.2672 -0.3723
10811SOL     OW33916   4.223   3.818   2.279  0.0313 -0.1195 -0.6837
10811SOL    HW133917   4.246   3.888   2.218  2.0085 -1.0284 -1.0145
10811SOL    HW233918   4.238   3.738   2.229 -1.9491 -0.7962 -0.2121
10812SOL     OW33919   0.415   6.087   1.192 -0.1015 -0.6275 -0.1335
10812SOL    HW133920   0.436   6.044   1.275 -3.1545 -2.4445 -0.2236
10812SOL    HW233921   0.444   6.026   1.125  0.5842 -0.0386 -0.3769
10813SOL     OW33922   8.235   1.095   0.487 -0.7646 -0.1867  0.1523
10813SOL    HW133923   8.166   1.118   0.425  0.9476 -0.1603 -1.8144
10813SOL    HW233924   8.236   0.999   0.488 -2.2588 -0.2141  1.8727
10814SOL     OW33925   4.855   1.097   0.521  0.0946  0.3565  0.1582
10814SOL    HW133926   4.947   1.115   0.501  0.1712 -0.6948 -0.4922
10814SOL    HW233927   4.806   1.160   0.468  0.4508  1.5574  1.2300
10815SOL     OW33928   0.579   5.764   5.333  0.3000  0.0876  0.2764
10815SOL    HW133929   0.491   5.794   5.309  0.6116  0.1783 -0.7736
10815SOL    HW233930   0.565   5.711   5.412 -0.2760  2.7519  2.0185
10816SOL     OW33931   0.900   2.379   7.135 -0.2838 -0.1306  0.1458
10816SOL    HW133932   0.928   2.311   7.196  0.1372 -0.7016 -0.6645
10816SOL    HW233933   0.818   2.346   7.097 -0.1168 -0.1542 -0.1967
10817SOL     OW33934   1.775   3.282   6.268 -0.3804 -0.5194  0.3447
10817SOL    HW133935   1.806   3.308   6.355 -0.6017 -0.2070  0.3300
10817SOL    HW233936   1.806   3.191   6.258  1.1237  0.0102  0.0428
10818SOL     OW33937   1.807   5.815   4.133  0.4139  0.4329  0.2632
10818SOL    HW133938   1.895   5.801   4.170  0.8068  0.3056 -0.7116
10818SOL    HW233939   1.769   5.728   4.128  0.2511  0.4812  0.6256
10819SOL     OW33940   1.020   8.264   0.095 -0.0283 -0.2050  0.9133
10819SOL    HW133941   1.103   8.300   0.064  0.1690 -1.0531  0.4444
10819SOL    HW233942   0.987   8.212   0.022 -1.5533  1.0513  0.6654
10820SOL     OW33943   5.082   1.491   0.876 -0.2676  0.1595 -0.2605
10820SOL    HW133944   5.164   1.477   0.922  0.1426 -0.8913 -1.2972
10820SOL    HW233945   5.030   1.545   0.936  0.9451  0.3453  0.6420
10821SOL     OW33946   6.059   6.347   0.437  0.1996 -0.3536 -0.1563
10821SOL    HW133947   6.045   6.426   0.385  2.2694 -0.0330 -0.2684
10821SOL    HW233948   5.993   6.352   0.505  0.8913  1.9935  0.4101
10822SOL     OW33949   2.263   0.710   7.597 -0.2288  0.0509  0.4167
10822SOL    HW133950   2.282   0.616   7.602 -0.4549 -0.0418 -0.4185
10822SOL    HW233951   2.178   0.715   7.553  0.1828  0.6850 -0.3045
10823SOL     OW33952   0.421   8.127   1.592  0.1635 -0.0663  0.2071
10823SOL    HW133953   0.492   8.133   1.528  0.2333  1.4726  0.4271
10823SOL    HW233954   0.427   8.037   1.625  0.2297 -0.8356 -1.8253
10824SOL     OW33955   7.364   6.077   3.285  0.4862 -0.1647  0.4714
10824SOL    HW133956   7.339   6.163   3.319 -0.6259 -0.6675  0.9451
10824SOL    HW233957   7.456   6.068   3.308  0.7007  1.0244  0.1529
10825SOL     OW33958   7.835   3.046   5.039  0.9290 -0.4914  0.5636
10825SOL    HW133959   7.786   3.092   5.107 -0.9254 -1.3665 -0.1554
10825SOL    HW233960   7.847   2.957   5.074  0.1651 -0.8777 -0.1601
10826SOL     OW33961   5.369   7.787   1.634  0.0867 -0.8247 -0.3454
10826SOL    HW133962   5.374   7.722   1.704  0.0191 -1.6196 -1.0671
10826SOL    HW233963   5.303   7.753   1.574 -1.4562  0.9366  0.2994
10827SOL     OW33964   2.263   7.080   6.971 -0.3475  0.0765 -0.1329
10827SOL    HW133965   2.283   7.104   7.061  1.0187  0.8533 -0.6368
10827SOL    HW233966   2.188   7.020   6.978 -0.3405  0.2506  1.4950
10828SOL     OW33967   5.735   4.685   5.767 -0.0477 -0.0149 -0.2639
10828SOL    HW133968   5.704   4.678   5.676 -2.6443  1.0661  0.5025
10828SOL    HW233969   5.663   4.652   5.820  2.0866 -2.2255  1.3932
10829SOL     OW33970   6.677   0.381   0.486  0.3853  0.3215  0.7314
10829SOL    HW133971   6.734   0.373   0.410 -0.2017 -1.2107  0.4397
10829SOL    HW233972   6.672   0.293   0.523 -0.7228  0.6984  1.5310
10830SOL     OW33973   2.998   1.007   6.582  0.2939  0.1385 -0.0677
10830SOL    HW133974   2.934   1.023   6.513  0.2519 -0.5901 -0.2092
10830SOL    HW233975   3.024   0.915   6.569  0.2771 -0.0025  0.8884
10831SOL     OW33976   8.099   4.355   6.843  0.2541 -0.3535  0.2198
10831SOL    HW133977   8.163   4.401   6.789  2.5194 -0.8046  2.4083
10831SOL    HW233978   8.152   4.293   6.895 -2.0661 -1.4016  1.4052
10832SOL     OW33979   4.948   2.810   2.975  0.0301 -0.0909  0.2918
10832SOL    HW133980   4.978   2.882   3.030  0.2169 -0.6065  0.8622
10832SOL    HW233981   5.023   2.750   2.970 -0.3182 -0.5293  0.2974
10833SOL     OW33982   4.497   3.569   0.080 -0.2846  0.5474  0.8520
10833SOL    HW133983   4.570   3.608   0.129  0.9119 -0.6032  0.0106
10833SOL    HW233984   4.486   3.627   0.004 -0.9083  1.2785  1.4937
10834SOL     OW33985   3.750   7.592   2.841 -0.1813  0.2345  0.2603
10834SOL    HW133986   3.790   7.639   2.768 -1.5340 -2.0351 -2.0188
10834SOL    HW233987   3.819   7.586   2.907  1.8456  0.2393 -1.8054
10835SOL     OW33988   5.261   2.958   5.480  0.2076 -0.0084  0.4633
10835SOL    HW133989   5.335   2.929   5.534  1.1736  0.6696 -0.4937
10835SOL    HW233990   5.291   3.037   5.437 -1.2941  0.6136  0.5215
10836SOL     OW33991   4.060   1.562   2.577 -0.3200  0.3322 -0.2315
10836SOL    HW133992   4.154   1.581   2.571 -0.8872  4.5589  2.1648
10836SOL    HW233993   4.019   1.623   2.516 -1.6606 -0.0230  0.2963
10837SOL     OW33994   3.187   1.110   2.802 -0.5899 -0.0289  0.0411
10837SOL    HW133995   3.106   1.084   2.758  0.3041 -2.1205 -0.4039
10837SOL    HW233996   3.215   1.033   2.851  0.6321  0.9799  0.9841
10838SOL     OW33997   5.886   4.736   4.726 -0.3548 -0.4175  0.2921
10838SOL    HW133998   5.920   4.769   4.809 -0.0944  2.9190 -1.0803
10838SOL    HW233999   5.792   4.755   4.729 -0.0820  1.1712 -0.8140
10839SOL     OW34000   6.317   4.868   5.341  0.3731  0.1656 -0.2636
10839SOL    HW134001   6.397   4.920   5.347  0.2197  0.5412 -1.2898
10839SOL    HW234002   6.347   4.782   5.312  0.2571  0.8187 -2.4748
10840SOL     OW34003   2.072   4.115   7.016  0.2359 -0.1955  0.6181
10840SOL    HW134004   2.041   4.027   7.036  1.4673 -0.7087  0.3512
10840SOL    HW234005   2.076   4.118   6.920  2.8116 -0.8298  0.6573
10841SOL     OW34006   5.885   5.531   3.486 -0.7036 -0.3455  0.5846
10841SOL    HW134007   5.901   5.611   3.535 -0.9181 -1.0228  1.7838
10841SOL    HW234008   5.801   5.546   3.442  0.1113  0.7600 -0.6290
10842SOL     OW34009   0.186   0.761   8.124 -0.9007 -0.7977 -0.2722
10842SOL    HW134010   0.107   0.806   8.152  0.3436  0.7171  0.9107
10842SOL    HW234011   0.161   0.668   8.120 -2.8264 -0.2954 -0.3399
10843SOL     OW34012   8.147   7.280   5.538  0.0729  0.0124 -0.1753
10843SOL    HW134013   8.220   7.236   5.494  0.1929 -0.2105  0.2562
10843SOL    HW234014   8.113   7.340   5.471 -0.3986 -1.0584 -0.9180
10844SOL     OW34015   5.285   2.697   4.913  0.4500 -0.0586 -0.4634
10844SOL    HW134016   5.333   2.617   4.895  2.7914  0.7379  1.8905
10844SOL    HW234017   5.345   2.767   4.887 -0.3224  0.9616  0.4684
10845SOL     OW34018   2.861   3.964   1.783 -0.1445  0.1440  0.1990
10845SOL    HW134019   2.785   3.916   1.817  0.5420 -0.5121  0.7923
10845SOL    HW234020   2.842   3.974   1.689 -1.3175  0.6342  0.4745
10846SOL     OW34021   4.689   5.440   6.103  0.3032 -0.3978 -0.0869
10846SOL    HW134022   4.681   5.460   6.196 -1.5219  2.2520 -0.7559
10846SOL    HW234023   4.659   5.350   6.095  0.8614 -0.7744  1.9423
10847SOL     OW34024   2.954   3.582   1.138  0.2712 -0.0028  0.0500
10847SOL    HW134025   2.977   3.538   1.056  0.3438  0.1562 -0.0161
10847SOL    HW234026   2.886   3.527   1.177  1.2316 -0.8342  0.5790
10848SOL     OW34027   8.216   0.732   7.389  0.0852  0.3091 -0.6907
10848SOL    HW134028   8.246   0.821   7.372 -0.3481  0.2802 -1.6748
10848SOL    HW234029   8.261   0.679   7.324  1.4787 -0.4149  0.8507
10849SOL     OW34030   5.637   7.491   5.016  0.2765 -0.2648  0.1117
10849SOL    HW134031   5.561   7.548   5.028 -0.8071 -1.6069 -0.2616
10849SOL    HW234032   5.667   7.509   4.927 -0.6988 -1.0147 -0.3790
10850SOL     OW34033   2.737   8.148   6.309  0.1983  0.0161  0.1863
10850SOL    HW134034   2.818   8.118   6.267 -0.0331  0.9339 -0.9474
10850SOL    HW234035   2.668   8.094   6.269  0.3224 -1.2529  1.6654
10851SOL     OW34036   5.461   1.768   4.144 -0.2346 -0.2541  0.0185
10851SOL    HW134037   5.475   1.833   4.076  1.7805 -1.1196 -0.4339
10851SOL    HW234038   5.532   1.782   4.207 -1.5537 -0.0449  1.4951
10852SOL     OW34039   1.042   7.864   7.558 -0.2348 -0.2791  0.3112
10852SOL    HW134040   0.963   7.849   7.507 -0.0847  1.7262 -0.5674
10852SOL    HW234041   1.110   7.811   7.516 -0.6907 -0.5581 -0.0621
10853SOL     OW34042   0.059   7.011   7.263 -0.0693 -0.5442 -0.0995
10853SOL    HW134043   0.130   6.948   7.250 -0.1546 -0.6666  0.0252
10853SOL    HW234044  -0.017   6.957   7.287 -0.0399 -0.3628  0.4066
10854SOL     OW34045   1.382   3.773   5.219 -0.4712 -0.1527  0.1019
10854SOL    HW134046   1.414   3.858   5.250 -0.2612 -0.2550  0.1650
10854SOL    HW234047   1.443   3.709   5.256 -1.0096 -0.3834  0.5884
10855SOL     OW34048   7.942   5.070   7.436 -0.2629  0.2824 -0.0649
10855SOL    HW134049   7.969   4.980   7.416 -1.1141  0.0147 -0.0292
10855SOL    HW234050   7.879   5.092   7.368 -0.0074  0.8822 -0.1084
10856SOL     OW34051   2.744   1.399   7.789 -0.4331 -0.1487  0.3180
10856SOL    HW134052   2.783   1.354   7.863 -0.7148  0.0301  0.5798
10856SOL    HW234053   2.680   1.337   7.753  0.4392 -0.6348 -0.4221
10857SOL     OW34054   7.106   3.026   1.973 -0.2111 -0.1398  0.6695
10857SOL    HW134055   7.036   2.968   2.002 -0.8582  0.4691  0.3349
10857SOL    HW234056   7.096   3.032   1.878 -0.9193  1.4952  0.8307
10858SOL     OW34057   4.629   0.301   7.617  0.3756  0.2768 -0.4357
10858SOL    HW134058   4.724   0.309   7.625  0.5043 -0.3692 -1.1893
10858SOL    HW234059   4.595   0.320   7.704  1.1316  1.5176 -0.4115
10859SOL     OW34060   6.274   7.297   0.900 -0.2992  0.8670 -0.5626
10859SOL    HW134061   6.184   7.320   0.877 -0.4323 -1.0516 -2.0670
10859SOL    HW234062   6.264   7.223   0.961  0.2463  0.6913 -0.6887
10860SOL     OW34063   6.230   2.807   1.506  0.0460 -0.5681  0.2245
10860SOL    HW134064   6.195   2.757   1.433  0.1402  1.4240 -1.2338
10860SOL    HW234065   6.319   2.773   1.519  0.4321 -0.1828 -1.3404
10861SOL     OW34066   4.542   0.193   1.102 -0.1377 -0.7889  0.5576
10861SOL    HW134067   4.568   0.108   1.137  0.6838 -0.4689  0.7432
10861SOL    HW234068   4.546   0.183   1.007  2.1731 -0.3022  0.5813
10862SOL     OW34069   0.305   2.242   2.689  0.6788  0.1852 -0.3757
10862SOL    HW134070   0.235   2.269   2.749  2.4762  0.8592  1.4625
10862SOL    HW234071   0.273   2.159   2.652 -1.4140  0.8571 -0.1514
10863SOL     OW34072   5.678   7.019   3.093  0.0078  0.4718  0.2531
10863SOL    HW134073   5.639   7.099   3.058  1.2075  0.4849 -1.0953
10863SOL    HW234074   5.632   6.949   3.048  0.0979  0.4507  0.1918
10864SOL     OW34075   1.032   5.964   8.141  0.6402 -0.2068 -0.1447
10864SOL    HW134076   1.079   6.045   8.122 -0.2352  0.5605  0.8914
10864SOL    HW234077   1.077   5.898   8.089  0.8800  1.0787 -1.6393
10865SOL     OW34078   3.330   3.930   2.494 -0.0147 -0.1441  0.0396
10865SOL    HW134079   3.318   3.927   2.589 -0.4674 -2.8258 -0.0698
10865SOL    HW234080   3.337   3.839   2.468  0.1483  0.5681 -2.5262
10866SOL     OW34081   5.904   8.264   5.705  0.0916 -0.2433  0.2358
10866SOL    HW134082   5.987   8.265   5.657  0.2175  0.5768  0.4547
10866SOL    HW234083   5.843   8.219   5.648  0.6974 -0.8779  0.0807
10867SOL     OW34084   5.509   5.005   1.440  0.0299 -0.2801  0.6116
10867SOL    HW134085   5.433   5.051   1.403  1.0525  0.1659 -0.9683
10867SOL    HW234086   5.503   4.917   1.404 -0.3083 -0.5530  1.3223
10868SOL     OW34087   2.051   0.658   2.293 -0.4531 -0.2426  0.2178
10868SOL    HW134088   2.066   0.588   2.357 -2.4481 -0.3185  0.6362
10868SOL    HW234089   2.006   0.726   2.343 -0.8288  0.2573 -0.7987
10869SOL     OW34090   7.244   1.552   2.876 -0.3703 -0.2633  0.2353
10869SOL    HW134091   7.314   1.495   2.845 -1.0959 -0.1516 -1.6459
10869SOL    HW234092   7.237   1.532   2.970  1.2913 -1.2051  0.1783
10870SOL     OW34093   4.847   3.602   6.321 -0.3905 -0.4032 -0.8138
10870SOL    HW134094   4.847   3.611   6.416  0.5039 -2.7192 -0.5571
10870SOL    HW234095   4.938   3.615   6.295 -0.5706 -0.1296 -1.3076
10871SOL     OW34096   3.200   4.691   8.040 -0.0650 -0.4563  0.8020
10871SOL    HW134097   3.241   4.636   7.974  0.7344  1.3307 -0.2501
10871SOL    HW234098   3.272   4.716   8.098  0.2725  2.0037 -0.5634
10872SOL     OW34099   4.584   6.281   2.028  0.2770 -0.1593  0.1094
10872SOL    HW134100   4.509   6.265   2.085 -1.2874 -3.2769 -2.6660
10872SOL    HW234101   4.660   6.272   2.086 -1.3468  0.1728  2.3692
10873SOL     OW34102   5.702   0.042   7.929 -0.6448  0.0204  0.1017
10873SOL    HW134103   5.745  -0.038   7.899  0.2128  0.3782  0.3739
10873SOL    HW234104   5.757   0.113   7.895 -1.0942  0.4835  0.3355
10874SOL     OW34105   6.284   3.776   6.482  0.4128  0.2803 -0.1297
10874SOL    HW134106   6.311   3.685   6.493 -1.5461 -0.2825  0.3369
10874SOL    HW234107   6.241   3.777   6.397  1.4588  1.0384 -0.6507
10875SOL     OW34108   6.445   0.903   5.053  0.6141  0.3216  0.8447
10875SOL    HW134109   6.377   0.912   5.119  0.6364 -0.4635  0.9709
10875SOL    HW234110   6.527   0.904   5.102  0.6468  0.1141  0.7931
10876SOL     OW34111   2.330   2.491   1.658 -0.1649 -0.0186  0.5983
10876SOL    HW134112   2.418   2.462   1.631 -0.3025 -0.3807  0.5354
10876SOL    HW234113   2.286   2.513   1.576 -0.1025  0.2553  0.6372
10877SOL     OW34114   1.925   4.390   6.056 -0.2482  0.1264  0.1941
10877SOL    HW134115   1.970   4.337   5.989  1.2847 -0.2467  1.4760
10877SOL    HW234116   1.838   4.407   6.019 -0.2989 -2.1583 -0.8403
10878SOL     OW34117   2.050   3.937   2.312 -0.7567  0.0977 -0.1395
10878SOL    HW134118   2.028   3.922   2.220  0.5955  0.5145 -0.5528
10878SOL    HW234119   2.013   4.022   2.333  0.5929  0.8844 -0.8829
10879SOL     OW34120   6.265   7.821   5.370 -0.2283 -0.3629  0.4141
10879SOL    HW134121   6.302   7.878   5.303  0.7327 -0.6442  0.6961
10879SOL    HW234122   6.303   7.735   5.353 -0.6372 -0.6221  0.7978
10880SOL     OW34123   8.101   3.062   2.035  0.0044 -0.0616 -0.2344
10880SOL    HW134124   8.148   3.082   2.116 -1.2165  0.0899  0.4542
10880SOL    HW234125   8.130   3.129   1.973 -0.6595  1.1179  0.7149
10881SOL     OW34126   3.579   7.530   3.180  0.1808  0.1732 -0.0692
10881SOL    HW134127   3.661   7.535   3.228 -0.0933 -1.5931  0.5975
10881SOL    HW234128   3.527   7.465   3.227 -1.7045  1.4503 -0.3281
10882SOL     OW34129   2.100   6.284   3.470 -0.8125  0.6493 -0.1888
10882SOL    HW134130   2.104   6.330   3.554 -0.8967  1.7650 -0.7869
10882SOL    HW234131   2.178   6.228   3.470 -0.8090  0.6502  0.6289
10883SOL     OW34132   7.533   5.879   2.409 -0.2429 -0.2374 -0.4090
10883SOL    HW134133   7.443   5.891   2.438  0.0551  0.7094  0.1324
10883SOL    HW234134   7.530   5.800   2.355 -1.1222 -1.0664  0.8215
10884SOL     OW34135   8.291   3.294   4.486  0.4483 -0.6947  0.0522
10884SOL    HW134136   8.320   3.205   4.468  1.9630  0.2168 -2.1727
10884SOL    HW234137   8.287   3.336   4.400 -0.4401  1.3306  1.0528
10885SOL     OW34138   5.168   3.077   8.000 -0.3252  0.0333 -0.3128
10885SOL    HW134139   5.230   3.005   8.011 -1.7397 -0.8939  1.7805
10885SOL    HW234140   5.224   3.152   7.978  1.4795 -0.9655  0.6971
10886SOL     OW34141   0.375   8.213   6.842 -0.6438 -0.3752  0.1255
10886SOL    HW134142   0.298   8.217   6.785  0.7000  0.2189 -1.7087
10886SOL    HW234143   0.415   8.129   6.821 -0.6885 -0.5988  0.9416
10887SOL     OW34144   4.210   4.621   0.487 -0.1911 -0.2173 -0.7125
10887SOL    HW134145   4.186   4.530   0.504  0.8973 -0.2952  0.5130
10887SOL    HW234146   4.187   4.635   0.395 -2.7835 -0.9288 -0.2033
10888SOL     OW34147   2.023   5.267   3.820 -0.3865 -0.1107 -0.6573
10888SOL    HW134148   2.005   5.199   3.885 -0.3423  0.6903  0.2080
10888SOL    HW234149   2.032   5.219   3.737  1.8725 -1.4218  0.2846
10889SOL     OW34150   3.109   0.068   6.072 -0.2916  0.4988 -0.0143
10889SOL    HW134151   3.063   0.116   6.002 -0.0468  3.3316  1.6761
10889SOL    HW234152   3.201   0.089   6.057 -0.2995  1.7969  1.5794
10890SOL     OW34153   7.402   3.345   0.542  0.0262 -0.3775 -0.3145
10890SOL    HW134154   7.340   3.403   0.499  1.2828  0.6578 -0.7578
10890SOL    HW234155   7.395   3.365   0.635  0.1332  0.1694 -0.4254
10891SOL     OW34156   7.174   7.566   3.368 -0.1082  0.2321  0.1296
10891SOL    HW134157   7.225   7.488   3.387 -0.3547 -0.2353 -1.0607
10891SOL    HW234158   7.103   7.535   3.313  0.7338  1.5367 -1.7527
10892SOL     OW34159   5.498   4.331   7.909  0.1792 -0.1487  0.1677
10892SOL    HW134160   5.413   4.362   7.939  1.0825  0.0660  2.6532
10892SOL    HW234161   5.508   4.244   7.947 -0.4876 -1.7650 -3.2139
10893SOL     OW34162   5.964   2.008   7.086 -0.7725 -0.0720 -0.2202
10893SOL    HW134163   5.962   2.098   7.118 -0.1471 -0.3742  0.7251
10893SOL    HW234164   6.054   1.979   7.104  0.6282  0.7572 -5.2299
10894SOL     OW34165   7.125   2.177   2.318 -0.4174 -0.0538 -0.1223
10894SOL    HW134166   7.047   2.229   2.335 -0.9061 -0.6181 -0.6115
10894SOL    HW234167   7.106   2.092   2.358  1.1046  0.6769  2.2840
10895SOL     OW34168   4.942   6.065   4.181 -0.0559 -0.1224 -0.5468
10895SOL    HW134169   4.973   6.018   4.104 -0.1394  1.2313 -1.4306
10895SOL    HW234170   4.850   6.042   4.188  0.2824 -1.3730  0.0079
10896SOL     OW34171   2.406   2.959   6.900 -0.0354 -0.3549  0.4782
10896SOL    HW134172   2.412   3.024   6.969 -0.6540  0.9764 -0.6969
10896SOL    HW234173   2.317   2.969   6.865  0.3577 -0.7976 -0.6908
10897SOL     OW34174   5.971   5.086   0.860  0.0470  0.2331  0.9960
10897SOL    HW134175   6.062   5.068   0.837  0.0415  2.2526 -0.7683
10897SOL    HW234176   5.967   5.073   0.954  2.3597  0.9262  1.2107
10898SOL     OW34177   2.510   1.226   4.860 -0.5007  0.1230 -0.3102
10898SOL    HW134178   2.544   1.261   4.778 -0.4134 -0.5317 -0.5582
10898SOL    HW234179   2.427   1.272   4.874 -0.1829  0.7237 -0.4154
10899SOL     OW34180   7.824   1.978   1.899 -0.6371 -0.2858 -0.1315
10899SOL    HW134181   7.799   2.020   1.817 -0.7562  0.2038  0.1523
10899SOL    HW234182   7.782   2.030   1.967  1.0306  0.4736  0.3546
10900SOL     OW34183   3.720   5.712   6.735  0.1641  0.3533  0.0537
10900SOL    HW134184   3.776   5.642   6.768 -0.6610 -0.8090 -0.9801
10900SOL    HW234185   3.694   5.760   6.814  0.3643 -0.7814  0.8250
10901SOL     OW34186   5.907   1.907   5.889  0.1856 -0.5851  0.0382
10901SOL    HW134187   5.983   1.921   5.832 -0.3502  0.4905 -0.4297
10901SOL    HW234188   5.843   1.971   5.859 -0.0304  0.1708  2.0025
10902SOL     OW34189   0.793   8.046   5.693 -0.2243 -0.5925 -0.3362
10902SOL    HW134190   0.786   8.048   5.788 -0.3986 -0.0260 -0.3606
10902SOL    HW234191   0.763   7.959   5.668 -1.8954 -0.1182 -0.0153
10903SOL     OW34192   0.560   6.422   1.124  0.3891 -0.3269 -0.0278
10903SOL    HW134193   0.528   6.425   1.214  0.5573 -0.9817  0.0529
10903SOL    HW234194   0.562   6.514   1.097 -1.5184 -0.2515 -0.0222
10904SOL     OW34195   7.052   4.901   7.324 -0.8993 -0.2002 -0.7072
10904SOL    HW134196   7.053   4.959   7.400  1.4501 -0.7970 -0.2281
10904SOL    HW234197   6.977   4.843   7.338 -0.7183 -0.0590  0.9829
10905SOL     OW34198   7.588   0.943   2.131  0.4151 -0.6545 -0.0346
10905SOL    HW134199   7.641   0.872   2.094 -0.2249 -1.1537 -0.0095
10905SOL    HW234200   7.572   1.001   2.057 -0.1388 -1.2067 -0.3533
10906SOL     OW34201   5.920   5.672   5.028 -0.2830  0.4294 -1.0155
10906SOL    HW134202   6.015   5.658   5.038 -0.5977 -0.0319  1.5580
10906SOL    HW234203   5.886   5.587   5.000 -0.2022  0.0648 -0.0005
10907SOL     OW34204   3.852   3.015   2.516 -0.5922  0.6788 -0.4058
10907SOL    HW134205   3.911   3.080   2.480  1.4273 -1.3074 -0.7648
10907SOL    HW234206   3.766   3.040   2.482  0.4998  1.7580 -2.4837
10908SOL     OW34207   0.446   2.852   6.306  0.6061  0.8086 -0.3662
10908SOL    HW134208   0.453   2.861   6.211  1.4717 -2.3645 -0.6534
10908SOL    HW234209   0.358   2.882   6.327  0.5273  1.8452 -2.1137
10909SOL     OW34210   6.065   5.899   2.833  0.4916  0.1979 -0.1799
10909SOL    HW134211   6.061   5.976   2.890  0.8673 -0.1613  0.3282
10909SOL    HW234212   6.134   5.920   2.769  0.4504  0.3698 -0.1681
10910SOL     OW34213   2.743   0.331   5.852 -0.5833 -0.1180  0.0004
10910SOL    HW134214   2.690   0.322   5.932 -0.8713 -1.8384 -0.3840
10910SOL    HW234215   2.702   0.405   5.806 -2.2880 -1.0361 -0.0017
10911SOL     OW34216   2.872   0.700   1.270  0.0364  0.1949  0.1532
10911SOL    HW134217   2.792   0.749   1.250  0.1009  1.3910  2.6932
10911SOL    HW234218   2.842   0.613   1.295 -0.3036 -0.0088 -0.9070
10912SOL     OW34219   5.755   4.433   7.919 -0.2632  0.3671  0.3204
10912SOL    HW134220   5.711   4.515   7.940 -0.1595 -0.1578  2.6995
10912SOL    HW234221   5.683   4.370   7.906 -0.2759  0.1226  1.5675
10913SOL     OW34222   2.971   6.312   7.836 -0.2356 -0.6545 -0.3005
10913SOL    HW134223   2.959   6.232   7.784  1.1848 -0.3249 -1.1450
10913SOL    HW234224   2.990   6.380   7.772  0.6659 -0.0616  0.5852
10914SOL     OW34225   1.841   0.724   5.857  0.1243 -0.0246  0.3053
10914SOL    HW134226   1.827   0.819   5.848  2.7459  0.5702  1.8758
10914SOL    HW234227   1.851   0.710   5.951 -0.9059 -1.9889  0.1336
10915SOL     OW34228   0.246   7.335   4.309 -0.2882  0.4512 -0.6900
10915SOL    HW134229   0.169   7.362   4.260 -0.4124  1.0774 -0.1467
10915SOL    HW234230   0.280   7.416   4.348  0.2745  0.0842 -0.4100
10916SOL     OW34231   3.252   0.861   1.764 -0.4660  0.1320  0.5366
10916SOL    HW134232   3.335   0.909   1.770 -1.0110  1.2790 -0.8032
10916SOL    HW234233   3.215   0.865   1.852  0.3618  0.6104  0.8679
10917SOL     OW34234   0.585   5.468   7.226 -0.3399  0.0655 -0.1669
10917SOL    HW134235   0.609   5.404   7.159 -1.8986 -0.1553 -0.5207
10917SOL    HW234236   0.493   5.451   7.245  0.0744  0.0775  2.0849
10918SOL     OW34237   7.124   7.526   0.487 -0.2816 -0.3116  0.2188
10918SOL    HW134238   7.040   7.571   0.475 -0.8870 -1.4991 -0.0725
10918SOL    HW234239   7.177   7.555   0.413 -0.3710  0.5657  0.4866
10919SOL     OW34240   3.082   1.623   1.535 -0.1788 -0.1496  0.2036
10919SOL    HW134241   3.095   1.656   1.446  0.1889  1.1228  0.7063
10919SOL    HW234242   3.127   1.539   1.537 -2.1631 -1.3292 -1.4818
10920SOL     OW34243   2.008   4.594   8.081  0.4251 -0.0747  0.0085
10920SOL    HW134244   1.986   4.687   8.084 -0.0684 -0.2407  1.8982
10920SOL    HW234245   2.103   4.591   8.096  0.2044  0.0266  1.4111
10921SOL     OW34246   3.425   5.284   1.962 -0.2584 -0.2426  0.5803
10921SOL    HW134247   3.353   5.233   1.925 -1.4149  1.0652  0.9646
10921SOL    HW234248   3.497   5.222   1.969 -1.0264 -1.3249 -0.7822
10922SOL     OW34249   8.264   0.514   2.953 -0.2956 -0.2094  0.0883
10922SOL    HW134250   8.246   0.512   2.859  0.4757 -0.5858 -0.0625
10922SOL    HW234251   8.292   0.424   2.973 -0.1100 -0.0363  0.6047
10923SOL     OW34252   7.008   4.520   5.340 -0.1050  0.4437 -0.0298
10923SOL    HW134253   6.959   4.601   5.330  0.7675  0.8060 -1.5511
10923SOL    HW234254   7.067   4.518   5.264 -0.1965 -1.6660 -0.0776
10924SOL     OW34255   4.674   3.734   5.422  0.5732  0.2406 -0.2031
10924SOL    HW134256   4.609   3.718   5.353  0.4176 -0.1134  0.0241
10924SOL    HW234257   4.624   3.727   5.504  1.0740 -0.9856  0.0141
10925SOL     OW34258   1.852   7.775   2.744 -0.5130 -0.0262  0.2240
10925SOL    HW134259   1.809   7.702   2.788  0.6723 -0.6164  0.4019
10925SOL    HW234260   1.903   7.817   2.813  0.3020 -0.1606 -0.2945
10926SOL     OW34261   6.913   3.751   1.242  0.0566  0.3306 -0.0171
10926SOL    HW134262   6.828   3.785   1.212 -0.3859  0.5470  1.4297
10926SOL    HW234263   6.894   3.710   1.326  1.0801 -1.2364 -0.5335
10927SOL     OW34264   3.526   5.119   6.703  0.0393  0.6415 -0.2422
10927SOL    HW134265   3.485   5.099   6.619  1.4758 -0.7331 -0.6513
10927SOL    HW234266   3.504   5.044   6.759 -0.9815  1.5916  0.6290
10928SOL     OW34267   4.919   5.503   2.208 -0.7661  0.0531  0.5332
10928SOL    HW134268   4.959   5.431   2.159 -0.0244  0.9958 -0.2411
10928SOL    HW234269   4.986   5.527   2.273 -0.3199  1.1906 -0.3362
10929SOL     OW34270   6.692   1.461   2.872 -0.0119 -0.0471  0.0325
10929SOL    HW134271   6.727   1.413   2.947 -0.0566 -0.4672 -0.2169
10929SOL    HW234272   6.705   1.402   2.797 -3.6448 -1.3541  0.3299
10930SOL     OW34273   0.082   1.037   1.762  0.0814 -0.0935 -0.1731
10930SOL    HW134274   0.052   0.947   1.746 -0.0099 -0.2100  0.6318
10930SOL    HW234275   0.176   1.028   1.777 -0.1030 -0.1935  0.9628
10931SOL     OW34276   6.154   2.174   4.798 -0.1876 -0.5302 -0.3212
10931SOL    HW134277   6.185   2.250   4.848  0.4513 -1.3468  0.5552
10931SOL    HW234278   6.059   2.181   4.801 -0.1264  0.4391 -0.5591
10932SOL     OW34279   3.799   1.331   5.027 -0.5558 -0.1890 -0.3425
10932SOL    HW134280   3.863   1.331   4.956  0.2051 -1.1932  0.3339
10932SOL    HW234281   3.727   1.385   4.995  0.1617  0.0627 -1.5330
10933SOL     OW34282   2.206   1.671   0.349 -0.0573  0.1612 -0.0553
10933SOL    HW134283   2.246   1.669   0.262  2.7822 -0.0572  1.2178
10933SOL    HW234284   2.190   1.579   0.370  0.2842  0.1407  0.1142
10934SOL     OW34285   7.329   1.206   5.659  0.3355  0.4698 -0.0332
10934SOL    HW134286   7.313   1.179   5.749  1.0261 -0.2097 -0.1051
10934SOL    HW234287   7.421   1.232   5.658  0.1279  1.2024 -0.3664
10935SOL     OW34288   3.000   7.981   0.109 -0.5092  1.0493  0.7037
10935SOL    HW134289   2.907   7.969   0.126 -0.2079  1.9974  3.2042
10935SOL    HW234290   3.026   7.902   0.061 -2.5135  0.6338  0.2611
10936SOL     OW34291   6.447   5.666   5.976 -0.5301 -0.2488  0.0520
10936SOL    HW134292   6.381   5.627   5.920 -0.4918  1.6315 -1.3214
10936SOL    HW234293   6.520   5.686   5.918 -0.4289  1.5951  0.7818
10937SOL     OW34294   3.579   3.157   7.284  0.1804 -0.1201  0.5400
10937SOL    HW134295   3.638   3.173   7.358  1.3969 -0.0114 -0.4358
10937SOL    HW234296   3.594   3.231   7.226  0.3795 -1.0093 -0.5489
10938SOL     OW34297   4.933   4.670   6.372 -0.1013 -0.2116 -0.0255
10938SOL    HW134298   4.989   4.602   6.333  0.8649  0.6323 -0.1427
10938SOL    HW234299   4.962   4.675   6.463  1.0181  1.2261 -0.4433
10939SOL     OW34300   3.902   3.606   5.268 -0.2546  0.3318  0.4165
10939SOL    HW134301   3.815   3.645   5.256  0.3812  1.3999 -0.8353
10939SOL    HW234302   3.909   3.593   5.363 -1.7417  0.3299  0.5419
10940SOL     OW34303   6.594   6.162   8.127  0.0318 -0.0180  0.3058
10940SOL    HW134304   6.687   6.180   8.143 -0.3264  1.1338  1.2278
10940SOL    HW234305   6.585   6.068   8.138  1.1947 -0.2066 -0.3169
10941SOL     OW34306   1.940   4.832   0.209 -0.2437  0.4830 -0.1518
10941SOL    HW134307   1.964   4.918   0.176 -0.8206  0.4066 -0.7605
10941SOL    HW234308   1.955   4.773   0.136 -1.7801  0.3539 -0.3778
10942SOL     OW34309   7.272   0.282   1.278 -0.0162 -0.4713  0.0931
10942SOL    HW134310   7.311   0.300   1.193  0.1351 -1.9576 -0.1708
10942SOL    HW234311   7.256   0.368   1.317 -1.4153  0.2765 -2.0335
10943SOL     OW34312   7.391   2.158   2.341  0.3935  0.5341  0.1054
10943SOL    HW134313   7.300   2.155   2.314  0.9806  0.6797 -1.9386
10943SOL    HW234314   7.420   2.247   2.319  1.6224 -0.1861 -1.2442
10944SOL     OW34315   0.334   3.953   0.050 -0.2845  0.1576  0.0595
10944SOL    HW134316   0.373   4.002   0.122 -1.1016  0.2781  0.4180
10944SOL    HW234317   0.406   3.901   0.015  0.2579  0.5629  0.5656
10945SOL     OW34318   3.985   0.368   3.264 -0.3131  0.0560 -0.2026
10945SOL    HW134319   4.070   0.325   3.261 -0.5966 -0.4465 -1.6956
10945SOL    HW234320   3.931   0.311   3.319  0.1322  0.0508  0.2326
10946SOL     OW34321   4.326   4.432   0.855 -0.7770 -0.0032  0.1314
10946SOL    HW134322   4.380   4.380   0.796 -1.4148  0.1096 -0.5574
10946SOL    HW234323   4.363   4.520   0.849 -1.9742  0.4208 -1.5351
10947SOL     OW34324   1.851   6.334   3.924  0.2202  0.2779 -0.2883
10947SOL    HW134325   1.777   6.340   3.863  0.4550 -0.0264 -0.6086
10947SOL    HW234326   1.876   6.241   3.923  1.1655  0.5209 -0.8667
10948SOL     OW34327   1.642   1.765   6.734  0.5201  0.1357 -0.3643
10948SOL    HW134328   1.688   1.748   6.816  0.0840 -0.8857 -0.3234
10948SOL    HW234329   1.662   1.689   6.680 -1.8015 -0.7269 -0.0377
10949SOL     OW34330   2.405   3.505   6.222 -0.2293  0.4916 -0.0451
10949SOL    HW134331   2.467   3.466   6.284  0.7333  0.5503 -0.9463
10949SOL    HW234332   2.461   3.553   6.161 -1.1599  0.4004 -0.9719
10950SOL     OW34333   5.513   3.104   8.269  0.4467 -0.0046  0.1367
10950SOL    HW134334   5.521   3.050   8.348 -1.1676 -0.8707 -0.2760
10950SOL    HW234335   5.472   3.047   8.205 -1.2449  1.6891 -0.3265
10951SOL     OW34336   3.657   8.085   4.945 -0.3482 -0.5044 -0.3028
10951SOL    HW134337   3.569   8.093   4.979  0.0567  0.5927  0.5076
10951SOL    HW234338   3.686   7.998   4.973 -0.7281 -0.3853  0.4511
10952SOL     OW34339   5.201   3.971   0.524  0.8486  0.1311 -0.4590
10952SOL    HW134340   5.153   4.001   0.447 -1.0230 -0.1965  0.5504
10952SOL    HW234341   5.250   3.894   0.493 -2.5417 -2.0799 -0.5630
10953SOL     OW34342   2.946   5.579   3.412  0.2743  0.5934  0.4037
10953SOL    HW134343   2.869   5.525   3.397  0.1616  1.1040 -0.9418
10953SOL    HW234344   2.960   5.575   3.507 -0.1079 -1.2562  0.4072
10954SOL     OW34345   4.961   3.924   7.730 -0.2484 -0.4845 -0.0448
10954SOL    HW134346   4.890   3.898   7.789  0.5525 -2.1254  0.2514
10954SOL    HW234347   4.944   4.015   7.709 -1.2637 -0.2523  1.7166
10955SOL     OW34348   1.735   1.845   6.040  0.3974  0.0399 -0.2009
10955SOL    HW134349   1.773   1.894   5.967  0.8126 -1.2917 -0.8931
10955SOL    HW234350   1.640   1.860   6.032  0.5266  0.7513 -0.3884
10956SOL     OW34351   6.356   5.186   7.093  0.2456  0.3395  0.1983
10956SOL    HW134352   6.394   5.124   7.031 -0.7847  1.5221 -1.6711
10956SOL    HW234353   6.432   5.234   7.128  0.7137  0.7551 -1.3542
10957SOL     OW34354   5.024   0.826   3.033 -0.0781  0.3928 -0.3391
10957SOL    HW134355   5.063   0.907   3.000  1.5814  0.4830  1.7124
10957SOL    HW234356   4.940   0.853   3.070  0.4159  1.1651  0.2391
10958SOL     OW34357   0.006   2.277   4.106 -0.7397  0.9196 -0.1087
10958SOL    HW134358  -0.003   2.331   4.184 -1.0446  1.8723 -0.7910
10958SOL    HW234359   0.053   2.333   4.044  1.1225 -0.4601 -0.0099
10959SOL     OW34360   2.606   3.943   1.143  0.4236  0.2746 -0.0805
10959SOL    HW134361   2.617   3.848   1.151  2.1086  0.5022  0.6210
10959SOL    HW234362   2.516   3.959   1.170  0.3781 -1.0371  0.5999
10960SOL     OW34363   2.092   6.664   3.518  0.5986 -0.0375  0.0721
10960SOL    HW134364   2.035   6.596   3.554  0.4983  0.0546  0.0872
10960SOL    HW234365   2.159   6.616   3.469 -0.0865 -0.1055 -0.8151
10961SOL     OW34366   8.021   2.053   3.530 -0.0872 -0.3364  0.4151
10961SOL    HW134367   8.100   2.055   3.584 -0.7239 -0.2673  1.3572
10961SOL    HW234368   8.033   1.976   3.473  0.6056 -0.3820  0.6175
10962SOL     OW34369   2.762   4.114   6.010 -0.4014  0.1765  0.0648
10962SOL    HW134370   2.840   4.105   5.956  1.6789  4.5040  2.1247
10962SOL    HW234371   2.694   4.143   5.949  0.9542  1.4317 -0.8976
10963SOL     OW34372   3.142   7.988   4.286 -0.1567  0.7006 -0.2942
10963SOL    HW134373   3.152   7.921   4.353 -2.8580  0.0433 -0.4731
10963SOL    HW234374   3.161   7.943   4.204 -0.6447  0.4837 -0.2928
10964SOL     OW34375   0.638   4.294   1.039  0.3664  0.2943 -0.3307
10964SOL    HW134376   0.611   4.286   0.948  0.2337  1.4297 -0.3910
10964SOL    HW234377   0.692   4.372   1.042 -1.7344  1.7411  1.0469
10965SOL     OW34378   3.606   0.317   1.569  0.1467 -0.0304  0.0212
10965SOL    HW134379   3.637   0.245   1.514  0.5209 -0.3340  0.6297
10965SOL    HW234380   3.640   0.395   1.526 -1.3091 -0.1197 -1.3395
10966SOL     OW34381   4.175   6.569   3.173  0.7182  0.0144  0.4698
10966SOL    HW134382   4.228   6.512   3.229 -1.4634  0.9977  3.6834
10966SOL    HW234383   4.121   6.509   3.121  3.4855 -0.9396 -1.4386
10967SOL     OW34384   5.781   4.348   0.240 -0.0654 -0.5618 -0.3649
10967SOL    HW134385   5.813   4.382   0.323 -0.2839 -0.2171 -0.4204
10967SOL    HW234386   5.820   4.405   0.173 -0.5799 -0.3062 -0.4467
10968SOL     OW34387   0.923   0.043   7.985  0.4095  0.1450 -0.2723
10968SOL    HW134388   0.964   0.116   8.032  1.8903 -1.1646  0.5042
10968SOL    HW234389   0.989  -0.026   7.986 -0.3112 -0.5996 -2.5555
10969SOL     OW34390   7.061   2.894   0.101 -0.6109 -0.2523  0.4604
10969SOL    HW134391   7.091   2.973   0.145 -1.3774 -0.1031  0.7179
10969SOL    HW234392   7.116   2.824   0.136 -0.8570 -0.0485  1.2471
10970SOL     OW34393   3.692   6.169   1.409  0.4104  0.1684  0.3605
10970SOL    HW134394   3.759   6.119   1.362 -0.1816 -1.6735  1.4554
10970SOL    HW234395   3.728   6.183   1.496  1.4612  3.5088 -0.5464
10971SOL     OW34396   3.142   3.376   5.373  0.0940 -0.4318 -0.5563
10971SOL    HW134397   3.223   3.338   5.339  0.5011  1.7166 -2.0851
10971SOL    HW234398   3.084   3.300   5.386  2.3887 -2.0024  0.7710
10972SOL     OW34399   5.262   8.075   6.493 -0.5191 -0.5049 -0.2622
10972SOL    HW134400   5.352   8.108   6.500 -0.1740 -1.5550  0.3930
10972SOL    HW234401   5.233   8.065   6.583 -1.1737 -0.5060 -0.4718
10973SOL     OW34402   5.988   4.961   6.646 -0.3702 -0.1941 -0.3792
10973SOL    HW134403   6.078   4.931   6.654  0.3075  1.8638 -0.0691
10973SOL    HW234404   5.960   4.930   6.560 -0.2842 -3.1653  0.6315
10974SOL     OW34405   2.678   7.527   3.348 -0.2968  0.0536  0.2711
10974SOL    HW134406   2.608   7.560   3.403 -1.1277 -2.1356  0.5943
10974SOL    HW234407   2.745   7.496   3.410 -0.1804 -0.2186  0.0125
10975SOL     OW34408   4.653   0.834   3.557 -0.5820 -0.0807  0.8248
10975SOL    HW134409   4.565   0.818   3.591 -0.7952  0.5446  0.5917
10975SOL    HW234410   4.680   0.751   3.518 -1.6239  0.1243 -0.3287
10976SOL     OW34411   6.241   3.185   1.836  0.0012  0.2026  0.1057
10976SOL    HW134412   6.195   3.133   1.770 -0.0044  1.3027 -0.7641
10976SOL    HW234413   6.172   3.214   1.896 -0.3244  1.0867 -0.6842
10977SOL     OW34414   8.269   4.148   5.453 -0.1329 -0.5827 -0.0728
10977SOL    HW134415   8.197   4.182   5.399  0.9491  1.9634  0.0565
10977SOL    HW234416   8.259   4.192   5.537  0.6027 -1.5023  0.4988
10978SOL     OW34417   4.565   7.738   6.165 -0.1435  0.3122 -0.0042
10978SOL    HW134418   4.633   7.671   6.163 -0.3839  0.0118  1.3052
10978SOL    HW234419   4.603   7.809   6.217 -0.7959  0.1928  0.6287
10979SOL     OW34420   6.364   2.804   2.254  0.5162  0.3850  0.3758
10979SOL    HW134421   6.306   2.799   2.179 -0.7397  1.9453  1.2118
10979SOL    HW234422   6.322   2.750   2.321  1.0669 -0.0944  0.3486
10980SOL     OW34423   5.832   0.546   5.550 -0.0628 -0.3169  0.1312
10980SOL    HW134424   5.861   0.554   5.640  0.2567 -0.7339  0.0677
10980SOL    HW234425   5.737   0.560   5.554 -0.1695 -1.1400  0.6494
10981SOL     OW34426   3.033   7.267   2.902  0.1347 -0.4536 -0.3933
10981SOL    HW134427   2.991   7.189   2.866  1.0367 -0.5736 -1.1926
10981SOL    HW234428   2.980   7.289   2.979 -0.0488 -1.9164 -0.0988
10982SOL     OW34429   3.918   8.156   5.597  0.1381  0.3552 -0.8332
10982SOL    HW134430   3.824   8.169   5.582 -0.2203  0.4892  1.3283
10982SOL    HW234431   3.938   8.213   5.672  1.5688 -0.9987 -0.1768
10983SOL     OW34432   7.573   4.297   6.836 -0.0401 -0.0235 -0.3444
10983SOL    HW134433   7.654   4.283   6.884  0.1500  0.8778 -0.4024
10983SOL    HW234434   7.594   4.275   6.745  0.7445  2.2721 -0.7546
10984SOL     OW34435   3.447   3.739   4.006  0.4595 -0.0127  0.7534
10984SOL    HW134436   3.365   3.738   3.958  1.1447  0.1530 -0.4317
10984SOL    HW234437   3.432   3.681   4.081 -0.2480 -1.1619 -0.2651
10985SOL     OW34438   1.731   3.426   1.257  0.3069 -0.0068  0.4872
10985SOL    HW134439   1.667   3.473   1.311 -1.5057 -0.1098 -1.5427
10985SOL    HW234440   1.719   3.334   1.281  0.6605  0.1103  1.1176
10986SOL     OW34441   2.447   4.516   2.587 -0.5320  0.5132 -0.1397
10986SOL    HW134442   2.415   4.587   2.531  0.7841 -0.9691 -2.8808
10986SOL    HW234443   2.406   4.437   2.550  1.1648 -0.6215  0.3679
10987SOL     OW34444   3.247   5.342   4.481  0.3119  0.0987  0.2662
10987SOL    HW134445   3.213   5.314   4.396 -2.9667  1.0302  1.1665
10987SOL    HW234446   3.314   5.278   4.503 -0.4213 -1.4924 -1.9782
10988SOL     OW34447   6.844   6.192   8.193  0.0909 -0.4365  0.3832
10988SOL    HW134448   6.792   6.241   8.257 -1.0291 -1.3873  0.2229
10988SOL    HW234449   6.878   6.117   8.242 -0.3659 -0.9007 -0.0014
10989SOL     OW34450   1.098   0.069   6.271  0.0588 -0.9611 -0.3122
10989SOL    HW134451   1.041   0.073   6.348  0.4633 -1.0830 -0.0093
10989SOL    HW234452   1.109   0.160   6.245 -1.7763 -1.0512 -1.4714
10990SOL     OW34453   2.762   5.214   4.547 -0.6129  0.2851  0.3231
10990SOL    HW134454   2.670   5.186   4.554 -0.8675  0.6704 -1.3253
10990SOL    HW234455   2.777   5.223   4.453  1.1956  0.0025  0.5795
10991SOL     OW34456   3.346   5.022   4.044 -0.2373 -0.2822 -0.0857
10991SOL    HW134457   3.355   5.094   3.982 -0.2543 -0.1197  0.0999
10991SOL    HW234458   3.433   5.012   4.083 -0.5985  0.5910  0.9367
10992SOL     OW34459   5.456   1.522   1.973  0.3623  0.4599 -0.0433
10992SOL    HW134460   5.498   1.558   1.895  0.9210 -0.1681 -0.0320
10992SOL    HW234461   5.396   1.456   1.940  1.5359 -0.7191  0.1328
10993SOL     OW34462   7.545   0.679   3.770  0.0506  0.3706 -0.5028
10993SOL    HW134463   7.514   0.769   3.758  0.6241  0.4672 -1.3562
10993SOL    HW234464   7.472   0.624   3.743 -0.7406  0.5590  1.1735
10994SOL     OW34465   2.825   7.007   2.439 -0.2054 -0.2762 -0.3165
10994SOL    HW134466   2.876   7.083   2.467 -0.8921  0.5081 -1.1820
10994SOL    HW234467   2.886   6.957   2.384  0.1033 -0.1241 -0.1141
10995SOL     OW34468   2.702   2.741   5.648 -0.4879 -0.3117  0.5854
10995SOL    HW134469   2.690   2.804   5.719 -0.1133  0.7424 -0.2633
10995SOL    HW234470   2.619   2.694   5.642 -1.6297  1.7625 -0.3329
10996SOL     OW34471   6.578   5.734   0.295  0.2091  0.3630 -0.0586
10996SOL    HW134472   6.556   5.692   0.212 -0.1714 -2.1466  1.2435
10996SOL    HW234473   6.510   5.800   0.308 -1.2853 -1.0359 -0.5044
10997SOL     OW34474   6.509   7.849   8.039 -0.4463  0.4697 -0.2987
10997SOL    HW134475   6.572   7.797   7.990  0.6118  1.3485  0.0961
10997SOL    HW234476   6.427   7.843   7.989 -0.4041 -1.7372 -0.1364
10998SOL     OW34477   1.201   2.688   2.288 -0.6387 -0.3490  0.2432
10998SOL    HW134478   1.267   2.685   2.220 -0.9172  3.1811 -0.2662
10998SOL    HW234479   1.250   2.683   2.370  0.4045  2.6088 -0.1186
10999SOL     OW34480   5.688   7.534   3.554  0.2517 -0.1350 -0.5725
10999SOL    HW134481   5.723   7.595   3.619 -0.4174  0.6265 -0.9169
10999SOL    HW234482   5.604   7.507   3.589  1.0412 -1.7423  0.1153
11000SOL     OW34483   5.324   4.991   1.930  0.2556  0.7182 -0.4993
11000SOL    HW134484   5.319   4.982   2.026 -1.4978  1.2872 -0.5329
11000SOL    HW234485   5.236   4.972   1.899  0.8760  0.2709 -2.0478
11001SOL     OW34486   6.307   8.271   1.338 -0.5183  0.1307  0.0249
11001SOL    HW134487   6.256   8.338   1.385 -1.3747 -1.1164  0.9079
11001SOL    HW234488   6.269   8.188   1.366  0.3239 -0.7222 -1.3198
11002SOL     OW34489   4.117   4.426   1.803  0.6150 -0.1982 -0.4079
11002SOL    HW134490   4.202   4.398   1.837  1.8406  4.3561  0.6110
11002SOL    HW234491   4.127   4.425   1.707  2.4016  1.7117 -0.2802
11003SOL     OW34492   6.264   7.405   6.651  0.2357  0.1588 -0.3972
11003SOL    HW134493   6.351   7.439   6.630  0.1670  0.3060 -0.4410
11003SOL    HW234494   6.226   7.381   6.567  0.8323 -1.3635 -0.2569
11004SOL     OW34495   3.823   6.103   4.754  0.3242  0.4102  0.3194
11004SOL    HW134496   3.734   6.084   4.782  0.2241  0.8096  0.2823
11004SOL    HW234497   3.868   6.129   4.835  0.4274  0.1316  0.3522
11005SOL     OW34498   4.084   5.785   6.700  0.4874 -0.3036 -0.2142
11005SOL    HW134499   4.125   5.784   6.614  0.4596 -0.0029 -0.2336
11005SOL    HW234500   4.042   5.700   6.708 -0.5108  0.1006 -0.9941
11006SOL     OW34501   0.969   4.021   2.611 -0.5361  0.5241  0.0126
11006SOL    HW134502   0.928   4.051   2.530  0.4007  0.4901 -0.4822
11006SOL    HW234503   0.919   3.944   2.636 -0.9262  0.6195 -0.4593
11007SOL     OW34504   4.207   3.480   2.700 -0.0066  0.8134 -0.6398
11007SOL    HW134505   4.216   3.418   2.628 -0.4932 -0.9802  0.8182
11007SOL    HW234506   4.286   3.470   2.752 -0.0085  1.5349 -0.4852
11008SOL     OW34507   3.040   6.976   1.725  0.0231 -0.5315  0.8216
11008SOL    HW134508   3.066   7.001   1.814 -0.3963 -0.8772  1.0371
11008SOL    HW234509   2.967   6.916   1.737 -0.5539  0.0428  0.2164
11009SOL     OW34510   0.933   7.593   5.301 -0.3145  0.1057 -0.3587
11009SOL    HW134511   0.854   7.538   5.309 -0.0668  0.0918  2.4760
11009SOL    HW234512   1.004   7.530   5.287 -0.1927 -0.2580  1.7319
11010SOL     OW34513   0.977   1.653   3.355  0.1005 -0.3651  0.0631
11010SOL    HW134514   0.951   1.582   3.413 -2.3890  1.0309  0.7332
11010SOL    HW234515   1.006   1.609   3.275 -0.2313 -2.1691  0.9111
11011SOL     OW34516   7.882   3.076   4.584  0.0402  0.3396 -0.2124
11011SOL    HW134517   7.794   3.094   4.618  0.2037 -2.6118  1.9586
11011SOL    HW234518   7.869   3.065   4.490 -1.6852  1.2903 -0.1166
11012SOL     OW34519   4.827   4.187   7.684 -0.1242 -0.0631 -0.9581
11012SOL    HW134520   4.759   4.250   7.661 -0.5507 -0.6271 -1.2605
11012SOL    HW234521   4.904   4.240   7.702 -0.1187  0.4734 -2.5055
11013SOL     OW34522   0.753   1.005   0.282 -0.7394  0.0303 -0.2062
11013SOL    HW134523   0.658   1.018   0.282 -0.5843  1.2070 -0.8003
11013SOL    HW234524   0.779   1.016   0.190  0.0637  0.4025  0.0645
11014SOL     OW34525   3.092   1.918   3.388 -0.3861 -0.3250  0.0927
11014SOL    HW134526   3.028   1.976   3.430 -0.4489  0.6743 -1.3376
11014SOL    HW234527   3.177   1.952   3.417 -0.3575  1.8349 -2.4113
11015SOL     OW34528   5.575   3.833   1.267  0.1250 -0.4220  0.3058
11015SOL    HW134529   5.490   3.876   1.255  0.6412  0.9609  1.3415
11015SOL    HW234530   5.555   3.752   1.313 -0.5889  0.1775  1.0688
11016SOL     OW34531   6.348   6.888   5.818 -0.0751  0.5217 -0.5046
11016SOL    HW134532   6.303   6.806   5.798 -2.3612  1.8189 -0.8992
11016SOL    HW234533   6.364   6.928   5.733  3.2236 -0.5802 -0.4663
11017SOL     OW34534   4.121   2.392   1.200 -0.3434  0.0590 -0.3899
11017SOL    HW134535   4.028   2.376   1.186 -0.3789  1.2739 -1.6622
11017SOL    HW234536   4.164   2.309   1.178 -1.1393 -0.6102  0.5438
11018SOL     OW34537   7.242   3.486   0.979 -0.2211 -0.3840  1.1297
11018SOL    HW134538   7.322   3.452   1.019 -0.3483 -1.3711  0.5799
11018SOL    HW234539   7.173   3.461   1.040 -0.3050 -1.0870  0.7624
11019SOL     OW34540   5.528   5.286   6.096  0.5254 -0.5057  0.5869
11019SOL    HW134541   5.535   5.290   6.001 -1.3232 -0.9032  0.4015
11019SOL    HW234542   5.579   5.360   6.128  0.1664  0.3313 -0.7701
11020SOL     OW34543   5.169   2.279   1.128 -0.0837  0.1293 -0.6444
11020SOL    HW134544   5.240   2.276   1.192 -0.7267  0.6379  0.0978
11020SOL    HW234545   5.171   2.369   1.095 -0.5423  0.2114 -0.4454
11021SOL     OW34546   0.559   6.048   3.722  0.5346  0.1227  0.0745
11021SOL    HW134547   0.522   5.986   3.784 -0.4540  1.1928  0.5678
11021SOL    HW234548   0.639   6.080   3.764  1.2466 -1.0456 -0.3351
11022SOL     OW34549   2.287   6.391   7.230  0.5327 -0.2845 -0.5772
11022SOL    HW134550   2.275   6.381   7.136 -1.0295 -1.6656 -0.2540
11022SOL    HW234551   2.201   6.419   7.262  0.4549 -1.8815  0.6875
11023SOL     OW34552   3.002   7.507   4.424 -0.0624  0.0010 -0.0535
11023SOL    HW134553   2.980   7.558   4.502  0.2523 -0.6514  0.4690
11023SOL    HW234554   3.067   7.443   4.455 -1.5145 -1.6583 -0.3814
11024SOL     OW34555   4.168   2.274   3.384 -0.5388  0.0913 -0.3456
11024SOL    HW134556   4.108   2.200   3.379 -0.1871 -0.1093 -1.8392
11024SOL    HW234557   4.190   2.281   3.477 -2.0337 -0.4946  0.0646
11025SOL     OW34558   8.134   0.692   2.690 -0.2596  0.2564 -0.0416
11025SOL    HW134559   8.041   0.671   2.696 -0.1538 -0.8933 -2.0759
11025SOL    HW234560   8.169   0.628   2.629  2.3944 -0.9470  2.6205
11026SOL     OW34561   0.274   0.163   3.214 -0.1671  0.3678 -0.0540
11026SOL    HW134562   0.360   0.134   3.181  0.8599  2.8739  0.3251
11026SOL    HW234563   0.212   0.133   3.147  1.4498  1.9634 -2.3343
11027SOL     OW34564   6.285   3.076   4.071  0.3746  0.4285  0.1419
11027SOL    HW134565   6.205   3.129   4.069 -0.0083 -0.0921  1.0582
11027SOL    HW234566   6.356   3.140   4.077 -0.1918  0.8455  3.7140
11028SOL     OW34567   3.740   2.305   0.392  0.2099  0.3150  0.2277
11028SOL    HW134568   3.757   2.297   0.486 -0.9486 -2.4726  0.2430
11028SOL    HW234569   3.822   2.277   0.351 -0.6661 -2.5868  0.3970
11029SOL     OW34570   7.988   4.670   1.583 -0.6210 -0.7764  0.4854
11029SOL    HW134571   8.003   4.751   1.535  0.3015 -1.6987 -0.8352
11029SOL    HW234572   7.935   4.696   1.658  0.6722  1.2341  0.7411
11030SOL     OW34573   0.255   6.019   0.286  0.7506  0.0423 -0.0990
11030SOL    HW134574   0.263   6.095   0.343 -0.3492  1.9660 -2.4310
11030SOL    HW234575   0.175   5.976   0.314  0.2244  0.9703 -0.1638
11031SOL     OW34576   5.094   6.005   6.851  0.0083 -0.1207 -0.0520
11031SOL    HW134577   5.156   5.999   6.779 -0.0686  0.5950 -0.1814
11031SOL    HW234578   5.139   6.058   6.917 -0.5826  0.6896 -0.2848
11032SOL     OW34579   6.883   3.883   2.967 -0.2052  0.1195 -0.0344
11032SOL    HW134580   6.904   3.794   2.937 -1.1012  0.8453 -2.9686
11032SOL    HW234581   6.804   3.872   3.021 -0.8152 -0.7881 -1.0891
11033SOL     OW34582   2.613   3.242   3.106  0.3240 -0.1054  0.6935
11033SOL    HW134583   2.612   3.335   3.085  0.6927  0.5108  3.2773
11033SOL    HW234584   2.655   3.201   3.030  0.1130  1.8014 -0.4939
11034SOL     OW34585   1.786   2.201   5.528 -0.3093 -0.0596  0.3470
11034SOL    HW134586   1.719   2.155   5.579 -0.3372  0.0218  0.3840
11034SOL    HW234587   1.861   2.143   5.530 -0.3835 -0.1560  0.2960
11035SOL     OW34588   7.699   4.987   7.819  0.5041  0.6106 -0.5721
11035SOL    HW134589   7.662   5.015   7.736 -2.3711  1.8480  1.0584
11035SOL    HW234590   7.735   5.066   7.858  0.4100  0.3327  0.0864
11036SOL     OW34591   6.635   1.520   7.710  0.1964  0.2635 -0.0123
11036SOL    HW134592   6.692   1.596   7.724  2.6842 -1.3056 -1.3057
11036SOL    HW234593   6.564   1.554   7.655  0.9589  1.8134 -0.0752
11037SOL     OW34594   7.836   5.270   0.161  0.3183  0.3861  0.4394
11037SOL    HW134595   7.758   5.323   0.170 -0.1930 -0.4685  1.1602
11037SOL    HW234596   7.806   5.180   0.177  1.3988  0.0276  0.5294
11038SOL     OW34597   0.715   0.384   5.733  0.1275 -0.5108  0.1211
11038SOL    HW134598   0.791   0.344   5.774  0.0713 -1.7446 -0.9182
11038SOL    HW234599   0.646   0.379   5.799  0.5655 -0.6555  0.5708
11039SOL     OW34600   7.840   7.105   3.426 -1.0137 -0.0245 -0.2839
11039SOL    HW134601   7.900   7.179   3.433 -0.6107 -0.1195 -2.4092
11039SOL    HW234602   7.878   7.038   3.484 -0.6370  0.9164  0.5781
11040SOL     OW34603   6.805   2.965   0.071  0.0232 -0.2253 -0.1512
11040SOL    HW134604   6.808   2.992  -0.021  2.6202 -1.4104 -0.4483
11040SOL    HW234605   6.897   2.954   0.096 -0.7010 -1.2434  2.1989
11041SOL     OW34606   5.916   2.601   3.082 -0.3168 -0.4231 -0.1306
11041SOL    HW134607   5.845   2.553   3.124 -1.5169  0.9460 -0.5635
11041SOL    HW234608   5.933   2.675   3.141  0.3820 -0.4484 -0.2944
11042SOL     OW34609   4.484   2.542   6.200  0.5711 -0.6431 -0.0379
11042SOL    HW134610   4.444   2.490   6.270 -1.8368  1.5378  0.2974
11042SOL    HW234611   4.479   2.633   6.232 -0.8044  0.4193 -3.0621
11043SOL     OW34612   5.929   4.795   4.453 -0.9930  0.0909  0.4370
11043SOL    HW134613   5.934   4.785   4.548 -1.2487  0.8614  0.5343
11043SOL    HW234614   5.920   4.889   4.439 -1.7003 -0.0814 -0.3195
11044SOL     OW34615   4.440   7.343   0.544 -0.0485  0.2064  0.1433
11044SOL    HW134616   4.425   7.353   0.638  3.0805 -0.7217  0.7774
11044SOL    HW234617   4.506   7.409   0.523 -1.9213  1.5221 -1.7660
11045SOL     OW34618   7.901   5.044   2.895  0.0302 -0.2984  0.1550
11045SOL    HW134619   7.880   5.127   2.939 -1.6797 -0.4889 -0.2836
11045SOL    HW234620   7.838   4.981   2.931  1.2063 -1.3858  0.3538
11046SOL     OW34621   3.728   0.725   2.858 -0.1482 -0.1578  0.1891
11046SOL    HW134622   3.744   0.638   2.821 -1.9670  0.5132 -2.3468
11046SOL    HW234623   3.773   0.725   2.942  4.6275 -1.6290 -2.2349
11047SOL     OW34624   7.571   7.069   1.765 -0.7138 -0.0347  0.5621
11047SOL    HW134625   7.494   7.120   1.791 -0.7900  0.4004 -0.5164
11047SOL    HW234626   7.626   7.132   1.718 -0.8905 -0.9803 -0.9360
11048SOL     OW34627   4.114   4.787   6.074  0.3618 -0.4208 -0.5237
11048SOL    HW134628   4.069   4.706   6.052 -0.5363  0.0993 -0.6226
11048SOL    HW234629   4.045   4.844   6.110  0.9333  0.3855 -0.6986
11049SOL     OW34630   8.265   8.164   4.729  0.4604  0.3459  0.0541
11049SOL    HW134631   8.281   8.070   4.727  1.0185  0.4019  1.5162
11049SOL    HW234632   8.170   8.172   4.723  0.5222 -0.2204 -2.1105
11050SOL     OW34633   2.027   6.894   3.166  0.6469  1.2228 -0.5976
11050SOL    HW134634   2.070   6.908   3.251 -1.0380  0.6730  0.3725
11050SOL    HW234635   2.089   6.929   3.102  0.8525  4.1031  1.0477
11051SOL     OW34636   1.543   1.274   3.647  0.5832 -0.0031  0.2902
11051SOL    HW134637   1.533   1.288   3.741  1.0426 -0.1182  0.3571
11051SOL    HW234638   1.635   1.296   3.629  0.5522 -0.1795 -0.0929
11052SOL     OW34639   0.403   4.123   6.026  0.5277  0.5939 -0.1608
11052SOL    HW134640   0.484   4.161   5.994  0.7674  0.3900  0.1955
11052SOL    HW234641   0.387   4.048   5.968  0.8950  0.3000  0.1131
11053SOL     OW34642   0.717   4.071   0.184  0.0220 -0.2538 -0.6894
11053SOL    HW134643   0.801   4.043   0.221 -0.0295  0.2807 -0.1676
11053SOL    HW234644   0.731   4.069   0.089  1.2285  1.6378 -0.5819
11054SOL     OW34645   4.636   4.337   2.474 -0.1335 -0.0328  0.2666
11054SOL    HW134646   4.610   4.313   2.562  0.2614 -0.6784  0.2096
11054SOL    HW234647   4.584   4.415   2.454 -1.7775 -1.0998  0.2791
11055SOL     OW34648   6.977   8.256   8.027  0.6221 -0.0288 -0.0319
11055SOL    HW134649   6.926   8.273   7.948 -2.5858 -1.7634  1.5702
11055SOL    HW234650   6.967   8.336   8.080  0.9772  0.2841 -0.4346
11056SOL     OW34651   8.248   6.450   0.157 -0.2733  0.0203 -0.2780
11056SOL    HW134652   8.224   6.378   0.099 -0.0282  1.0055 -1.6442
11056SOL    HW234653   8.260   6.410   0.243  0.3782 -1.6419 -1.1307
11057SOL     OW34654   6.049   4.210   5.627  0.4739  0.1826 -0.1175
11057SOL    HW134655   5.965   4.249   5.651 -0.2784 -2.2412  1.4294
11057SOL    HW234656   6.111   4.283   5.629 -1.4639  1.8942 -0.6534
11058SOL     OW34657   8.292   1.768   0.501  0.5845 -0.1687 -0.4543
11058SOL    HW134658   8.223   1.832   0.518 -0.1536 -0.4272 -2.3308
11058SOL    HW234659   8.365   1.798   0.555 -0.3213  1.2512  0.0449
11059SOL     OW34660   1.783   6.313   4.982 -0.2334 -0.5162 -0.4182
11059SOL    HW134661   1.878   6.312   4.992 -0.0849  0.7799 -1.6386
11059SOL    HW234662   1.751   6.346   5.066  0.3837 -1.0186  0.0220
11060SOL     OW34663   6.728   6.560   5.945 -0.7394 -0.2236  0.5951
11060SOL    HW134664   6.777   6.482   5.922 -2.4007 -0.9253 -0.6764
11060SOL    HW234665   6.734   6.616   5.867 -0.2064  0.5842  1.2117
11061SOL     OW34666   1.427   6.169   3.811  0.2103 -0.2362  0.6889
11061SOL    HW134667   1.358   6.234   3.825  0.4557  0.3379 -0.6820
11061SOL    HW234668   1.507   6.214   3.836  0.1988 -0.5707  1.3273
11062SOL     OW34669   6.870   1.148   0.795  0.2090 -0.0234  0.2205
11062SOL    HW134670   6.870   1.173   0.702  1.8609 -0.7071  0.0153
11062SOL    HW234671   6.885   1.229   0.842  0.2775  0.1864 -0.1589
11063SOL     OW34672   0.946   4.262   3.329 -0.2150  0.9479  0.0891
11063SOL    HW134673   0.899   4.179   3.327  0.2268  0.6449  1.3271
11063SOL    HW234674   0.878   4.328   3.336 -0.5393  0.6241  0.0142
11064SOL     OW34675   5.840   7.763   0.774  0.0842 -0.0632  0.5129
11064SOL    HW134676   5.889   7.830   0.822  0.5109 -0.5432  0.7597
11064SOL    HW234677   5.749   7.792   0.778  0.1610  0.0858  1.3239
11065SOL     OW34678   1.955   8.287   6.105  0.2469 -0.4594  0.8097
11065SOL    HW134679   1.998   8.346   6.044 -1.7686 -0.9570 -1.1780
11065SOL    HW234680   2.005   8.205   6.097 -0.6549 -0.8574 -1.0307
11066SOL     OW34681   4.524   0.617   0.621  0.2640  0.6561 -0.0105
11066SOL    HW134682   4.491   0.562   0.692  0.7461  1.1602  0.6088
11066SOL    HW234683   4.483   0.581   0.542 -0.1792  0.0162  0.5038
11067SOL     OW34684   7.313   0.314   1.976 -0.0923  0.1696 -0.0313
11067SOL    HW134685   7.253   0.314   2.050  1.3317  0.6323  1.1462
11067SOL    HW234686   7.374   0.385   1.994  1.3447 -0.8504 -0.7528
11068SOL     OW34687   7.496   7.980   2.348 -0.7271  0.3280  0.1009
11068SOL    HW134688   7.493   8.073   2.326  0.1532 -0.0250 -1.6300
11068SOL    HW234689   7.446   7.937   2.278 -0.2283 -0.5906  0.2971
11069SOL     OW34690   7.226   4.583   0.080 -0.2361 -0.0423 -0.6731
11069SOL    HW134691   7.191   4.633   0.006  2.8294  0.5773 -1.7880
11069SOL    HW234692   7.264   4.505   0.040 -0.3690 -0.7087  0.4864
11070SOL     OW34693   7.377   5.567   6.613  0.0744  0.1643 -0.3033
11070SOL    HW134694   7.459   5.602   6.646 -0.3929 -0.4975  1.6042
11070SOL    HW234695   7.364   5.485   6.661 -1.1988 -0.2535 -1.3178
11071SOL     OW34696   1.232   1.374   6.853  0.2616 -0.1700  0.0052
11071SOL    HW134697   1.207   1.332   6.935 -0.1081  1.5512  0.7753
11071SOL    HW234698   1.163   1.438   6.836  1.4836  1.0357 -0.4889
11072SOL     OW34699   6.106   4.908   3.708  0.2427 -0.5661  0.2236
11072SOL    HW134700   6.126   4.974   3.642 -0.1296 -0.4588  0.2171
11072SOL    HW234701   6.081   4.831   3.657 -1.0880 -0.1551  0.2476
11073SOL     OW34702   1.012   0.158   4.408 -0.1710  0.1277  0.5360
11073SOL    HW134703   1.038   0.186   4.320 -1.1957  1.6655  0.6960
11073SOL    HW234704   0.994   0.240   4.454 -0.8757 -0.7248  1.7811
11074SOL     OW34705   8.126   3.218   4.030  0.3157  0.2214  0.1989
11074SOL    HW134706   8.145   3.158   4.103  0.5612  0.8195  0.6353
11074SOL    HW234707   8.208   3.221   3.981  0.0505 -0.4365 -0.2969
11075SOL     OW34708   7.462   0.037   7.280  0.3085 -0.1137  0.3514
11075SOL    HW134709   7.477  -0.017   7.202 -0.5425  0.6301 -0.3371
11075SOL    HW234710   7.476  -0.023   7.353 -0.5963 -1.2719 -0.3977
11076SOL     OW34711   3.397   0.274   3.000  0.1776 -0.5110  0.4599
11076SOL    HW134712   3.309   0.312   2.998  0.5034  0.2326 -1.1860
11076SOL    HW234713   3.449   0.336   3.050  0.2332  0.1603 -0.4150
11077SOL     OW34714   5.465   2.330   6.747 -0.0441 -0.1251  0.3116
11077SOL    HW134715   5.497   2.261   6.805 -0.2488 -1.4594 -1.1703
11077SOL    HW234716   5.396   2.373   6.798  2.1070  0.9804  2.4272
11078SOL     OW34717   1.974   0.845   6.971  0.6660 -0.7499 -0.0757
11078SOL    HW134718   2.008   0.915   6.916  0.3516  0.2238  0.9480
11078SOL    HW234719   1.966   0.770   6.912  1.0103  0.0652 -1.1815
11079SOL     OW34720   4.322   7.441   3.750  0.1962  0.1385 -0.2687
11079SOL    HW134721   4.375   7.499   3.694  0.4794  0.0914 -0.0542
11079SOL    HW234722   4.256   7.499   3.788  0.3206  0.2754 -0.2555
11080SOL     OW34723   2.066   5.994   4.925 -0.2922 -0.3216  0.4022
11080SOL    HW134724   2.082   6.019   4.834  1.4514 -1.8532  0.2498
11080SOL    HW234725   2.147   6.018   4.971 -0.3202 -1.5143  1.1099
11081SOL     OW34726   0.345   5.087   7.047  0.1778  0.3345  0.2643
11081SOL    HW134727   0.323   5.172   7.085 -0.6247  1.0571 -1.7197
11081SOL    HW234728   0.282   5.076   6.975  1.5899 -0.9825 -0.8103
11082SOL     OW34729   6.387   3.431   3.269  0.4228  0.4300  0.1557
11082SOL    HW134730   6.419   3.498   3.207  1.5817  1.0535  1.3981
11082SOL    HW234731   6.316   3.475   3.317 -1.0651 -0.3360 -1.2991
11083SOL     OW34732   4.111   7.193   3.243 -0.0161  0.2324  0.2352
11083SOL    HW134733   4.075   7.119   3.293 -0.9756  0.1790 -0.5209
11083SOL    HW234734   4.044   7.212   3.178  0.6528  1.1647 -0.1812
11084SOL     OW34735   3.651   6.990   5.633 -0.0744  0.2103  0.0634
11084SOL    HW134736   3.681   6.975   5.723 -0.2578  0.3851  0.1537
11084SOL    HW234737   3.732   6.999   5.583  0.0317  0.5912  0.2942
11085SOL     OW34738   1.186   0.481   6.472  0.5469  0.2270 -0.4041
11085SOL    HW134739   1.111   0.423   6.486  1.1356 -0.0093  2.0073
11085SOL    HW234740   1.260   0.421   6.461  1.3037  0.4547  2.9719
11086SOL     OW34741   3.562   7.019   4.815 -0.2521 -0.3352 -0.5378
11086SOL    HW134742   3.515   7.099   4.789  2.3660  2.0992  1.8532
11086SOL    HW234743   3.643   7.022   4.766  0.5007 -0.7355  0.6612
11087SOL     OW34744   8.149   5.566   4.764 -0.3411 -0.1567  0.1770
11087SOL    HW134745   8.163   5.589   4.856 -0.0401  0.5417 -0.0317
11087SOL    HW234746   8.135   5.472   4.763  2.2913 -0.5764  0.6552
11088SOL     OW34747   4.540   7.381   6.687  0.1711 -0.0825 -0.4519
11088SOL    HW134748   4.449   7.404   6.707  0.3586  0.4092 -0.1468
11088SOL    HW234749   4.534   7.303   6.632 -0.4375 -0.0302 -0.4613
11089SOL     OW34750   7.476   3.532   2.477 -0.3639 -0.4705 -0.1710
11089SOL    HW134751   7.452   3.492   2.561 -0.5939  0.7213  0.3467
11089SOL    HW234752   7.424   3.612   2.473  4.0065  2.6519  1.3672
11090SOL     OW34753   4.928   5.480   2.608 -0.1723  0.6159  0.0816
11090SOL    HW134754   4.848   5.428   2.618  0.1391 -0.0665 -0.9209
11090SOL    HW234755   4.896   5.568   2.585 -0.6819  0.7494  1.2844
11091SOL     OW34756   6.385   5.361   4.760  0.1213  0.1657 -0.3343
11091SOL    HW134757   6.355   5.392   4.675  1.8630 -0.0110 -1.0311
11091SOL    HW234758   6.472   5.400   4.770  0.0266  0.0073  1.2726
11092SOL     OW34759   0.852   4.664   5.159 -0.4237  0.1980  0.1404
11092SOL    HW134760   0.819   4.637   5.073  1.0121  1.4893 -0.8499
11092SOL    HW234761   0.779   4.713   5.198 -2.2737 -3.1713  1.0856
11093SOL     OW34762   3.350   2.111   4.332 -0.4053  0.0887  0.2535
11093SOL    HW134763   3.389   2.045   4.389  1.6285  0.8462 -0.2294
11093SOL    HW234764   3.365   2.194   4.377  2.5948  0.8632 -2.0590
11094SOL     OW34765   6.974   3.570   3.602 -0.5266 -0.3525  0.2097
11094SOL    HW134766   6.968   3.664   3.617  1.7602 -0.0515 -0.6018
11094SOL    HW234767   7.003   3.534   3.686  1.4278  0.0378 -0.2639
11095SOL     OW34768   4.089   5.871   5.322 -0.3989 -0.2090  0.4618
11095SOL    HW134769   4.091   5.967   5.330  1.2350 -0.1768 -0.1152
11095SOL    HW234770   4.138   5.840   5.399 -0.6081 -0.5738  0.4482
11096SOL     OW34771   6.363   7.021   5.570  0.3591  0.0366 -0.4766
11096SOL    HW134772   6.449   6.991   5.540  0.7624 -0.2701  0.9369
11096SOL    HW234773   6.302   6.955   5.537  0.7834 -0.2625 -0.6799
11097SOL     OW34774   6.943   2.087   6.352  0.1832 -0.1045 -0.0408
11097SOL    HW134775   6.941   2.182   6.343 -1.4443 -0.1590 -0.5648
11097SOL    HW234776   6.958   2.055   6.263 -2.2308 -0.3787 -0.3807
11098SOL     OW34777   4.953   4.031   4.575 -0.9417 -0.3256 -0.7403
11098SOL    HW134778   5.010   3.990   4.639 -1.4791 -0.2026 -0.1789
11098SOL    HW234779   4.870   4.044   4.621 -1.4862 -0.6868 -1.6130
11099SOL     OW34780   6.359   0.268   5.314 -0.3563  0.4259 -0.0774
11099SOL    HW134781   6.428   0.208   5.287 -0.6830 -0.4490  0.9964
11099SOL    HW234782   6.370   0.276   5.409 -1.2414  0.9043 -0.0087
11100SOL     OW34783   0.806   1.174   7.310  0.5190  0.4735 -0.2890
11100SOL    HW134784   0.834   1.123   7.234  0.6003 -0.1280  0.1374
11100SOL    HW234785   0.743   1.117   7.355  2.0788 -0.0802  1.2606
11101SOL     OW34786   0.313   5.274   7.284 -0.1454 -0.3994  0.0492
11101SOL    HW134787   0.229   5.247   7.322 -0.3533  0.9619  0.6079
11101SOL    HW234788   0.375   5.208   7.312 -1.5996 -3.2325 -3.0279
11102SOL     OW34789   1.877   0.686   2.585 -0.0416 -0.2188 -0.0607
11102SOL    HW134790   1.964   0.692   2.625  1.7451 -2.7391 -3.2986
11102SOL    HW234791   1.882   0.745   2.510 -0.5640 -1.5502 -1.1565
11103SOL     OW34792   1.192   4.698   6.164  0.4634 -0.1811  0.2664
11103SOL    HW134793   1.211   4.629   6.228  0.8555 -1.4464 -1.1777
11103SOL    HW234794   1.278   4.725   6.132  0.3033  0.9096  0.7453
11104SOL     OW34795   1.209   0.630   6.992 -0.1989  0.5397  0.2377
11104SOL    HW134796   1.219   0.552   7.046  0.5188  2.7027  3.3575
11104SOL    HW234797   1.299   0.653   6.967 -0.3920  0.5002 -0.5040
11105SOL     OW34798   4.066   3.988   5.363 -0.0033 -0.4491 -0.0585
11105SOL    HW134799   4.044   3.968   5.272 -1.0857 -1.0258  0.3233
11105SOL    HW234800   3.991   3.956   5.413  0.8906 -0.7608  1.0973
11106SOL     OW34801   8.247   6.914   4.046 -0.1749  0.1996  0.2189
11106SOL    HW134802   8.235   6.829   4.004 -0.2898  1.4059 -2.3273
11106SOL    HW234803   8.335   6.941   4.021  0.0662  0.5878  1.4668
11107SOL     OW34804   6.025   7.739   3.071 -0.3171 -0.2757 -0.4675
11107SOL    HW134805   6.004   7.833   3.072  1.2829  0.1309 -1.7644
11107SOL    HW234806   6.114   7.734   3.105  0.3229 -1.0916 -2.1697
11108SOL     OW34807   7.846   1.328   3.286 -0.6636  0.3151  0.3643
11108SOL    HW134808   7.764   1.355   3.246 -0.0002  0.5423 -0.8596
11108SOL    HW234809   7.909   1.397   3.264 -0.0144 -0.1032  0.8559
11109SOL     OW34810   3.804   2.995   5.196 -0.0057  0.0624  0.3419
11109SOL    HW134811   3.746   2.924   5.170  0.3367 -0.2768  0.5114
11109SOL    HW234812   3.772   3.023   5.281  0.4056 -0.4803  0.6781
11110SOL     OW34813   6.170   3.095   7.038  0.1068 -0.0718  0.6968
11110SOL    HW134814   6.154   3.179   6.995  0.9743  0.3453  1.1678
11110SOL    HW234815   6.186   3.034   6.966 -0.6602  0.1396  0.3490
11111SOL     OW34816   2.428   0.093   8.077  0.5296 -0.1383 -0.0504
11111SOL    HW134817   2.408   0.002   8.095  0.7618 -0.3056 -0.6410
11111SOL    HW234818   2.523   0.096   8.068  0.6047  0.3152  0.8182
11112SOL     OW34819   4.413   0.827   1.518 -0.4272  0.3871 -0.2583
11112SOL    HW134820   4.488   0.882   1.542 -1.9836  1.6939  1.7753
11112SOL    HW234821   4.383   0.863   1.435 -0.3345  1.5267  0.1788
11113SOL     OW34822   4.231   2.174   1.065  0.0358  0.6118  0.0766
11113SOL    HW134823   4.245   2.085   1.031  1.0318  0.2106  1.5157
11113SOL    HW234824   4.308   2.223   1.038  1.1570  0.1219  2.2511
11114SOL     OW34825   3.586   5.841   2.692  0.4131 -0.4773  0.9083
11114SOL    HW134826   3.515   5.784   2.718 -0.4206  0.3751  0.5512
11114SOL    HW234827   3.611   5.811   2.604 -0.5497  0.1893  0.3979
11115SOL     OW34828   2.165   0.141   0.720 -0.1421  0.3890  0.1755
11115SOL    HW134829   2.125   0.192   0.791 -0.1849  0.1101  0.3547
11115SOL    HW234830   2.259   0.147   0.736 -0.1879 -0.4683  0.8185
11116SOL     OW34831   6.011   0.274   2.299  0.0547 -0.2131  0.2950
11116SOL    HW134832   6.076   0.341   2.277 -2.4479  1.8291 -1.2586
11116SOL    HW234833   6.016   0.211   2.227  0.1142  0.1120  0.0147
11117SOL     OW34834   0.083   3.210   4.942  0.3000 -0.2748 -0.6315
11117SOL    HW134835   0.045   3.126   4.968 -1.4275  0.8161  0.4450
11117SOL    HW234836   0.169   3.212   4.985  0.1730 -1.3040 -0.3202
11118SOL     OW34837   6.084   2.669   3.878 -0.4062  0.4058 -0.3074
11118SOL    HW134838   6.146   2.598   3.862  0.6055  0.8834  1.2614
11118SOL    HW234839   6.016   2.630   3.932 -0.2968  0.4226 -0.1568
11119SOL     OW34840   1.862   3.126   6.706 -0.2458  1.0801  0.1364
11119SOL    HW134841   1.941   3.148   6.755  1.3325 -1.3811 -1.1858
11119SOL    HW234842   1.805   3.082   6.769 -0.0173  1.7299  0.7888
11120SOL     OW34843   6.855   1.797   5.512  0.2452  0.5516  0.7551
11120SOL    HW134844   6.783   1.825   5.455  0.4922 -0.7128 -0.2039
11120SOL    HW234845   6.922   1.765   5.451  0.6928 -0.4215  1.7570
11121SOL     OW34846   1.518   5.945   6.658  0.2219 -0.8441  0.6447
11121SOL    HW134847   1.443   5.940   6.717  0.7895 -4.1155  1.1437
11121SOL    HW234848   1.587   5.984   6.712 -0.2864 -0.4384  1.0207
11122SOL     OW34849   5.902   0.409   6.237 -0.5255  0.1551 -0.0004
11122SOL    HW134850   5.844   0.485   6.226 -0.4341  0.4465  1.4376
11122SOL    HW234851   5.886   0.355   6.160 -1.1126  1.2977 -0.6896
11123SOL     OW34852   4.884   3.767   3.393  0.2144  0.4062  0.1046
11123SOL    HW134853   4.827   3.799   3.464  1.4765 -0.6676  1.6191
11123SOL    HW234854   4.973   3.788   3.422  0.6096  3.0609 -2.7436
11124SOL     OW34855   3.298   7.259   2.075 -0.2972  0.0176 -0.0395
11124SOL    HW134856   3.307   7.347   2.110  0.7657 -0.5252  1.0722
11124SOL    HW234857   3.346   7.261   1.992 -0.2555  0.4783 -0.0033
11125SOL     OW34858   7.427   6.477   6.453  0.4576  0.3282  0.5714
11125SOL    HW134859   7.516   6.503   6.476  0.0752  1.9427  0.2402
11125SOL    HW234860   7.387   6.452   6.536  0.7708  0.9551  0.9109
11126SOL     OW34861   1.350   1.821   2.237 -0.0719 -0.1399 -0.5473
11126SOL    HW134862   1.383   1.741   2.280 -0.0603 -0.2803 -0.8146
11126SOL    HW234863   1.344   1.885   2.308  2.7578  0.5104 -0.8360
11127SOL     OW34864   1.575   4.434   2.426 -0.6185 -0.2710 -0.0661
11127SOL    HW134865   1.660   4.395   2.446  0.5004  1.5591 -1.1062
11127SOL    HW234866   1.530   4.366   2.376  0.2838 -1.1970  0.3303
11128SOL     OW34867   0.382   1.004   1.820  0.8457  0.0530  0.6798
11128SOL    HW134868   0.431   1.046   1.891  2.0947 -0.9902  0.4577
11128SOL    HW234869   0.414   0.914   1.819 -0.9953 -0.6235  0.4251
11129SOL     OW34870   5.089   1.306   2.836 -0.3597  0.2862  0.0521
11129SOL    HW134871   5.152   1.377   2.836 -0.0496  0.0208 -1.1445
11129SOL    HW234872   5.086   1.276   2.927  0.2758  1.1373  0.3553
11130SOL     OW34873   8.087   7.481   1.129  0.2540 -0.5915  0.1804
11130SOL    HW134874   8.057   7.571   1.139 -2.6641 -1.3628 -1.1191
11130SOL    HW234875   8.024   7.428   1.178  0.4182 -2.1337 -1.1887
11131SOL     OW34876   1.364   4.445   0.947 -0.5412  0.3220  0.1465
11131SOL    HW134877   1.325   4.359   0.963 -1.7826  0.5976 -1.3079
11131SOL    HW234878   1.417   4.434   0.868  0.0872  0.6446  0.5190
11132SOL     OW34879   3.235   3.738   3.849  0.3191  0.1907  0.1208
11132SOL    HW134880   3.198   3.650   3.859  1.6925 -0.3054  0.9486
11132SOL    HW234881   3.188   3.775   3.774  0.4872 -1.6579 -0.9179
11133SOL     OW34882   0.344   4.895   6.513 -0.1068  0.0138 -0.2629
11133SOL    HW134883   0.436   4.900   6.541  0.1919  0.3916 -1.2667
11133SOL    HW234884   0.347   4.839   6.435 -0.7352 -0.0027 -0.2712
11134SOL     OW34885   2.274   1.130   0.433 -0.0177  0.1896 -0.0833
11134SOL    HW134886   2.242   1.054   0.383 -1.1161 -0.4761  1.5811
11134SOL    HW234887   2.335   1.173   0.374 -1.9098 -0.0984 -2.3407
11135SOL     OW34888   7.698   7.212   6.783  0.1389 -0.0045 -0.3229
11135SOL    HW134889   7.724   7.254   6.865  2.2943 -2.2101  0.1718
11135SOL    HW234890   7.671   7.284   6.726 -2.5023  1.5045  2.6700
11136SOL     OW34891   4.646   4.283   5.764 -0.3275 -0.6051  0.2404
11136SOL    HW134892   4.629   4.363   5.815 -1.1375 -0.3934 -0.3421
11136SOL    HW234893   4.730   4.299   5.722  0.5045 -0.9051  1.7482
11137SOL     OW34894   8.269   3.710   3.333  0.4739  0.0683 -1.2790
11137SOL    HW134895   8.300   3.800   3.330  1.0124  0.0170  1.2242
11137SOL    HW234896   8.199   3.711   3.399  1.2000 -1.5182 -0.4399
11138SOL     OW34897   6.856   6.318   0.449  0.1616 -0.2045  0.1077
11138SOL    HW134898   6.770   6.360   0.454  0.1057 -0.2197 -0.6762
11138SOL    HW234899   6.914   6.386   0.417  0.3414 -0.3409  0.1447
11139SOL     OW34900   2.784   3.590   7.822  0.1617 -0.1135  0.0317
11139SOL    HW134901   2.855   3.584   7.758  0.9735 -0.2164  0.9186
11139SOL    HW234902   2.798   3.515   7.880 -0.3783  0.1449  0.5056
11140SOL     OW34903   0.237   2.688   1.266 -0.1286 -0.5785 -0.1068
11140SOL    HW134904   0.287   2.616   1.229  1.1887  0.5515 -0.5530
11140SOL    HW234905   0.302   2.753   1.291 -1.0738 -0.6878  2.8869
11141SOL     OW34906   6.213   4.437   0.036  0.6212  0.4189  0.0563
11141SOL    HW134907   6.256   4.462  -0.046  0.0106  0.7497 -0.1633
11141SOL    HW234908   6.233   4.344   0.046  0.4098  0.2966 -0.6469
11142SOL     OW34909   5.223   5.295   0.830  0.1114  0.6559 -0.3517
11142SOL    HW134910   5.152   5.231   0.834  0.8858 -0.2438 -0.5841
11142SOL    HW234911   5.194   5.360   0.767 -0.3319  0.0796 -0.7441
11143SOL     OW34912   7.919   5.725   6.427 -0.2305  0.1192 -0.1989
11143SOL    HW134913   7.907   5.728   6.522  1.2991 -1.9396  0.0882
11143SOL    HW234914   7.864   5.796   6.394 -3.0754 -0.9821  1.9722
11144SOL     OW34915   6.571   4.385   1.268  0.0184 -0.4391  0.6388
11144SOL    HW134916   6.493   4.363   1.218 -1.4537  0.9382  2.2652
11144SOL    HW234917   6.564   4.333   1.348  0.1999  0.5194  1.2808
11145SOL     OW34918   6.177   3.035   2.353  0.3329 -0.1707 -0.2641
11145SOL    HW134919   6.249   2.976   2.329 -0.8478 -1.2591 -1.1838
11145SOL    HW234920   6.203   3.071   2.438  2.5145  0.3475 -1.1182
11146SOL     OW34921   3.739   7.123   7.986 -0.6423  0.3817  0.2819
11146SOL    HW134922   3.799   7.178   8.035  2.0549 -0.5438 -1.8082
11146SOL    HW234923   3.738   7.040   8.033 -0.1631  0.3614  0.2598
11147SOL     OW34924   8.130   6.667   2.695  0.5906 -0.4700  0.2918
11147SOL    HW134925   8.119   6.631   2.607  2.6043 -1.1901  0.3180
11147SOL    HW234926   8.060   6.732   2.703  0.5854 -0.1567 -1.9524
11148SOL     OW34927   0.478   5.619   5.050  0.1990 -0.0724  0.1952
11148SOL    HW134928   0.528   5.649   5.127  0.6728 -2.2241  0.7765
11148SOL    HW234929   0.390   5.602   5.084  0.2778 -0.5439  0.1752
11149SOL     OW34930   3.062   1.830   1.745 -0.4386  0.1860  0.2270
11149SOL    HW134931   2.985   1.780   1.771 -0.8907  1.2818  1.0735
11149SOL    HW234932   3.071   1.814   1.651 -2.3119  0.8443 -0.0829
11150SOL     OW34933   2.100   0.034   7.074  0.0632 -0.1549 -0.8053
11150SOL    HW134934   2.076   0.125   7.061 -0.2390 -0.1020  0.0949
11150SOL    HW234935   2.158   0.014   7.000  0.6243  0.9405 -0.6768
11151SOL     OW34936   4.540   3.966   7.712  0.6599  0.1468  0.6381
11151SOL    HW134937   4.623   3.980   7.666  0.5113 -0.0002  0.3221
11151SOL    HW234938   4.565   3.963   7.805  1.3161 -1.9720  0.4237
11152SOL     OW34939   5.220   2.321   1.779  0.1002 -0.1183 -0.2103
11152SOL    HW134940   5.305   2.362   1.762  0.3531 -0.6313 -0.1874
11152SOL    HW234941   5.179   2.315   1.693  0.6059 -1.0082 -0.4003
11153SOL     OW34942   5.924   1.702   1.324  1.1673 -0.4358 -0.7377
11153SOL    HW134943   5.986   1.751   1.379  2.4333 -1.1922 -1.4660
11153SOL    HW234944   5.841   1.750   1.333  1.6455  0.1223  0.8873
11154SOL     OW34945   2.959   0.459   7.877 -0.0084  0.2653  0.0117
11154SOL    HW134946   2.915   0.465   7.793  1.2653 -0.4043 -0.7259
11154SOL    HW234947   3.049   0.487   7.860  0.4140 -0.4169  1.0103
11155SOL     OW34948   3.951   5.105   3.387 -0.0846 -0.0545  0.0898
11155SOL    HW134949   3.944   5.161   3.310  1.5031 -0.2727 -0.2315
11155SOL    HW234950   4.044   5.109   3.412 -0.0807 -1.9365  0.5112
11156SOL     OW34951   2.849   3.867   5.810 -0.2681 -0.2993 -0.1245
11156SOL    HW134952   2.926   3.924   5.805 -0.9737  0.6787 -0.0111
11156SOL    HW234953   2.872   3.790   5.759  0.7163  0.0763 -0.2501
11157SOL     OW34954   2.205   6.969   2.421 -0.3932 -0.0999  0.2614
11157SOL    HW134955   2.111   6.976   2.409 -0.3784  2.0286  1.1872
11157SOL    HW234956   2.242   7.027   2.354  0.2239  0.0248  0.7093
11158SOL     OW34957   0.810   7.474   4.885  0.6474  0.0061  0.4535
11158SOL    HW134958   0.798   7.390   4.929 -1.7268  0.2820  0.3700
11158SOL    HW234959   0.814   7.452   4.792 -1.0756  0.0807  0.3528
11159SOL     OW34960   0.366   4.857   3.853 -0.1406  0.4477 -0.7327
11159SOL    HW134961   0.294   4.879   3.912  0.1736 -0.5674  0.0312
11159SOL    HW234962   0.420   4.796   3.902  2.6085  3.0491 -0.3532
11160SOL     OW34963   5.520   1.011   7.269  0.1259  0.2397  0.1755
11160SOL    HW134964   5.580   0.938   7.268  0.0962  0.1665  2.2170
11160SOL    HW234965   5.495   1.023   7.177 -0.4140 -2.7344 -0.1167
11161SOL     OW34966   0.126   3.014   2.057  0.2297 -0.6132 -0.0274
11161SOL    HW134967   0.067   3.034   2.130 -2.2701 -1.1570 -1.8645
11161SOL    HW234968   0.149   3.100   2.021 -0.8054 -0.4748 -0.3692
11162SOL     OW34969   7.841   2.485   6.133  0.0070  0.6092 -0.2451
11162SOL    HW134970   7.767   2.477   6.072 -0.7281 -0.4644  0.7779
11162SOL    HW234971   7.884   2.566   6.107 -0.8963  0.6914 -1.5496
11163SOL     OW34972   7.380   7.460   6.599  0.2324  0.4230  0.7301
11163SOL    HW134973   7.328   7.435   6.675  0.0572 -0.5164  0.3082
11163SOL    HW234974   7.469   7.435   6.622  0.2852  0.7666  0.8997
11164SOL     OW34975   3.427   3.173   2.734  0.2907  0.0963 -0.2098
11164SOL    HW134976   3.334   3.194   2.731  0.3866  0.9395  1.7380
11164SOL    HW234977   3.450   3.148   2.644 -1.9979 -0.9870 -0.5036
11165SOL     OW34978   3.373   6.212   5.061  0.0190  0.1266  0.2286
11165SOL    HW134979   3.332   6.298   5.063 -1.7725 -0.6461 -1.2598
11165SOL    HW234980   3.330   6.163   5.130 -0.3282 -0.1505 -0.1819
11166SOL     OW34981   1.673   1.470   7.040  0.1228 -0.5747  0.1136
11166SOL    HW134982   1.712   1.429   6.962  0.6830 -0.8430  0.5342
11166SOL    HW234983   1.743   1.469   7.105 -0.2150  0.0383  0.4880
11167SOL     OW34984   3.603   2.891   0.147 -0.2711 -1.1359 -0.0774
11167SOL    HW134985   3.516   2.854   0.138 -0.1265 -1.7144  0.8194
11167SOL    HW234986   3.588   2.986   0.155 -0.5834 -0.8904 -3.1615
11168SOL     OW34987   5.229   3.638   8.064 -0.1871 -0.2054 -0.0025
11168SOL    HW134988   5.220   3.697   7.989  0.5808 -0.3731 -0.2288
11168SOL    HW234989   5.275   3.562   8.029 -0.0881 -0.4115  0.5734
11169SOL     OW34990   0.272   6.661   3.448  0.6133 -0.0179  0.2309
11169SOL    HW134991   0.224   6.691   3.525  0.6742  0.5018  0.0709
11169SOL    HW234992   0.352   6.623   3.483  1.8131  2.4529  0.3106
11170SOL     OW34993   6.306   0.397   4.308  0.5056 -0.2363 -0.4905
11170SOL    HW134994   6.337   0.486   4.296  0.1071 -0.0442 -0.1143
11170SOL    HW234995   6.314   0.356   4.222 -0.7699  0.6164 -1.0095
11171SOL     OW34996   1.145   0.235   8.086 -0.0299 -0.3613  0.6408
11171SOL    HW134997   1.162   0.319   8.128  0.1227 -0.4480  0.7540
11171SOL    HW234998   1.203   0.235   8.009  1.0902 -0.9955  1.4685
11172SOL     OW34999   5.250   6.903   2.323 -0.2273  0.9423 -0.2583
11172SOL    HW135000   5.163   6.894   2.362 -0.2881 -0.6335 -0.7136
11172SOL    HW235001   5.263   6.997   2.315  0.3073  1.3906  4.6931
11173SOL     OW35002   3.025   6.284   1.996 -0.0434 -0.0552  0.1982
11173SOL    HW135003   2.992   6.337   2.069 -0.1689 -0.9739  0.8264
11173SOL    HW235004   2.968   6.207   1.996  0.2186 -0.2495 -0.6205
11174SOL     OW35005   5.415   7.799   5.970 -0.0562  0.1613  0.1311
11174SOL    HW135006   5.493   7.749   5.994 -0.2156  0.1112  0.5417
11174SOL    HW235007   5.399   7.857   6.045  0.6582  1.4896 -0.7101
11175SOL     OW35008   1.364   1.906   7.438 -0.0900  0.0633  0.4106
11175SOL    HW135009   1.303   1.957   7.491 -0.8933 -0.8083  0.3256
11175SOL    HW235010   1.364   1.949   7.353 -1.8405 -0.8867 -0.0941
11176SOL     OW35011   5.608   0.236   6.894  0.1784  0.7352  0.1400
11176SOL    HW135012   5.685   0.255   6.947  1.9475 -0.3314 -1.9729
11176SOL    HW235013   5.637   0.250   6.804 -1.9933 -0.0385 -0.7110
11177SOL     OW35014   5.385   2.922   8.095  0.1321  0.3421  0.6689
11177SOL    HW135015   5.354   2.850   8.150 -3.1362 -0.0319 -1.5684
11177SOL    HW235016   5.463   2.886   8.051 -0.8222 -1.4521  0.4098
11178SOL     OW35017   1.554   0.418   0.150 -0.5428 -0.5289 -0.0707
11178SOL    HW135018   1.598   0.337   0.175 -2.0291 -1.0720  0.8492
11178SOL    HW235019   1.474   0.390   0.107 -0.1052  0.4550 -1.5742
11179SOL     OW35020   6.556   3.291   4.256  0.0777 -0.0329 -0.6753
11179SOL    HW135021   6.634   3.240   4.278 -0.9195 -1.4854 -0.4900
11179SOL    HW235022   6.567   3.373   4.305  1.9457  0.1689 -1.4008
11180SOL     OW35023   0.260   5.798   1.249 -0.4730  0.0310  0.0620
11180SOL    HW135024   0.339   5.852   1.260 -1.0595  1.3562 -1.8649
11180SOL    HW235025   0.269   5.761   1.161 -2.8116  1.6196 -0.8933
11181SOL     OW35026   5.259   2.020   0.340  0.2536  0.2014  0.0548
11181SOL    HW135027   5.224   2.107   0.358 -1.5280  0.0734 -2.5136
11181SOL    HW235028   5.199   1.961   0.386 -1.4364  0.1231 -2.1692
11182SOL     OW35029   4.130   0.363   4.322 -0.7060 -0.0517  0.7907
11182SOL    HW135030   4.182   0.323   4.252 -0.3858  0.3973  0.7690
11182SOL    HW235031   4.172   0.448   4.337 -1.7980  0.5726  0.3634
11183SOL     OW35032   7.583   0.126   4.007 -0.7533 -0.7498  0.1235
11183SOL    HW135033   7.643   0.181   3.957 -0.4655  0.0664  1.3373
11183SOL    HW235034   7.614   0.037   3.992  1.6805 -0.2477  1.9047
11184SOL     OW35035   1.586   5.979   0.633  0.1513 -0.4726 -0.0996
11184SOL    HW135036   1.564   6.003   0.723  1.3361  0.4532 -0.0500
11184SOL    HW235037   1.600   5.885   0.636 -1.7999 -0.7766  0.2710
11185SOL     OW35038   0.929   0.247   4.695  0.4122 -0.1809  0.0597
11185SOL    HW135039   0.977   0.165   4.710  0.7380  0.0077  0.0471
11185SOL    HW235040   0.996   0.315   4.700  0.6524 -0.1450 -2.9333
11186SOL     OW35041   1.164   2.448   4.197  0.2428  0.0705  0.1228
11186SOL    HW135042   1.106   2.406   4.134 -1.1015  0.6154  0.9607
11186SOL    HW235043   1.212   2.376   4.238 -0.4601 -0.4736  0.0072
11187SOL     OW35044   6.202   3.081   2.714 -0.2137  0.4678 -0.3091
11187SOL    HW135045   6.122   3.074   2.766 -0.3008  1.5627 -0.2784
11187SOL    HW235046   6.190   3.161   2.662  0.6970  0.4298 -0.5891
11188SOL     OW35047   1.476   7.492   2.994  0.3058 -0.2377  0.1488
11188SOL    HW135048   1.446   7.582   2.989  0.6017 -0.0930  0.9109
11188SOL    HW235049   1.465   7.468   3.086 -1.6330 -1.6173 -0.3963
11189SOL     OW35050   6.612   5.487   4.825 -0.6482 -0.2118 -0.0370
11189SOL    HW135051   6.705   5.473   4.809 -1.1396 -1.9433 -1.5332
11189SOL    HW235052   6.607   5.574   4.864  1.3933  0.7786 -1.8945
11190SOL     OW35053   7.297   2.569   6.065 -0.4093  0.1891  0.1353
11190SOL    HW135054   7.315   2.610   6.149 -0.8907 -0.4901  0.5779
11190SOL    HW235055   7.291   2.642   6.003  2.4943  0.5371  0.1960
11191SOL     OW35056   7.553   0.523   1.488 -0.4241 -0.1849 -0.5336
11191SOL    HW135057   7.527   0.596   1.431 -1.3980 -0.4295 -0.4101
11191SOL    HW235058   7.509   0.541   1.571  1.1798  0.2956  0.2253
11192SOL     OW35059   1.461   1.901   5.979 -0.1665  0.3024 -0.3300
11192SOL    HW135060   1.450   1.819   5.932  0.0348  0.1896 -0.1795
11192SOL    HW235061   1.397   1.960   5.940 -0.6930 -0.0893 -0.0645
11193SOL     OW35062   4.264   1.003   3.727  0.9423  0.0986  0.7419
11193SOL    HW135063   4.310   0.949   3.663  0.8870  1.6890 -0.7087
11193SOL    HW235064   4.324   1.075   3.746 -0.1865  1.2258  0.1941
11194SOL     OW35065   3.919   4.570   4.388 -0.3361  0.9359 -0.4432
11194SOL    HW135066   3.972   4.649   4.378  0.3325  0.2945 -2.0737
11194SOL    HW235067   3.983   4.499   4.394 -0.9406  0.4726  0.7371
11195SOL     OW35068   4.860   3.615   1.202 -0.3908 -0.2454 -0.0495
11195SOL    HW135069   4.906   3.660   1.131  1.3681 -1.6752  0.1153
11195SOL    HW235070   4.873   3.670   1.278  1.1476 -0.6431 -0.0016
11196SOL     OW35071   5.897   2.563   4.036  0.0005 -0.1596  0.1812
11196SOL    HW135072   5.820   2.543   3.982  0.3757  1.0019 -0.8027
11196SOL    HW235073   5.915   2.481   4.083 -0.7935 -0.9596 -0.8729
11197SOL     OW35074   3.025   8.130   2.046 -0.1134  0.4980  0.5012
11197SOL    HW135075   3.065   8.053   2.085  1.5983  1.9169  1.6343
11197SOL    HW235076   3.091   8.198   2.054 -1.5771  2.0816 -0.5059
11198SOL     OW35077   2.688   7.114   3.750 -0.0478  0.0264 -0.5834
11198SOL    HW135078   2.721   7.060   3.678 -1.6322 -0.9405 -0.6171
11198SOL    HW235079   2.596   7.091   3.757 -1.2274  3.9409 -1.6967
11199SOL     OW35080   7.447   8.181   1.195 -0.0938 -0.2999 -0.7314
11199SOL    HW135081   7.430   8.092   1.225  0.9994  0.7797  3.4198
11199SOL    HW235082   7.371   8.203   1.141 -1.6052 -2.8481  0.2691
11200SOL     OW35083   4.985   3.606   2.023  0.5303 -0.7219 -0.4697
11200SOL    HW135084   5.015   3.695   2.003  0.2298 -0.8246 -1.4037
11200SOL    HW235085   5.057   3.549   1.993  0.1917 -0.8618 -1.0275
11201SOL     OW35086   7.282   2.562   6.550  0.7057 -0.3691  0.0237
11201SOL    HW135087   7.289   2.596   6.639  1.3100 -1.1360  0.2674
11201SOL    HW235088   7.198   2.597   6.518 -0.2979 -1.4325  1.4641
11202SOL     OW35089   7.547   6.984   6.938 -0.2404 -0.0815 -0.0608
11202SOL    HW135090   7.636   6.998   6.904  0.4135  1.8066  2.2214
11202SOL    HW235091   7.560   6.928   7.015 -1.0611 -0.0934  0.0671
11203SOL     OW35092   3.614   4.878   4.058  0.3739 -0.0453  0.1968
11203SOL    HW135093   3.664   4.857   3.979  0.1408 -0.8944  0.2774
11203SOL    HW235094   3.570   4.797   4.081  1.3489 -0.1118  1.8737
11204SOL     OW35095   4.613   0.497   2.597 -0.1540 -0.0061 -0.4933
11204SOL    HW135096   4.701   0.527   2.620 -0.0643  0.1930 -1.0938
11204SOL    HW235097   4.581   0.454   2.676 -0.6683  2.5296  0.7251
11205SOL     OW35098   1.400   1.863   0.454  0.6870  0.0723  0.8504
11205SOL    HW135099   1.435   1.826   0.373  0.5322  1.8947 -0.0624
11205SOL    HW235100   1.308   1.880   0.435  1.0207  1.9753  0.8890
11206SOL     OW35101   6.633   6.949   1.197  0.0542 -0.3728 -0.2278
11206SOL    HW135102   6.688   7.016   1.158 -0.2970 -0.5901 -1.0961
11206SOL    HW235103   6.684   6.917   1.272  0.7537 -0.0135 -0.5473
11207SOL     OW35104   5.410   3.952   3.123  0.2058  0.5780 -0.0493
11207SOL    HW135105   5.338   4.015   3.125  0.7645  1.1952  0.9974
11207SOL    HW235106   5.408   3.916   3.035 -1.9338 -0.0495  0.2309
11208SOL     OW35107   1.529   5.409   7.053 -0.4040  0.5431  0.5371
11208SOL    HW135108   1.589   5.393   6.980  0.7590  1.0050  1.3841
11208SOL    HW235109   1.558   5.491   7.091 -1.5784  0.7665  0.9748
11209SOL     OW35110   7.495   1.289   0.516  0.2323  0.7181 -0.0843
11209SOL    HW135111   7.563   1.245   0.464 -0.0494 -0.0833  0.2250
11209SOL    HW235112   7.543   1.355   0.566  0.5949  1.0901 -0.8991
11210SOL     OW35113   6.529   7.752   2.585 -0.1346 -0.1088  0.3076
11210SOL    HW135114   6.569   7.688   2.526  0.5774  2.0286 -1.5676
11210SOL    HW235115   6.435   7.745   2.569 -0.0111 -0.2207 -0.3709
11211SOL     OW35116   2.339   2.272   0.789 -0.3873 -0.0024 -0.5494
11211SOL    HW135117   2.351   2.199   0.729  1.9131 -0.8134  0.8157
11211SOL    HW235118   2.384   2.346   0.747 -1.4448  0.2468 -1.2466
11212SOL     OW35119   7.981   5.776   8.202 -0.4632  0.1552  0.1204
11212SOL    HW135120   7.967   5.751   8.110  0.6375  0.4308 -0.1325
11212SOL    HW235121   8.015   5.697   8.243  0.6633  0.5045 -0.1105
11213SOL     OW35122   3.112   3.646   6.259 -0.4864 -0.3209  0.3684
11213SOL    HW135123   3.036   3.666   6.205 -0.2272  1.6956  0.7051
11213SOL    HW235124   3.187   3.678   6.209 -0.2837  1.9598  2.0507
11214SOL     OW35125   7.582   5.630   2.018 -0.0098  0.6961 -0.0628
11214SOL    HW135126   7.645   5.559   2.029 -0.2785  0.4857  0.1358
11214SOL    HW235127   7.635   5.707   1.999  0.0758 -0.3011 -4.1114
11215SOL     OW35128   1.072   7.672   2.959 -0.1850  0.4484 -0.5986
11215SOL    HW135129   1.003   7.733   2.932 -0.2030  1.0981  0.8716
11215SOL    HW235130   1.039   7.586   2.936 -0.6252  0.9027 -1.7218
11216SOL     OW35131   1.392   5.481   7.555 -0.1838 -0.3089 -0.3788
11216SOL    HW135132   1.316   5.424   7.565 -1.1772  0.6739 -2.0977
11216SOL    HW235133   1.421   5.498   7.645 -0.1188 -3.1643  0.1685
11217SOL     OW35134   3.435   1.215   8.286 -0.2152  0.3514 -0.2744
11217SOL    HW135135   3.369   1.268   8.331 -1.0111 -0.7296 -0.1451
11217SOL    HW235136   3.483   1.172   8.356 -0.0647  0.3151 -0.3997
11218SOL     OW35137   3.216   2.638   0.488 -0.6781  0.4370  0.0423
11218SOL    HW135138   3.210   2.550   0.450  3.2317  0.6201 -1.2404
11218SOL    HW235139   3.291   2.634   0.548  0.4865  3.2139 -1.1156
11219SOL     OW35140   0.812   8.297   2.499 -0.7258 -0.0969 -0.1088
11219SOL    HW135141   0.720   8.297   2.469 -0.1961 -0.5192 -1.7994
11219SOL    HW235142   0.854   8.231   2.445  0.2839 -0.8909  1.6494
11220SOL     OW35143   1.303   2.394   1.296  0.0681 -0.1884  0.5216
11220SOL    HW135144   1.360   2.340   1.351  0.0003  0.1446  0.9222
11220SOL    HW235145   1.215   2.380   1.333 -0.3155 -1.7032 -0.8764
11221SOL     OW35146   1.218   0.506   7.591  0.7621 -0.2169  0.2608
11221SOL    HW135147   1.168   0.441   7.542 -0.1456 -0.9383  2.0593
11221SOL    HW235148   1.276   0.546   7.527 -0.1386 -1.3573 -1.3017
11222SOL     OW35149   2.328   3.988   0.872 -0.2854  0.0920  0.0900
11222SOL    HW135150   2.301   4.044   0.799  1.4144 -0.7214 -1.2061
11222SOL    HW235151   2.343   3.902   0.832  2.6056  0.1288  1.0073
11223SOL     OW35152   6.196   8.179   0.296  0.1430 -0.1415  0.2964
11223SOL    HW135153   6.127   8.165   0.232  1.1413  0.5373 -0.9429
11223SOL    HW235154   6.277   8.165   0.248  0.8995 -0.4582  1.6203
11224SOL     OW35155   3.787   2.077   0.080  0.6884  0.4717 -0.0901
11224SOL    HW135156   3.745   2.019   0.016  1.8106 -0.2170 -0.2182
11224SOL    HW235157   3.736   2.157   0.076  1.3852  0.8603 -2.7088
11225SOL     OW35158   5.052   8.011   7.065 -0.0729  0.1404 -0.8574
11225SOL    HW135159   5.134   8.060   7.065  0.3890 -0.5999  0.4321
11225SOL    HW235160   5.078   7.919   7.062 -0.6172 -0.3035  3.6291
11226SOL     OW35161   6.443   8.008   0.696 -0.3075  0.5447  0.0021
11226SOL    HW135162   6.403   7.950   0.631  1.0710 -0.5584  0.1152
11226SOL    HW235163   6.502   7.951   0.746 -0.7477  1.5454  1.6998
11227SOL     OW35164   6.648   3.835   1.154  0.0127  0.4213  0.2566
11227SOL    HW135165   6.559   3.817   1.185  0.2206  0.1935  0.7257
11227SOL    HW235166   6.636   3.885   1.074 -0.5331  0.8063  0.5763
11228SOL     OW35167   1.538   4.422   5.623 -0.5233 -0.6279  0.1513
11228SOL    HW135168   1.596   4.473   5.566 -1.7973 -0.3586 -0.9129
11228SOL    HW235169   1.551   4.332   5.595  0.8250 -0.7749  1.2199
11229SOL     OW35170   6.037   0.662   7.391 -0.1397  0.1336 -0.2122
11229SOL    HW135171   6.025   0.757   7.386 -0.8960  0.1479  1.5319
11229SOL    HW235172   5.980   0.627   7.322 -2.0257  0.8024  0.9773
11230SOL     OW35173   6.302   5.841   5.550 -0.6138 -0.7797  0.1887
11230SOL    HW135174   6.354   5.762   5.541 -1.3343 -0.9947 -2.3932
11230SOL    HW235175   6.232   5.817   5.611  0.3822 -1.4715  1.0787
11231SOL     OW35176   4.933   0.712   4.051 -1.1414  0.1296  0.0484
11231SOL    HW135177   5.008   0.768   4.070 -1.1294  0.2140 -0.2516
11231SOL    HW235178   4.895   0.748   3.971 -2.3271  0.9209  0.9480
11232SOL     OW35179   2.249   3.952   5.033 -0.3456 -0.1254 -0.5656
11232SOL    HW135180   2.167   4.000   5.045 -0.8752 -0.5801 -2.1556
11232SOL    HW235181   2.250   3.888   5.104  0.0267  1.7649  1.1584
11233SOL     OW35182   0.270   2.657   6.596  0.4132  0.1561 -0.3702
11233SOL    HW135183   0.259   2.571   6.555  0.5278  0.8600 -1.9053
11233SOL    HW235184   0.182   2.682   6.624  0.0897  0.3315 -1.5383
11234SOL     OW35185   6.229   3.945   6.675 -0.2023 -0.0456 -0.2351
11234SOL    HW135186   6.197   3.887   6.744 -1.8734 -0.7447 -1.5813
11234SOL    HW235187   6.264   3.887   6.608  0.1526  0.5858 -0.6069
11235SOL     OW35188   8.036   6.849   1.528 -0.3325  0.6957 -0.1260
11235SOL    HW135189   8.020   6.872   1.619  0.7903 -0.4658  0.3979
11235SOL    HW235190   7.958   6.877   1.481 -1.3601  0.3837  1.3642
11236SOL     OW35191   1.848   7.334   4.108 -0.2750 -0.8463 -0.4705
11236SOL    HW135192   1.851   7.282   4.188 -0.7294 -0.5778 -0.2784
11236SOL    HW235193   1.907   7.408   4.125 -1.7241  0.1593  0.2924
11237SOL     OW35194   4.373   3.189   5.447 -0.1856  0.1814  0.0541
11237SOL    HW135195   4.452   3.137   5.463  0.2051  0.8339  0.2674
11237SOL    HW235196   4.404   3.266   5.400 -0.8884 -0.1837 -1.0248
11238SOL     OW35197   2.822   5.640   5.508  0.1077  0.3229  0.3449
11238SOL    HW135198   2.858   5.728   5.505  1.3638 -0.2057 -0.4319
11238SOL    HW235199   2.798   5.620   5.418  0.5743 -0.4305  0.3786
11239SOL     OW35200   3.171   8.225   5.022  0.1397 -0.4260 -0.0814
11239SOL    HW135201   3.095   8.167   5.031  0.3627 -0.8875 -1.1010
11239SOL    HW235202   3.187   8.256   5.111 -0.1980 -1.6710  0.4353
11240SOL     OW35203   1.373   7.240   5.788  0.1587  0.2827  0.4046
11240SOL    HW135204   1.360   7.279   5.874  0.2029  0.3847  0.3650
11240SOL    HW235205   1.286   7.212   5.760  0.3832 -1.2370  1.1941
11241SOL     OW35206   0.226   7.960   4.779  0.1289 -0.2268  0.4052
11241SOL    HW135207   0.253   8.034   4.726  0.3163 -0.4284  0.2181
11241SOL    HW235208   0.214   7.888   4.715 -0.6207 -0.2021  0.5036
11242SOL     OW35209   4.114   0.973   3.947  0.3270 -0.0201  0.1281
11242SOL    HW135210   4.168   0.953   3.871  0.3182  1.6475 -0.3476
11242SOL    HW235211   4.167   1.034   3.999 -0.4498  0.3746  0.4711
11243SOL     OW35212   3.876   4.238   3.079  0.4700 -0.6223 -0.2797
11243SOL    HW135213   3.884   4.275   2.991 -0.3193  0.2971  0.0324
11243SOL    HW235214   3.963   4.203   3.098  0.6635 -0.7594 -1.3987
11244SOL     OW35215   7.293   6.408   0.248 -0.6225  0.1396  0.6208
11244SOL    HW135216   7.230   6.338   0.231 -0.7296  0.8046 -1.9970
11244SOL    HW235217   7.376   6.362   0.265 -0.3179 -0.6589 -2.7232
11245SOL     OW35218   8.028   8.148   0.735  0.1949 -0.0629 -0.2976
11245SOL    HW135219   7.967   8.077   0.712 -0.1154 -0.0932  0.5958
11245SOL    HW235220   8.098   8.104   0.783 -1.3625  0.5951  2.6661
11246SOL     OW35221   0.619   2.287   5.464 -0.0413  0.2859 -0.1288
11246SOL    HW135222   0.641   2.308   5.374 -0.8009 -0.8022 -0.5730
11246SOL    HW235223   0.563   2.359   5.493  3.3329  2.6730  0.7622
11247SOL     OW35224   7.022   5.978   1.542 -0.5397 -0.3313 -0.3551
11247SOL    HW135225   7.104   5.994   1.496 -0.1682  1.7586  1.0002
11247SOL    HW235226   7.031   5.888   1.575  1.5178  0.1164  0.3989
11248SOL     OW35227   5.184   4.687   2.620  0.2899 -0.2187 -0.2787
11248SOL    HW135228   5.220   4.697   2.531  0.0367  1.0264 -0.2558
11248SOL    HW235229   5.209   4.599   2.646  0.7011 -0.4637 -1.4475
11249SOL     OW35230   5.799   4.477   3.258 -0.2776 -0.6110  0.3941
11249SOL    HW135231   5.733   4.457   3.325 -0.5310  0.7046  0.5389
11249SOL    HW235232   5.767   4.433   3.179 -0.8579 -0.7363  0.6933
11250SOL     OW35233   4.239   5.569   5.144 -0.3241  0.1286 -1.1928
11250SOL    HW135234   4.262   5.658   5.119 -1.4751  2.1616  4.2117
11250SOL    HW235235   4.150   5.557   5.111 -1.6821  2.5739  1.3488
11251SOL     OW35236   3.592   2.996   4.942 -0.2563 -0.1476 -0.0603
11251SOL    HW135237   3.652   3.069   4.928  1.2084 -1.0391  1.4457
11251SOL    HW235238   3.643   2.918   4.920 -1.0497 -0.8817  0.6490
11252SOL     OW35239   0.578   0.656   1.962 -0.7718  0.1945 -0.1460
11252SOL    HW135240   0.590   0.725   1.897 -0.5067  0.5814  0.3045
11252SOL    HW235241   0.652   0.668   2.023 -0.5647 -0.6686 -0.2309
11253SOL     OW35242   7.094   1.258   6.644 -0.7960 -0.0351 -0.5378
11253SOL    HW135243   7.143   1.314   6.704 -0.3850 -1.8577  0.8376
11253SOL    HW235244   7.159   1.199   6.607 -1.3927 -0.2196 -1.3084
11254SOL     OW35245   5.777   6.292   0.915  0.2717 -0.3344  0.5725
11254SOL    HW135246   5.859   6.338   0.930  0.8848 -0.7623 -1.3933
11254SOL    HW235247   5.784   6.257   0.826 -1.1593 -2.1861  1.1389
11255SOL     OW35248   1.698   6.323   6.705  0.2292  0.0050  0.1647
11255SOL    HW135249   1.649   6.391   6.752  0.9076 -1.6794  3.4437
11255SOL    HW235250   1.634   6.254   6.689  0.0806  0.4331 -1.1634
11256SOL     OW35251   2.003   6.759   7.252 -0.1721  0.1973 -0.2194
11256SOL    HW135252   2.008   6.664   7.245 -1.9080  0.2091 -2.0206
11256SOL    HW235253   1.920   6.782   7.210  0.2972  2.5158  0.0588
11257SOL     OW35254   5.867   1.921   8.170  0.0294 -0.4871 -0.2081
11257SOL    HW135255   5.943   1.968   8.205 -1.3077  1.5187  0.0462
11257SOL    HW235256   5.835   1.869   8.244 -1.3864  1.9560  0.9417
11258SOL     OW35257   2.895   4.676   6.456  0.6360 -0.3477 -0.2927
11258SOL    HW135258   2.856   4.596   6.423  1.4189 -1.7835  2.1540
11258SOL    HW235259   2.990   4.661   6.453  0.7716  0.1023  1.0138
11259SOL     OW35260   1.051   2.984   8.036 -0.2307 -0.3127 -0.1369
11259SOL    HW135261   1.073   2.894   8.061  0.3859 -0.4227 -1.0470
11259SOL    HW235262   1.107   3.038   8.091  0.4078 -0.5239 -0.5753
11260SOL     OW35263   0.971   1.686   7.550  0.0047  0.2498 -0.0553
11260SOL    HW135264   0.997   1.703   7.459  1.2475 -1.2817 -0.0022
11260SOL    HW235265   1.053   1.662   7.594 -1.1274 -2.3244  0.6848
11261SOL     OW35266   5.635   6.414   4.083  0.6737  0.2851  0.6064
11261SOL    HW135267   5.603   6.333   4.044  1.1920  0.8216 -0.9601
11261SOL    HW235268   5.646   6.393   4.176 -2.2529 -0.4867  0.8110
11262SOL     OW35269   0.236   7.009   4.363 -0.1701  0.5611  0.2011
11262SOL    HW135270   0.307   7.073   4.365  0.2759  0.1579 -1.5789
11262SOL    HW235271   0.280   6.924   4.368 -0.5464  0.3167 -0.5807
11263SOL     OW35272   7.625   5.256   5.678 -0.4508 -0.1259 -0.5337
11263SOL    HW135273   7.544   5.238   5.631 -1.2645  1.4537  0.2617
11263SOL    HW235274   7.648   5.346   5.654 -0.7664  0.6474  1.9080
11264SOL     OW35275   6.656   1.273   3.080 -0.5505 -0.0360  0.0740
11264SOL    HW135276   6.652   1.328   3.158 -1.8114  0.2176 -0.1686
11264SOL    HW235277   6.565   1.249   3.062 -0.5544  1.5902 -2.4944
11265SOL     OW35278   7.624   0.498   3.243 -0.2413 -0.2631 -0.0304
11265SOL    HW135279   7.634   0.403   3.255  0.0639 -0.1380  0.7588
11265SOL    HW235280   7.713   0.532   3.247 -0.4970  0.2570  1.5364
11266SOL     OW35281   6.619   0.908   5.701 -0.0302  0.3562  0.1133
11266SOL    HW135282   6.594   0.858   5.779 -0.6698 -2.3469 -1.7701
11266SOL    HW235283   6.618   0.999   5.731 -0.7568 -0.5660  3.1293
11267SOL     OW35284   7.212   1.797   3.330  0.1475  0.1734 -0.0699
11267SOL    HW135285   7.211   1.761   3.419 -0.0390 -0.8047 -0.4608
11267SOL    HW235286   7.124   1.835   3.320 -0.4109 -1.1792 -0.4158
11268SOL     OW35287   3.572   2.554   8.195 -0.2122 -0.6241 -0.1337
11268SOL    HW135288   3.604   2.494   8.262  1.4873  0.2937 -0.1121
11268SOL    HW235289   3.477   2.557   8.209  0.0317 -1.0791  1.6897
11269SOL     OW35290   5.491   4.390   4.215 -0.8679  0.1121 -0.6540
11269SOL    HW135291   5.572   4.339   4.215  0.7080  2.5075  0.7311
11269SOL    HW235292   5.424   4.330   4.248  0.6945 -1.3522 -0.0920
11270SOL     OW35293   7.435   5.279   1.694  0.1877 -0.6471 -0.2104
11270SOL    HW135294   7.365   5.238   1.642  1.0885 -2.6866  0.1506
11270SOL    HW235295   7.389   5.324   1.765 -0.8001 -1.2536 -0.4605
11271SOL     OW35296   7.391   3.193   7.976 -0.5127 -0.3927 -0.0761
11271SOL    HW135297   7.470   3.175   8.027 -0.3431  1.5434  0.3754
11271SOL    HW235298   7.319   3.167   8.032 -0.2362 -1.2340 -0.1019
11272SOL     OW35299   2.808   0.106   5.245  0.7994  0.2293 -0.1053
11272SOL    HW135300   2.765   0.192   5.245  0.0441 -0.1269 -1.3221
11272SOL    HW235301   2.888   0.120   5.195 -0.5299 -0.3075 -2.4937
11273SOL     OW35302   6.650   4.893   3.698 -0.3177 -0.1770 -0.2160
11273SOL    HW135303   6.663   4.872   3.606 -0.6204  1.2506 -0.5939
11273SOL    HW235304   6.559   4.923   3.703  0.2523  1.5308  0.1991
11274SOL     OW35305   2.126   6.950   7.382  0.4323 -0.3880  0.1106
11274SOL    HW135306   2.197   6.974   7.323  0.6715  0.5817  0.7904
11274SOL    HW235307   2.078   6.882   7.335 -0.2328  1.3821 -1.8230
11275SOL     OW35308   5.058   3.436   6.176  0.2606 -0.0999 -0.4345
11275SOL    HW135309   5.041   3.486   6.096  0.6713  1.3552  0.3648
11275SOL    HW235310   4.991   3.368   6.177  0.9051 -0.7854 -2.5530
11276SOL     OW35311   4.156   5.566   6.099 -0.2929 -0.1422 -0.3741
11276SOL    HW135312   4.161   5.656   6.130  2.0827 -0.7527  1.1567
11276SOL    HW235313   4.106   5.520   6.166 -1.0786 -0.0725 -0.9071
11277SOL     OW35314   6.457   5.416   1.614 -0.1315 -0.1879  0.1716
11277SOL    HW135315   6.492   5.392   1.528  0.8806 -1.6685  0.9885
11277SOL    HW235316   6.490   5.505   1.629 -0.3662  0.1006 -0.9870
11278SOL     OW35317   5.174   1.234   1.662  0.0471  0.1804 -0.2924
11278SOL    HW135318   5.240   1.170   1.635 -0.8882 -1.1557  0.4593
11278SOL    HW235319   5.189   1.246   1.756 -0.4544  0.2287 -0.2161
11279SOL     OW35320   1.980   1.067   1.945 -0.1254  0.0848 -0.2681
11279SOL    HW135321   2.067   1.060   1.905 -1.2567 -2.6467 -2.5164
11279SOL    HW235322   1.936   1.136   1.894  0.3398  0.6603  0.1066
11280SOL     OW35323   1.507   4.265   7.184 -0.6384  0.0865 -0.0940
11280SOL    HW135324   1.441   4.288   7.118  0.0252  1.4965 -0.2814
11280SOL    HW235325   1.497   4.331   7.252 -0.0848 -0.2836  0.3461
11281SOL     OW35326   6.223   0.603   0.545 -0.1376  0.1676  0.1332
11281SOL    HW135327   6.281   0.593   0.620  1.3398  1.4636 -0.8084
11281SOL    HW235328   6.216   0.515   0.508 -1.0693 -0.5346  1.8894
11282SOL     OW35329   5.610   5.545   7.839  0.0087  0.3404  0.0992
11282SOL    HW135330   5.676   5.568   7.903  0.0274 -2.5533  1.1891
11282SOL    HW235331   5.659   5.530   7.758  0.0881  3.0056 -0.4094
11283SOL     OW35332   1.275   2.824   0.758  0.7205  0.4740  0.4848
11283SOL    HW135333   1.283   2.860   0.847 -0.2050 -0.1521  0.8378
11283SOL    HW235334   1.219   2.887   0.712 -0.3148 -0.1355  0.8938
11284SOL     OW35335   5.746   5.023   2.207 -0.1811 -0.2166  0.3709
11284SOL    HW135336   5.693   5.054   2.281 -0.6518 -2.6254  1.0845
11284SOL    HW235337   5.742   4.928   2.213  1.4024 -0.4394 -1.6289
11285SOL     OW35338   5.904   2.082   2.242 -0.5951  0.5646  0.6159
11285SOL    HW135339   5.997   2.098   2.260 -0.5559  2.1093 -0.7927
11285SOL    HW235340   5.870   2.168   2.217 -2.0477 -0.2781 -0.3601
11286SOL     OW35341   3.590   1.340   4.820 -0.2643 -0.0107  0.1745
11286SOL    HW135342   3.576   1.398   4.745 -1.5368  0.9495  1.1216
11286SOL    HW235343   3.527   1.269   4.809 -1.7762  1.1092  1.2621
11287SOL     OW35344   6.735   1.430   3.970  0.2401  0.3912  0.0668
11287SOL    HW135345   6.766   1.461   4.056  1.1839  1.9542 -0.8175
11287SOL    HW235346   6.815   1.402   3.925 -0.1424  0.5012 -0.6734
11288SOL     OW35347   5.652   6.920   4.136 -0.1201 -0.2689  0.3939
11288SOL    HW135348   5.609   6.834   4.138 -1.3322  0.2868 -0.8636
11288SOL    HW235349   5.593   6.977   4.185 -0.1705  0.2203 -0.2330
11289SOL     OW35350   2.663   6.082   3.883  0.2496 -0.0812  0.1418
11289SOL    HW135351   2.631   6.149   3.823 -1.1120 -0.4769  0.4124
11289SOL    HW235352   2.727   6.032   3.832  2.8597  2.6762  0.5658
11290SOL     OW35353   4.369   1.724   0.189  0.3505 -0.2559  0.6335
11290SOL    HW135354   4.346   1.707   0.280  0.0735 -2.6162  0.1562
11290SOL    HW235355   4.458   1.689   0.180 -0.0825 -1.1048 -0.3068
11291SOL     OW35356   2.418   1.191   6.878 -0.3627 -0.0592 -0.2848
11291SOL    HW135357   2.495   1.186   6.935  0.8265  2.1900 -1.6105
11291SOL    HW235358   2.443   1.140   6.800 -1.0041 -1.0163  0.1322
11292SOL     OW35359   6.416   3.978   5.771  0.3539 -0.1962  0.3256
11292SOL    HW135360   6.414   4.045   5.839  1.2164  0.2931 -0.1188
11292SOL    HW235361   6.428   3.895   5.818  0.6660  0.1105  0.7848
11293SOL     OW35362   1.066   2.733   3.247  0.2127  0.1895 -0.2514
11293SOL    HW135363   0.991   2.790   3.233  0.1566  0.1863  0.0410
11293SOL    HW235364   1.044   2.652   3.200  0.3117  0.4208 -0.7019
11294SOL     OW35365   6.122   8.011   0.512  0.3944  0.3787 -0.2671
11294SOL    HW135366   6.056   8.062   0.559 -2.8900 -1.4528 -2.7039
11294SOL    HW235367   6.152   8.069   0.442  0.1727  0.6306 -0.1506
11295SOL     OW35368   7.332   7.661   2.414  0.0816  0.0437  0.0820
11295SOL    HW135369   7.339   7.578   2.461 -1.2861 -0.7735 -1.1093
11295SOL    HW235370   7.336   7.636   2.322 -1.4192  1.1684 -0.3028
11296SOL     OW35371   7.001   0.955   0.923  0.1103 -0.0773 -0.1733
11296SOL    HW135372   6.950   1.022   0.878 -1.4704 -2.6494 -2.3611
11296SOL    HW235373   7.053   0.914   0.854  0.8951 -1.2185  1.0769
11297SOL     OW35374   6.442   3.144   2.197 -0.0110 -0.0342 -0.0217
11297SOL    HW135375   6.385   3.221   2.209  1.2315  0.9944 -0.5604
11297SOL    HW235376   6.474   3.125   2.285 -2.3076 -1.5348  0.5327
11298SOL     OW35377   2.426   5.753   4.238  0.3264  0.1071 -0.1674
11298SOL    HW135378   2.429   5.845   4.213  0.3060  0.3570  0.7411
11298SOL    HW235379   2.390   5.709   4.161  0.0874  0.8921 -0.5103
11299SOL     OW35380   1.192   0.385   0.631  0.1284  0.5725  0.1665
11299SOL    HW135381   1.226   0.413   0.546  0.4398 -1.5567 -0.4452
11299SOL    HW235382   1.126   0.450   0.653  0.8255  1.7679 -1.1719
11300SOL     OW35383   4.598   6.379   6.091 -0.0942  0.3611  0.2446
11300SOL    HW135384   4.518   6.355   6.138  0.0079  1.6438  1.0845
11300SOL    HW235385   4.567   6.425   6.014 -0.1331  3.2423  1.9143
11301SOL     OW35386   6.217   0.408   3.819 -0.1512 -0.0277 -0.7051
11301SOL    HW135387   6.203   0.391   3.913  0.6361 -0.2553 -0.6243
11301SOL    HW235388   6.193   0.326   3.776 -0.8507  0.1928 -0.7312
11302SOL     OW35389   5.921   0.180   4.913 -0.1249 -0.2258  0.0219
11302SOL    HW135390   5.963   0.253   4.867 -0.2068 -1.0520 -1.3862
11302SOL    HW235391   5.831   0.210   4.928  0.2747  0.5922  0.9094
11303SOL     OW35392   3.316   4.831   2.930  0.3150 -0.3320 -0.2243
11303SOL    HW135393   3.363   4.882   2.863  1.4848 -0.0560  0.7950
11303SOL    HW235394   3.327   4.740   2.901  1.8605 -0.3085  0.2124
11304SOL     OW35395   7.580   3.040   2.383  0.1764 -0.6800 -0.1241
11304SOL    HW135396   7.618   2.991   2.309 -1.1553  0.5802 -1.6744
11304SOL    HW235397   7.498   3.076   2.349  0.1093  0.9034  1.6231
11305SOL     OW35398   0.460   4.100   3.663 -0.2286  0.4061  0.3043
11305SOL    HW135399   0.516   4.056   3.726 -0.7678 -0.3534  0.2607
11305SOL    HW235400   0.441   4.034   3.596  0.3917  1.2154 -0.6992
11306SOL     OW35401   0.017   0.543   2.487 -0.7091  0.1397 -0.0472
11306SOL    HW135402   0.104   0.581   2.493 -0.7241  0.2237 -0.3546
11306SOL    HW235403   0.017   0.494   2.404 -1.1349  0.6137 -0.3327
11307SOL     OW35404   4.703   4.549   6.719  0.6845 -0.5517 -0.1690
11307SOL    HW135405   4.632   4.588   6.770  1.1696  0.7289 -0.4409
11307SOL    HW235406   4.782   4.580   6.762  1.0737 -1.5856 -0.1534
11308SOL     OW35407   3.322   1.611   7.207  0.0651 -0.6422 -0.4367
11308SOL    HW135408   3.352   1.665   7.134  0.6724 -0.9507 -0.4126
11308SOL    HW235409   3.244   1.567   7.173 -0.5841  0.4258 -0.3815
11309SOL     OW35410   5.075   6.431   3.843 -0.2289 -0.0841 -0.3106
11309SOL    HW135411   5.023   6.503   3.879 -0.1404  0.2026 -0.7642
11309SOL    HW235412   5.056   6.432   3.749 -1.1194 -1.3780 -0.1599
11310SOL     OW35413   0.310   1.307   7.666 -0.5250  0.0270 -0.5855
11310SOL    HW135414   0.247   1.269   7.727 -0.1042 -0.7401 -0.6227
11310SOL    HW235415   0.389   1.254   7.676  0.5040  1.6565  0.2726
11311SOL     OW35416   4.180   3.173   1.566  0.3105  0.0733 -0.9824
11311SOL    HW135417   4.185   3.215   1.652 -2.2751  0.6214 -1.0695
11311SOL    HW235418   4.190   3.079   1.585 -0.9194  0.1263  0.0269
11312SOL     OW35419   1.304   6.158   2.169 -0.4612  0.2090  0.1167
11312SOL    HW135420   1.210   6.142   2.167 -0.2178 -1.3769  0.2806
11312SOL    HW235421   1.330   6.165   2.077 -0.9481  2.0955  0.1022
11313SOL     OW35422   5.881   8.108   1.925  0.2372  0.0115  0.0232
11313SOL    HW135423   5.970   8.139   1.911  0.6808 -1.5224 -0.6178
11313SOL    HW235424   5.841   8.109   1.838  0.6206 -2.2606 -0.2071
11314SOL     OW35425   7.748   4.081   1.702 -0.0442 -0.1506 -0.0224
11314SOL    HW135426   7.763   4.104   1.793  0.4491 -2.6790  0.5848
11314SOL    HW235427   7.658   4.046   1.700 -0.5834  1.2595 -0.7934
11315SOL     OW35428   2.339   4.903   7.272 -0.1003  0.3911 -0.2497
11315SOL    HW135429   2.321   4.959   7.348  1.6389 -0.7459  1.0275
11315SOL    HW235430   2.375   4.963   7.206 -0.5687  1.1929  0.2205
11316SOL     OW35431   1.535   1.934   7.674  0.3306  0.3229  0.5225
11316SOL    HW135432   1.466   1.885   7.630 -1.6154  2.0987  1.4975
11316SOL    HW235433   1.567   1.996   7.608 -0.6139  1.0562  0.7464
11317SOL     OW35434   6.986   6.040   7.096  0.1052 -0.4552 -0.3577
11317SOL    HW135435   6.907   6.025   7.147  0.1736  0.0303 -0.1022
11317SOL    HW235436   7.010   6.131   7.115  0.1041 -0.2552 -1.2841
11318SOL     OW35437   1.897   2.031   5.904  0.0651  0.1109 -0.2724
11318SOL    HW135438   1.901   2.118   5.865  2.5703  0.2389  0.2230
11318SOL    HW235439   1.937   1.973   5.840 -0.7666 -0.5389 -0.2136
11319SOL     OW35440   1.254   2.396   6.255  0.1546  0.4335  0.4783
11319SOL    HW135441   1.254   2.400   6.351 -0.3945 -0.1038  0.5063
11319SOL    HW235442   1.316   2.464   6.228  0.2381  0.6558  1.2113
11320SOL     OW35443   5.196   6.334   6.709  0.2956 -0.2460 -0.4062
11320SOL    HW135444   5.252   6.322   6.786  0.1099 -0.0320 -0.2368
11320SOL    HW235445   5.124   6.273   6.722 -0.5726  0.9325  0.3834
11321SOL     OW35446   6.408   4.010   4.295  0.0035 -0.2131  0.0027
11321SOL    HW135447   6.377   3.942   4.235 -0.5634  0.8805 -0.9502
11321SOL    HW235448   6.332   4.030   4.350  0.0745 -0.0967  0.0595
11322SOL     OW35449   3.541   4.453   0.241  0.0691 -0.3323  0.5485
11322SOL    HW135450   3.596   4.531   0.234  1.3040 -1.2813 -0.4689
11322SOL    HW235451   3.504   4.442   0.153  1.6905 -2.1895  0.0914
11323SOL     OW35452   1.879   4.514   4.903  0.2365  0.1058  0.0540
11323SOL    HW135453   1.907   4.436   4.953  0.2278  0.5018  0.6864
11323SOL    HW235454   1.795   4.538   4.943  0.5226  0.7838  0.2433
11324SOL     OW35455   3.619   4.027   0.482 -0.1466  0.1061  0.1974
11324SOL    HW135456   3.617   4.089   0.555  0.3734  0.8916 -0.4518
11324SOL    HW235457   3.631   4.081   0.404 -1.3290 -0.6685 -0.5448
11325SOL     OW35458   5.725   5.473   2.761  0.2299 -0.4885  0.0202
11325SOL    HW135459   5.689   5.524   2.834  1.8565 -2.9896  2.6529
11325SOL    HW235460   5.650   5.425   2.727 -0.4298  0.2140  0.4465
11326SOL     OW35461   3.141   0.588   4.639  0.5570  0.4297  0.1152
11326SOL    HW135462   3.137   0.684   4.632  0.8116  0.4461  0.1625
11326SOL    HW235463   3.091   0.556   4.564  0.3373  0.6017  0.1908
11327SOL     OW35464   2.363   0.813   6.716 -0.0631  0.3509  0.3637
11327SOL    HW135465   2.434   0.767   6.761 -0.1201 -0.5988 -0.5023
11327SOL    HW235466   2.300   0.744   6.694  1.1810  0.3424 -3.5000
11328SOL     OW35467   4.543   1.432   1.674 -0.3594  0.7909  0.0171
11328SOL    HW135468   4.456   1.447   1.637 -0.5848  0.4529  0.4031
11328SOL    HW235469   4.529   1.425   1.768 -0.1857 -1.1258 -0.0811
11329SOL     OW35470   7.075   7.640   1.254 -0.1433  0.0807  0.0391
11329SOL    HW135471   7.131   7.635   1.177  1.6568  0.7728  1.2745
11329SOL    HW235472   6.986   7.647   1.218  0.5551 -0.7605 -1.9432
11330SOL     OW35473   7.474   2.649   7.223 -0.0474  1.1509 -0.0939
11330SOL    HW135474   7.555   2.619   7.264 -0.0808  1.2338  0.0356
11330SOL    HW235475   7.433   2.570   7.188  0.6396  1.2492 -1.1534
11331SOL     OW35476   3.620   1.821   0.253  0.4051 -0.3043  0.3192
11331SOL    HW135477   3.574   1.782   0.178  1.1065 -0.0138 -0.2783
11331SOL    HW235478   3.589   1.912   0.255 -0.2572 -0.5407  0.9132
11332SOL     OW35479   3.553   7.654   4.119  0.2965 -0.0517 -0.4837
11332SOL    HW135480   3.575   7.747   4.115 -0.0508  0.0116 -1.1788
11332SOL    HW235481   3.464   7.653   4.155  0.0172 -0.0638 -1.1676
11333SOL     OW35482   3.751   3.649   3.637  0.1913  0.0168 -0.0723
11333SOL    HW135483   3.677   3.605   3.680  0.1552 -0.3498 -0.5063
11333SOL    HW235484   3.801   3.578   3.597  1.8791  0.0576  1.8778
11334SOL     OW35485   1.824   7.620   1.113  0.0948 -0.6072  0.0586
11334SOL    HW135486   1.760   7.580   1.172 -1.3351  1.3344 -0.1269
11334SOL    HW235487   1.773   7.639   1.034  1.2556 -0.3199 -0.6177
11335SOL     OW35488   8.286   8.228   5.017  0.6474  0.3117  0.3450
11335SOL    HW135489   8.279   8.245   4.923  0.5083  0.0445  0.3076
11335SOL    HW235490   8.219   8.284   5.057  0.1380 -0.1971  0.2135
11336SOL     OW35491   0.731   3.530   2.359 -0.1702 -0.7037 -0.0311
11336SOL    HW135492   0.805   3.543   2.419  1.1485 -2.3116 -1.2541
11336SOL    HW235493   0.768   3.544   2.272 -2.1128  1.8155 -0.5204
11337SOL     OW35494   0.447   5.222   2.075  0.5289  0.1738  0.2899
11337SOL    HW135495   0.420   5.313   2.088 -2.0519 -0.5828  0.5139
11337SOL    HW235496   0.429   5.204   1.983 -0.1647 -0.5020  0.5586
11338SOL     OW35497   6.071   5.843   4.666  0.0923  0.5398  0.0157
11338SOL    HW135498   6.120   5.908   4.716 -2.5530  2.6579 -0.0174
11338SOL    HW235499   6.093   5.861   4.574 -2.0334  2.6712 -0.1233
11339SOL     OW35500   3.743   8.283   3.378 -0.0173 -0.3251 -0.1768
11339SOL    HW135501   3.661   8.261   3.424 -0.2321 -0.5066 -0.6430
11339SOL    HW235502   3.743   8.226   3.301 -0.9767  1.8816 -1.8318
11340SOL     OW35503   6.838   1.755   0.737  1.0818 -0.0095  0.2117
11340SOL    HW135504   6.897   1.683   0.716  2.7765  1.8342 -1.6038
11340SOL    HW235505   6.849   1.817   0.664 -2.8851  0.5183 -0.0219
11341SOL     OW35506   0.858   2.121   3.893  0.3569 -0.4475  0.3562
11341SOL    HW135507   0.824   2.107   3.805 -1.1430 -0.8481  0.9872
11341SOL    HW235508   0.849   2.216   3.907 -0.6049 -0.5605  0.5499
11342SOL     OW35509   0.243   3.285   7.778  0.2692 -0.6508 -0.1112
11342SOL    HW135510   0.260   3.208   7.833 -1.0992 -0.7715  0.1497
11342SOL    HW235511   0.289   3.266   7.696 -1.7378 -2.6745 -0.8109
11343SOL     OW35512   6.227   3.162   7.513 -0.1824 -0.2768  0.4690
11343SOL    HW135513   6.188   3.246   7.490  2.8429  0.9845 -0.3058
11343SOL    HW235514   6.171   3.097   7.472 -2.8103  1.3048  1.4158
11344SOL     OW35515   2.828   0.482   7.648 -0.0753  0.5242 -0.4990
11344SOL    HW135516   2.779   0.522   7.576 -1.2971  1.3143  0.7676
11344SOL    HW235517   2.827   0.388   7.628  1.0880  0.8792 -2.4143
11345SOL     OW35518   5.218   6.097   3.502  0.5077  0.4938 -0.0565
11345SOL    HW135519   5.176   6.012   3.513 -1.4429  1.5357  0.7866
11345SOL    HW235520   5.288   6.098   3.567  0.0679 -0.1752  0.4342
11346SOL     OW35521   6.159   1.530   6.674 -0.7572  0.4159 -0.2001
11346SOL    HW135522   6.246   1.536   6.635 -0.2702 -1.4699  0.5492
11346SOL    HW235523   6.113   1.466   6.619 -1.6632  1.3688 -0.5647
11347SOL     OW35524   5.059   1.579   2.286  0.8469  0.1137 -0.4764
11347SOL    HW135525   5.145   1.613   2.262  0.8058 -0.5333 -1.5905
11347SOL    HW235526   5.008   1.583   2.205  0.9592 -2.9029 -0.7525
11348SOL     OW35527   6.001   0.010   6.566 -0.1751 -0.7705  0.0437
11348SOL    HW135528   6.065  -0.045   6.519  2.8713  2.1430  0.6227
11348SOL    HW235529   5.998   0.091   6.515 -2.1385 -0.1825  1.0561
11349SOL     OW35530   3.373   1.094   5.584  0.2790  0.0728 -0.2720
11349SOL    HW135531   3.325   1.069   5.663  0.5567 -1.1712 -0.4903
11349SOL    HW235532   3.310   1.085   5.513 -0.0899  1.5935 -0.1477
11350SOL     OW35533   2.076   7.020   4.445  0.3119  0.1455  0.0925
11350SOL    HW135534   2.143   6.965   4.487  0.8375  0.1965 -0.6605
11350SOL    HW235535   2.118   7.050   4.364 -1.4895 -1.7845 -1.6006
11351SOL     OW35536   5.693   1.400   0.185  0.5529 -0.3281 -0.5993
11351SOL    HW135537   5.787   1.401   0.164  0.2387 -0.5625 -2.0458
11351SOL    HW235538   5.669   1.307   0.182  0.1115 -0.2015 -0.9620
11352SOL     OW35539   0.004   4.445   7.692 -0.0939  0.2360  0.1434
11352SOL    HW135540  -0.084   4.421   7.719 -0.5926 -0.0452 -1.6488
11352SOL    HW235541  -0.009   4.498   7.613  1.3199  0.6556  0.1723
11353SOL     OW35542   1.298   7.336   7.241  0.0291  0.0065 -0.0786
11353SOL    HW135543   1.379   7.289   7.258  0.9639  1.2607 -0.9421
11353SOL    HW235544   1.256   7.345   7.327  1.2356  0.1206  0.5008
11354SOL     OW35545   7.035   6.682   1.561  0.5249  0.0557 -0.2111
11354SOL    HW135546   7.023   6.736   1.483 -0.3353  0.6835  0.3375
11354SOL    HW235547   7.082   6.605   1.531  0.0615  0.2272 -1.3734
11355SOL     OW35548   2.672   1.918   3.553 -0.3322 -0.5265 -0.2079
11355SOL    HW135549   2.730   1.980   3.509 -0.1078  1.3661  2.6165
11355SOL    HW235550   2.584   1.956   3.543 -0.2142  0.2128  1.3859
11356SOL     OW35551   5.802   6.610   6.324  0.4023 -0.2066  0.8887
11356SOL    HW135552   5.753   6.690   6.304 -1.0043 -1.4137 -0.7301
11356SOL    HW235553   5.810   6.610   6.419 -0.7053  1.2163  1.0059
11357SOL     OW35554   2.590   2.853   0.722 -0.0138  0.0824  0.0623
11357SOL    HW135555   2.562   2.768   0.755 -0.7474  0.1801 -0.2868
11357SOL    HW235556   2.508   2.899   0.702  0.3833  0.7189 -0.1247
11358SOL     OW35557   4.564   2.637   4.255  0.1999 -0.5001  0.2547
11358SOL    HW135558   4.585   2.721   4.216  0.9969 -1.0540 -0.5312
11358SOL    HW235559   4.489   2.605   4.205  1.3207 -1.2828 -0.9561
11359SOL     OW35560   0.984   7.917   6.859 -0.2426 -0.0293 -0.3962
11359SOL    HW135561   0.957   7.980   6.927  2.3161  0.7961 -0.0936
11359SOL    HW235562   0.977   7.966   6.777  3.2892  1.2916 -0.0181
11360SOL     OW35563   7.915   0.044   0.838 -0.3460 -0.1237  0.1520
11360SOL    HW135564   7.965  -0.030   0.804 -0.5467 -0.2646  0.1610
11360SOL    HW235565   7.973   0.086   0.900  0.2140  0.4268 -0.7306
11361SOL     OW35566   4.072   2.709   0.392 -0.1219  0.0084 -0.2330
11361SOL    HW135567   3.992   2.757   0.370 -0.2800 -0.4198 -0.6083
11361SOL    HW235568   4.049   2.617   0.380  0.2339 -0.1545  0.3002
11362SOL     OW35569   6.201   0.048   5.953  0.1946  0.0867  0.0337
11362SOL    HW135570   6.261   0.071   5.883  0.5430 -1.1044 -0.0706
11362SOL    HW235571   6.258   0.022   6.026 -0.1804 -1.0869 -0.0819
11363SOL     OW35572   6.998   7.034   1.556  0.0226  0.1990  0.3937
11363SOL    HW135573   7.067   7.068   1.500 -0.6841  2.3479  0.7512
11363SOL    HW235574   7.015   7.075   1.642 -2.5013  1.9697  0.1144
11364SOL     OW35575   0.218   2.465   7.550 -0.5782 -0.3239  0.6316
11364SOL    HW135576   0.305   2.459   7.589 -0.2925 -0.9389 -0.0846
11364SOL    HW235577   0.215   2.551   7.509  0.3441 -0.9720 -0.8490
11365SOL     OW35578   2.805   1.158   4.685  0.2948  0.1721  0.1075
11365SOL    HW135579   2.732   1.104   4.714  0.4966 -0.4361 -0.5145
11365SOL    HW235580   2.847   1.107   4.616  0.5784  1.0567 -0.3732
11366SOL     OW35581   5.732   5.496   3.781 -0.2608 -0.0587  0.1727
11366SOL    HW135582   5.772   5.435   3.843 -0.4824  1.7979  2.2179
11366SOL    HW235583   5.792   5.571   3.780 -1.0915  0.5977 -0.6289
11367SOL     OW35584   2.007   0.995   7.683  0.4755  0.2983  0.0435
11367SOL    HW135585   1.936   0.951   7.730  1.5223 -0.0695  1.2896
11367SOL    HW235586   1.972   1.008   7.595 -0.8268 -0.6525  0.4036
11368SOL     OW35587   3.028   4.378   5.302  0.3682  0.2945  0.1071
11368SOL    HW135588   3.015   4.389   5.208  1.7357  2.1403  0.0944
11368SOL    HW235589   2.973   4.303   5.326  0.0366 -0.2140 -2.1531
11369SOL     OW35590   6.377   6.910   0.454  0.0354  0.4610  0.0177
11369SOL    HW135591   6.430   6.989   0.465  0.7879  0.1958 -1.5737
11369SOL    HW235592   6.288   6.942   0.445  0.1604  1.0397  0.7950
11370SOL     OW35593   4.375   7.144   4.876 -0.0269  0.6544  0.6084
11370SOL    HW135594   4.461   7.171   4.908  0.7361  0.4341 -1.2115
11370SOL    HW235595   4.313   7.204   4.919  1.0493  0.9864  1.7046
11371SOL     OW35596   2.551   6.898   8.095  0.2617  0.0454  0.1544
11371SOL    HW135597   2.458   6.890   8.076  0.0838 -1.5900  1.6565
11371SOL    HW235598   2.564   6.847   8.174  2.4273  0.3430  0.0149
11372SOL     OW35599   5.674   3.889   2.735  0.3697  0.2757  0.1435
11372SOL    HW135600   5.729   3.820   2.697  0.5078  0.7537 -0.5283
11372SOL    HW235601   5.687   3.965   2.678 -0.8082  0.4685  0.1126
11373SOL     OW35602   0.952   5.222   2.397  0.3890  0.5210  0.2726
11373SOL    HW135603   0.865   5.202   2.433  0.0502 -1.2545 -1.4742
11373SOL    HW235604   0.975   5.307   2.436 -1.4142  0.2429  2.0124
11374SOL     OW35605   2.924   4.140   0.446 -0.1514  0.5649 -0.4442
11374SOL    HW135606   2.835   4.119   0.474 -1.0573  1.4620 -2.5966
11374SOL    HW235607   2.914   4.211   0.384  2.1455  1.1602 -0.1834
11375SOL     OW35608   2.551   4.261   7.372  0.4719 -0.5990 -0.7618
11375SOL    HW135609   2.581   4.177   7.337  1.5378 -0.1488 -0.9167
11375SOL    HW235610   2.470   4.279   7.324  0.0081 -1.7387 -0.4300
11376SOL     OW35611   4.257   3.110   7.633 -0.2673  0.0312  0.0297
11376SOL    HW135612   4.271   3.195   7.592 -0.7391  0.3569  0.5485
11376SOL    HW235613   4.181   3.122   7.689  0.5610 -0.3266  1.2427
11377SOL     OW35614   4.814   1.687   3.221  0.0607 -0.6807  0.4644
11377SOL    HW135615   4.796   1.613   3.279  0.5626  0.0020  1.5083
11377SOL    HW235616   4.728   1.725   3.204 -0.0103 -0.3585  1.4840
11378SOL     OW35617   0.098   7.364   2.012  0.6012  0.0578 -0.0847
11378SOL    HW135618   0.161   7.334   2.078 -0.9269  0.3803  1.5602
11378SOL    HW235619   0.013   7.336   2.046 -0.5571  3.3369 -0.0998
11379SOL     OW35620   1.121   4.791   3.426  0.0322 -0.0622 -0.1284
11379SOL    HW135621   1.054   4.722   3.423 -0.9806  0.9503 -1.3816
11379SOL    HW235622   1.094   4.853   3.359  0.7213  1.7831  1.2666
11380SOL     OW35623   3.245   1.271   4.890  0.5051 -0.2682 -0.3614
11380SOL    HW135624   3.153   1.259   4.914  0.5901  2.6251  1.6994
11380SOL    HW235625   3.242   1.326   4.812  0.4870  1.2688  0.7003
11381SOL     OW35626   4.909   5.074   2.317  0.1221  0.6240 -0.4139
11381SOL    HW135627   4.950   5.092   2.402  0.0397  0.0075 -0.2434
11381SOL    HW235628   4.954   4.997   2.285 -0.5858  0.2209 -0.4388
11382SOL     OW35629   2.844   4.641   0.649  0.1170  0.1524 -0.0532
11382SOL    HW135630   2.853   4.736   0.643 -0.8240  0.1544 -1.5325
11382SOL    HW235631   2.784   4.618   0.578  1.0477 -1.6474 -0.2754
11383SOL     OW35632   2.145   1.688   1.725 -0.6256  0.2941  0.4324
11383SOL    HW135633   2.111   1.598   1.717  1.6805 -0.6154  0.3554
11383SOL    HW235634   2.167   1.713   1.635  0.4551  0.2213  0.6703
11384SOL     OW35635   0.636   0.623   0.295 -0.0057  0.1579 -0.2804
11384SOL    HW135636   0.642   0.558   0.365 -0.2430  2.7983  2.2823
11384SOL    HW235637   0.575   0.584   0.232  0.5279 -2.4591  0.7500
11385SOL     OW35638   3.330   5.574   6.645 -0.3385  0.2178  0.0159
11385SOL    HW135639   3.243   5.607   6.668  0.5301  1.9059  1.0301
11385SOL    HW235640   3.354   5.519   6.720  0.5744  1.9672  1.0375
11386SOL     OW35641   0.606   7.854   7.833  0.4669  0.1295 -0.5247
11386SOL    HW135642   0.569   7.822   7.751  0.5708 -0.2518 -0.4224
11386SOL    HW235643   0.662   7.783   7.864 -0.4074 -0.1708  0.4244
11387SOL     OW35644   7.701   2.193   7.546 -0.1946 -0.2385  0.1361
11387SOL    HW135645   7.733   2.240   7.623  1.7523 -0.9552 -0.2039
11387SOL    HW235646   7.737   2.105   7.555 -0.1992 -0.4128 -1.4532
11388SOL     OW35647   6.859   2.379   6.520 -0.1652 -0.4241  0.4159
11388SOL    HW135648   6.789   2.416   6.466 -0.4539  0.4217  1.3649
11388SOL    HW235649   6.930   2.363   6.458 -0.3051  1.0172 -0.1508
11389SOL     OW35650   5.201   6.813   7.633 -0.6224 -0.5662 -0.0787
11389SOL    HW135651   5.245   6.757   7.697  1.2930  1.8448  0.7671
11389SOL    HW235652   5.171   6.889   7.683 -1.0128  0.3395 -1.6490
11390SOL     OW35653   3.353   3.474   7.358  0.0357 -0.1462 -0.0345
11390SOL    HW135654   3.376   3.546   7.300 -1.6895  0.0032 -0.5715
11390SOL    HW235655   3.365   3.395   7.305  0.3093 -0.1444  0.0235
11391SOL     OW35656   3.299   0.609   0.500 -0.1876 -0.6307  0.4239
11391SOL    HW135657   3.211   0.571   0.505 -0.0608 -0.9228  0.4375
11391SOL    HW235658   3.350   0.559   0.563 -0.5407  0.9985  2.0537
11392SOL     OW35659   8.024   1.605   5.436  0.3699 -0.3376  0.1038
11392SOL    HW135660   7.970   1.612   5.357  0.7605  0.6876 -0.0865
11392SOL    HW235661   8.112   1.626   5.407  0.2943  1.4134  1.0581
11393SOL     OW35662   6.531   0.985   1.254 -0.2530 -0.1472 -0.3879
11393SOL    HW135663   6.516   0.903   1.302 -0.3286 -1.0596 -1.9510
11393SOL    HW235664   6.443   1.017   1.233 -0.1943 -0.5740 -1.2958
11394SOL     OW35665   2.054   8.047   0.451 -0.2667 -0.4293 -0.0296
11394SOL    HW135666   2.034   8.126   0.501 -1.4518  1.0422 -2.6890
11394SOL    HW235667   1.976   7.992   0.461 -0.3005 -0.3442  0.1624
11395SOL     OW35668   8.287   7.673   7.620  0.3498 -0.3062  0.2768
11395SOL    HW135669   8.226   7.722   7.565  1.4588  0.9424  0.1379
11395SOL    HW235670   8.242   7.665   7.704  0.2688  1.2424  0.4047
11396SOL     OW35671   5.326   0.242   6.246 -0.1261  0.7657  0.1958
11396SOL    HW135672   5.230   0.233   6.244 -0.0429 -0.3717  1.0111
11396SOL    HW235673   5.348   0.238   6.339  0.8771 -0.7274 -0.0981
11397SOL     OW35674   7.395   2.693   6.803  0.2632  0.0230 -0.0679
11397SOL    HW135675   7.373   2.780   6.771 -0.7865 -0.0921  0.3216
11397SOL    HW235676   7.473   2.705   6.857 -0.2533  0.8200  0.5065
11398SOL     OW35677   0.768   0.351   2.934 -0.7162  0.3413  0.5297
11398SOL    HW135678   0.683   0.370   2.973 -1.0360 -1.1658  0.6081
11398SOL    HW235679   0.752   0.279   2.874  0.6199 -0.4234  1.0505
11399SOL     OW35680   8.281   3.459   1.490 -0.4000  0.1295 -0.0987
11399SOL    HW135681   8.368   3.483   1.523  0.2019  0.8001 -2.1071
11399SOL    HW235682   8.236   3.423   1.567  1.4793  0.1987  1.0857
11400SOL     OW35683   2.825   2.667   8.278  0.0094  0.3272 -0.3552
11400SOL    HW135684   2.867   2.682   8.194  1.3671 -0.8963  0.0848
11400SOL    HW235685   2.764   2.740   8.288  0.1142  0.6890 -2.2112
11401SOL     OW35686   2.321   1.862   5.871 -0.0740  0.1604  0.1628
11401SOL    HW135687   2.393   1.909   5.829 -1.4660  0.8715 -1.4948
11401SOL    HW235688   2.285   1.923   5.935  0.2533  0.1203  0.3832
11402SOL     OW35689   6.290   7.875   2.562 -0.3379 -0.1384  0.1715
11402SOL    HW135690   6.232   7.922   2.502 -1.9624 -1.8199  0.3657
11402SOL    HW235691   6.319   7.941   2.624  0.0777  1.2818 -1.5101
11403SOL     OW35692   0.264   1.908   0.044  0.7801 -0.1286  0.1683
11403SOL    HW135693   0.339   1.880  -0.008  2.4595  0.6683  2.1043
11403SOL    HW235694   0.251   1.838   0.108  0.2544  0.0187  0.2269
11404SOL     OW35695   2.171   7.272   7.410 -0.1862 -0.1721  0.3896
11404SOL    HW135696   2.140   7.184   7.431 -0.0308 -0.7289 -1.6304
11404SOL    HW235697   2.208   7.305   7.492 -3.0980 -0.7591  1.9742
11405SOL     OW35698   0.682   6.395   0.293 -0.3614 -0.1791  0.1117
11405SOL    HW135699   0.702   6.406   0.386 -1.0725 -1.1447  0.3862
11405SOL    HW235700   0.644   6.307   0.287 -1.1779  0.2391 -0.9467
11406SOL     OW35701   8.160   0.607   5.439 -0.1224  0.0681  0.5703
11406SOL    HW135702   8.159   0.513   5.455  0.6101 -0.1694 -0.6554
11406SOL    HW235703   8.079   0.624   5.390  0.9873 -0.3836 -1.4839
11407SOL     OW35704   1.157   4.557   6.935 -0.1747 -0.1752  0.4599
11407SOL    HW135705   1.210   4.624   6.890 -0.3983 -0.9698 -1.0196
11407SOL    HW235706   1.100   4.607   6.993 -0.0184  0.8955 -0.2898
11408SOL     OW35707   2.396   1.785   8.122  0.0627 -0.8920 -0.1568
11408SOL    HW135708   2.360   1.702   8.155 -0.7268 -0.4202  0.1902
11408SOL    HW235709   2.341   1.852   8.162  0.5695 -0.2046 -0.6026
11409SOL     OW35710   2.839   2.571   4.686  0.0231 -0.4389 -0.2536
11409SOL    HW135711   2.790   2.509   4.739 -1.4198 -0.3307 -1.4210
11409SOL    HW235712   2.788   2.579   4.605  0.9322  1.1647 -0.6966
11410SOL     OW35713   4.522   2.639   3.562  0.3440  0.5256  0.3883
11410SOL    HW135714   4.602   2.595   3.534  2.2069 -0.0403  5.9083
11410SOL    HW235715   4.538   2.732   3.547  1.4732  0.3051  0.2128
11411SOL     OW35716   5.302   8.282   3.045 -0.8835 -0.3076  0.0982
11411SOL    HW135717   5.241   8.272   3.118 -1.5348 -1.1345 -0.5633
11411SOL    HW235718   5.272   8.360   2.999 -1.4052 -0.6879 -0.2000
11412SOL     OW35719   2.336   6.697   6.135  0.0278 -0.2138 -0.3618
11412SOL    HW135720   2.373   6.740   6.212 -0.7719 -0.0054 -0.0857
11412SOL    HW235721   2.268   6.639   6.170 -1.0776  0.6738 -0.9769
11413SOL     OW35722   0.881   3.134   4.078 -0.0493  0.2753  0.0310
11413SOL    HW135723   0.844   3.196   4.015 -0.4184  0.1097  0.0817
11413SOL    HW235724   0.831   3.148   4.158  0.1907  0.2472  0.1868
11414SOL     OW35725   6.656   5.932   7.553 -0.1709 -0.2146 -0.1521
11414SOL    HW135726   6.579   5.888   7.589 -0.1613  0.2983  0.4949
11414SOL    HW235727   6.707   5.957   7.629 -1.0756  2.5718 -0.3916
11415SOL     OW35728   5.928   2.334   4.134 -0.0295 -0.2307 -0.2454
11415SOL    HW135729   6.004   2.338   4.194 -0.4702  1.5796  0.2148
11415SOL    HW235730   5.901   2.242   4.137 -1.2069  0.1270  3.8641
11416SOL     OW35731   4.652   4.409   0.107 -0.0240  0.1805  0.0395
11416SOL    HW135732   4.565   4.398   0.069  0.8406 -2.5569 -1.3117
11416SOL    HW235733   4.651   4.496   0.145 -4.1740 -0.7374  2.2606
11417SOL     OW35734   3.033   2.968   7.844 -0.3653 -0.4344 -0.7560
11417SOL    HW135735   3.061   3.055   7.814 -0.3797 -0.2414 -0.2084
11417SOL    HW235736   3.087   2.907   7.793  0.7399 -0.0749 -0.0277
11418SOL     OW35737   3.579   5.881   1.448  0.5795 -0.2684 -0.0600
11418SOL    HW135738   3.656   5.830   1.469  0.8863  0.3297  0.2839
11418SOL    HW235739   3.513   5.854   1.512  0.7538 -0.2039  0.1443
11419SOL     OW35740   5.881   5.140   2.835 -0.4344 -0.3043 -0.4399
11419SOL    HW135741   5.946   5.089   2.787  0.8072  0.6729  0.1480
11419SOL    HW235742   5.908   5.231   2.822 -2.4005  0.1850 -1.1866
11420SOL     OW35743   6.148   7.947   3.787  0.1816  0.0571 -0.0623
11420SOL    HW135744   6.137   8.035   3.750  1.5906  0.9874  1.6107
11420SOL    HW235745   6.092   7.948   3.865  1.6669  0.1576  1.0183
11421SOL     OW35746   0.813   1.398   5.828  0.0076 -0.0608 -0.1313
11421SOL    HW135747   0.811   1.451   5.908  0.2547  0.7277 -0.6467
11421SOL    HW235748   0.885   1.336   5.843 -0.2777 -0.2622  0.4642
11422SOL     OW35749   2.372   1.509   2.752 -0.3207  0.4494  0.4277
11422SOL    HW135750   2.312   1.538   2.683  1.0140  2.6602  0.1725
11422SOL    HW235751   2.340   1.552   2.831 -0.5328 -0.3379  0.7751
11423SOL     OW35752   7.150   1.693   5.498 -0.7320 -0.0230  0.2308
11423SOL    HW135753   7.142   1.631   5.425 -1.1235  1.0141 -0.6162
11423SOL    HW235754   7.100   1.653   5.569  0.1448 -1.3315  0.1321
11424SOL     OW35755   3.767   3.066   1.315 -0.1456  0.4717 -0.3400
11424SOL    HW135756   3.795   3.070   1.224 -0.3198 -0.0985 -0.4219
11424SOL    HW235757   3.767   3.157   1.345  1.8448  0.4898 -0.3218
11425SOL     OW35758   0.536   3.801   6.115 -0.7398  0.0088  0.6021
11425SOL    HW135759   0.602   3.752   6.165 -1.8081 -1.8304  0.2430
11425SOL    HW235760   0.453   3.758   6.135 -1.4918  0.6868 -0.9728
11426SOL     OW35761   6.772   3.629   7.250 -0.2781 -0.2855 -0.1700
11426SOL    HW135762   6.700   3.570   7.273 -1.2775  0.3839 -1.5132
11426SOL    HW235763   6.850   3.584   7.280 -1.1779 -1.4661  0.4494
11427SOL     OW35764   1.067   0.240   4.140  0.0226  0.7988 -0.2732
11427SOL    HW135765   0.991   0.266   4.088 -1.0817  2.5785  2.1377
11427SOL    HW235766   1.131   0.309   4.124  0.2758  0.5132 -0.4975
11428SOL     OW35767   7.045   2.634   1.702  0.4036 -0.2421 -0.0421
11428SOL    HW135768   7.095   2.661   1.626  0.6342  0.0907  0.2256
11428SOL    HW235769   7.011   2.715   1.740 -0.7236 -0.4909 -0.4775
11429SOL     OW35770   6.366   6.821   4.417 -0.0931 -0.2812  0.2693
11429SOL    HW135771   6.379   6.803   4.511  0.0963 -2.8107 -0.2087
11429SOL    HW235772   6.274   6.798   4.401  0.1718 -0.9155 -0.3767
11430SOL     OW35773   2.886   1.075   3.888 -0.1276  0.0165 -0.5767
11430SOL    HW135774   2.803   1.064   3.842 -0.2788  1.0498 -0.5715
11430SOL    HW235775   2.889   1.002   3.950 -0.6023 -0.5503 -1.2206
11431SOL     OW35776   5.527   4.717   4.331 -0.4020  0.0439 -0.6374
11431SOL    HW135777   5.615   4.681   4.334 -0.6006 -0.3060  1.9720
11431SOL    HW235778   5.472   4.652   4.375 -1.5891  1.2553 -0.2712
11432SOL     OW35779   2.987   2.408   5.797  0.1435 -0.2921  0.2195
11432SOL    HW135780   2.914   2.408   5.736  0.2906  2.0407 -0.0115
11432SOL    HW235781   2.950   2.440   5.879  0.3894 -1.4470  0.7902
11433SOL     OW35782   2.101   2.047   5.211 -0.0358 -0.2333 -0.1458
11433SOL    HW135783   2.125   1.978   5.150 -2.5579 -1.2104 -0.1073
11433SOL    HW235784   2.060   2.115   5.156  1.5350  0.8075 -0.0593
11434SOL     OW35785   7.524   0.965   3.702 -0.3522  0.2525 -0.3823
11434SOL    HW135786   7.540   1.053   3.667  0.8032 -0.2043 -1.0355
11434SOL    HW235787   7.429   0.959   3.710 -0.4831  1.2700 -1.1055
11435SOL     OW35788   5.218   4.833   0.751  0.2067  0.2386 -0.1727
11435SOL    HW135789   5.209   4.912   0.697  1.4988 -0.5936 -1.6632
11435SOL    HW235790   5.256   4.864   0.833 -3.7115  1.8332  1.1399
11436SOL     OW35791   4.734   0.071   5.385 -0.3684  0.2262  0.1529
11436SOL    HW135792   4.759   0.026   5.304  1.5219 -0.2993  0.9972
11436SOL    HW235793   4.789   0.150   5.386 -0.3850  0.2287  0.9260
11437SOL     OW35794   7.756   1.358   1.854 -0.5422 -0.2461 -0.1800
11437SOL    HW135795   7.801   1.376   1.771 -0.0510  1.3092  0.4102
11437SOL    HW235796   7.800   1.414   1.918 -0.7551 -1.6059  1.1964
11438SOL     OW35797   5.325   4.346   0.757  0.1494 -0.0209  0.7121
11438SOL    HW135798   5.350   4.432   0.791 -2.2233  0.7417  0.6529
11438SOL    HW235799   5.344   4.350   0.664  2.0896 -0.3641  1.0730
11439SOL     OW35800   2.311   6.590   4.201 -0.1768 -0.1828 -0.1751
11439SOL    HW135801   2.333   6.573   4.292  0.1381  1.9474  0.1491
11439SOL    HW235802   2.370   6.532   4.152 -0.1306 -1.0981  0.9287
11440SOL     OW35803   3.431   4.870   5.333  0.1629 -0.0831 -0.2931
11440SOL    HW135804   3.446   4.951   5.381  2.2929 -0.2486 -0.6150
11440SOL    HW235805   3.396   4.809   5.399  3.2277 -0.3614  1.1778
11441SOL     OW35806   3.105   1.751   7.984  0.3833  0.4497 -0.0454
11441SOL    HW135807   3.035   1.803   7.944 -0.5049 -0.9886 -0.3981
11441SOL    HW235808   3.167   1.737   7.913 -0.0668 -0.1394 -0.3347
11442SOL     OW35809   0.504   2.845   0.200 -0.0868  0.0152  0.1975
11442SOL    HW135810   0.441   2.825   0.270  0.0571 -0.3172  0.2338
11442SOL    HW235811   0.462   2.914   0.149 -0.4952 -0.2225  0.2066
11443SOL     OW35812   3.003   1.956   6.359  0.0885 -0.0142 -0.1151
11443SOL    HW135813   3.052   2.038   6.364  0.0841 -0.1682  4.0021
11443SOL    HW235814   3.031   1.917   6.277  3.7107  1.8606  0.1267
11444SOL     OW35815   5.923   1.750   1.872  0.3193  0.0460  0.5525
11444SOL    HW135816   5.973   1.800   1.938 -0.2403  0.5226  0.6140
11444SOL    HW235817   5.990   1.698   1.827  0.9432  1.0088  0.3380
11445SOL     OW35818   4.694   3.620   2.619  0.0695  0.0931 -0.6427
11445SOL    HW135819   4.722   3.696   2.671 -1.8781 -1.1013  2.3223
11445SOL    HW235820   4.776   3.579   2.591  1.1614  1.8955 -0.1859
11446SOL     OW35821   4.057   2.055   4.448  0.4302  0.4005  0.1034
11446SOL    HW135822   4.076   1.968   4.483  1.1273 -0.0533 -1.3356
11446SOL    HW235823   4.014   2.039   4.364  1.8764  1.4100 -0.8666
11447SOL     OW35824   2.746   4.136   4.541  0.2248  0.6375 -0.3179
11447SOL    HW135825   2.829   4.172   4.510  1.0598 -0.4778  0.5866
11447SOL    HW235826   2.712   4.202   4.601  0.2712  1.2586 -0.9662
11448SOL     OW35827   5.259   0.522   7.841 -0.1892 -0.7156  0.0739
11448SOL    HW135828   5.266   0.517   7.745  0.5282  0.1616  0.0758
11448SOL    HW235829   5.276   0.433   7.871 -1.3519 -1.2021 -0.6626
11449SOL     OW35830   1.894   6.134   0.487  0.1036 -0.0180  0.3914
11449SOL    HW135831   1.852   6.108   0.405  3.6102  0.0662 -1.5390
11449SOL    HW235832   1.916   6.051   0.530 -1.2740 -0.0677  1.0060
11450SOL     OW35833   1.212   5.131   3.131  0.2376 -0.1940 -0.2957
11450SOL    HW135834   1.306   5.132   3.115 -0.0414  2.0003 -2.0790
11450SOL    HW235835   1.199   5.193   3.203  0.0638  0.2456 -0.7026
11451SOL     OW35836   6.005   4.696   4.194 -0.2080  0.1120  0.0398
11451SOL    HW135837   6.051   4.652   4.266 -0.4051 -1.1439 -0.5785
11451SOL    HW235838   5.943   4.754   4.237 -0.4268 -0.7377  0.8948
11452SOL     OW35839   2.347   3.866   2.756 -0.0100 -0.3479  0.1098
11452SOL    HW135840   2.381   3.922   2.685  1.3766 -1.2734  0.0322
11452SOL    HW235841   2.266   3.829   2.720 -0.7391  1.2864  0.0137
11453SOL     OW35842   7.388   0.821   5.353 -0.4095  0.4951  0.1295
11453SOL    HW135843   7.374   0.862   5.268 -0.5767  1.7688  0.7538
11453SOL    HW235844   7.304   0.782   5.376  0.2426 -1.8833 -1.3170
11454SOL     OW35845   6.453   4.626   3.527  0.6633  0.2103  0.4306
11454SOL    HW135846   6.381   4.563   3.527 -1.2926  2.3383 -0.3994
11454SOL    HW235847   6.409   4.712   3.531  3.1535  1.5656 -0.2773
11455SOL     OW35848   1.071   0.213   0.130  0.3238  0.0175  0.7361
11455SOL    HW135849   0.996   0.251   0.177 -0.0442 -0.5917  0.6448
11455SOL    HW235850   1.036   0.134   0.089  1.0333 -0.3036  0.7432
11456SOL     OW35851   1.565   6.416   7.710  0.3735  0.4439  0.3813
11456SOL    HW135852   1.555   6.510   7.719 -2.7205  0.0673  1.3346
11456SOL    HW235853   1.531   6.379   7.791  2.2024 -1.4789  0.3296
11457SOL     OW35854   2.094   6.015   2.044 -0.0002  0.6983 -0.0602
11457SOL    HW135855   2.001   6.000   2.063  0.1383 -0.4398 -0.2303
11457SOL    HW235856   2.100   6.109   2.028 -0.6706  1.1843  2.4118
11458SOL     OW35857   8.134   1.334   7.495  0.1633 -0.0530 -0.4552
11458SOL    HW135858   8.146   1.290   7.579  1.4426  1.2676  0.0809
11458SOL    HW235859   8.062   1.287   7.453 -1.7168  0.4054  2.1504
11459SOL     OW35860   1.329   1.777   5.517 -0.6750  0.1246  0.7933
11459SOL    HW135861   1.327   1.753   5.424  0.2312  0.3990  0.6953
11459SOL    HW235862   1.347   1.871   5.516 -2.3898  0.4649  1.2075
11460SOL     OW35863   3.187   2.788   0.851 -0.3586 -0.4433 -0.0066
11460SOL    HW135864   3.220   2.817   0.766  0.4869  1.1019  0.8212
11460SOL    HW235865   3.207   2.694   0.855 -1.7924 -0.8591 -2.1262
11461SOL     OW35866   2.140   6.546   6.318  0.4811  0.3665  0.1609
11461SOL    HW135867   2.087   6.534   6.396 -0.0708 -0.2813 -0.3017
11461SOL    HW235868   2.212   6.484   6.328  1.3029  1.4330  0.9134
11462SOL     OW35869   7.076   5.233   8.262 -0.1285  0.9533  0.2946
11462SOL    HW135870   7.062   5.141   8.281 -0.6407  0.8512 -0.5426
11462SOL    HW235871   7.161   5.253   8.302  0.4114 -0.1103 -0.2997
11463SOL     OW35872   2.840   4.462   2.028  0.3887  0.0839  0.3882
11463SOL    HW135873   2.920   4.415   2.004  0.9949 -0.1688  2.8189
11463SOL    HW235874   2.867   4.553   2.036  0.0982  0.2284 -0.1875
11464SOL     OW35875   3.317   1.781   6.252 -0.1020 -0.8970 -0.2283
11464SOL    HW135876   3.349   1.692   6.234 -0.3354 -1.2157  0.8722
11464SOL    HW235877   3.223   1.769   6.269  0.0408 -0.5641  0.7981
11465SOL     OW35878   7.783   3.655   3.172 -0.4896 -0.5257  0.1988
11465SOL    HW135879   7.786   3.674   3.078 -0.4873  1.6974  0.6098
11465SOL    HW235880   7.869   3.679   3.204 -0.6380 -0.8488  0.8376
11466SOL     OW35881   7.785   7.431   3.645 -0.1847  0.1301  0.0399
11466SOL    HW135882   7.715   7.451   3.583  2.2978  0.7077 -2.7054
11466SOL    HW235883   7.810   7.517   3.680  0.7481  0.2370 -0.8453
11467SOL     OW35884   5.182   0.657   1.634 -0.2767 -1.1650 -0.3434
11467SOL    HW135885   5.106   0.713   1.618  1.5721  1.4389 -0.3166
11467SOL    HW235886   5.179   0.639   1.728 -0.1466  0.0028 -0.1072
11468SOL     OW35887   4.358   2.968   2.258  0.0156  0.7854  0.3793
11468SOL    HW135888   4.389   2.993   2.345 -0.6520 -0.3158  0.9509
11468SOL    HW235889   4.313   2.885   2.272 -0.8153  1.0103 -0.8842
11469SOL     OW35890   2.301   7.037   8.301 -0.3029  0.2412 -0.4283
11469SOL    HW135891   2.249   6.960   8.280 -0.8942  0.7033 -0.6502
11469SOL    HW235892   2.333   7.020   8.390 -1.6501  0.3984  0.1002
11470SOL     OW35893   2.634   2.430   6.646 -0.0698  0.2310  0.2319
11470SOL    HW135894   2.541   2.453   6.645 -0.8058 -2.5008 -0.1772
11470SOL    HW235895   2.679   2.509   6.675 -2.5686  1.4431  0.8987
11471SOL     OW35896   3.993   2.995   0.242 -0.6633 -0.1236 -0.1605
11471SOL    HW135897   3.930   3.060   0.212 -1.8106 -1.2088 -0.1542
11471SOL    HW235898   4.069   3.007   0.185 -1.8679 -0.5110 -1.8865
11472SOL     OW35899   5.266   3.697   0.775 -0.3300  0.2862 -0.1810
11472SOL    HW135900   5.293   3.617   0.729 -0.4215  0.1757 -0.0447
11472SOL    HW235901   5.324   3.765   0.741  0.3107 -0.0036  0.3122
11473SOL     OW35902   1.050   1.217   6.490 -0.4388  0.9257  0.1630
11473SOL    HW135903   1.070   1.220   6.397 -1.1158  0.7473  0.0066
11473SOL    HW235904   1.132   1.238   6.533 -0.0452  0.6968 -0.4693
11474SOL     OW35905   4.178   2.330   5.830  0.3136  0.0738  0.2016
11474SOL    HW135906   4.180   2.410   5.777  1.0900  0.5080  0.8782
11474SOL    HW235907   4.091   2.294   5.816 -0.7959  2.1650  1.5433
11475SOL     OW35908   5.748   3.684   6.956  0.5914  0.1126 -0.0569
11475SOL    HW135909   5.740   3.608   7.012  0.3612 -0.2238 -0.5431
11475SOL    HW235910   5.675   3.740   6.980 -0.7914 -1.0191 -1.5267
11476SOL     OW35911   2.074   8.257   4.817 -0.3219  0.2180  0.4306
11476SOL    HW135912   2.093   8.164   4.806 -0.3388  0.0775  1.4845
11476SOL    HW235913   2.124   8.283   4.895  0.9427  1.4751 -0.7768
11477SOL     OW35914   2.671   2.875   7.912 -0.4392  0.6768  0.5972
11477SOL    HW135915   2.652   2.871   7.818  0.1596 -3.0640  0.5545
11477SOL    HW235916   2.586   2.888   7.954 -0.9822  0.3595 -0.3868
11478SOL     OW35917   3.548   6.926   5.344 -0.0310 -0.0552  0.2458
11478SOL    HW135918   3.558   6.938   5.249  0.5875  1.0984  0.4545
11478SOL    HW235919   3.559   7.013   5.381  1.7598 -0.8070  1.5465
11479SOL     OW35920   7.306   6.988   5.790 -0.4427  0.2443  0.0736
11479SOL    HW135921   7.244   7.061   5.780  1.6240  1.7780 -1.8976
11479SOL    HW235922   7.391   7.030   5.800  0.6453 -1.8970 -0.0121
11480SOL     OW35923   6.278   7.970   1.307  0.3214 -0.0397 -0.1539
11480SOL    HW135924   6.210   7.953   1.372  0.8466  0.5628  0.5477
11480SOL    HW235925   6.255   7.912   1.234 -2.6411  2.2281 -1.1636
11481SOL     OW35926   1.359   2.177   0.353 -0.2648 -0.0974 -0.7313
11481SOL    HW135927   1.307   2.104   0.318 -1.3458 -0.1706  0.9497
11481SOL    HW235928   1.318   2.255   0.317 -1.0191 -0.1921 -0.0784
11482SOL     OW35929   7.902   2.819   7.148 -0.7010  0.4992  0.1610
11482SOL    HW135930   7.839   2.860   7.089 -1.5587  0.6209  1.1330
11482SOL    HW235931   7.862   2.735   7.170 -1.1241  1.0955  1.7458
11483SOL     OW35932   6.950   0.240   2.885  0.6459  0.0259  0.6600
11483SOL    HW135933   6.921   0.208   2.971  1.3330 -0.1152  0.8396
11483SOL    HW235934   7.045   0.228   2.886  0.9440  2.2257  0.7931
11484SOL     OW35935   7.481   5.709   7.206 -0.7573 -0.1427  0.0800
11484SOL    HW135936   7.544   5.780   7.199 -2.1816  1.3592  1.8972
11484SOL    HW235937   7.457   5.690   7.115 -0.1296  1.5047 -0.4551
11485SOL     OW35938   2.277   1.872   1.495  0.0983 -0.3587 -0.6076
11485SOL    HW135939   2.192   1.915   1.504 -0.6663 -1.9802  0.1566
11485SOL    HW235940   2.339   1.943   1.484 -0.9984  0.9906  1.6827
11486SOL     OW35941   5.581   3.379   0.116 -0.7525 -0.4157 -0.2505
11486SOL    HW135942   5.498   3.404   0.075  0.0333 -0.3693 -1.8453
11486SOL    HW235943   5.603   3.295   0.075 -1.3407 -1.7473  2.1108
11487SOL     OW35944   3.062   8.011   5.531  0.1800  0.7058  0.6828
11487SOL    HW135945   3.141   8.063   5.525 -0.4828  1.8765  1.8832
11487SOL    HW235946   3.076   7.955   5.608 -0.4239  1.3809  1.2872
11488SOL     OW35947   5.286   1.661   4.353  0.0353  0.0562 -0.6446
11488SOL    HW135948   5.258   1.582   4.306 -1.0344  0.9113 -1.4702
11488SOL    HW235949   5.358   1.696   4.301  1.4254 -1.0899  0.4491
11489SOL     OW35950   3.633   2.769   5.474 -0.0429  0.2640  0.1309
11489SOL    HW135951   3.616   2.731   5.388  0.4223 -0.5656  0.3968
11489SOL    HW235952   3.556   2.747   5.526  0.7550 -1.3838  0.6351
11490SOL     OW35953   2.321   2.856   3.133  0.5042 -0.1217  0.0478
11490SOL    HW135954   2.352   2.934   3.179 -0.0994  0.1219  0.0375
11490SOL    HW235955   2.306   2.791   3.202  0.0546  0.0916  0.1538
11491SOL     OW35956   7.530   5.921   5.820  0.4220  0.0138  0.7523
11491SOL    HW135957   7.437   5.907   5.804  0.0494  0.5722  2.3089
11491SOL    HW235958   7.532   5.975   5.899  2.1022 -1.0871  1.4760
11492SOL     OW35959   7.133   1.869   0.406  0.8216 -0.0799 -1.0272
11492SOL    HW135960   7.136   1.929   0.332  0.9202  0.1323 -0.8520
11492SOL    HW235961   7.223   1.838   0.416  0.9114  0.2864 -0.6744
11493SOL     OW35962   5.111   5.050   5.940 -0.1707 -0.1442 -0.0272
11493SOL    HW135963   5.058   4.977   5.907 -1.0556  0.0245  0.9854
11493SOL    HW235964   5.199   5.015   5.946 -0.7761 -1.4931  1.4521
11494SOL     OW35965   0.057   2.516   8.045 -0.1328 -0.2195 -0.4573
11494SOL    HW135966   0.042   2.509   7.951  0.2969  0.3329 -0.5717
11494SOL    HW235967   0.042   2.608   8.065  0.0520 -0.2790 -0.0382
11495SOL     OW35968   5.211   2.901   0.128 -0.4759  0.2904  0.0799
11495SOL    HW135969   5.128   2.899   0.082 -0.9174  2.6162  0.7010
11495SOL    HW235970   5.204   2.975   0.188  1.1315 -0.9591  1.8982
11496SOL     OW35971   6.157   8.087   2.430  0.1613 -0.4325 -0.0915
11496SOL    HW135972   6.124   8.093   2.340 -1.0062 -0.1810  0.3391
11496SOL    HW235973   6.228   8.150   2.433  0.6487 -0.9247 -1.0260
11497SOL     OW35974   1.131   2.053   6.798  0.0525 -0.1692 -0.1653
11497SOL    HW135975   1.090   1.966   6.801 -2.0653  0.8491  3.2975
11497SOL    HW235976   1.110   2.087   6.711 -0.9652 -2.2537 -0.7617
11498SOL     OW35977   7.468   3.023   8.227  0.0552 -0.7280  0.2052
11498SOL    HW135978   7.547   3.049   8.178 -1.0995  4.0462  0.6860
11498SOL    HW235979   7.491   3.037   8.319 -1.5144  1.2533  0.3165
11499SOL     OW35980   6.694   0.398   6.858 -0.3035 -0.1896  0.0457
11499SOL    HW135981   6.616   0.430   6.904 -0.8520 -1.0809 -0.2556
11499SOL    HW235982   6.693   0.303   6.871  0.6058 -0.2368 -0.1607
11500SOL     OW35983   1.513   6.330   2.440 -0.6492 -0.1444  0.6297
11500SOL    HW135984   1.498   6.239   2.415  1.5661  0.1169 -1.9611
11500SOL    HW235985   1.441   6.378   2.399 -1.1079 -0.5854  0.9148
11501SOL     OW35986   2.390   3.257   5.589 -0.0251  0.0251 -0.4643
11501SOL    HW135987   2.333   3.324   5.626 -0.7624 -1.4654  1.1802
11501SOL    HW235988   2.378   3.265   5.495 -0.8631  1.5446 -0.2496
11502SOL     OW35989   5.564   0.581   4.564  0.1364  0.2601 -0.2404
11502SOL    HW135990   5.518   0.595   4.481 -1.0674 -0.4798  0.2927
11502SOL    HW235991   5.541   0.658   4.617 -1.7599 -0.8516  0.5833
11503SOL     OW35992   7.390   5.350   4.605  0.0613 -0.4158 -0.2863
11503SOL    HW135993   7.296   5.335   4.619  0.3186 -2.6933 -0.7590
11503SOL    HW235994   7.399   5.445   4.600 -1.7937 -0.0093  2.6794
11504SOL     OW35995   4.297   2.886   6.344  0.4629  0.4336  0.6281
11504SOL    HW135996   4.243   2.853   6.272 -0.1286  0.5694  1.0038
11504SOL    HW235997   4.306   2.811   6.403  3.6340 -0.6580 -1.1050
11505SOL     OW35998   7.155   1.653   7.985  0.4321  0.0033 -0.9601
11505SOL    HW135999   7.171   1.597   8.062 -0.1551 -0.2453 -1.0155
11505SOL    HW236000   7.120   1.593   7.919 -0.5843  0.5164 -0.8864
11506SOL     OW36001   4.593   0.127   0.844  0.3162 -0.1526  0.4393
11506SOL    HW136002   4.547   0.130   0.760  0.7930 -2.4077  0.0622
11506SOL    HW236003   4.672   0.076   0.826  0.4307 -0.6555  2.2457
11507SOL     OW36004   7.936   2.041   6.818  0.5597 -0.4735 -0.5988
11507SOL    HW136005   7.953   1.951   6.847 -0.7602 -0.5170  0.0843
11507SOL    HW236006   8.006   2.092   6.857  1.4567 -1.2394 -1.1900
11508SOL     OW36007   4.138   0.087   1.361 -0.6275 -0.1648  0.4505
11508SOL    HW136008   4.185   0.160   1.322 -1.0219  0.9416  2.0153
11508SOL    HW236009   4.068   0.067   1.299 -0.0468  0.2599 -0.3502
11509SOL     OW36010   3.150   2.286   0.593  0.3049  0.5205 -0.2440
11509SOL    HW136011   3.087   2.328   0.652  0.9215  2.5106 -0.9664
11509SOL    HW236012   3.150   2.341   0.515  0.4216 -1.3911 -1.6302
11510SOL     OW36013   6.751   0.973   2.224 -0.7245  0.2237  0.0785
11510SOL    HW136014   6.776   0.995   2.314  0.1236 -2.3562  0.5080
11510SOL    HW236015   6.825   1.004   2.171 -0.6295  0.5575  0.4000
11511SOL     OW36016   5.103   0.959   2.073 -0.2689 -0.5513 -0.3980
11511SOL    HW136017   5.101   0.975   1.979  1.5094 -0.4023 -0.4236
11511SOL    HW236018   5.105   1.046   2.113 -1.6878 -0.6006 -0.1816
11512SOL     OW36019   0.346   6.041   2.562  0.4060 -0.1450  0.0098
11512SOL    HW136020   0.424   6.063   2.612 -0.3369 -0.7455  1.4711
11512SOL    HW236021   0.339   5.946   2.569 -0.3962 -0.1064 -0.2180
11513SOL     OW36022   8.137   7.578   2.309  0.3676 -0.1213  0.4108
11513SOL    HW136023   8.071   7.619   2.254  0.0390 -2.0271 -0.6470
11513SOL    HW236024   8.199   7.649   2.329 -1.7581  1.6059  1.1100
11514SOL     OW36025   2.368   2.855   5.681 -0.0813  0.4332  0.2081
11514SOL    HW136026   2.444   2.896   5.721 -0.7333  2.2848 -0.4003
11514SOL    HW236027   2.297   2.872   5.743 -0.4360  0.5237 -0.2250
11515SOL     OW36028   3.618   3.767   4.998 -0.0951 -0.2904  0.0493
11515SOL    HW136029   3.534   3.736   4.963 -0.8056  1.3374  0.2753
11515SOL    HW236030   3.652   3.692   5.046 -0.2520 -1.7953 -2.0634
11516SOL     OW36031   8.054   1.311   3.908  0.6821 -0.8197 -0.0589
11516SOL    HW136032   8.087   1.356   3.985  0.7768  1.6581 -1.5125
11516SOL    HW236033   8.001   1.239   3.943  1.6737 -0.4450  2.2868
11517SOL     OW36034   2.187   6.238   3.969 -0.1141  0.4901  0.3268
11517SOL    HW136035   2.175   6.244   4.063  0.5644 -3.6531  0.7746
11517SOL    HW236036   2.126   6.170   3.940  2.3887 -1.0982 -1.5474
11518SOL     OW36037   1.991   8.291   2.548 -0.4002 -0.5414  0.0957
11518SOL    HW136038   1.956   8.279   2.459  0.0257 -0.3386 -0.0987
11518SOL    HW236039   1.930   8.243   2.604 -1.9567  1.2162 -0.0504
11519SOL     OW36040   3.001   7.618   3.519 -0.1048  0.2609 -0.0754
11519SOL    HW136041   2.970   7.610   3.609 -2.2040 -0.3832 -0.8255
11519SOL    HW236042   3.082   7.567   3.517 -0.7873 -0.9039  1.1044
11520SOL     OW36043   6.916   1.065   2.738  0.2065  0.1822 -0.0541
11520SOL    HW136044   6.854   1.057   2.810  1.9404  3.6223  1.9656
11520SOL    HW236045   6.861   1.080   2.661 -1.5812 -0.6125  1.0339
11521SOL     OW36046   0.540   1.534   4.239  0.4165 -0.0924 -0.0851
11521SOL    HW136047   0.613   1.595   4.227 -0.4219  0.7470 -1.0655
11521SOL    HW236048   0.481   1.554   4.166 -1.2207 -0.1367  1.1982
11522SOL     OW36049   4.201   1.949   0.278 -0.2595  0.0070  0.3577
11522SOL    HW136050   4.188   1.870   0.332  0.0329 -2.4102 -2.9341
11522SOL    HW236051   4.295   1.952   0.262 -0.3800  0.4935 -0.2885
11523SOL     OW36052   0.597   1.740   6.930 -0.2584  0.3176 -0.3057
11523SOL    HW136053   0.586   1.683   6.854 -0.9051 -2.4437  1.8019
11523SOL    HW236054   0.508   1.769   6.952 -0.4714 -1.5197  1.3416
11524SOL     OW36055   3.743   2.199   5.942  0.8204  0.0186 -0.0069
11524SOL    HW136056   3.686   2.247   6.002 -0.0436 -0.5404 -0.3866
11524SOL    HW236057   3.787   2.134   5.998  0.0917 -0.4318  0.0448
11525SOL     OW36058   2.548   5.110   7.206 -0.1645 -0.2217  0.2978
11525SOL    HW136059   2.584   5.110   7.295  3.6046  0.7371 -1.1439
11525SOL    HW236060   2.507   5.196   7.196  0.1952  0.0094  0.8087
11526SOL     OW36061   3.473   0.564   2.922 -0.1135  0.2046  0.2499
11526SOL    HW136062   3.379   0.582   2.924 -0.4718 -1.1558 -2.3736
11526SOL    HW236063   3.514   0.651   2.925 -1.5130  0.9230 -1.1574
11527SOL     OW36064   1.820   1.848   6.297 -0.5451  0.2868 -0.0432
11527SOL    HW136065   1.798   1.819   6.208  0.0273 -1.5127  0.3828
11527SOL    HW236066   1.739   1.886   6.331 -0.8382  0.7479 -1.2359
11528SOL     OW36067   8.120   8.301   1.388  0.1168 -0.1012  0.3773
11528SOL    HW136068   8.172   8.318   1.466 -2.3235  3.5180  1.3462
11528SOL    HW236069   8.170   8.341   1.317  0.6675 -0.3030  0.6493
11529SOL     OW36070   0.913   2.894   2.534 -0.1160 -0.3809  0.0771
11529SOL    HW136071   0.865   2.819   2.568 -0.3531  0.0001  0.5844
11529SOL    HW236072   1.004   2.864   2.529 -0.0316 -0.3447  1.3245
11530SOL     OW36073   6.018   5.328   2.025  0.4925  0.5674  0.1053
11530SOL    HW136074   6.089   5.301   1.967  0.8980 -1.5179  1.5413
11530SOL    HW236075   6.060   5.383   2.091  1.4377 -3.3808  2.9184
11531SOL     OW36076   8.212   7.307   0.752 -0.0547  0.4210  0.0837
11531SOL    HW136077   8.118   7.293   0.736  0.0074  1.3357 -1.1807
11531SOL    HW236078   8.246   7.221   0.776 -1.6279  0.4679  2.6689
11532SOL     OW36079   4.828   3.164   6.364  0.1944  0.3787  0.1032
11532SOL    HW136080   4.865   3.082   6.331 -2.1566 -1.3065  1.4295
11532SOL    HW236081   4.857   3.168   6.455  1.4030  1.7389 -0.3273
11533SOL     OW36082   6.856   3.919   2.682  0.2915 -0.3011 -0.9546
11533SOL    HW136083   6.865   3.917   2.778 -3.0060  3.5288 -0.4199
11533SOL    HW236084   6.928   3.975   2.652  1.3781 -1.5712 -0.7917
11534SOL     OW36085   7.256   0.020   4.674  0.2995 -0.3483  0.6069
11534SOL    HW136086   7.184   0.083   4.681  0.6597  0.2437 -0.9913
11534SOL    HW236087   7.323   0.053   4.734 -0.7987 -0.9878  2.2243
11535SOL     OW36088   2.346   3.233   1.974  0.7676  0.3325 -0.5260
11535SOL    HW136089   2.384   3.148   1.949 -0.1871 -0.5477  0.9692
11535SOL    HW236090   2.253   3.225   1.953  0.6035  0.8746 -0.0036
11536SOL     OW36091   5.296   8.060   0.013  0.1399 -0.0445  0.5805
11536SOL    HW136092   5.345   8.109   0.079  2.1953 -0.9019 -0.2462
11536SOL    HW236093   5.352   8.062  -0.065  0.8664 -4.6421  0.8650
11537SOL     OW36094   8.285   0.241   4.953 -0.2719  0.1017  0.5996
11537SOL    HW136095   8.297   0.320   4.901  1.6114 -0.1866  0.5598
11537SOL    HW236096   8.310   0.267   5.042 -0.1807 -0.3101  0.6935
11538SOL     OW36097   4.310   0.496   6.777  0.1723  0.9752  0.2378
11538SOL    HW136098   4.278   0.582   6.806 -1.7216  0.4064 -0.0748
11538SOL    HW236099   4.386   0.516   6.723 -0.0616  2.4517  0.4256
11539SOL     OW36100   1.718   0.593   2.809  0.1537  0.6894 -0.5726
11539SOL    HW136101   1.629   0.618   2.784 -1.0287 -1.7040  1.0730
11539SOL    HW236102   1.772   0.619   2.734 -2.0579  1.2807 -2.0161
11540SOL     OW36103   4.851   6.295   5.844 -0.1451 -0.2873 -0.0155
11540SOL    HW136104   4.905   6.367   5.876  0.4421 -1.5851  2.0323
11540SOL    HW236105   4.885   6.274   5.758 -0.2887  1.8308 -0.6138
11541SOL     OW36106   4.235   4.925   2.806  0.2844  0.5592  0.0215
11541SOL    HW136107   4.201   4.926   2.716 -1.3900 -2.9730  0.5188
11541SOL    HW236108   4.315   4.977   2.802 -0.5180  1.7005 -3.1775
11542SOL     OW36109   3.092   7.684   4.812  0.3443 -0.3913  0.4370
11542SOL    HW136110   3.037   7.712   4.885 -0.0358 -2.3308  0.9325
11542SOL    HW236111   3.105   7.590   4.827  0.6131 -0.7201 -1.7626
11543SOL     OW36112   7.254   6.820   7.483 -0.2784  0.0155  0.6167
11543SOL    HW136113   7.338   6.785   7.514 -0.0247  0.7361  0.7464
11543SOL    HW236114   7.268   6.915   7.479 -0.1325 -0.0926 -2.2750
11544SOL     OW36115   3.853   4.393   5.370  0.3824 -0.0231 -0.4485
11544SOL    HW136116   3.900   4.468   5.406  0.2514 -0.3395  0.3845
11544SOL    HW236117   3.919   4.344   5.322  0.9674 -0.5893  0.9080
11545SOL     OW36118   1.277   4.322   6.998 -0.3412 -0.5639 -0.2687
11545SOL    HW136119   1.211   4.274   7.048  2.1179 -0.4383  3.3313
11545SOL    HW236120   1.235   4.406   6.978 -1.5855 -0.7724  1.2875
11546SOL     OW36121   0.522   2.641   0.526 -0.1556 -0.1808  0.3365
11546SOL    HW136122   0.455   2.699   0.489 -0.9565 -0.5862  1.1398
11546SOL    HW236123   0.603   2.690   0.515 -0.5681  0.3156 -0.6551
11547SOL     OW36124   6.894   2.259   4.874  0.2100  0.2132  0.5450
11547SOL    HW136125   6.812   2.250   4.923 -0.6216 -1.2839 -1.0525
11547SOL    HW236126   6.867   2.273   4.783  1.6329 -3.4256 -0.5679
11548SOL     OW36127   7.760   5.153   3.175 -0.2011 -0.1125 -0.5590
11548SOL    HW136128   7.765   5.229   3.116  0.1514 -0.7419 -1.3444
11548SOL    HW236129   7.851   5.126   3.187 -0.3115 -0.2804 -0.1048
11549SOL     OW36130   5.626   7.781   7.507 -0.4476  0.2977 -0.5292
11549SOL    HW136131   5.572   7.726   7.449 -0.9662  0.1339  0.1086
11549SOL    HW236132   5.711   7.783   7.464 -0.9924  0.6658 -1.6201
11550SOL     OW36133   2.526   5.389   0.244  0.0538  0.3544 -0.2500
11550SOL    HW136134   2.446   5.374   0.193 -0.6573 -0.9023  1.1830
11550SOL    HW236135   2.580   5.445   0.188 -0.3359 -1.6278 -2.7305
11551SOL     OW36136   1.079   7.089   2.878 -0.1696 -0.1492  0.3575
11551SOL    HW136137   1.071   7.080   2.783 -0.4487  1.6478  0.1894
11551SOL    HW236138   1.064   7.001   2.912 -1.6180 -0.5089 -1.1628
11552SOL     OW36139   6.165   1.593   5.044 -0.7176  0.8443 -0.2720
11552SOL    HW136140   6.106   1.668   5.052 -0.2629  1.0544  1.2454
11552SOL    HW236141   6.138   1.549   4.964 -1.0626  2.5743 -1.1239
11553SOL     OW36142   1.108   3.084   3.424 -0.0627 -0.1964 -0.0633
11553SOL    HW136143   1.019   3.075   3.459 -0.7555  1.2640 -1.3871
11553SOL    HW236144   1.099   3.063   3.331  0.8116  0.7400 -0.3634
11554SOL     OW36145   5.576   2.722   2.724 -0.1478 -0.0209 -0.1523
11554SOL    HW136146   5.626   2.664   2.666  0.2658 -1.4981  1.6176
11554SOL    HW236147   5.633   2.798   2.736  0.6552 -0.6357 -0.0311
11555SOL     OW36148   5.005   2.349   2.339  0.2018 -0.0678  0.0011
11555SOL    HW136149   5.057   2.427   2.318 -0.5055  0.8412  1.4875
11555SOL    HW236150   4.916   2.371   2.309 -0.0485 -0.2150  0.6325
11556SOL     OW36151   6.740   4.937   7.559 -0.1805  0.1097 -0.1465
11556SOL    HW136152   6.751   4.867   7.623  1.9349 -0.4456 -1.0726
11556SOL    HW236153   6.671   4.905   7.500  0.3893 -0.9561 -0.2468
11557SOL     OW36154   5.192   6.669   5.871 -0.2884 -0.0608 -0.3022
11557SOL    HW136155   5.282   6.637   5.868 -0.3564 -0.3032  0.2771
11557SOL    HW236156   5.173   6.695   5.781  1.6813  3.6237  0.2086
11558SOL     OW36157   2.344   6.447   4.950 -0.0600  0.4589 -0.2347
11558SOL    HW136158   2.305   6.393   4.881  0.5909 -0.5862  0.1997
11558SOL    HW236159   2.281   6.517   4.965 -1.7953 -1.2154  0.4776
11559SOL     OW36160   3.137   0.333   2.632 -0.4166 -0.6804 -0.5980
11559SOL    HW136161   3.186   0.395   2.578 -1.0066 -1.8984 -2.6116
11559SOL    HW236162   3.051   0.373   2.643 -0.2597 -0.3796 -0.4590
11560SOL     OW36163   7.837   3.509   0.656 -0.2747  0.0740  0.7856
11560SOL    HW136164   7.879   3.535   0.575  0.8664  0.5899  1.5356
11560SOL    HW236165   7.748   3.485   0.630  0.3015 -0.5155 -0.7234
11561SOL     OW36166   5.877   7.328   0.521 -0.3011 -0.0141 -0.4498
11561SOL    HW136167   5.946   7.392   0.536 -1.8335  1.2192  1.6506
11561SOL    HW236168   5.807   7.379   0.478 -1.3356 -0.3618  0.7931
11562SOL     OW36169   5.268   8.042   3.889  0.5526 -0.0284 -0.0754
11562SOL    HW136170   5.217   8.109   3.842  0.4335  0.0509  0.1701
11562SOL    HW236171   5.347   8.088   3.917  0.2365  0.1361  0.5367
11563SOL     OW36172   1.617   1.889   0.864  0.3194  0.3754  0.4416
11563SOL    HW136173   1.563   1.811   0.850  0.6106  0.0074  1.2815
11563SOL    HW236174   1.615   1.935   0.781  1.1720 -1.1935 -0.4827
11564SOL     OW36175   4.854   6.216   3.694 -0.0282  0.1975 -0.2416
11564SOL    HW136176   4.884   6.130   3.726  0.8258  0.9556  1.0655
11564SOL    HW236177   4.803   6.196   3.616  1.8273 -1.3499 -1.1087
11565SOL     OW36178   2.556   1.390   6.036  0.3267 -0.0326  0.0012
11565SOL    HW136179   2.500   1.467   6.023  2.1602  1.2364 -0.4051
11565SOL    HW236180   2.631   1.404   5.979  0.7623 -2.0492  0.0562
11566SOL     OW36181   1.483   6.659   3.765 -0.2748  0.9703 -0.5119
11566SOL    HW136182   1.444   6.728   3.711  0.1878  1.2797 -0.4566
11566SOL    HW236183   1.540   6.706   3.826 -0.2838  0.5686 -0.1967
11567SOL     OW36184   7.666   3.127   3.123 -0.2093  0.3146 -0.7799
11567SOL    HW136185   7.621   3.104   3.204 -1.1142 -0.4126 -1.4731
11567SOL    HW236186   7.597   3.129   3.057  0.5440  0.7218 -1.5656
11568SOL     OW36187   0.949   5.161   0.453 -0.1807  0.2492  0.1414
11568SOL    HW136188   0.882   5.141   0.518 -1.1452 -0.4837 -1.0630
11568SOL    HW236189   0.921   5.115   0.374  2.0107 -0.5024 -0.2335
11569SOL     OW36190   3.505   1.760   7.316 -0.0526  0.1822  0.1488
11569SOL    HW136191   3.456   1.839   7.291  0.0282  0.2363  0.1628
11569SOL    HW236192   3.441   1.689   7.309 -0.1201  0.2464  0.1169
11570SOL     OW36193   0.571   5.757   3.013  0.0517  0.9332  0.1704
11570SOL    HW136194   0.547   5.833   3.066 -0.2089 -0.0466  1.4997
11570SOL    HW236195   0.594   5.690   3.078  1.3143  0.2162 -0.9939
11571SOL     OW36196   2.843   4.798   5.483  0.2066  0.8257 -0.2072
11571SOL    HW136197   2.759   4.772   5.519  0.5077 -1.8840 -1.3322
11571SOL    HW236198   2.822   4.844   5.402 -0.1846 -0.9611 -1.1428
11572SOL     OW36199   0.196   2.241   0.842 -0.3975  0.1124 -0.3412
11572SOL    HW136200   0.163   2.160   0.802 -1.3848  0.1559  0.3657
11572SOL    HW236201   0.265   2.270   0.783 -1.5698 -0.0322 -1.8412
11573SOL     OW36202   7.878   7.698   2.190  0.3336 -0.3144  0.5604
11573SOL    HW136203   7.859   7.766   2.125 -0.6109 -0.2168  0.9301
11573SOL    HW236204   7.854   7.737   2.273 -1.4215 -1.5367  0.6547
11574SOL     OW36205   7.087   5.794   3.178  0.3034  0.7606  0.2715
11574SOL    HW136206   7.040   5.753   3.106 -1.5713  1.2730  1.1636
11574SOL    HW236207   7.120   5.876   3.141  0.3847  0.4612 -0.3306
11575SOL     OW36208   0.803   6.820   7.113 -0.6703  0.6277 -0.2863
11575SOL    HW136209   0.883   6.845   7.066 -0.6735  1.2496  0.0309
11575SOL    HW236210   0.759   6.757   7.055  1.4248 -1.8790  0.7661
11576SOL     OW36211   1.152   7.356   4.858 -0.3459  0.3092  0.1123
11576SOL    HW136212   1.247   7.355   4.854 -0.3328  0.8408  0.2433
11576SOL    HW236213   1.130   7.445   4.884 -0.8782  0.1746  0.1302
11577SOL     OW36214   1.811   3.753   0.619 -0.3345 -0.0125  0.2077
11577SOL    HW136215   1.809   3.767   0.525 -0.4100  0.0311  0.2161
11577SOL    HW236216   1.782   3.663   0.631 -1.2258  0.2726  0.2555
11578SOL     OW36217   4.588   0.353   7.909 -0.0199 -0.2977  0.1313
11578SOL    HW136218   4.589   0.297   7.986 -0.1745 -0.3303  0.1087
11578SOL    HW236219   4.663   0.411   7.921 -0.1314 -0.2050  0.3771
11579SOL     OW36220   4.555   1.793   7.550  0.7764 -0.2913  0.5184
11579SOL    HW136221   4.541   1.884   7.577  0.8483 -0.6794  1.9073
11579SOL    HW236222   4.580   1.799   7.458 -0.7186  0.9745  0.1772
11580SOL     OW36223   2.880   3.945   8.065 -0.3332 -0.5462  0.2683
11580SOL    HW136224   2.849   3.933   7.975  0.4399 -0.6339  0.0045
11580SOL    HW236225   2.956   3.888   8.071  0.6113  0.7090  0.4499
11581SOL     OW36226   7.636   2.962   1.874  0.0481  0.4426 -0.6413
11581SOL    HW136227   7.667   3.014   1.799  3.1118 -2.1133 -1.3144
11581SOL    HW236228   7.691   2.990   1.947  0.5519 -0.5498 -0.6152
11582SOL     OW36229   3.097   7.922   0.845 -0.0607  0.2230 -0.7642
11582SOL    HW136230   3.074   7.978   0.771 -1.5859 -0.2210 -0.6465
11582SOL    HW236231   3.055   7.964   0.921  0.5366  0.0589 -0.3431
11583SOL     OW36232   0.040   1.964   5.323 -0.1594  0.6877 -0.1376
11583SOL    HW136233   0.123   1.973   5.277  0.2099  0.4782  0.4832
11583SOL    HW236234   0.048   2.021   5.400  0.9071 -2.2459  2.0161
11584SOL     OW36235   0.328   4.119   0.527 -0.4441  0.0577 -0.5510
11584SOL    HW136236   0.292   4.033   0.551  0.7375 -0.1947  0.3184
11584SOL    HW236237   0.403   4.098   0.471  0.1354  0.5195  0.0578
11585SOL     OW36238   1.530   7.693   1.762 -0.1186  0.0049 -0.1633
11585SOL    HW136239   1.526   7.598   1.753 -0.9623  0.1809 -1.7175
11585SOL    HW236240   1.611   7.708   1.811  1.0227 -1.4062 -1.5435
11586SOL     OW36241   4.146   1.482   3.935 -0.0968 -0.4330  0.1055
11586SOL    HW136242   4.167   1.542   4.006 -0.9474 -1.1459  0.9758
11586SOL    HW236243   4.052   1.493   3.921  0.0921 -0.1968 -1.0012
11587SOL     OW36244   4.429   3.523   2.941 -0.9288 -0.4151 -0.4657
11587SOL    HW136245   4.444   3.603   2.890 -1.5639 -0.5781 -0.9163
11587SOL    HW236246   4.495   3.525   3.010 -0.6768  0.2903 -0.7299
11588SOL     OW36247   0.400   0.908   2.204  0.5424 -0.1856  0.3954
11588SOL    HW136248   0.436   0.995   2.192 -0.8170  0.4986  1.1656
11588SOL    HW236249   0.305   0.921   2.207  0.1589 -1.9587 -1.8850
11589SOL     OW36250   1.426   4.844   5.634  0.2619 -0.0312  1.2085
11589SOL    HW136251   1.392   4.796   5.709  0.3859  1.1777  2.0696
11589SOL    HW236252   1.428   4.935   5.664  0.3278  0.4597 -0.2643
11590SOL     OW36253   2.446   2.030   1.893 -0.2070  0.5571  0.0604
11590SOL    HW136254   2.434   1.953   1.838  1.5916  0.5335 -0.3256
11590SOL    HW236255   2.477   1.996   1.977 -0.2345  0.7996  0.1696
11591SOL     OW36256   0.512   6.842   0.999 -0.0565 -0.5794 -0.1230
11591SOL    HW136257   0.549   6.877   0.918  0.3987  1.1582  0.8053
11591SOL    HW236258   0.553   6.894   1.069 -0.0848 -2.3460  1.2596
11592SOL     OW36259   4.912   3.454   3.175  0.6761  0.3115 -0.0022
11592SOL    HW136260   4.837   3.474   3.120  0.9435  0.2795 -0.3816
11592SOL    HW236261   4.876   3.442   3.263  0.2037  0.0000 -0.2390
11593SOL     OW36262   2.533   5.789   7.822  0.1263 -0.4731 -0.3181
11593SOL    HW136263   2.526   5.869   7.874  0.4400 -1.5688  1.4381
11593SOL    HW236264   2.593   5.734   7.871 -0.2943 -1.8945 -1.3786
11594SOL     OW36265   4.246   7.718   5.298 -0.0121 -0.2469  0.1922
11594SOL    HW136266   4.306   7.682   5.364  0.2712  0.6737  0.4553
11594SOL    HW236267   4.172   7.751   5.349 -1.0597 -1.9414 -0.1806
11595SOL     OW36268   1.833   2.109   1.226  0.2700 -0.0484  0.7482
11595SOL    HW136269   1.772   2.172   1.188 -0.8666 -0.7372  1.4298
11595SOL    HW236270   1.872   2.064   1.151  0.4185  0.8303  0.2927
11596SOL     OW36271   2.003   2.288   1.347  0.5514 -0.9469  0.0549
11596SOL    HW136272   1.923   2.243   1.317  0.5410 -1.6345  1.0836
11596SOL    HW236273   1.971   2.360   1.401  0.6141 -1.1391  0.3527
11597SOL     OW36274   2.898   3.595   0.828 -0.0173  0.3614  0.4219
11597SOL    HW136275   2.902   3.677   0.876  1.4455  0.2509  0.5264
11597SOL    HW236276   2.947   3.611   0.747 -1.1192  0.0768 -0.3095
11598SOL     OW36277   3.729   2.978   3.002 -0.1882 -0.0700 -0.4406
11598SOL    HW136278   3.773   2.981   2.917  2.6750 -0.1172  0.9554
11598SOL    HW236279   3.778   3.040   3.057 -2.8676  1.0342  0.8126
11599SOL     OW36280   8.215   4.683   8.259  0.1922  0.1743  0.0712
11599SOL    HW136281   8.192   4.723   8.343  1.3894 -0.7482  0.8639
11599SOL    HW236282   8.241   4.757   8.204 -0.2699  0.7508  0.6200
11600SOL     OW36283   2.572   1.308   3.126  0.5791 -0.2779 -0.1936
11600SOL    HW136284   2.644   1.337   3.070  1.2512 -0.2568  0.6650
11600SOL    HW236285   2.552   1.385   3.180  0.3789 -0.4994  0.0493
11601SOL     OW36286   1.206   2.967   3.015 -0.0097  0.6044  0.1598
11601SOL    HW136287   1.202   2.884   2.968  1.6380 -0.2358  1.4640
11601SOL    HW236288   1.134   2.963   3.078  0.5015 -0.1568  0.7034
11602SOL     OW36289   4.951   8.071   1.495  0.4570  0.3219 -0.6124
11602SOL    HW136290   5.001   7.991   1.479 -0.2910 -0.5021  0.9953
11602SOL    HW236291   4.860   8.041   1.500  0.2782  1.0708  1.1024
11603SOL     OW36292   3.282   2.098   3.662 -0.0032  0.2664  0.3931
11603SOL    HW136293   3.337   2.128   3.590  1.4175 -1.9773  0.5071
11603SOL    HW236294   3.342   2.091   3.736 -1.2216  1.4533  1.5050
11604SOL     OW36295   6.502   4.430   4.037 -0.1946 -0.1207  0.0559
11604SOL    HW136296   6.581   4.474   4.069 -1.7116  1.7658  1.3587
11604SOL    HW236297   6.489   4.466   3.949 -1.1451  1.7484  0.9233
11605SOL     OW36298   2.403   5.034   2.571  0.3635 -0.5658 -0.2991
11605SOL    HW136299   2.441   5.073   2.650  0.4933 -2.3786  0.5581
11605SOL    HW236300   2.461   5.062   2.500  0.0586  1.3596  0.1928
11606SOL     OW36301   5.570   3.859   1.801  0.1683  0.6278 -0.2651
11606SOL    HW136302   5.531   3.889   1.718 -0.9504 -0.4355 -0.1411
11606SOL    HW236303   5.622   3.933   1.831 -1.2763  1.8842 -0.7633
11607SOL     OW36304   5.838   1.053   3.576  0.6000 -0.4560  0.0945
11607SOL    HW136305   5.846   0.986   3.643 -1.3473 -0.3120  0.5058
11607SOL    HW236306   5.772   1.114   3.610 -0.0306 -0.0908 -1.6768
11608SOL     OW36307   0.587   0.154   6.249 -0.3162 -0.6357  0.5129
11608SOL    HW136308   0.633   0.095   6.189 -1.5271 -0.1949 -0.8735
11608SOL    HW236309   0.556   0.097   6.319  1.8684 -1.0225  1.2111
11609SOL     OW36310   3.323   5.586   7.925 -0.1796 -0.3771 -0.0627
11609SOL    HW136311   3.366   5.523   7.983  0.6793  0.5597  0.3395
11609SOL    HW236312   3.369   5.669   7.941 -2.3563  0.7647  0.6684
11610SOL     OW36313   5.250   1.360   2.369  0.3698 -0.0785  0.5753
11610SOL    HW136314   5.173   1.304   2.380  1.2553 -1.2518  0.9811
11610SOL    HW236315   5.216   1.442   2.336 -1.0296 -0.6851  0.4805
11611SOL     OW36316   1.421   5.720   2.253 -0.0899  0.0403 -0.4201
11611SOL    HW136317   1.416   5.725   2.348 -2.4154 -0.2538 -0.5028
11611SOL    HW236318   1.436   5.627   2.234 -0.7593 -0.0806 -0.3710
11612SOL     OW36319   6.979   7.335   7.085  0.0510  0.0511 -0.4985
11612SOL    HW136320   6.995   7.396   7.013  1.5461  0.8335  0.4823
11612SOL    HW236321   6.919   7.383   7.143  0.6182  0.3003 -0.1125
11613SOL     OW36322   2.093   3.895   1.701  0.0967 -0.2580  0.3092
11613SOL    HW136323   2.034   3.960   1.664  1.4083  0.9427  0.2884
11613SOL    HW236324   2.149   3.869   1.628  0.6660 -0.1756  0.7166
11614SOL     OW36325   6.304   1.105   6.397 -0.7696  0.4532 -0.0521
11614SOL    HW136326   6.363   1.145   6.460  0.5600  0.3014 -1.1535
11614SOL    HW236327   6.253   1.178   6.361 -1.0737  0.6222  0.7280
11615SOL     OW36328   7.372   6.280   4.529  0.1142  0.4926  0.5589
11615SOL    HW136329   7.416   6.218   4.471 -2.0536  0.1651 -0.8005
11615SOL    HW236330   7.308   6.324   4.473  0.0963  2.3796  2.0197
11616SOL     OW36331   3.881   0.049   4.706 -0.3665  0.0434  0.3580
11616SOL    HW136332   3.837   0.132   4.689 -0.0444 -0.0573 -1.0540
11616SOL    HW236333   3.953   0.047   4.643 -0.0752 -1.0855  0.7108
11617SOL     OW36334   4.060   0.483   1.739  0.5604  0.4025  0.3976
11617SOL    HW136335   4.109   0.532   1.673  0.0298  2.4762  1.5117
11617SOL    HW236336   4.081   0.527   1.822 -1.0753 -0.3683  1.2323
11618SOL     OW36337   4.279   5.124   3.831  0.1034 -0.3990 -0.3943
11618SOL    HW136338   4.240   5.129   3.919 -1.0849 -2.8306 -0.7256
11618SOL    HW236339   4.372   5.108   3.848  0.1700  0.7595  0.4090
11619SOL     OW36340   6.967   6.887   0.399 -0.0547  0.3900 -0.0587
11619SOL    HW136341   6.899   6.870   0.334  0.1456  0.5101 -0.3035
11619SOL    HW236342   6.927   6.949   0.460 -0.9013 -1.2278  1.0493
11620SOL     OW36343   4.966   7.284   3.598 -1.0724  0.4217 -0.2319
11620SOL    HW136344   5.018   7.362   3.616 -2.2397  1.0720  0.3264
11620SOL    HW236345   4.949   7.288   3.504 -0.1943  0.2409 -0.4076
11621SOL     OW36346   4.187   0.798   2.851  0.1010  0.0714  0.4152
11621SOL    HW136347   4.166   0.882   2.811 -0.0925  0.1629  0.7111
11621SOL    HW236348   4.118   0.739   2.820 -0.3803  0.2779  1.0666
11622SOL     OW36349   5.783   3.527   3.937  0.5498  0.1007  0.3603
11622SOL    HW136350   5.723   3.476   3.883  1.4829  0.2429 -0.8318
11622SOL    HW236351   5.831   3.462   3.988  1.1521 -0.1547 -0.5417
11623SOL     OW36352   4.817   0.725   1.068  0.1344 -0.2855 -0.1212
11623SOL    HW136353   4.817   0.751   0.975 -1.4535 -1.7662 -0.5583
11623SOL    HW236354   4.900   0.679   1.080  0.1675 -0.4472 -0.9207
11624SOL     OW36355   4.992   7.614   0.044 -0.0137  0.3593 -0.2769
11624SOL    HW136356   4.960   7.583  -0.041 -0.6491 -2.5570  0.9799
11624SOL    HW236357   5.060   7.678   0.021 -1.1942  0.7386 -2.9669
11625SOL     OW36358   2.621   7.277   1.587 -0.7982 -0.0905  0.0268
11625SOL    HW136359   2.711   7.280   1.620 -0.4966  0.8558 -0.8320
11625SOL    HW236360   2.585   7.196   1.622 -0.0412  0.1827  1.4969
11626SOL     OW36361   5.458   5.966   5.857 -0.0375  0.4280 -0.0350
11626SOL    HW136362   5.542   5.994   5.820 -0.3532  1.6770  0.1726
11626SOL    HW236363   5.471   5.971   5.952 -0.5177  1.1533 -0.0067
11627SOL     OW36364   2.931   1.652   5.719  0.0127 -0.5419 -0.2263
11627SOL    HW136365   2.890   1.607   5.645  3.1580 -1.8631 -1.2616
11627SOL    HW236366   2.926   1.589   5.791  0.3254 -0.7654 -0.3964
11628SOL     OW36367   2.246   1.748   6.643 -0.1754  0.1538 -0.7919
11628SOL    HW136368   2.299   1.765   6.565 -0.2454  0.7608 -0.7129
11628SOL    HW236369   2.159   1.730   6.609 -0.6173  2.1168 -0.7938
11629SOL     OW36370   2.704   0.031   0.504 -0.1668  0.0588  0.3132
11629SOL    HW136371   2.722  -0.007   0.590 -0.8176  0.4932  0.6478
11629SOL    HW236372   2.720   0.125   0.516 -0.7068  0.1843  0.0908
11630SOL     OW36373   4.992   6.567   3.016 -0.2680  0.6087  0.5378
11630SOL    HW136374   5.076   6.527   2.994 -0.5463 -0.3817  1.2170
11630SOL    HW236375   4.978   6.545   3.109 -1.8890 -0.3931  0.0823
11631SOL     OW36376   3.946   2.779   3.289 -0.0975 -0.6214  0.1263
11631SOL    HW136377   4.017   2.827   3.246 -0.6919 -0.2370 -0.4467
11631SOL    HW236378   3.969   2.687   3.276 -0.3563 -0.5161 -1.2030
11632SOL     OW36379   4.103   0.745   4.084 -0.4278  0.0379  0.0257
11632SOL    HW136380   4.070   0.690   4.013 -0.1228 -0.8165  0.5424
11632SOL    HW236381   4.093   0.834   4.051 -2.1454 -0.2504 -0.3059
11633SOL     OW36382   3.928   2.766   2.464  0.0613 -0.1509  0.1867
11633SOL    HW136383   3.903   2.848   2.505  1.4866  1.0641 -1.3224
11633SOL    HW236384   3.976   2.792   2.385 -0.1516 -2.4186 -0.7320
11634SOL     OW36385   1.357   7.621   5.925  0.4374 -0.1292 -0.7388
11634SOL    HW136386   1.413   7.674   5.868  1.2578 -0.6425 -0.4178
11634SOL    HW236387   1.407   7.611   6.006 -0.5941  0.3463 -0.0283
11635SOL     OW36388   7.246   7.717   1.951 -0.2026 -0.2672 -0.2477
11635SOL    HW136389   7.177   7.662   1.914 -1.2713  0.9726 -0.1333
11635SOL    HW236390   7.280   7.767   1.876  0.0147 -0.2762 -0.1571
11636SOL     OW36391   7.453   5.279   2.647 -0.3565 -0.2603 -0.5538
11636SOL    HW136392   7.505   5.201   2.664 -1.5161 -0.7020  1.1477
11636SOL    HW236393   7.384   5.277   2.714 -1.2228  1.4832 -1.3496
11637SOL     OW36394   0.815   0.723   7.918 -0.5965 -0.0470  0.0385
11637SOL    HW136395   0.745   0.786   7.899 -0.3177 -0.7195 -3.6574
11637SOL    HW236396   0.784   0.640   7.882  0.4617 -1.3005  1.9008
11638SOL     OW36397   7.967   5.764   4.266  0.0145 -0.1896  0.1865
11638SOL    HW136398   8.004   5.799   4.346  0.2048 -1.0512  0.4783
11638SOL    HW236399   7.933   5.841   4.219  1.4151  0.5108  0.2932
11639SOL     OW36400   5.363   0.970   3.102  0.1472  0.2840 -0.2733
11639SOL    HW136401   5.348   0.900   3.038  0.6390 -0.1845  0.1211
11639SOL    HW236402   5.444   1.012   3.074  0.3229  0.1263 -0.0043
11640SOL     OW36403   6.337   0.863   1.611  0.5937  0.3553 -0.2811
11640SOL    HW136404   6.369   0.953   1.619  1.6629 -0.0735  0.3746
11640SOL    HW236405   6.326   0.833   1.701  0.7824 -0.3596 -0.4943
11641SOL     OW36406   1.481   1.665   7.416  0.1053 -0.0234  0.2017
11641SOL    HW136407   1.443   1.753   7.418 -0.7248 -0.3497 -0.8298
11641SOL    HW236408   1.454   1.629   7.332 -0.7769 -1.7997  1.2211
11642SOL     OW36409   0.855   3.206   5.821  0.1520 -0.3515 -0.8487
11642SOL    HW136410   0.899   3.254   5.751 -0.7370  0.0286 -1.1528
11642SOL    HW236411   0.925   3.183   5.882  0.5521  1.6214 -0.5214
11643SOL     OW36412   7.093   5.943   2.234 -0.0036  0.5001 -0.0125
11643SOL    HW136413   7.068   6.031   2.261  0.8249  0.4008  1.1493
11643SOL    HW236414   7.125   5.902   2.315  1.1390 -0.3243 -0.8715
11644SOL     OW36415   3.076   5.191   3.728 -0.2854 -0.3294 -0.3897
11644SOL    HW136416   3.066   5.162   3.637  1.8337 -2.3306 -0.0142
11644SOL    HW236417   3.024   5.129   3.778  0.1865 -0.4238 -0.0261
11645SOL     OW36418   1.001   4.375   0.217  0.0265  0.3247  0.3341
11645SOL    HW136419   1.025   4.408   0.303  0.2154  0.5161  0.2072
11645SOL    HW236420   1.015   4.448   0.158  1.4179 -0.2736 -0.0982
11646SOL     OW36421   4.372   2.282   0.099  0.1811 -0.0936  0.0318
11646SOL    HW136422   4.277   2.286   0.088  0.3574  0.3304 -1.4386
11646SOL    HW236423   4.397   2.198   0.061  0.4642  0.0637 -0.1302
11647SOL     OW36424   6.399   4.995   8.212 -0.4586  0.0412  0.5104
11647SOL    HW136425   6.332   5.054   8.248 -0.8166 -0.9116  1.4174
11647SOL    HW236426   6.349   4.932   8.160  0.1373  2.1012 -2.7196
11648SOL     OW36427   0.622   1.225   0.561 -0.3629  0.2569  0.5251
11648SOL    HW136428   0.530   1.233   0.587 -0.4912 -0.0889  0.1827
11648SOL    HW236429   0.623   1.248   0.468  0.2226  2.2800  0.9981
11649SOL     OW36430   5.515   5.727   3.761  0.0992 -0.2025 -0.1209
11649SOL    HW136431   5.535   5.658   3.698 -2.3815 -0.5048 -0.6241
11649SOL    HW236432   5.471   5.682   3.834  1.0649  0.4409  0.8813
11650SOL     OW36433   3.533   2.886   3.562  0.3610 -0.3157  0.0397
11650SOL    HW136434   3.617   2.854   3.529 -0.3533 -1.1850 -0.9570
11650SOL    HW236435   3.469   2.857   3.497 -0.4871  1.9251 -0.1615
11651SOL     OW36436   0.271   7.977   7.385  0.2346  1.0414 -0.2038
11651SOL    HW136437   0.236   7.963   7.297  0.4683  1.0112 -0.2913
11651SOL    HW236438   0.209   7.932   7.442  1.0154 -0.4123 -0.4851
11652SOL     OW36439   4.047   3.388   2.229  0.0850 -0.1562  0.4777
11652SOL    HW136440   4.038   3.458   2.294 -0.4958  0.1082  0.1137
11652SOL    HW236441   4.138   3.358   2.238  0.3621  0.7053  0.5687
11653SOL     OW36442   6.539   7.396   5.897  0.4633 -0.6616  0.1385
11653SOL    HW136443   6.496   7.338   5.833 -1.6189 -0.7558  1.5830
11653SOL    HW236444   6.497   7.374   5.980  1.4403  1.1714  1.1233
11654SOL     OW36445   7.596   3.645   0.297 -0.3343  0.1016 -0.2242
11654SOL    HW136446   7.559   3.733   0.309 -0.4428  0.2172 -1.3576
11654SOL    HW236447   7.534   3.600   0.240  1.3780  0.3865 -2.3884
11655SOL     OW36448   7.971   7.924   7.116  0.4373 -0.1165 -0.0309
11655SOL    HW136449   7.978   7.889   7.027  1.5177  1.8717 -0.7591
11655SOL    HW236450   8.007   7.855   7.172 -2.0138 -2.1837 -0.8955
11656SOL     OW36451   7.868   5.527   0.080 -0.7889  0.0629 -0.3971
11656SOL    HW136452   7.774   5.520   0.065 -1.1836  0.6098  1.6910
11656SOL    HW236453   7.894   5.441   0.114 -0.6017  0.0465 -0.5772
11657SOL     OW36454   2.777   8.161   6.577  0.0898 -0.1747 -0.7311
11657SOL    HW136455   2.770   8.156   6.482  1.5894  1.0171 -0.9230
11657SOL    HW236456   2.864   8.125   6.597 -1.1469 -2.6382  0.3996
11658SOL     OW36457   2.085   2.402   7.557 -0.1155  0.0430 -0.3968
11658SOL    HW136458   2.158   2.436   7.506 -0.1222 -1.7077 -1.6305
11658SOL    HW236459   2.112   2.313   7.580 -0.9673  0.1170  0.9577
11659SOL     OW36460   5.402   3.944   7.407 -0.2018  0.0932  0.0419
11659SOL    HW136461   5.447   3.862   7.426 -2.2962 -0.9692  0.5760
11659SOL    HW236462   5.446   3.979   7.330  1.9757 -0.5382  0.9629
11660SOL     OW36463   6.168   3.674   3.142 -0.1005  0.1546  0.0533
11660SOL    HW136464   6.212   3.610   3.087  1.3361 -0.4912  1.9023
11660SOL    HW236465   6.076   3.647   3.141  0.2690 -1.1330 -0.2875
11661SOL     OW36466   3.692   7.283   4.944  0.2034 -0.1743  0.5475
11661SOL    HW136467   3.740   7.363   4.965 -1.1813  0.8110 -0.0083
11661SOL    HW236468   3.627   7.274   5.014  0.8387 -1.2198  1.0114
11662SOL     OW36469   5.098   1.717   6.553  0.0552 -0.5658 -0.7929
11662SOL    HW136470   5.138   1.635   6.525 -1.0849 -1.4332  0.0512
11662SOL    HW236471   5.031   1.735   6.487 -1.1994 -1.4976  0.2074
11663SOL     OW36472   7.268   4.813   6.169  0.3733 -0.0513 -0.3790
11663SOL    HW136473   7.278   4.749   6.098  0.4673  0.5767 -0.9396
11663SOL    HW236474   7.206   4.877   6.134 -0.0071 -0.0324  0.3238
11664SOL     OW36475   5.847   7.085   4.048 -0.6999  0.4709  0.2553
11664SOL    HW136476   5.828   7.096   3.955 -1.3206 -0.3258  0.2921
11664SOL    HW236477   5.768   7.046   4.085  1.1121 -3.3345  0.3276
11665SOL     OW36478   3.258   1.270   0.759 -0.1097 -0.2122 -0.2027
11665SOL    HW136479   3.196   1.216   0.710  0.9919 -0.2981 -1.5174
11665SOL    HW236480   3.241   1.359   0.731 -0.0959 -0.1620 -0.0537
11666SOL     OW36481   5.365   5.704   5.781 -0.6582  0.6659  0.4503
11666SOL    HW136482   5.332   5.685   5.693  1.0943  0.8133 -0.2536
11666SOL    HW236483   5.381   5.798   5.781 -0.9187  0.7112  1.0242
11667SOL     OW36484   7.160   4.665   5.552  0.0035 -0.2078  0.5145
11667SOL    HW136485   7.106   4.592   5.585 -0.9811  0.8006  1.1627
11667SOL    HW236486   7.140   4.668   5.459 -0.0457 -0.6936  0.5046
11668SOL     OW36487   3.801   5.064   6.796  0.4422  0.1780 -0.1867
11668SOL    HW136488   3.720   5.088   6.752  1.2874  1.1118 -1.2494
11668SOL    HW236489   3.781   5.072   6.890 -1.0572 -0.8407 -0.3973
11669SOL     OW36490   0.163   1.769   6.836 -0.0175  0.5919  0.3050
11669SOL    HW136491   0.199   1.813   6.759  2.2101 -0.8768  0.4691
11669SOL    HW236492   0.121   1.691   6.801  2.2433 -0.8236  0.6866
11670SOL     OW36493   7.997   0.668   3.008  0.4063  0.0634  0.1478
11670SOL    HW136494   7.919   0.621   3.037  0.1288 -0.0501 -0.8016
11670SOL    HW236495   8.044   0.606   2.953 -0.8042  1.4571 -2.5033
11671SOL     OW36496   7.020   3.308   1.871  0.2032  0.0835 -0.0744
11671SOL    HW136497   7.002   3.222   1.832  0.2762  0.6875 -1.4489
11671SOL    HW236498   7.092   3.292   1.932  0.1438 -0.8493 -0.2373
11672SOL     OW36499   1.190   6.963   3.660  0.1005  0.0811  0.3778
11672SOL    HW136500   1.179   6.998   3.572 -0.8649 -2.2900 -0.4894
11672SOL    HW236501   1.258   7.017   3.699 -0.1243  1.7749 -1.4825
11673SOL     OW36502   4.140   3.453   4.145 -0.2488 -0.0435 -0.3271
11673SOL    HW136503   4.091   3.392   4.089 -0.2186 -0.4482  0.0876
11673SOL    HW236504   4.161   3.402   4.223  3.0003 -0.6459 -1.5291
11674SOL     OW36505   7.615   0.202   5.976 -0.3845 -0.2572 -0.1217
11674SOL    HW136506   7.704   0.198   5.940  0.6283  0.7679  2.1750
11674SOL    HW236507   7.614   0.283   6.028 -3.1389  0.5460 -1.3206
11675SOL     OW36508   2.890   4.161   5.345 -0.0781  0.3615  0.3405
11675SOL    HW136509   2.800   4.185   5.325 -0.4501  0.4407  2.0062
11675SOL    HW236510   2.883   4.081   5.396  0.9673 -1.2112 -1.8936
11676SOL     OW36511   0.543   3.501   4.829 -0.3618  0.1824 -0.2758
11676SOL    HW136512   0.495   3.540   4.903 -1.3996 -0.9219 -0.3577
11676SOL    HW236513   0.555   3.574   4.768 -1.7711  0.5159 -0.1690
11677SOL     OW36514   0.648   8.009   7.372  0.6610 -0.3357  0.3285
11677SOL    HW136515   0.585   8.008   7.300  1.3675  0.8518 -0.3244
11677SOL    HW236516   0.594   8.016   7.451 -0.1149 -1.5399 -0.0793
11678SOL     OW36517   6.797   6.553   4.992  0.3652 -0.1300  0.2719
11678SOL    HW136518   6.777   6.642   4.963 -0.4699 -0.9429 -1.7457
11678SOL    HW236519   6.754   6.545   5.078 -0.4376  1.0684 -0.0089
11679SOL     OW36520   5.091   2.033   2.953 -0.0776  0.1719 -0.6584
11679SOL    HW136521   5.100   2.090   3.029 -1.6139  1.9745 -1.7965
11679SOL    HW236522   5.045   1.956   2.986 -1.5105  1.3213  0.0476
11680SOL     OW36523   7.284   1.057   2.753  0.2389  0.6625  0.2107
11680SOL    HW136524   7.233   1.107   2.817  1.4938  0.1533  1.6472
11680SOL    HW236525   7.336   1.124   2.708  2.6380  0.6346  2.7962
11681SOL     OW36526   6.950   6.462   2.757 -0.0480 -0.3753 -0.4057
11681SOL    HW136527   6.926   6.377   2.719  0.7899 -0.4606 -0.7576
11681SOL    HW236528   6.995   6.508   2.687 -1.7015  0.9218 -0.6547
11682SOL     OW36529   0.284   7.888   2.753  0.1863  1.1038 -0.0635
11682SOL    HW136530   0.219   7.819   2.767  1.1257 -0.0286 -1.1136
11682SOL    HW236531   0.364   7.855   2.795  0.2760  2.1736  0.6227
11683SOL     OW36532   2.997   6.160   7.505 -0.2977  0.0368  0.1859
11683SOL    HW136533   2.938   6.086   7.492 -0.7676  0.3996  0.2353
11683SOL    HW236534   2.941   6.237   7.498  0.5392  0.4919 -2.0003
11684SOL     OW36535   3.657   5.571   1.658  0.1486  0.0412 -0.6218
11684SOL    HW136536   3.644   5.614   1.574 -0.2429  0.8652 -0.1378
11684SOL    HW236537   3.585   5.603   1.713  1.9000  1.5332  0.8335
11685SOL     OW36538   6.121   6.599   2.281 -0.2643  0.5709  0.6176
11685SOL    HW136539   6.074   6.666   2.330  0.0424  0.6087  0.8637
11685SOL    HW236540   6.065   6.521   2.288 -2.2808  1.6741 -2.5213
11686SOL     OW36541   4.419   5.164   1.885  0.1497  0.1383 -0.4271
11686SOL    HW136542   4.493   5.225   1.878 -0.9875  1.5790 -0.2250
11686SOL    HW236543   4.417   5.140   1.978  1.0819 -0.8584 -0.6475
11687SOL     OW36544   7.226   1.869   4.643 -0.0518 -0.1770 -0.1903
11687SOL    HW136545   7.189   1.803   4.703 -1.5788 -0.3360 -1.2634
11687SOL    HW236546   7.246   1.944   4.699 -0.5758 -0.6753  0.6796
11688SOL     OW36547   0.037   3.356   7.958 -0.2365 -0.1182  0.4089
11688SOL    HW136548  -0.019   3.284   7.929 -1.6710  1.1205  0.0297
11688SOL    HW236549   0.111   3.355   7.898 -0.7937 -0.5895 -0.2773
11689SOL     OW36550   2.424   6.520   5.223 -1.2205  0.3245 -0.1483
11689SOL    HW136551   2.410   6.472   5.141  0.8501 -2.1143  0.8390
11689SOL    HW236552   2.512   6.555   5.215 -0.5551 -0.9017  1.4567
11690SOL     OW36553   1.947   5.642   5.780  0.0742 -0.1652  0.9286
11690SOL    HW136554   1.867   5.589   5.789  0.9682 -1.7092 -0.0869
11690SOL    HW236555   1.929   5.721   5.832 -1.9239 -0.7083  1.1040
11691SOL     OW36556   0.465   3.915   3.221  0.1083  0.4728  0.4802
11691SOL    HW136557   0.397   3.874   3.167 -0.8014  1.8650  0.5393
11691SOL    HW236558   0.519   3.964   3.160  0.2137  0.5270  0.6155
11692SOL     OW36559   6.512   4.880   1.713 -0.6945 -0.5424 -0.2950
11692SOL    HW136560   6.485   4.835   1.632  1.5030 -2.5557  0.0672
11692SOL    HW236561   6.537   4.968   1.683 -3.0895 -0.1309 -1.2893
11693SOL     OW36562   7.526   6.884   5.086 -0.2346 -0.2218  0.0854
11693SOL    HW136563   7.546   6.877   4.993 -0.4841 -1.0416  0.0887
11693SOL    HW236564   7.501   6.976   5.098  2.4057  0.5552 -0.1127
11694SOL     OW36565   2.670   2.225   6.474 -0.1806  0.3541  0.4341
11694SOL    HW136566   2.636   2.286   6.539 -1.3719 -0.3402  0.4844
11694SOL    HW236567   2.681   2.277   6.394  1.6786  1.3047  1.2831
11695SOL     OW36568   7.271   4.936   2.019  0.2708  0.9088  0.0388
11695SOL    HW136569   7.241   5.021   2.052  1.3173  0.3016  2.6921
11695SOL    HW236570   7.199   4.905   1.964 -0.9811  2.5949  0.6722
11696SOL     OW36571   0.835   4.446   0.701  0.5612 -0.1652 -0.2702
11696SOL    HW136572   0.864   4.536   0.693 -0.4347  0.1728 -0.1604
11696SOL    HW236573   0.760   4.439   0.642  1.0420 -1.1057 -0.7907
11697SOL     OW36574   6.305   2.901   4.458  0.2779 -0.0968  0.0738
11697SOL    HW136575   6.267   2.815   4.445 -0.5546  0.4889 -1.3513
11697SOL    HW236576   6.263   2.957   4.394  1.8147  1.0803  0.0581
11698SOL     OW36577   3.088   1.789   2.887 -0.0838 -0.2106  0.2558
11698SOL    HW136578   2.994   1.793   2.871  0.1301 -0.0789 -1.0297
11698SOL    HW236579   3.127   1.828   2.809  1.1278 -2.7284 -0.4471
11699SOL     OW36580   0.464   5.519   6.921  0.1054  0.5038 -0.0094
11699SOL    HW136581   0.486   5.428   6.900 -0.0765  0.1698  1.2233
11699SOL    HW236582   0.369   5.517   6.935  0.2427  0.7027  0.9397
11700SOL     OW36583   5.233   8.032   2.253  0.4936 -0.3599  0.7463
11700SOL    HW136584   5.329   8.041   2.249  0.3777  1.6304  1.7873
11700SOL    HW236585   5.204   8.054   2.164  0.7970  2.2950  1.2740
11701SOL     OW36586   5.095   3.938   8.080  0.7726 -0.0944 -0.0538
11701SOL    HW136587   5.150   4.011   8.107 -0.3272  0.0187  1.9318
11701SOL    HW236588   5.139   3.902   8.002  2.5587  1.2160  0.3308
11702SOL     OW36589   3.322   1.533   4.437  0.4448 -0.6398  0.1107
11702SOL    HW136590   3.385   1.562   4.370 -0.6989 -1.0157 -1.1441
11702SOL    HW236591   3.265   1.608   4.451  1.4743 -0.1100  1.6567
11703SOL     OW36592   1.622   1.986   0.588 -0.3869  0.2860  0.0517
11703SOL    HW136593   1.554   1.982   0.520 -0.5025  0.7804  0.1414
11703SOL    HW236594   1.677   2.059   0.562 -0.0213  0.0322  0.1090
11704SOL     OW36595   7.361   0.138   7.620 -0.8187 -0.1505  0.5814
11704SOL    HW136596   7.327   0.174   7.538 -1.2421 -1.9753 -0.0873
11704SOL    HW236597   7.283   0.121   7.673 -0.6106  0.1132  0.9749
11705SOL     OW36598   3.268   6.943   4.943  0.9343 -0.4480  0.4140
11705SOL    HW136599   3.345   6.998   4.931  0.5407 -0.2028 -1.1303
11705SOL    HW236600   3.213   6.992   5.004  1.1970  0.2366  0.1074
11706SOL     OW36601   1.670   1.155   8.279  0.3413  0.0933  0.3361
11706SOL    HW136602   1.703   1.078   8.232 -0.5024 -0.3516  0.4641
11706SOL    HW236603   1.642   1.216   8.211  2.9527  1.1842  0.1719
11707SOL     OW36604   6.965   4.785   0.913  0.1275 -0.3532 -0.1678
11707SOL    HW136605   6.935   4.731   0.987  1.5585 -0.8293  0.0789
11707SOL    HW236606   7.055   4.808   0.935 -0.1301  1.2991 -0.7735
11708SOL     OW36607   3.958   3.498   8.312  0.5712 -0.4970  0.1234
11708SOL    HW136608   3.991   3.454   8.390  2.6513 -0.9420 -0.9870
11708SOL    HW236609   4.035   3.535   8.270 -0.5751  0.1829 -1.4511
11709SOL     OW36610   1.897   0.366   4.113  0.1187  0.3283 -0.7377
11709SOL    HW136611   1.809   0.329   4.105  0.3560  0.1933 -3.0574
11709SOL    HW236612   1.937   0.319   4.187 -1.6691  0.2440  0.1916
11710SOL     OW36613   4.199   4.071   0.350  0.1129 -0.4021 -0.4459
11710SOL    HW136614   4.145   4.150   0.361  0.4938  0.0984 -1.9924
11710SOL    HW236615   4.167   4.032   0.269 -0.0384 -1.8360  0.2930
11711SOL     OW36616   0.783   1.462   5.544 -1.0238  0.4336  0.5111
11711SOL    HW136617   0.797   1.372   5.516  1.9678  0.6418  1.1132
11711SOL    HW236618   0.771   1.456   5.639  1.2709  0.8102  0.8561
11712SOL     OW36619   4.724   0.855   6.293 -0.6045 -0.2729 -0.5117
11712SOL    HW136620   4.683   0.899   6.218  0.3482 -1.7196 -1.9418
11712SOL    HW236621   4.653   0.804   6.332 -0.9124 -0.2252 -0.9992
11713SOL     OW36622   1.228   7.127   6.028  0.9048  0.1885 -0.3190
11713SOL    HW136623   1.269   7.085   6.103 -0.6945  1.0293  1.0740
11713SOL    HW236624   1.244   7.221   6.041 -0.4738  0.4372 -0.3305
11714SOL     OW36625   3.522   2.249   5.619 -0.2798  0.1798  0.0933
11714SOL    HW136626   3.566   2.258   5.535  2.0137 -1.0188  1.1215
11714SOL    HW236627   3.539   2.331   5.664 -1.0588  0.6097 -0.3739
11715SOL     OW36628   8.140   3.968   7.129  0.6177  0.3495  0.0140
11715SOL    HW136629   8.067   4.014   7.088  0.9492  1.0250  0.1619
11715SOL    HW236630   8.100   3.894   7.174  0.1159  0.2760 -0.5403
11716SOL     OW36631   3.985   1.503   2.218  0.6250 -0.8780 -0.1325
11716SOL    HW136632   4.042   1.441   2.262 -0.9461 -1.3422  1.3252
11716SOL    HW236633   3.911   1.451   2.187 -1.0031  0.2637  1.6256
11717SOL     OW36634   6.311   5.087   6.523 -0.1908 -0.7182  0.2199
11717SOL    HW136635   6.270   5.000   6.524  0.3575 -0.9810  1.8200
11717SOL    HW236636   6.268   5.134   6.595  1.0601 -0.4240  0.7935
11718SOL     OW36637   0.215   2.835   0.983  0.0660 -0.3867 -0.2419
11718SOL    HW136638   0.270   2.801   1.053  0.0556  1.2770  0.6038
11718SOL    HW236639   0.263   2.910   0.948 -0.0943 -0.9946 -1.7800
11719SOL     OW36640   3.816   3.471   1.046  0.0395  0.2658 -0.0290
11719SOL    HW136641   3.848   3.385   1.072  1.6193  1.0203  0.6415
11719SOL    HW236642   3.892   3.529   1.058 -1.2775  1.9251  0.5523
11720SOL     OW36643   5.817   5.479   1.547  0.3742 -0.2311  0.3499
11720SOL    HW136644   5.740   5.480   1.603 -0.0980  0.7115 -0.3023
11720SOL    HW236645   5.877   5.418   1.589 -0.8622 -1.2332  0.6657
11721SOL     OW36646   5.209   0.510   6.272  0.5163 -0.4624  0.4310
11721SOL    HW136647   5.304   0.509   6.286  0.6012 -1.1880 -0.1853
11721SOL    HW236648   5.175   0.562   6.345  1.4448  0.3464  0.2986
11722SOL     OW36649   6.166   0.197   7.939  0.4730  0.6115  0.3610
11722SOL    HW136650   6.246   0.147   7.929 -0.7411 -1.3267  0.1320
11722SOL    HW236651   6.100   0.148   7.890 -0.1873  3.8221 -2.2030
11723SOL     OW36652   0.017   4.600   6.437 -0.1774 -0.1527  0.2323
11723SOL    HW136653  -0.018   4.685   6.410  1.3907  0.2172 -0.7412
11723SOL    HW236654   0.095   4.588   6.382  2.0889 -0.2249  3.3083
11724SOL     OW36655   2.139   2.703   2.057  0.4064 -0.0818  0.6213
11724SOL    HW136656   2.141   2.607   2.052  0.5501  0.0073 -1.8115
11724SOL    HW236657   2.160   2.731   1.968  2.6995  2.2541  1.8526
11725SOL     OW36658   0.832   3.151   2.398  0.4134  0.2755  0.7121
11725SOL    HW136659   0.786   3.216   2.451  1.3913  0.8507  0.8543
11725SOL    HW236660   0.842   3.075   2.455  2.2723  1.2190  1.6550
11726SOL     OW36661   4.166   0.237   5.571  0.0075  0.4755  0.4128
11726SOL    HW136662   4.225   0.194   5.509 -0.9048 -0.9416  0.5126
11726SOL    HW236663   4.158   0.327   5.538  1.2223  0.3317 -0.3014
11727SOL     OW36664   4.955   4.658   5.034 -0.3025 -0.0060  0.2818
11727SOL    HW136665   4.956   4.569   4.996 -0.6761  0.5483 -1.0706
11727SOL    HW236666   4.951   4.644   5.128 -0.7278 -1.4360  0.0655
11728SOL     OW36667   6.025   6.508   1.436  0.1172  0.5861  0.2411
11728SOL    HW136668   6.060   6.557   1.361 -1.6743  0.9423 -0.3661
11728SOL    HW236669   5.931   6.508   1.423 -0.2067  0.5551  2.4453
11729SOL     OW36670   3.829   5.387   2.399 -0.0636  0.3317  0.4539
11729SOL    HW136671   3.783   5.459   2.356 -1.0297  0.1275  1.1386
11729SOL    HW236672   3.790   5.382   2.486 -0.2203 -1.2307  0.2989
11730SOL     OW36673   3.283   1.636   7.771  0.6156  0.5656  0.1240
11730SOL    HW136674   3.282   1.639   7.675  0.7977 -0.8295  0.0586
11730SOL    HW236675   3.228   1.561   7.793 -0.0543  1.3530  1.1471
11731SOL     OW36676   2.923   3.933   2.928  0.3360 -0.0863  0.1669
11731SOL    HW136677   2.959   3.967   2.846  0.9007  0.6626  0.7256
11731SOL    HW236678   2.828   3.946   2.919  0.4349  0.4472 -0.1635
11732SOL     OW36679   1.284   5.379   1.667  0.2797 -0.2179  0.4888
11732SOL    HW136680   1.189   5.380   1.674  0.2291  0.5771 -0.3584
11732SOL    HW236681   1.307   5.461   1.625  1.2579 -0.9228 -0.3914
11733SOL     OW36682   6.189   1.685   7.239  0.2935  0.5476 -0.2633
11733SOL    HW136683   6.180   1.597   7.202 -0.2148  0.5944 -0.2494
11733SOL    HW236684   6.144   1.681   7.323 -0.2805  0.9975 -0.5485
11734SOL     OW36685   5.086   4.970   1.109  0.8643 -0.7624 -0.2565
11734SOL    HW136686   5.023   4.900   1.094  1.6391 -1.3490 -0.8492
11734SOL    HW236687   5.065   5.036   1.042  0.2030 -0.4760  0.2337
11735SOL     OW36688   4.168   7.483   2.017 -0.3660 -0.3619 -0.0623
11735SOL    HW136689   4.108   7.436   1.958  1.2119 -0.5666 -1.5286
11735SOL    HW236690   4.202   7.555   1.964 -0.0524  0.3302  1.0734
11736SOL     OW36691   4.138   3.815   0.524  0.5059 -0.2567  0.6003
11736SOL    HW136692   4.177   3.848   0.443  1.3053  0.1230  1.1297
11736SOL    HW236693   4.180   3.867   0.593 -3.6679  2.8485  1.0002
11737SOL     OW36694   7.925   7.183   5.147  0.0533  0.3884 -0.4381
11737SOL    HW136695   7.864   7.220   5.084  1.6751  1.2751 -1.5197
11737SOL    HW236696   7.924   7.089   5.130 -1.0139  0.3948 -0.4296
11738SOL     OW36697   1.457   6.476   3.196 -0.2161 -0.3254  0.0622
11738SOL    HW136698   1.366   6.450   3.208 -0.6793  0.8759 -0.6694
11738SOL    HW236699   1.509   6.406   3.235 -1.4877 -0.3543  1.7131
11739SOL     OW36700   4.321   7.696   1.872 -0.4493 -0.4222  0.3473
11739SOL    HW136701   4.377   7.645   1.813 -2.7150 -0.3811 -1.9380
11739SOL    HW236702   4.382   7.745   1.927  1.7518 -2.5243 -0.1343
11740SOL     OW36703   3.185   3.462   2.870 -0.2206  0.4180 -0.6120
11740SOL    HW136704   3.204   3.469   2.963 -1.2924  1.9581 -0.4946
11740SOL    HW236705   3.142   3.544   2.848  1.2909  0.6829 -2.7698
11741SOL     OW36706   7.061   5.653   7.476 -0.3016  0.2180 -0.6399
11741SOL    HW136707   7.089   5.678   7.564  0.4129 -0.3526 -0.6994
11741SOL    HW236708   7.108   5.572   7.458 -2.4338 -1.0973 -0.5218
11742SOL     OW36709   5.265   3.528   5.704 -0.2399 -0.2229 -0.2316
11742SOL    HW136710   5.210   3.467   5.655  1.1664 -1.5139 -0.2552
11742SOL    HW236711   5.311   3.473   5.768  1.5868  0.6626 -0.7360
11743SOL     OW36712   4.168   6.565   4.429  0.6469 -0.0972  0.2947
11743SOL    HW136713   4.169   6.576   4.524  0.1813  0.8400  0.1960
11743SOL    HW236714   4.259   6.544   4.407  1.2020  1.6996  0.7366
11744SOL     OW36715   4.408   1.124   1.576  0.0232 -0.0430  0.5719
11744SOL    HW136716   4.384   1.144   1.486  1.9300 -0.7618 -0.1179
11744SOL    HW236717   4.346   1.174   1.629 -1.1355  0.3578 -1.1272
11745SOL     OW36718   1.626   2.253   5.843 -0.4183  0.9104  0.3783
11745SOL    HW136719   1.718   2.258   5.817 -0.8572  3.1396 -0.8199
11745SOL    HW236720   1.628   2.250   5.939  0.8537  1.9571  0.3912
11746SOL     OW36721   2.354   8.084   5.757 -0.7522  0.3321  0.2093
11746SOL    HW136722   2.365   8.178   5.743  1.1253  0.1604  0.3253
11746SOL    HW236723   2.391   8.068   5.844 -2.4380 -0.2903  0.8279
11747SOL     OW36724   4.686   0.725   4.271 -0.1692  0.0956 -0.1644
11747SOL    HW136725   4.752   0.791   4.250  0.5134 -0.5334  0.0062
11747SOL    HW236726   4.730   0.641   4.255 -0.6353 -0.3355  0.8258
11748SOL     OW36727   2.202   7.498   3.465 -0.3749  0.2920 -0.1476
11748SOL    HW136728   2.184   7.558   3.393 -0.1672 -0.1962 -0.6100
11748SOL    HW236729   2.232   7.418   3.422  0.5649  0.2855  0.5138
11749SOL     OW36730   6.001   1.322   5.749  0.7131 -0.0248 -0.0051
11749SOL    HW136731   6.086   1.281   5.766  1.4581  1.7886  0.7095
11749SOL    HW236732   5.943   1.283   5.814  1.2549 -0.4095  0.2554
11750SOL     OW36733   2.170   7.847   1.910 -0.3914 -0.6655 -0.3933
11750SOL    HW136734   2.265   7.836   1.904 -0.3503 -1.1363  0.9724
11750SOL    HW236735   2.153   7.867   2.002 -1.7436 -1.9218 -0.3451
11751SOL     OW36736   0.246   8.178   1.335 -0.2798  0.3416 -0.1492
11751SOL    HW136737   0.337   8.191   1.362 -0.2213  0.0038 -0.1784
11751SOL    HW236738   0.205   8.134   1.409 -0.3619  0.2842 -0.2285
11752SOL     OW36739   5.412   0.615   5.600  0.1077  0.0911 -0.4737
11752SOL    HW136740   5.403   0.650   5.689 -1.3974 -0.4094 -0.4063
11752SOL    HW236741   5.461   0.681   5.553 -0.5507  1.1474  0.3040
11753SOL     OW36742   5.893   6.434   2.966  0.0195 -0.2427 -0.0704
11753SOL    HW136743   5.951   6.478   3.028 -0.0090  1.0650 -0.9709
11753SOL    HW236744   5.862   6.357   3.014  0.5766  0.3596  1.2846
11754SOL     OW36745   6.832   0.250   1.298 -0.5816  0.0195 -0.2766
11754SOL    HW136746   6.865   0.214   1.380  0.6726  0.5218 -0.5446
11754SOL    HW236747   6.745   0.283   1.319  0.0071  0.7954  1.0317
11755SOL     OW36748   5.702   2.718   8.228 -0.2875  0.2251 -0.5312
11755SOL    HW136749   5.665   2.631   8.243  0.4519  0.2287  1.4175
11755SOL    HW236750   5.672   2.742   8.140 -0.2191 -2.1309 -1.2249
11756SOL     OW36751   7.172   0.364   2.216  0.0213 -0.1191  0.1457
11756SOL    HW136752   7.242   0.425   2.241  1.2701 -2.3834  2.4524
11756SOL    HW236753   7.100   0.384   2.276 -0.2569  0.3448 -0.3471
11757SOL     OW36754   6.555   7.180   2.562 -0.0093  0.0211 -0.8322
11757SOL    HW136755   6.504   7.142   2.633  1.1105  1.9107  1.0300
11757SOL    HW236756   6.493   7.235   2.514 -0.6915 -1.0175 -1.1554
11758SOL     OW36757   4.162   6.149   1.564 -0.5683  0.0694  0.1874
11758SOL    HW136758   4.222   6.121   1.633 -0.1031  0.3122 -0.1184
11758SOL    HW236759   4.128   6.233   1.594  0.9732  1.0219 -0.6945
11759SOL     OW36760   4.481   6.508   1.509 -0.1655  0.5233  0.6550
11759SOL    HW136761   4.565   6.553   1.503  0.0786 -0.1909 -2.1509
11759SOL    HW236762   4.421   6.564   1.460 -0.7893 -0.1417  0.6551
11760SOL     OW36763   2.022   2.055   3.223  0.6796 -0.5365 -0.0112
11760SOL    HW136764   2.100   2.089   3.268 -0.2463  1.0558  0.4328
11760SOL    HW236765   2.015   2.109   3.145 -1.3578  0.9815  1.1849
11761SOL     OW36766   1.484   5.324   2.958  0.2171  0.6552 -0.1469
11761SOL    HW136767   1.538   5.369   3.023 -1.0622  1.2091  0.5377
11761SOL    HW236768   1.523   5.237   2.951  0.2527  0.5174  1.5168
11762SOL     OW36769   2.778   2.430   3.340  0.0579 -0.0506  0.7796
11762SOL    HW136770   2.735   2.507   3.304 -0.6074 -0.2467  1.1481
11762SOL    HW236771   2.804   2.456   3.429  0.4113 -0.0396  0.6745
11763SOL     OW36772   3.224   1.424   4.133 -0.2942  0.6137 -0.3577
11763SOL    HW136773   3.164   1.367   4.085 -0.0509 -1.1496  1.3566
11763SOL    HW236774   3.168   1.477   4.189 -0.3173 -1.1979  1.4166
11764SOL     OW36775   5.849   3.747   6.350  0.6041 -0.2008 -0.5549
11764SOL    HW136776   5.930   3.736   6.300 -0.0978  2.4717 -2.3877
11764SOL    HW236777   5.779   3.727   6.287 -0.2147 -0.0504  0.2992
11765SOL     OW36778   0.817   0.924   4.572  0.6680 -0.1992  0.0530
11765SOL    HW136779   0.727   0.958   4.579  0.9169  0.3421  0.6255
11765SOL    HW236780   0.860   0.982   4.510  0.2366 -1.2851 -1.2827
11766SOL     OW36781   1.583   0.174   2.096  0.1424  0.1998 -0.6061
11766SOL    HW136782   1.643   0.190   2.023 -1.2521  0.0836 -1.7909
11766SOL    HW236783   1.501   0.146   2.055 -1.0690  1.3744  0.9364
11767SOL     OW36784   3.937   1.895   7.759 -0.1960 -0.3506 -0.1983
11767SOL    HW136785   3.880   1.826   7.726  0.9187 -1.2382 -0.2972
11767SOL    HW236786   4.000   1.911   7.689  1.1535 -1.0810  0.7996
11768SOL     OW36787   2.905   6.612   5.557 -0.1465  0.1021  0.0519
11768SOL    HW136788   2.958   6.632   5.480  1.8058  0.9727  1.5527
11768SOL    HW236789   2.888   6.698   5.597 -1.0651 -0.3442  0.6180
11769SOL     OW36790   7.550   0.216   2.134  0.0124 -0.4199 -0.4907
11769SOL    HW136791   7.542   0.298   2.085 -0.7883  1.0011  1.9068
11769SOL    HW236792   7.475   0.164   2.107 -1.3369  1.0227  0.4120
11770SOL     OW36793   7.778   0.527   4.646  0.5777  0.4735  0.1621
11770SOL    HW136794   7.827   0.517   4.565 -1.2807  0.6298 -1.0205
11770SOL    HW236795   7.688   0.504   4.623 -0.1031  1.1355  2.0202
11771SOL     OW36796   0.144   1.911   2.707 -0.1777  0.1522  0.4464
11771SOL    HW136797   0.089   1.898   2.785  0.5329  1.2692  1.1380
11771SOL    HW236798   0.219   1.854   2.721 -0.3312 -0.0910  0.2934
11772SOL     OW36799   1.040   0.358   7.436 -0.3624  0.5205 -0.3787
11772SOL    HW136800   1.086   0.282   7.471 -1.7570 -0.1899 -0.0563
11772SOL    HW236801   1.006   0.328   7.351 -1.8804  0.4103  0.2570
11773SOL     OW36802   2.058   5.808   3.708 -0.6860  0.1927 -0.0124
11773SOL    HW136803   2.014   5.835   3.628 -0.4814 -0.3879 -0.3253
11773SOL    HW236804   2.088   5.718   3.690  0.7894  0.6511  0.1067
11774SOL     OW36805   6.109   1.294   1.178 -0.0793 -0.0002 -0.0096
11774SOL    HW136806   6.044   1.342   1.125 -0.0281  0.5545  0.4245
11774SOL    HW236807   6.062   1.216   1.208 -1.5752  1.9287  2.8967
11775SOL     OW36808   4.492   3.333   4.282 -0.1624 -0.2098 -0.1808
11775SOL    HW136809   4.436   3.392   4.332  0.1286 -0.7134  0.7480
11775SOL    HW236810   4.515   3.263   4.344 -0.5205 -1.3139 -1.2659
11776SOL     OW36811   5.766   7.662   6.784  0.0236  0.5363 -0.1052
11776SOL    HW136812   5.795   7.715   6.859  1.3845 -0.6809  0.2640
11776SOL    HW236813   5.846   7.649   6.733 -0.7075  0.5163 -1.2545
11777SOL     OW36814   6.623   6.697   1.555 -0.3372  0.4892 -0.4282
11777SOL    HW136815   6.618   6.624   1.616 -0.3168  0.1017 -0.8852
11777SOL    HW236816   6.602   6.774   1.608 -0.8775  0.0930 -0.0541
11778SOL     OW36817   2.869   3.670   4.461  0.1173  0.5764  0.1636
11778SOL    HW136818   2.938   3.736   4.474 -0.0132  0.3276  2.2504
11778SOL    HW236819   2.874   3.615   4.539 -2.1348  0.2619  0.1117
11779SOL     OW36820   3.695   2.901   4.314 -0.5513  0.1179 -0.2350
11779SOL    HW136821   3.640   2.888   4.237 -0.7845  1.9653 -0.4190
11779SOL    HW236822   3.674   2.991   4.342  1.8226  0.5830  0.1190
11780SOL     OW36823   6.888   4.276   4.895  0.4602  0.0289  0.1828
11780SOL    HW136824   6.891   4.361   4.937  1.3778 -0.1077  0.4052
11780SOL    HW236825   6.840   4.220   4.956 -0.5884  0.5052 -0.1972
11781SOL     OW36826   1.301   0.578   7.873 -0.3225 -0.3492  0.8549
11781SOL    HW136827   1.295   0.525   7.793 -0.3487  0.7421  0.1214
11781SOL    HW236828   1.242   0.651   7.857  1.9076  1.4358  0.6500
11782SOL     OW36829   7.135   6.529   7.895  0.0043  0.2357 -0.3213
11782SOL    HW136830   7.104   6.566   7.813  0.2198  0.7247 -0.1851
11782SOL    HW236831   7.056   6.494   7.937 -0.1271  0.1112 -0.6679
11783SOL     OW36832   0.786   3.432   1.044 -0.6704 -0.6287  0.6622
11783SOL    HW136833   0.738   3.508   1.075 -0.3835 -0.6671  1.2064
11783SOL    HW236834   0.740   3.357   1.083 -0.7774 -0.7172  0.3658
11784SOL     OW36835   6.587   2.369   3.867  0.4176  0.1123 -0.2562
11784SOL    HW136836   6.563   2.403   3.781 -0.2812 -0.1435 -0.1613
11784SOL    HW236837   6.556   2.279   3.867 -0.0729  0.2813  0.4666
11785SOL     OW36838   2.302   8.267   1.294 -0.2642 -0.2966  0.0473
11785SOL    HW136839   2.337   8.197   1.240 -0.0626 -0.5861  0.5506
11785SOL    HW236840   2.228   8.228   1.341  0.5235 -0.4879  1.1593
11786SOL     OW36841   5.039   6.858   2.584 -0.3299 -0.0406 -0.4659
11786SOL    HW136842   5.043   6.894   2.672  0.1855  1.6146 -1.1405
11786SOL    HW236843   5.114   6.799   2.578 -0.8645 -0.8378  0.4677
11787SOL     OW36844   1.152   1.133   1.066  0.4832 -0.1751 -0.4708
11787SOL    HW136845   1.191   1.123   1.153  0.7052 -0.5903 -0.6160
11787SOL    HW236846   1.201   1.206   1.027  0.5554 -0.1536 -0.3402
11788SOL     OW36847   4.259   1.727   0.990  0.6413 -0.3492  0.0626
11788SOL    HW136848   4.264   1.779   1.070 -1.7903  2.4655 -1.4982
11788SOL    HW236849   4.350   1.707   0.968  1.4758  1.0904  2.1018
11789SOL     OW36850   2.343   3.220   7.451 -0.9285  0.0010 -1.0319
11789SOL    HW136851   2.336   3.274   7.530 -1.4933 -1.1249 -0.2924
11789SOL    HW236852   2.433   3.232   7.422 -0.5349 -0.0279  0.1278
11790SOL     OW36853   3.126   5.889   4.258  0.1899  0.1621 -0.0736
11790SOL    HW136854   3.170   5.945   4.195 -0.1887  0.2397 -0.2680
11790SOL    HW236855   3.052   5.941   4.290  0.3075  0.0767  0.3378
11791SOL     OW36856   5.237   7.823   3.440  0.3557  0.4575  0.3220
11791SOL    HW136857   5.312   7.817   3.381 -1.8643  1.4539 -2.7290
11791SOL    HW236858   5.255   7.902   3.493  2.6609 -0.8039  1.5252
11792SOL     OW36859   1.156   5.251   4.260 -0.4367 -0.4702 -0.1846
11792SOL    HW136860   1.174   5.211   4.175  1.3867 -1.9231  0.8540
11792SOL    HW236861   1.087   5.196   4.298  0.9975 -1.7502  0.6011
11793SOL     OW36862   4.121   6.146   0.529  0.3239  0.1166 -0.2541
11793SOL    HW136863   4.162   6.166   0.445  0.0331  1.3284 -0.1164
11793SOL    HW236864   4.039   6.102   0.506  1.0797 -1.1386 -0.5583
11794SOL     OW36865   0.491   5.882   3.966  0.4247 -0.6663  0.2850
11794SOL    HW136866   0.550   5.849   4.033  0.0458 -1.5496  0.1838
11794SOL    HW236867   0.417   5.821   3.967 -0.2686  0.1606  0.0893
11795SOL     OW36868   5.883   0.238   5.670 -0.1171 -0.1011  0.2671
11795SOL    HW136869   5.803   0.267   5.627 -1.1452 -0.7512  1.7014
11795SOL    HW236870   5.887   0.144   5.654  0.7466  0.0347 -0.3933
11796SOL     OW36871   1.043   5.315   7.999 -0.0875 -0.0256 -0.4459
11796SOL    HW136872   1.034   5.395   8.051  0.3380 -1.6750  2.2871
11796SOL    HW236873   0.961   5.309   7.950 -0.1095  2.0814 -0.7156
11797SOL     OW36874   7.868   0.986   2.181 -0.4466 -0.6978  0.7131
11797SOL    HW136875   7.777   0.993   2.212 -0.4028  0.7018  0.5561
11797SOL    HW236876   7.904   1.074   2.194 -0.0329 -0.4283 -2.1067
11798SOL     OW36877   6.138   1.117   1.510 -0.1131  0.3520 -0.0495
11798SOL    HW136878   6.120   1.211   1.504 -0.8586  0.1440 -1.3527
11798SOL    HW236879   6.103   1.091   1.596 -1.1741  1.0019 -0.2714
11799SOL     OW36880   2.910   3.382   1.717  0.1020 -0.3016  0.0721
11799SOL    HW136881   2.875   3.411   1.633  0.8227  0.6628  0.0995
11799SOL    HW236882   2.997   3.348   1.696  1.2504  2.1555  0.7694
11800SOL     OW36883   3.697   0.178   3.135 -0.6721 -0.2080  0.9566
11800SOL    HW136884   3.672   0.268   3.157 -1.2271 -0.1379  0.0468
11800SOL    HW236885   3.618   0.127   3.153 -0.4242 -0.4884  1.2644
11801SOL     OW36886   7.142   0.954   6.907 -0.5968 -0.0447  0.3984
11801SOL    HW136887   7.101   0.868   6.915 -0.9301  0.0805  0.0792
11801SOL    HW236888   7.216   0.940   6.848 -0.1547 -0.2819  1.0115
11802SOL     OW36889   5.827   3.385   2.757 -0.3355 -0.1070 -0.3317
11802SOL    HW136890   5.763   3.448   2.791  1.1003  0.9154  0.5319
11802SOL    HW236891   5.899   3.388   2.820  0.6085 -1.1578 -1.3462
11803SOL     OW36892   0.084   0.305   4.419  0.4152 -0.7196 -0.5302
11803SOL    HW136893   0.002   0.315   4.371 -1.1880  0.2026  2.2592
11803SOL    HW236894   0.114   0.217   4.396 -1.0884 -0.9010 -1.9770
11804SOL     OW36895   5.171   2.009   7.835  0.3363 -0.4899 -0.6238
11804SOL    HW136896   5.113   1.960   7.893 -1.0358  1.2230 -0.5135
11804SOL    HW236897   5.150   2.101   7.852  2.2433  0.1199 -1.4511
11805SOL     OW36898   1.203   6.104   6.130  0.0108  0.0415 -0.2656
11805SOL    HW136899   1.172   6.194   6.134 -1.5119 -0.4534 -0.4950
11805SOL    HW236900   1.294   6.111   6.101 -0.6034  1.4137 -1.9421
11806SOL     OW36901   1.318   5.516   0.769  0.1625 -0.3884 -0.2132
11806SOL    HW136902   1.363   5.469   0.699 -0.1538  0.8844 -1.2880
11806SOL    HW236903   1.248   5.457   0.797 -0.3029 -0.5244 -1.6256
11807SOL     OW36904   6.594   5.926   1.813  0.1856  0.1558  0.2332
11807SOL    HW136905   6.689   5.917   1.806  0.1083 -2.4929  1.9632
11807SOL    HW236906   6.580   5.960   1.901 -0.5181 -0.4766  0.3685
11808SOL     OW36907   3.943   2.100   1.287 -0.3743 -0.3558 -0.2651
11808SOL    HW136908   3.898   2.153   1.352 -0.3811  2.7231 -2.6516
11808SOL    HW236909   3.878   2.036   1.258 -1.1106 -0.1768  0.9983
11809SOL     OW36910   8.016   1.213   2.697  0.0302  0.6326  0.6109
11809SOL    HW136911   8.042   1.181   2.610 -1.1059  1.2308  0.0439
11809SOL    HW236912   8.010   1.134   2.751  1.5362  0.3315  0.3769
11810SOL     OW36913   4.335   2.305   1.373 -0.4049 -0.1130 -0.2316
11810SOL    HW136914   4.303   2.216   1.388 -1.7740  0.4760  0.4934
11810SOL    HW236915   4.261   2.350   1.332 -0.0780  0.9443  0.3078
11811SOL     OW36916   1.392   0.816   3.314  0.2938 -0.7663 -0.0074
11811SOL    HW136917   1.440   0.882   3.364 -0.4116  0.2566 -0.6579
11811SOL    HW236918   1.303   0.852   3.306 -0.2951 -2.1370  0.2526
11812SOL     OW36919   6.421   7.797   7.464 -0.1873 -0.0529  0.1270
11812SOL    HW136920   6.363   7.818   7.537 -1.3218 -0.9060 -0.5245
11812SOL    HW236921   6.374   7.827   7.386  0.6334  0.0471 -0.3401
11813SOL     OW36922   8.259   3.979   6.888 -0.3214 -0.1831  0.2514
11813SOL    HW136923   8.330   4.038   6.911  0.6862 -1.8683  1.5348
11813SOL    HW236924   8.213   3.963   6.970 -1.3828 -0.1656 -0.3212
11814SOL     OW36925   5.731   5.037   3.933 -0.4810 -0.6864  0.5975
11814SOL    HW136926   5.709   4.964   3.876 -0.9734 -0.6043  0.6731
11814SOL    HW236927   5.649   5.086   3.941  0.1999  0.6634 -0.5799
11815SOL     OW36928   5.968   4.768   6.455  0.0431  0.4752  0.0683
11815SOL    HW136929   5.880   4.799   6.433  0.7306  1.4988 -1.2822
11815SOL    HW236930   6.013   4.762   6.371  0.5531 -2.3491  0.4759
11816SOL     OW36931   6.124   7.933   6.005  0.0208 -0.1115 -0.2649
11816SOL    HW136932   6.140   7.951   5.912 -0.7008  0.5281 -0.2676
11816SOL    HW236933   6.153   8.013   6.050  0.8892 -0.6309  0.1171
11817SOL     OW36934   0.480   6.337   7.299  0.1261  0.0323 -0.1092
11817SOL    HW136935   0.444   6.425   7.282 -1.5902 -1.1570 -3.1154
11817SOL    HW236936   0.551   6.329   7.236  0.5922 -0.5744  0.4945
11818SOL     OW36937   2.831   4.690   4.157  0.4745 -0.7844 -0.2883
11818SOL    HW136938   2.892   4.620   4.132 -0.0816 -0.1911 -3.4678
11818SOL    HW236939   2.747   4.646   4.168  0.6778 -1.0147  0.3788
11819SOL     OW36940   7.366   7.424   2.604  0.1981  0.1066  0.0140
11819SOL    HW136941   7.454   7.434   2.640 -0.4831 -1.2030  2.0698
11819SOL    HW236942   7.380   7.378   2.521  1.3051 -1.5856  1.1181
11820SOL     OW36943   3.458   3.624   0.859  0.4157  0.5307 -0.4822
11820SOL    HW136944   3.431   3.595   0.772  2.1470  1.0700 -1.2362
11820SOL    HW236945   3.487   3.544   0.903 -2.1173 -0.0028  0.2426
11821SOL     OW36946   3.071   2.233   0.870  0.8408  0.0625 -0.3266
11821SOL    HW136947   3.142   2.279   0.915  1.7140 -1.3044 -0.2572
11821SOL    HW236948   3.115   2.161   0.824 -0.4937 -0.7665 -0.3219
11822SOL     OW36949   5.390   1.087   1.117 -0.1524  0.0721  0.0524
11822SOL    HW136950   5.457   1.156   1.121  1.3079 -1.3304  0.3758
11822SOL    HW236951   5.342   1.096   1.199  0.4224  0.3297  0.3654
11823SOL     OW36952   1.058   1.030   5.540 -0.5708 -0.3317 -0.4826
11823SOL    HW136953   1.134   1.022   5.483  0.6207 -0.8816  1.1708
11823SOL    HW236954   1.079   1.102   5.599 -2.1632  0.8044 -1.2366
11824SOL     OW36955   3.167   5.603   1.936  0.4215 -0.3473 -0.1743
11824SOL    HW136956   3.131   5.524   1.897  2.5994 -0.8628 -1.1717
11824SOL    HW236957   3.151   5.593   2.030  0.1187 -1.6492 -0.3641
11825SOL     OW36958   1.709   3.663   4.151 -0.0785 -0.9125  0.2056
11825SOL    HW136959   1.772   3.606   4.194  0.0521 -0.5434  0.5061
11825SOL    HW236960   1.639   3.674   4.215  0.2085 -0.2050  0.4055
11826SOL     OW36961   2.987   3.791   6.883 -0.6382 -0.2121 -0.8283
11826SOL    HW136962   2.959   3.802   6.793 -0.7224  1.6314 -0.5911
11826SOL    HW236963   2.970   3.876   6.925 -0.1154 -0.8692  0.7789
11827SOL     OW36964   2.027   3.165   0.456  0.3397 -0.0469 -0.5312
11827SOL    HW136965   2.116   3.180   0.422  0.7631 -1.2329  0.0369
11827SOL    HW236966   1.974   3.154   0.377  1.2505 -2.3907 -0.8556
11828SOL     OW36967   2.036   5.481   6.954 -0.1331 -0.2923 -0.4514
11828SOL    HW136968   2.124   5.447   6.935  0.1872 -0.0728  0.6219
11828SOL    HW236969   2.027   5.472   7.049 -1.3784 -0.5633 -0.5948
11829SOL     OW36970   1.800   5.943   5.205  0.1243  0.4679  0.2432
11829SOL    HW136971   1.832   5.906   5.123 -1.5012 -0.5999  0.0584
11829SOL    HW236972   1.847   5.895   5.274  2.0503  1.8898 -0.0426
11830SOL     OW36973   5.046   3.718   0.950  0.0838  0.2554  0.4833
11830SOL    HW136974   4.961   3.705   0.909 -0.4639  0.4558  1.5389
11830SOL    HW236975   5.109   3.693   0.883 -0.8147 -0.4104 -0.1225
11831SOL     OW36976   6.767   3.855   3.911 -0.7717  0.5018 -0.0226
11831SOL    HW136977   6.697   3.796   3.939 -0.7150  0.0670 -0.7874
11831SOL    HW236978   6.847   3.804   3.922 -0.8844 -0.2694 -2.5347
11832SOL     OW36979   3.231   6.617   1.330  0.4124  0.3427 -0.2459
11832SOL    HW136980   3.237   6.535   1.379  1.8012  0.6521  0.1362
11832SOL    HW236981   3.152   6.659   1.364  0.1895 -0.4245  0.2002
11833SOL     OW36982   6.623   2.101   5.348 -0.3162  0.0621 -0.1529
11833SOL    HW136983   6.706   2.124   5.306  0.0970 -0.2404  0.4886
11833SOL    HW236984   6.591   2.026   5.298  0.1999 -0.3291  0.0907
11834SOL     OW36985   5.597   1.274   4.567  0.0348 -0.4025  0.2141
11834SOL    HW136986   5.518   1.221   4.573 -0.0806 -0.2805 -0.2312
11834SOL    HW236987   5.621   1.292   4.658 -0.3427 -0.5944  0.3506
11835SOL     OW36988   1.534   6.975   4.763  0.3380 -0.9420  0.2007
11835SOL    HW136989   1.463   6.991   4.702  1.3782 -0.7192 -0.9736
11835SOL    HW236990   1.491   6.946   4.843 -1.1662  0.6966  0.0204
11836SOL     OW36991   2.925   6.283   0.636 -0.0747 -0.1699  0.0842
11836SOL    HW136992   2.969   6.198   0.643  1.4254  0.5627 -0.3778
11836SOL    HW236993   2.926   6.317   0.726  0.7953  0.0942 -0.0267
11837SOL     OW36994   4.989   1.289   6.158 -1.0230 -0.4920  0.2460
11837SOL    HW136995   5.078   1.261   6.139 -1.0604  0.8679 -2.2511
11837SOL    HW236996   4.976   1.270   6.251  1.1728 -2.5015  0.1858
11838SOL     OW36997   4.847   1.176   4.493 -0.1618  0.5320  0.0452
11838SOL    HW136998   4.877   1.256   4.452  1.2517  0.7337  1.4325
11838SOL    HW236999   4.805   1.205   4.574  0.5337 -0.1254  0.6553
11839SOL     OW37000   7.416   1.028   8.269  0.1721  0.1539 -0.4426
11839SOL    HW137001   7.439   1.032   8.362  1.4022 -0.0879 -0.7259
11839SOL    HW237002   7.419   0.934   8.248  0.5267  0.2625 -0.8788
11840SOL     OW37003   0.305   7.154   7.864 -0.4709 -0.2947 -0.0009
11840SOL    HW137004   0.251   7.204   7.802 -2.1586 -2.0818 -0.0189
11840SOL    HW237005   0.383   7.131   7.815  0.4557  2.5137  0.0766
11841SOL     OW37006   1.366   6.191   1.881 -0.8302 -0.2111  0.2074
11841SOL    HW137007   1.334   6.281   1.887  0.5390  0.3358 -0.4188
11841SOL    HW237008   1.294   6.143   1.839 -1.6848  0.5211  0.8148
11842SOL     OW37009   3.959   5.465   7.216  0.2099 -0.4938 -0.6698
11842SOL    HW137010   4.013   5.532   7.258 -1.2812 -0.3232  1.0653
11842SOL    HW237011   4.014   5.387   7.214  0.3230 -0.5322  1.7452
11843SOL     OW37012   0.624   4.258   6.003  0.1706 -0.3750  0.0369
11843SOL    HW137013   0.602   4.342   6.044  3.5923  1.3265 -1.3940
11843SOL    HW237014   0.705   4.231   6.047 -1.0874 -3.1550  0.7258
11844SOL     OW37015   1.119   7.236   5.680  0.0823 -0.1765  0.2823
11844SOL    HW137016   1.080   7.317   5.715  1.3473  0.9146 -0.7665
11844SOL    HW237017   1.050   7.199   5.625 -1.2143 -0.8663  2.3113
11845SOL     OW37018   1.543   1.424   4.356 -0.6883 -0.6509 -0.3038
11845SOL    HW137019   1.563   1.345   4.407  0.4695 -0.1603  0.0018
11845SOL    HW237020   1.604   1.490   4.389 -3.2878  1.1064  1.2159
11846SOL     OW37021   0.428   5.022   2.355 -0.1264  0.4997  0.0124
11846SOL    HW137022   0.401   4.964   2.283 -1.0398  0.8754  0.0529
11846SOL    HW237023   0.511   4.985   2.384 -1.1754 -1.3967  0.6831
11847SOL     OW37024   7.319   4.986   1.492 -0.2376 -0.2300  0.5460
11847SOL    HW137025   7.251   5.046   1.461  1.1245  1.4969  0.8539
11847SOL    HW237026   7.401   5.031   1.475  0.9277 -2.6039 -0.4965
11848SOL     OW37027   1.433   7.705   6.493  0.0280 -0.0828  0.4748
11848SOL    HW137028   1.346   7.681   6.525 -0.0553  2.0281  1.8842
11848SOL    HW237029   1.419   7.784   6.441  1.0171 -0.1752  0.0527
11849SOL     OW37030   7.157   6.581   6.669  0.4276  0.2307 -0.5115
11849SOL    HW137031   7.123   6.538   6.590 -0.8633  0.1466  0.0800
11849SOL    HW237032   7.079   6.607   6.717  1.2086  1.9762 -0.1694
11850SOL     OW37033   7.660   0.277   1.653  0.4326  0.0130  0.1494
11850SOL    HW137034   7.591   0.298   1.590 -0.0222 -2.5036 -0.2276
11850SOL    HW237035   7.737   0.262   1.599  0.9243  1.2956  0.4701
11851SOL     OW37036   2.305   1.212   2.156  0.7695  0.2985 -0.3743
11851SOL    HW137037   2.351   1.292   2.129  0.2304  0.5668 -0.5061
11851SOL    HW237038   2.278   1.171   2.074 -1.1340  1.2716 -0.2652
11852SOL     OW37039   2.575   6.923   2.370  0.6649  0.0937 -0.1160
11852SOL    HW137040   2.651   6.965   2.411 -0.6503  1.8241  0.6073
11852SOL    HW237041   2.583   6.945   2.277  2.2093 -1.5951 -0.4182
11853SOL     OW37042   6.691   3.729   4.336  0.3383  0.5359  0.1382
11853SOL    HW137043   6.703   3.799   4.400  2.0251  1.4707 -1.1505
11853SOL    HW237044   6.778   3.715   4.299 -0.3089 -1.0858 -0.8178
11854SOL     OW37045   1.429   2.021   7.899 -0.3361  0.2176 -0.3187
11854SOL    HW137046   1.345   2.024   7.852  0.5380  1.8083 -1.8316
11854SOL    HW237047   1.494   2.003   7.831  0.6335 -0.2689  0.7295
11855SOL     OW37048   7.424   2.192   8.070 -0.4049 -0.0341  0.2733
11855SOL    HW137049   7.365   2.136   8.020 -0.9269  2.3689 -1.9337
11855SOL    HW237050   7.389   2.190   8.159 -1.6588 -1.4912 -0.2199
11856SOL     OW37051   2.002   6.713   1.627 -0.3681 -0.3427  0.7329
11856SOL    HW137052   2.057   6.651   1.676  0.7844  0.3950  0.3786
11856SOL    HW237053   2.057   6.741   1.554 -0.7925  1.2929  1.0212
11857SOL     OW37054   4.673   0.389   6.089 -0.3461 -0.4473  0.3978
11857SOL    HW137055   4.741   0.433   6.140 -2.4357 -0.0136  2.8990
11857SOL    HW237056   4.698   0.403   5.998  2.6585  0.0727  1.2644
11858SOL     OW37057   2.869   6.683   6.729  0.2628 -0.4659 -0.6203
11858SOL    HW137058   2.891   6.604   6.779  2.8489 -0.4781 -1.6882
11858SOL    HW237059   2.861   6.652   6.639 -0.1595  0.2559 -0.8326
11859SOL     OW37060   3.927   2.302   2.649  0.3267  0.3037  0.2610
11859SOL    HW137061   3.889   2.280   2.564 -0.2677  1.9408  0.0779
11859SOL    HW237062   4.022   2.302   2.634  0.2190  0.7984 -0.4616
11860SOL     OW37063   3.272   0.069   0.393  0.2790 -0.2092  0.7541
11860SOL    HW137064   3.205   0.133   0.370 -1.0253 -1.0908  2.0796
11860SOL    HW237065   3.312   0.103   0.473  0.0519 -0.7027  1.0775
11861SOL     OW37066   3.758   4.449   3.886 -0.1576  0.2020 -0.1068
11861SOL    HW137067   3.738   4.429   3.977 -0.5307 -0.8502 -0.4101
11861SOL    HW237068   3.716   4.378   3.836  2.1273 -0.6090 -0.9404
11862SOL     OW37069   0.232   7.603   4.392  0.4433 -0.2198  0.1366
11862SOL    HW137070   0.241   7.694   4.366  1.5211 -0.6903 -1.2173
11862SOL    HW237071   0.279   7.597   4.475 -0.5531  0.6833  0.7692
11863SOL     OW37072   1.223   3.307   5.679  0.1263  0.4747  0.2102
11863SOL    HW137073   1.242   3.373   5.746 -0.3500  2.6427 -1.7309
11863SOL    HW237074   1.132   3.323   5.654 -0.2877 -1.5465  0.3760
11864SOL     OW37075   8.271   0.686   0.759  0.0399 -0.1844 -0.3144
11864SOL    HW137076   8.358   0.715   0.732 -0.7409  0.0188 -2.7534
11864SOL    HW237077   8.285   0.643   0.843  2.2876  1.0146 -0.0277
11865SOL     OW37078   7.211   6.118   0.369 -0.1748 -0.2694 -0.0089
11865SOL    HW137079   7.152   6.140   0.297  0.9578 -0.6835 -1.0803
11865SOL    HW237080   7.167   6.153   0.447 -1.8296 -0.5609 -0.7760
11866SOL     OW37081   6.949   6.175   5.555  0.1856  0.1787  0.1269
11866SOL    HW137082   6.945   6.083   5.577  3.0009 -0.3094 -1.0676
11866SOL    HW237083   6.892   6.185   5.479 -0.8623 -0.3775  0.8416
11867SOL     OW37084   1.427   4.796   0.927 -0.1405  0.2651 -1.1641
11867SOL    HW137085   1.393   4.885   0.918 -0.5195  0.2476  0.0929
11867SOL    HW237086   1.350   4.740   0.928 -0.0163  0.1007  0.1421
11868SOL     OW37087   2.819   2.316   2.163  0.8590  0.3108 -0.5503
11868SOL    HW137088   2.728   2.288   2.175  0.4569  1.3610 -1.1086
11868SOL    HW237089   2.865   2.236   2.138  0.2229 -0.3609  0.4021
11869SOL     OW37090   0.372   5.173   7.909  0.2839  0.6847  0.1024
11869SOL    HW137091   0.405   5.086   7.888 -0.1231  0.3551  0.7718
11869SOL    HW237092   0.361   5.217   7.825 -0.9007 -0.4361 -0.3455
11870SOL     OW37093   1.303   3.778   1.321 -0.0461 -0.0178  0.2293
11870SOL    HW137094   1.394   3.785   1.294 -0.1178  0.0849  0.0107
11870SOL    HW237095   1.253   3.808   1.245 -0.2488  0.3442  0.5054
11871SOL     OW37096   3.058   4.579   1.727 -0.3040  0.0615  0.4497
11871SOL    HW137097   3.060   4.487   1.699 -1.3905  0.6462 -1.6644
11871SOL    HW237098   3.103   4.579   1.811  1.7039 -2.0605 -0.5499
11872SOL     OW37099   7.640   7.088   3.171 -0.7226  0.1743 -0.5266
11872SOL    HW137100   7.703   7.049   3.232 -0.8282  0.3058 -0.3334
11872SOL    HW237101   7.691   7.107   3.092  0.8572  5.4546  1.5348
11873SOL     OW37102   0.297   1.385   3.435 -0.5312  0.7676  0.4890
11873SOL    HW137103   0.203   1.380   3.451 -0.9731  0.9553 -1.8057
11873SOL    HW237104   0.306   1.446   3.362  1.2386 -0.3782 -0.3042
11874SOL     OW37105   0.772   2.067   2.463 -0.0498  0.0276 -0.3349
11874SOL    HW137106   0.749   2.141   2.407  1.9378 -0.1820 -1.4987
11874SOL    HW237107   0.738   2.091   2.549  0.8156  2.4479 -0.6177
11875SOL     OW37108   5.163   6.248   4.711  0.1525  0.6156 -0.3984
11875SOL    HW137109   5.200   6.332   4.737 -1.9858  1.3445  0.4003
11875SOL    HW237110   5.165   6.248   4.616  1.7020  0.8391 -0.3798
11876SOL     OW37111   4.856   4.144   3.527  0.6691 -0.4487  0.2616
11876SOL    HW137112   4.865   4.203   3.601 -0.8429 -1.8713  1.6039
11876SOL    HW237113   4.763   4.147   3.504  0.5930 -2.1763  0.2643
11877SOL     OW37114   2.530   3.192   7.861 -1.0644 -0.2133  0.0201
11877SOL    HW137115   2.544   3.270   7.808 -2.1700 -0.1958 -0.2697
11877SOL    HW237116   2.515   3.122   7.797 -0.0834 -0.6712  0.2765
11878SOL     OW37117   0.778   6.746   5.561 -0.3810 -0.2384 -0.0314
11878SOL    HW137118   0.864   6.786   5.576  0.4024 -1.7242 -0.4433
11878SOL    HW237119   0.750   6.717   5.648  0.6405 -1.8956 -0.2290
11879SOL     OW37120   0.706   2.249   3.117 -0.2889 -0.5639  0.0917
11879SOL    HW137121   0.683   2.296   3.197  1.5061 -0.5430  0.6010
11879SOL    HW237122   0.625   2.202   3.093 -1.1531  0.2896  1.2972
11880SOL     OW37123   4.123   3.668   0.819  0.5281 -0.0127  0.1950
11880SOL    HW137124   4.030   3.688   0.807  0.8148  0.4783 -1.2851
11880SOL    HW237125   4.159   3.667   0.730  1.8857 -0.4611  0.7385
11881SOL     OW37126   4.413   0.929   2.706  0.3750 -0.4860  0.0757
11881SOL    HW137127   4.363   0.871   2.763  0.1428 -0.5536 -0.1977
11881SOL    HW237128   4.475   0.871   2.660 -0.0517 -0.5612 -0.4114
11882SOL     OW37129   0.523   4.675   4.048 -0.2644 -0.0937 -0.2478
11882SOL    HW137130   0.607   4.660   4.004  0.2890  1.1013  0.3777
11882SOL    HW237131   0.545   4.728   4.124 -1.4533 -0.7004  0.5317
11883SOL     OW37132   3.309   2.105   3.307 -0.6689 -0.3186 -0.3182
11883SOL    HW137133   3.300   2.033   3.245 -1.3453 -0.2437 -0.3141
11883SOL    HW237134   3.400   2.101   3.335 -0.8628 -1.5730  0.1722
11884SOL     OW37135   7.185   3.544   5.077  0.8295 -0.5306 -0.0367
11884SOL    HW137136   7.134   3.465   5.095  0.2705 -0.1714 -0.0283
11884SOL    HW237137   7.121   3.615   5.077  1.3261 -0.0730 -0.0468
11885SOL     OW37138   5.778   1.290   1.704 -0.3468 -0.1864  0.3237
11885SOL    HW137139   5.753   1.213   1.652 -1.9816 -0.0125  0.8118
11885SOL    HW237140   5.799   1.357   1.639  0.2911 -0.7981 -0.1056
11886SOL     OW37141   6.091   4.068   2.856 -0.9292 -0.7445  0.9724
11886SOL    HW137142   6.164   4.051   2.915 -1.3590 -2.1116  1.1252
11886SOL    HW237143   6.130   4.069   2.769 -0.0653  2.5963  1.3197
11887SOL     OW37144   0.438   2.424   4.140 -0.1049 -0.5273  0.2627
11887SOL    HW137145   0.392   2.423   4.056 -0.3340  1.6263  0.3329
11887SOL    HW237146   0.367   2.419   4.205 -0.1765  1.3348  0.3521
11888SOL     OW37147   4.134   6.803   0.370 -0.4239  0.3661  0.7852
11888SOL    HW137148   4.132   6.830   0.278  0.2954 -1.4543  0.2176
11888SOL    HW237149   4.224   6.820   0.398 -0.3492 -0.0857  0.8285
11889SOL     OW37150   2.811   1.799   2.909  0.1984  0.1622  0.3077
11889SOL    HW137151   2.822   1.761   2.996 -0.4297  0.3243  0.4562
11889SOL    HW237152   2.752   1.739   2.863 -0.8955  1.0077  0.5822
11890SOL     OW37153   3.280   7.356   5.695 -0.0862  0.4192  0.3301
11890SOL    HW137154   3.373   7.360   5.673 -0.0786  0.3594  0.3493
11890SOL    HW237155   3.256   7.446   5.717  0.5610  0.0582  2.6552
11891SOL     OW37156   4.067   7.102   0.991  0.6142 -0.3787 -0.1985
11891SOL    HW137157   4.116   7.026   1.024 -0.8673 -1.1897  0.1980
11891SOL    HW237158   4.087   7.172   1.053  0.8230 -0.8666  0.2903
11892SOL     OW37159   3.203   2.744   3.584 -0.0132 -0.2567  0.2629
11892SOL    HW137160   3.261   2.707   3.517 -0.9106  0.1732 -0.7861
11892SOL    HW237161   3.184   2.832   3.552 -2.0800 -0.7684  0.0334
11893SOL     OW37162   4.559   5.697   4.897 -0.1745  0.3717  0.0552
11893SOL    HW137163   4.560   5.614   4.850 -2.4420  0.1211  0.3780
11893SOL    HW237164   4.645   5.703   4.938  0.4889 -1.1689 -1.0741
11894SOL     OW37165   7.804   7.540   5.252 -0.1671 -0.6526  0.2423
11894SOL    HW137166   7.729   7.480   5.255 -0.2029 -0.6370 -0.2464
11894SOL    HW237167   7.769   7.620   5.214  0.0814 -0.6213  0.0808
11895SOL     OW37168   1.090   2.616   0.866 -0.3598 -0.5851  0.2081
11895SOL    HW137169   1.125   2.530   0.889  1.4220  0.2499  0.6962
11895SOL    HW237170   1.162   2.659   0.819 -1.1518  0.7206  0.1776
11896SOL     OW37171   3.886   3.369   2.004 -0.0420 -0.3126 -0.3720
11896SOL    HW137172   3.945   3.422   1.950 -0.7839  0.3901 -0.5121
11896SOL    HW237173   3.930   3.362   2.088  0.8406 -0.8934 -0.8761
11897SOL     OW37174   0.713   6.967   2.093  0.6527  0.1015  0.0782
11897SOL    HW137175   0.630   6.926   2.068  0.7610 -0.4449  0.6227
11897SOL    HW237176   0.724   7.039   2.029  0.8877 -1.2278 -1.4060
11898SOL     OW37177   5.139   8.102   1.707  0.0490  0.1416 -0.3169
11898SOL    HW137178   5.068   8.113   1.643 -0.1266 -0.6694 -0.2559
11898SOL    HW237179   5.219   8.114   1.656 -0.1121  0.5263 -0.4867
11899SOL     OW37180   5.655   4.953   7.559  0.3330 -0.0649 -1.1284
11899SOL    HW137181   5.659   4.858   7.551 -1.6694 -0.0492 -2.5761
11899SOL    HW237182   5.649   4.969   7.653 -0.8203 -1.4552 -0.9464
11900SOL     OW37183   1.417   2.859   6.427 -0.0762  0.4190  0.0293
11900SOL    HW137184   1.339   2.815   6.462 -0.4854  1.1254 -0.0037
11900SOL    HW237185   1.392   2.885   6.339  0.4685 -0.0557 -0.2722
11901SOL     OW37186   7.717   2.749   1.667  0.2089  0.1925  0.1997
11901SOL    HW137187   7.703   2.837   1.633 -1.5456  0.5488  1.7723
11901SOL    HW237188   7.785   2.760   1.734  2.9000 -0.3429 -2.3323
11902SOL     OW37189   0.732   2.800   7.604 -0.3682 -0.9021  0.7414
11902SOL    HW137190   0.805   2.854   7.577  0.2477 -1.2838  1.6172
11902SOL    HW237191   0.753   2.774   7.694 -0.1498 -3.4425 -0.0048
11903SOL     OW37192   6.638   7.068   5.198 -0.1871  0.2096  0.8577
11903SOL    HW137193   6.604   6.995   5.250  0.3968 -0.5563  0.1846
11903SOL    HW237194   6.702   7.110   5.255 -1.1558  0.7310  1.5672
11904SOL     OW37195   7.110   2.592   3.719  0.3025  0.1361 -0.1243
11904SOL    HW137196   7.137   2.528   3.653  0.3118  0.2464 -0.2276
11904SOL    HW237197   7.018   2.610   3.699  0.9980  2.1496 -1.7525
11905SOL     OW37198   2.270   6.402   6.085 -0.5186  0.7233 -0.1718
11905SOL    HW137199   2.363   6.422   6.090 -0.3538 -0.1809  0.2730
11905SOL    HW237200   2.251   6.352   6.164 -1.1138 -0.1951 -0.8890
11906SOL     OW37201   4.446   6.562   1.848 -0.2410 -0.1932  0.4920
11906SOL    HW137202   4.364   6.548   1.896 -1.1877 -0.6408 -1.2149
11906SOL    HW237203   4.451   6.488   1.788  0.9207  0.3699 -0.1128
11907SOL     OW37204   1.015   4.510   2.233 -0.0222 -0.6465 -0.3891
11907SOL    HW137205   0.999   4.424   2.194  0.2752 -0.6437 -0.5124
11907SOL    HW237206   1.005   4.571   2.160 -0.5340 -0.5509 -0.2398
11908SOL     OW37207   5.551   2.260   2.057  0.3612 -0.0035  0.4253
11908SOL    HW137208   5.560   2.165   2.050  0.4195  0.1123 -1.2837
11908SOL    HW237209   5.601   2.294   1.983 -1.0056  1.3065  0.0838
11909SOL     OW37210   1.348   0.871   7.192  0.2807 -0.8168  0.3895
11909SOL    HW137211   1.313   0.930   7.258  1.1283  0.8676 -0.6365
11909SOL    HW237212   1.273   0.820   7.163 -0.2562 -0.9793  2.0299
11910SOL     OW37213   7.461   3.985   1.582 -0.2030 -0.4479 -0.1490
11910SOL    HW137214   7.391   4.014   1.524 -1.0572 -2.2163 -0.0502
11910SOL    HW237215   7.497   3.908   1.539  0.7369 -0.3712  0.4982
11911SOL     OW37216   7.527   3.895   2.562  0.2649  0.3551  0.0798
11911SOL    HW137217   7.477   3.969   2.528  0.7424 -0.2990 -2.1310
11911SOL    HW237218   7.477   3.817   2.535 -0.0534 -0.1794  2.0764
11912SOL     OW37219   2.384   5.820   1.244 -0.2734 -0.2384 -0.5185
11912SOL    HW137220   2.405   5.904   1.201  0.6939  0.1128  0.6102
11912SOL    HW237221   2.370   5.843   1.336 -1.5665 -1.1053 -0.4870
11913SOL     OW37222   1.886   3.395   2.135  0.3044 -0.2819  0.6627
11913SOL    HW137223   1.931   3.361   2.212  0.4022 -2.9040 -0.4902
11913SOL    HW237224   1.858   3.317   2.087 -0.3908  1.2917 -1.5909
11914SOL     OW37225   1.123   8.291   3.089  0.4915 -0.2724  0.0323
11914SOL    HW137226   1.034   8.274   3.119  0.9190 -1.6006  0.5678
11914SOL    HW237227   1.162   8.347   3.156 -0.0200  0.5664 -0.3536
11915SOL     OW37228   0.702   2.535   4.008 -0.1710 -0.0862  0.0950
11915SOL    HW137229   0.710   2.585   3.926 -1.1793  1.8179  1.1388
11915SOL    HW237230   0.609   2.538   4.030 -0.0955 -1.5940  0.7292
11916SOL     OW37231   1.880   5.372   7.391  0.3254 -0.0931 -0.3609
11916SOL    HW137232   1.926   5.349   7.471 -0.3552 -1.3773 -0.3298
11916SOL    HW237233   1.907   5.305   7.328 -1.2518 -0.6606 -0.4357
11917SOL     OW37234   6.330   3.159   8.089  0.4466  0.1253  0.0619
11917SOL    HW137235   6.260   3.224   8.078  0.6774  0.2442 -0.7978
11917SOL    HW237236   6.376   3.186   8.168 -0.7414 -0.1988  0.8767
11918SOL     OW37237   2.368   6.176   1.860 -0.1729  0.6854  0.3404
11918SOL    HW137238   2.377   6.270   1.878 -0.2509  0.7605 -0.0116
11918SOL    HW237239   2.318   6.172   1.778  0.3849  0.3493  0.0129
11919SOL     OW37240   4.023   1.042   3.619 -0.1223  0.2982  0.0849
11919SOL    HW137241   4.114   1.038   3.649 -0.0723  1.4502  0.0902
11919SOL    HW237242   3.975   0.989   3.683  0.1194  2.0064  1.7262
11920SOL     OW37243   5.026   3.053   1.475  0.0534 -0.6905  0.0508
11920SOL    HW137244   4.988   3.071   1.561 -2.2089  0.5789 -1.1683
11920SOL    HW237245   5.065   3.137   1.449 -1.0758 -0.4980 -1.0378
11921SOL     OW37246   7.104   3.533   4.780 -0.5306  0.3787 -0.1819
11921SOL    HW137247   7.057   3.511   4.860 -2.1205  1.4514 -0.7968
11921SOL    HW237248   7.144   3.618   4.798 -2.0615  1.2946 -0.9832
11922SOL     OW37249   1.372   6.866   0.193  0.0087  0.4274  0.3063
11922SOL    HW137250   1.408   6.863   0.282  1.3873 -1.8437 -0.2908
11922SOL    HW237251   1.281   6.895   0.205 -0.5423 -2.1363  2.6997
11923SOL     OW37252   7.741   5.018   2.179 -0.1787  0.4676  0.0817
11923SOL    HW137253   7.833   5.032   2.156 -0.3093  3.3126  1.0890
11923SOL    HW237254   7.692   5.069   2.116 -1.1697 -1.6680 -0.9452
11924SOL     OW37255   2.967   2.138   5.988 -0.1013 -0.2337  0.1435
11924SOL    HW137256   3.025   2.090   5.928  0.1210 -0.1082  0.2597
11924SOL    HW237257   3.025   2.197   6.036 -0.6129  1.3971 -1.2174
11925SOL     OW37258   3.062   8.024   1.714 -0.5233  0.4611  0.1935
11925SOL    HW137259   3.070   8.104   1.662 -1.1829 -0.5492 -1.5051
11925SOL    HW237260   3.061   8.054   1.805  0.5765  2.2666 -0.3780
11926SOL     OW37261   5.489   7.445   2.762  0.0676 -0.5270 -0.1708
11926SOL    HW137262   5.575   7.455   2.721 -0.4019  1.5293 -0.7030
11926SOL    HW237263   5.504   7.385   2.835  2.7807  2.9257  2.2457
11927SOL     OW37264   6.325   8.109   1.067  0.2454  0.5785  0.0346
11927SOL    HW137265   6.319   8.087   1.160 -2.5974 -0.8048 -0.4274
11927SOL    HW237266   6.305   8.203   1.064 -0.5238  0.4488  0.7509
11928SOL     OW37267   0.631   1.372   1.701  0.0865 -0.1994  0.8623
11928SOL    HW137268   0.542   1.401   1.683  1.1291  1.3914 -2.1277
11928SOL    HW237269   0.651   1.409   1.787 -1.5106  0.9775  0.7582
11929SOL     OW37270   7.241   5.994   7.894  0.1644 -0.2700  0.0522
11929SOL    HW137271   7.199   5.928   7.839  2.2264 -0.6381 -1.1174
11929SOL    HW237272   7.290   5.943   7.958  0.9999  0.1358 -0.2631
11930SOL     OW37273   1.914   1.028   2.645 -0.2172  0.3446 -0.0757
11930SOL    HW137274   1.881   1.112   2.613 -4.1611 -1.3931 -0.8430
11930SOL    HW237275   1.931   1.044   2.738  1.0207  2.4959 -0.6290
11931SOL     OW37276   0.961   6.654   5.079  1.1830 -0.1105  0.8492
11931SOL    HW137277   0.962   6.561   5.102 -0.9268 -0.1679  0.8427
11931SOL    HW237278   0.941   6.699   5.161 -0.9521  0.0743  0.2642
11932SOL     OW37279   4.495   0.850   6.973  0.3915  0.1609  0.1839
11932SOL    HW137280   4.579   0.843   7.019  2.1071 -1.6402 -3.0351
11932SOL    HW237281   4.466   0.759   6.964 -1.0253  0.6546 -0.2932
11933SOL     OW37282   1.488   8.006   6.814  0.3220 -0.1612  0.8806
11933SOL    HW137283   1.429   7.959   6.873  1.3663 -1.9377  0.5486
11933SOL    HW237284   1.442   8.087   6.793 -3.7240 -3.0918 -2.3353
11934SOL     OW37285   8.283   2.692   0.934 -0.4599  0.2576  0.4002
11934SOL    HW137286   8.311   2.605   0.905 -1.2869  0.5662 -1.3655
11934SOL    HW237287   8.364   2.733   0.965 -0.0387 -1.0775  1.1191
11935SOL     OW37288   0.814   6.336   3.184 -0.2930  0.1483 -0.0489
11935SOL    HW137289   0.758   6.414   3.184  1.3175  1.3072 -0.0916
11935SOL    HW237290   0.766   6.273   3.239 -1.9272  0.9060 -0.5739
11936SOL     OW37291   7.006   2.352   0.863  0.1070 -0.1636  0.6180
11936SOL    HW137292   7.035   2.290   0.796  0.1224  0.4567  0.0396
11936SOL    HW237293   6.912   2.334   0.873  0.2230 -0.6502  0.8551
11937SOL     OW37294   2.243   3.299   3.481 -0.5055  0.4499 -0.1255
11937SOL    HW137295   2.303   3.233   3.516 -1.1140  0.1828  0.4065
11937SOL    HW237296   2.221   3.267   3.394 -0.9335 -0.1369  0.1963
11938SOL     OW37297   5.120   5.078   1.387  0.2245 -0.2610 -0.1867
11938SOL    HW137298   5.143   5.043   1.302  0.5833 -0.6658  0.0746
11938SOL    HW237299   5.185   5.147   1.404  0.7210 -0.8083  0.1638
11939SOL     OW37300   7.030   1.124   4.379  0.3717 -0.1307 -0.2252
11939SOL    HW137301   7.040   1.034   4.348 -1.6538 -0.8196  1.0399
11939SOL    HW237302   7.082   1.127   4.459  1.4519  0.1958 -0.9279
11940SOL     OW37303   3.824   7.093   6.844  0.1622  0.0941 -0.7243
11940SOL    HW137304   3.805   7.001   6.830 -0.0259 -0.3905  2.2863
11940SOL    HW237305   3.752   7.139   6.801 -0.7746 -1.2427 -0.6318
11941SOL     OW37306   4.199   2.270   2.517  0.1900  0.0245  0.0861
11941SOL    HW137307   4.235   2.224   2.442  0.7509  0.4842  0.0714
11941SOL    HW237308   4.238   2.227   2.593 -2.3245 -2.1198  0.2337
11942SOL     OW37309   0.138   1.334   2.675  0.1189 -0.1612 -0.4110
11942SOL    HW137310   0.210   1.392   2.700  1.2263 -1.6505 -0.0907
11942SOL    HW237311   0.172   1.283   2.602 -0.4450 -1.2214  0.0551
11943SOL     OW37312   7.746   6.802   7.087  0.0669 -0.2261  0.3801
11943SOL    HW137313   7.735   6.836   7.176 -0.7133  0.5467  0.0042
11943SOL    HW237314   7.805   6.865   7.045  0.4576 -0.6057  0.3573
11944SOL     OW37315   6.025   1.980   0.807  0.0497 -0.1632  0.4998
11944SOL    HW137316   6.002   1.940   0.723 -1.4909  1.5183  0.0886
11944SOL    HW237317   6.081   2.054   0.783  0.7234 -0.4870  1.0650
11945SOL     OW37318   4.853   7.837   2.871 -0.4254 -0.1078 -0.4779
11945SOL    HW137319   4.915   7.877   2.811 -0.7933 -0.6671 -1.2412
11945SOL    HW237320   4.859   7.889   2.951  0.6043  0.1804 -0.7460
11946SOL     OW37321   4.227   5.808   5.550  0.3365 -0.0120 -0.4092
11946SOL    HW137322   4.161   5.827   5.617  0.5409 -2.5469  0.5592
11946SOL    HW237323   4.311   5.815   5.596  0.4814 -1.6956 -0.3883
11947SOL     OW37324   6.662   4.152   4.112  0.1046  0.7938 -0.0899
11947SOL    HW137325   6.619   4.238   4.115  0.5531  1.0221 -0.2244
11947SOL    HW237326   6.651   4.123   4.021 -0.8661  0.2900  0.1814
11948SOL     OW37327   6.963   4.126   7.361  0.6415 -0.0122  0.5255
11948SOL    HW137328   6.979   4.202   7.417 -0.3424  0.9671 -0.4904
11948SOL    HW237329   6.989   4.051   7.414  1.2212  1.0056  1.7016
11949SOL     OW37330   7.283   7.915   2.556  0.1035  0.5636 -0.2497
11949SOL    HW137331   7.296   7.824   2.526  0.2414  1.0951 -1.8641
11949SOL    HW237332   7.341   7.967   2.500 -0.4590  1.7207  0.2329
11950SOL     OW37333   6.666   3.372   0.359 -0.2368 -0.4810  0.3378
11950SOL    HW137334   6.676   3.283   0.324 -1.4266 -0.3025 -0.4906
11950SOL    HW237335   6.576   3.375   0.391 -0.1656  0.3891  0.4681
11951SOL     OW37336   4.824   5.972   6.439  0.2186 -0.1280  0.6499
11951SOL    HW137337   4.737   5.932   6.433  0.5484 -0.7769  0.0953
11951SOL    HW237338   4.853   5.980   6.348 -0.2959  2.4083  0.6733
11952SOL     OW37339   6.256   4.425   7.771 -0.2322 -0.3184 -0.5520
11952SOL    HW137340   6.172   4.471   7.767 -1.3364 -2.3425 -1.0139
11952SOL    HW237341   6.233   4.334   7.789  1.8272 -1.0542 -1.4756
11953SOL     OW37342   5.239   1.473   0.468 -0.0542 -0.1913  0.0047
11953SOL    HW137343   5.298   1.545   0.489 -0.3192 -0.2346  0.9465
11953SOL    HW237344   5.295   1.407   0.427  0.0048  0.9544 -1.8134
11954SOL     OW37345   5.232   1.496   5.729 -0.2141 -0.4993 -0.1061
11954SOL    HW137346   5.153   1.442   5.731  0.7766 -1.9887 -0.2602
11954SOL    HW237347   5.199   1.586   5.725 -1.8962 -1.0646  0.4010
11955SOL     OW37348   5.893   4.006   2.069 -0.1683 -0.3190  0.1783
11955SOL    HW137349   5.861   3.940   2.007 -2.9873  1.5941 -0.5350
11955SOL    HW237350   5.985   4.018   2.046 -1.2101  0.5623 -3.9338
11956SOL     OW37351   0.238   3.410   2.219  0.6646 -0.0503 -0.5032
11956SOL    HW137352   0.321   3.365   2.205  1.6016  0.8556  1.7735
11956SOL    HW237353   0.177   3.342   2.247  0.5431 -0.7727 -2.5186
11957SOL     OW37354   2.427   0.527   0.897  0.7406  0.3629 -0.0587
11957SOL    HW137355   2.411   0.619   0.915 -1.2193  0.0537 -0.1435
11957SOL    HW237356   2.350   0.498   0.848  0.6174 -1.6821  1.2703
11958SOL     OW37357   6.541   1.589   4.341  0.0780 -0.3570 -0.2931
11958SOL    HW137358   6.537   1.533   4.264  0.2036  1.6554 -1.7839
11958SOL    HW237359   6.451   1.614   4.359 -0.0550 -1.5220  0.7714
11959SOL     OW37360   6.598   5.785   5.329  0.3974  0.4818 -0.2086
11959SOL    HW137361   6.632   5.758   5.415 -1.6436  1.3287  0.8928
11959SOL    HW237362   6.664   5.846   5.295  0.7742  0.8684  1.1763
11960SOL     OW37363   3.933   6.651   2.345 -0.1728  0.0601  0.5188
11960SOL    HW137364   4.024   6.626   2.333 -0.0457  0.8168 -0.1152
11960SOL    HW237365   3.884   6.596   2.284 -0.3891 -1.9307  2.4328
11961SOL     OW37366   2.871   4.728   3.128  0.4444 -0.0464  0.2476
11961SOL    HW137367   2.954   4.773   3.148 -0.3306  1.7607 -0.5169
11961SOL    HW237368   2.847   4.686   3.211  1.1724  0.9828  0.9992
11962SOL     OW37369   1.236   8.087   5.247  0.8075  0.6521  0.3654
11962SOL    HW137370   1.228   8.142   5.325  1.0511  0.0096  0.8523
11962SOL    HW237371   1.182   8.011   5.265  1.7877 -0.0455  0.4043
11963SOL     OW37372   3.295   2.134   6.837 -0.4415  0.1234 -0.2746
11963SOL    HW137373   3.344   2.204   6.795  0.9899 -1.1225 -0.7114
11963SOL    HW237374   3.286   2.066   6.770 -2.6607  0.2604 -0.1676
11964SOL     OW37375   4.064   0.593   6.507  0.5300  0.2063 -0.0139
11964SOL    HW137376   4.045   0.683   6.480  1.2127 -0.0570 -1.3989
11964SOL    HW237377   3.988   0.567   6.560  1.1204  2.1794  1.8514
11965SOL     OW37378   2.107   6.604   2.907  0.2692  0.7149  0.1412
11965SOL    HW137379   2.071   6.527   2.953  2.4072 -0.4386 -0.0577
11965SOL    HW237380   2.073   6.679   2.956 -0.2846 -0.4153  1.5283
11966SOL     OW37381   2.174   3.575   0.828  0.1418  0.0855 -0.2160
11966SOL    HW137382   2.113   3.649   0.826  0.2843  0.3463  2.8093
11966SOL    HW237383   2.121   3.501   0.858  0.2857 -0.7698 -2.0354
11967SOL     OW37384   1.014   6.838   4.428  0.0967  0.6016 -0.4680
11967SOL    HW137385   1.075   6.881   4.369  0.4356 -0.4364 -0.8864
11967SOL    HW237386   1.018   6.889   4.509  0.6499  1.2180 -0.8869
11968SOL     OW37387   1.093   1.851   4.865 -0.3018 -0.3987  0.2623
11968SOL    HW137388   1.184   1.825   4.881 -0.4790 -0.8403  0.5573
11968SOL    HW237389   1.044   1.768   4.866 -0.9226 -0.0236  1.5727
11969SOL     OW37390   4.997   8.056   5.288  0.0515  0.2628  0.7537
11969SOL    HW137391   4.924   8.008   5.247  0.9592 -1.4253  1.0651
11969SOL    HW237392   4.960   8.089   5.370 -1.3247  2.3473 -0.6398
11970SOL     OW37393   3.340   2.581   7.153 -0.4757 -0.2537  0.1241
11970SOL    HW137394   3.374   2.547   7.071  1.1989  2.6207 -0.4283
11970SOL    HW237395   3.265   2.634   7.127 -0.7493 -0.4026  0.6016
11971SOL     OW37396   2.052   6.173   6.762 -0.3777  0.4139  0.1770
11971SOL    HW137397   2.147   6.181   6.754 -0.5510  2.4682  0.0232
11971SOL    HW237398   2.019   6.263   6.755 -2.3679 -0.3174 -0.2752
11972SOL     OW37399   7.682   2.391   0.732 -0.0418  1.1539 -0.6353
11972SOL    HW137400   7.703   2.453   0.801  0.8151  0.4487 -0.2531
11972SOL    HW237401   7.766   2.351   0.708 -0.5495  0.2574 -0.9900
11973SOL     OW37402   1.051   3.353   1.105 -0.2217  0.1519 -0.4475
11973SOL    HW137403   1.091   3.329   1.021  3.1289  0.5461  0.9579
11973SOL    HW237404   0.972   3.401   1.081 -0.5734 -1.7357 -3.3462
11974SOL     OW37405   0.649   1.572   1.982 -0.1355  0.3224 -0.5329
11974SOL    HW137406   0.584   1.631   1.945  1.2459  2.0082 -0.3605
11974SOL    HW237407   0.710   1.630   2.029  0.9980 -1.2866  0.0294
11975SOL     OW37408   6.875   2.844   0.563  0.0371 -0.4791 -0.1828
11975SOL    HW137409   6.961   2.802   0.565 -0.0694 -0.6699  1.5816
11975SOL    HW237410   6.894   2.937   0.549  0.5518 -0.5096  0.2733
11976SOL     OW37411   7.995   0.549   0.925 -0.0910  0.2745  0.4196
11976SOL    HW137412   8.084   0.514   0.929 -0.3366 -0.0957  2.9656
11976SOL    HW237413   7.939   0.471   0.924 -0.4308  0.5109 -1.0928
11977SOL     OW37414   8.047   4.067   1.897  0.6735 -0.1059  0.2658
11977SOL    HW137415   7.964   4.067   1.945  0.7123  2.0052  0.3873
11977SOL    HW237416   8.100   4.001   1.941 -0.1053  0.1904  1.6623
11978SOL     OW37417   7.716   2.186   8.262 -0.4359  0.3539  0.5740
11978SOL    HW137418   7.698   2.276   8.236  0.3678  0.3987  0.1785
11978SOL    HW237419   7.666   2.133   8.200 -2.3250  0.5435  1.8834
11979SOL     OW37420   7.622   8.229   4.289  0.1445  0.4410 -0.0399
11979SOL    HW137421   7.652   8.320   4.295  0.0351  0.5573 -1.1269
11979SOL    HW237422   7.549   8.223   4.350 -0.0522  1.1689 -0.2065
11980SOL     OW37423   0.278   5.645   5.474  0.1130 -0.7787 -0.2018
11980SOL    HW137424   0.240   5.558   5.461  0.1578 -0.9105  0.5294
11980SOL    HW237425   0.220   5.704   5.425 -0.1371 -1.1669 -0.3805
11981SOL     OW37426   2.826   0.380   1.905 -0.3391  0.5726 -0.2898
11981SOL    HW137427   2.746   0.380   1.853 -0.5085 -0.9419 -0.0625
11981SOL    HW237428   2.896   0.366   1.842 -0.2839  1.5845 -0.4515
11982SOL     OW37429   4.383   5.434   2.052 -0.2649 -0.3276 -0.7519
11982SOL    HW137430   4.331   5.451   1.974  1.2642  1.0002 -1.5243
11982SOL    HW237431   4.463   5.393   2.019  0.4804  0.4317  0.0908
11983SOL     OW37432   2.435   2.098   1.520 -0.1513 -0.3259  0.1333
11983SOL    HW137433   2.440   2.075   1.613 -0.1856  0.2903  0.2940
11983SOL    HW237434   2.454   2.192   1.519 -0.3837 -0.2902 -0.4611
11984SOL     OW37435   6.869   4.752   1.551  0.2159 -0.1494  0.0401
11984SOL    HW137436   6.836   4.711   1.471  0.5650 -2.0904  0.8472
11984SOL    HW237437   6.954   4.788   1.526  0.1469 -0.3954 -0.5575
11985SOL     OW37438   5.730   3.714   1.058 -0.1966  0.4052  0.0102
11985SOL    HW137439   5.792   3.658   1.105  0.6300  1.2035 -0.1192
11985SOL    HW237440   5.654   3.718   1.116 -0.2537 -0.8198  0.0334
11986SOL     OW37441   1.900   4.271   5.361 -0.2615  0.3686 -0.0452
11986SOL    HW137442   1.952   4.321   5.423 -2.5681  1.6833  0.8931
11986SOL    HW237443   1.931   4.299   5.275  0.2771  1.4643  0.4992
11987SOL     OW37444   2.863   7.195   7.319 -0.7750  0.1178  0.2625
11987SOL    HW137445   2.832   7.286   7.319 -0.8813  0.0875 -1.3796
11987SOL    HW237446   2.880   7.176   7.412 -1.2086  1.6519  0.6743
11988SOL     OW37447   3.369   4.231   3.051  0.0503  0.0905  0.4288
11988SOL    HW137448   3.390   4.217   2.959  0.7670  0.6554  0.5022
11988SOL    HW237449   3.447   4.200   3.098  0.0060  0.5369  0.7996
11989SOL     OW37450   1.092   0.428   1.805 -0.1023 -0.1863  0.1271
11989SOL    HW137451   1.083   0.375   1.726 -0.1287 -0.4288  0.2931
11989SOL    HW237452   1.034   0.503   1.790  1.2385  0.6902 -0.8509
11990SOL     OW37453   3.458   5.157   0.576 -0.3996  0.4509  0.0279
11990SOL    HW137454   3.381   5.170   0.631 -1.2702  0.2592 -1.1269
11990SOL    HW237455   3.426   5.168   0.486  0.2047 -2.8001 -0.6706
11991SOL     OW37456   2.773   3.528   6.720 -0.0327  0.5126 -0.2727
11991SOL    HW137457   2.687   3.520   6.679 -0.1745 -3.1308  0.5646
11991SOL    HW237458   2.831   3.475   6.665  0.9049 -0.0017  1.1745
11992SOL     OW37459   7.038   3.015   3.102  0.2390  0.5330 -0.0573
11992SOL    HW137460   7.094   2.946   3.066 -0.2811 -0.2005  0.5259
11992SOL    HW237461   6.973   3.031   3.034  0.8843  1.0885 -0.5603
11993SOL     OW37462   5.354   5.024   4.262  0.0987  0.2628 -0.3412
11993SOL    HW137463   5.360   4.963   4.188  0.3939 -1.0203  0.7322
11993SOL    HW237464   5.443   5.028   4.297 -0.4807 -0.7883  1.2655
11994SOL     OW37465   5.149   3.959   4.155  0.0922 -0.5528 -0.2840
11994SOL    HW137466   5.132   3.918   4.240  0.0058  2.2430  1.0990
11994SOL    HW237467   5.242   3.942   4.139  1.2682  2.5843  2.5344
11995SOL     OW37468   0.897   4.361   7.412 -0.2271  0.1560  0.2768
11995SOL    HW137469   0.874   4.269   7.397  2.1715 -0.7137  1.6278
11995SOL    HW237470   0.866   4.380   7.501 -1.6293  0.9901 -0.3695
11996SOL     OW37471   6.846   1.589   1.038  0.2607 -0.0101  0.1739
11996SOL    HW137472   6.848   1.495   1.019  0.4868  0.0741 -0.2333
11996SOL    HW237473   6.932   1.621   1.009  0.4689  0.1934  0.9900
11997SOL     OW37474   0.851   7.752   4.132  0.4243  0.2210 -0.0124
11997SOL    HW137475   0.922   7.703   4.091  1.1051  0.6478  0.6397
11997SOL    HW237476   0.813   7.693   4.197  0.7441  0.2909  0.2375
11998SOL     OW37477   1.701   2.345   3.034  0.3027 -0.1372  0.4607
11998SOL    HW137478   1.737   2.369   2.948 -1.8221 -0.0649 -0.4330
11998SOL    HW237479   1.704   2.249   3.035 -0.2068 -0.1648  0.0441
11999SOL     OW37480   1.741   3.551   3.092  0.6139 -0.3035  0.0806
11999SOL    HW137481   1.707   3.462   3.088  0.3380 -0.1964  0.0305
11999SOL    HW237482   1.698   3.597   3.020  0.5902 -0.0739  0.2383
12000SOL     OW37483   3.808   1.943   0.822  0.6291 -0.2538  0.3167
12000SOL    HW137484   3.819   1.860   0.775  0.4018  0.7783 -1.6008
12000SOL    HW237485   3.848   2.009   0.764  0.8926  0.9623  1.8555
12001SOL     OW37486   8.283   1.146   5.398 -0.2676  0.1808 -0.4617
12001SOL    HW137487   8.331   1.087   5.340  0.5664  2.5865 -2.3079
12001SOL    HW237488   8.194   1.110   5.400  0.3249 -1.3795 -1.1950
12002SOL     OW37489   0.720   4.463   2.790 -0.1002 -0.1005 -0.4150
12002SOL    HW137490   0.756   4.422   2.711  2.5217 -2.2959  1.8038
12002SOL    HW237491   0.772   4.543   2.801 -0.9615  0.5841 -1.3041
12003SOL     OW37492   1.196   1.792   1.672 -0.5967 -0.4962  0.4136
12003SOL    HW137493   1.188   1.761   1.762 -1.0908 -0.0196  0.5363
12003SOL    HW237494   1.138   1.734   1.622 -0.2597 -0.8127  0.3880
12004SOL     OW37495   2.426   5.417   1.999  0.2503  0.0878 -0.0754
12004SOL    HW137496   2.430   5.339   2.054  0.7579 -0.3976 -0.7931
12004SOL    HW237497   2.393   5.485   2.057  2.2839 -0.0271  1.2838
12005SOL     OW37498   0.616   4.146   0.607  0.1468  0.8322  0.3516
12005SOL    HW137499   0.600   4.092   0.684  1.7526  0.8964  0.7387
12005SOL    HW237500   0.598   4.236   0.636 -0.9494  0.6805  0.1560
12006SOL     OW37501   5.161   0.236   7.607  0.0622 -0.4345 -0.0326
12006SOL    HW137502   5.190   0.189   7.529 -0.7904 -1.5379  0.2962
12006SOL    HW237503   5.215   0.202   7.678 -0.0760 -0.4097  0.0862
12007SOL     OW37504   5.735   5.474   0.666  0.1165 -0.2841  0.4836
12007SOL    HW137505   5.702   5.483   0.756 -1.0187  0.3645  0.0176
12007SOL    HW237506   5.730   5.563   0.631  0.4640 -0.5552 -0.2545
12008SOL     OW37507   5.153   2.299   6.465 -1.2623  0.1760  0.3528
12008SOL    HW137508   5.243   2.270   6.453 -0.6047  1.3120  2.1614
12008SOL    HW237509   5.100   2.220   6.455 -0.2066 -0.2678 -2.0600
12009SOL     OW37510   0.386   3.377   0.275 -1.0417  0.2975  0.2234
12009SOL    HW137511   0.449   3.386   0.203  0.0056  0.7907  1.1797
12009SOL    HW237512   0.317   3.439   0.254 -0.9006  0.2177 -0.5160
12010SOL     OW37513   4.955   2.661   8.178  0.0395  0.0688  0.2407
12010SOL    HW137514   4.900   2.717   8.124 -0.3928 -0.2121  0.3910
12010SOL    HW237515   4.958   2.705   8.263  1.4208  0.9615 -0.2513
12011SOL     OW37516   5.594   1.972   3.737 -0.6256  0.5593  0.6417
12011SOL    HW137517   5.573   2.008   3.651 -0.7736  3.2541  1.7376
12011SOL    HW237518   5.668   2.023   3.768  1.8684 -2.8731  0.6165
12012SOL     OW37519   8.095   1.319   1.959  0.2038  0.1622  0.1852
12012SOL    HW137520   8.013   1.286   1.996  0.6929 -1.3746 -0.0519
12012SOL    HW237521   8.155   1.245   1.966  1.5499  1.2442  0.2721
12013SOL     OW37522   1.267   7.713   3.527 -0.5178  0.2665 -0.0510
12013SOL    HW137523   1.197   7.667   3.573  1.9314 -2.3498  1.1829
12013SOL    HW237524   1.269   7.674   3.439  0.3771 -0.7083  0.4040
12014SOL     OW37525   1.329   4.954   4.545 -0.4854 -0.0082 -0.3924
12014SOL    HW137526   1.330   5.025   4.480  0.3881  0.6793  0.3585
12014SOL    HW237527   1.323   4.998   4.629 -0.0202 -0.8304  0.0770
12015SOL     OW37528   3.868   4.148   0.801  0.5229  0.3582  0.0269
12015SOL    HW137529   3.814   4.083   0.846  1.2737 -0.8106 -0.7398
12015SOL    HW237530   3.887   4.214   0.868  2.3803 -1.8106  1.7016
12016SOL     OW37531   4.390   5.234   6.009 -0.2784 -0.0909 -0.3017
12016SOL    HW137532   4.346   5.249   6.093  0.4643  1.4097 -0.1745
12016SOL    HW237533   4.482   5.223   6.031  0.4120  3.3525 -1.1648
12017SOL     OW37534   1.817   1.992   6.595 -0.6032 -0.4149 -0.2064
12017SOL    HW137535   1.897   2.014   6.547 -0.1932 -0.7716  0.3094
12017SOL    HW237536   1.763   1.944   6.532 -0.1200 -0.7775 -0.3401
12018SOL     OW37537   0.057   5.488   6.807 -0.6179  0.2573  0.3218
12018SOL    HW137538   0.083   5.403   6.841  0.7871  0.7410  0.5114
12018SOL    HW237539   0.100   5.495   6.722 -1.8600  0.2086 -0.3274
12019SOL     OW37540   5.141   7.555   2.460 -0.2922  0.0387  0.1600
12019SOL    HW137541   5.213   7.601   2.418 -2.1646  2.7186 -0.2729
12019SOL    HW237542   5.092   7.516   2.387 -0.1887 -0.4175  0.3326
12020SOL     OW37543   8.086   1.575   5.060  0.2417 -0.1604  0.6352
12020SOL    HW137544   8.118   1.485   5.064  0.7025  0.0494  1.7262
12020SOL    HW237545   8.157   1.624   5.018  0.4813 -0.0823  1.1337
12021SOL     OW37546   8.176   4.835   2.858  0.4340  0.1689  0.2495
12021SOL    HW137547   8.110   4.905   2.865  0.9178  0.7233 -0.6054
12021SOL    HW237548   8.125   4.754   2.860 -0.3444  0.5995 -0.9196
12022SOL     OW37549   2.707   1.011   1.034 -0.2737  0.2441 -0.4802
12022SOL    HW137550   2.671   0.968   1.111  0.6184 -2.1779 -1.3594
12022SOL    HW237551   2.667   1.098   1.033 -0.5131  0.2071  2.5323
12023SOL     OW37552   5.911   6.659   6.678  0.2677 -0.5707 -0.1292
12023SOL    HW137553   5.886   6.709   6.756  0.7875 -1.3144  0.5184
12023SOL    HW237554   5.933   6.727   6.614 -0.3119  0.0517  0.3158
12024SOL     OW37555   4.266   0.762   5.097 -0.9189  0.3677 -0.1026
12024SOL    HW137556   4.197   0.762   5.163 -0.3224 -0.0122  0.5347
12024SOL    HW237557   4.346   0.747   5.147 -0.3553  1.0214 -0.8110
12025SOL     OW37558   1.380   5.724   6.157 -0.1717  1.0606 -0.3750
12025SOL    HW137559   1.423   5.793   6.207  0.2502  1.4481 -1.2647
12025SOL    HW237560   1.451   5.667   6.127 -0.3032  1.4130 -1.4043
12026SOL     OW37561   6.639   6.452   2.887  0.1803 -0.3177 -0.6479
12026SOL    HW137562   6.722   6.460   2.841  0.4174 -1.1474 -0.3882
12026SOL    HW237563   6.598   6.375   2.849  0.3067 -0.9175  0.3909
12027SOL     OW37564   0.361   7.290   3.862  0.0510  0.7680  0.6145
12027SOL    HW137565   0.273   7.327   3.856  0.3903  1.6896  1.1865
12027SOL    HW237566   0.362   7.245   3.947 -0.1339  0.0349  0.2330
12028SOL     OW37567   2.822   2.922   0.483 -0.4228  0.4791  0.2397
12028SOL    HW137568   2.874   2.866   0.424  1.7588 -1.4677  3.8280
12028SOL    HW237569   2.735   2.884   0.482 -0.2100 -0.0147 -1.0744
12029SOL     OW37570   0.989   5.018   7.773  0.4606  0.4228 -0.2130
12029SOL    HW137571   0.982   5.103   7.818 -1.2126  0.2065 -0.0332
12029SOL    HW237572   1.078   4.989   7.791  0.9252  1.9570  0.0708
12030SOL     OW37573   0.696   4.881   2.858  0.4680 -0.1639 -0.1434
12030SOL    HW137574   0.752   4.956   2.839  0.4546  0.1240  0.9171
12030SOL    HW237575   0.609   4.918   2.872  0.0042 -0.6064 -1.7416
12031SOL     OW37576   5.382   5.229   1.806  0.1225 -0.5901  0.1168
12031SOL    HW137577   5.372   5.143   1.847 -1.1187 -1.6706 -2.3026
12031SOL    HW237578   5.296   5.248   1.769  0.3984  1.6835  0.5678
12032SOL     OW37579   5.648   7.547   4.749  0.0210 -0.7455 -0.3223
12032SOL    HW137580   5.652   7.465   4.700 -0.8837 -1.4894  0.8307
12032SOL    HW237581   5.649   7.615   4.682 -4.3135 -1.8095 -1.6292
12033SOL     OW37582   5.307   1.732   7.813 -0.4919 -0.4109 -0.2882
12033SOL    HW137583   5.298   1.670   7.740  2.3122 -0.7358 -0.4204
12033SOL    HW237584   5.257   1.809   7.786 -2.7721 -2.0146 -0.7828
12034SOL     OW37585   3.650   4.949   1.782 -0.4334  0.2789  0.1025
12034SOL    HW137586   3.635   4.893   1.858  1.7742  0.8801  1.0194
12034SOL    HW237587   3.575   4.932   1.725  0.0808 -3.4744  0.4206
12035SOL     OW37588   2.503   5.404   5.919  0.2786  0.5051  0.5697
12035SOL    HW137589   2.429   5.404   5.979 -0.1389 -0.1583  0.0662
12035SOL    HW237590   2.537   5.493   5.922  0.0434  0.5670  1.5139
12036SOL     OW37591   1.907   6.099   6.990  0.1465  0.0974  0.0077
12036SOL    HW137592   1.830   6.082   6.936  0.5806 -0.4075 -0.4620
12036SOL    HW237593   1.976   6.124   6.928 -0.5325  3.8900  0.7226
12037SOL     OW37594   1.812   7.187   2.117  0.5093 -0.4490  0.4371
12037SOL    HW137595   1.767   7.123   2.172  1.1238 -1.1555  0.1341
12037SOL    HW237596   1.762   7.189   2.036 -1.1435  1.5261  1.4514
12038SOL     OW37597   7.654   2.882   4.098 -0.8793  0.2553 -0.1113
12038SOL    HW137598   7.624   2.844   4.015 -0.0195  0.3491 -0.4760
12038SOL    HW237599   7.606   2.965   4.103 -0.7479  0.3696 -0.6431
12039SOL     OW37600   3.017   5.055   5.296  0.0486  0.2791  0.4802
12039SOL    HW137601   3.097   5.017   5.261 -0.3186  0.3001 -0.4021
12039SOL    HW237602   2.947   4.999   5.262 -0.4372  1.2476 -0.1544
12040SOL     OW37603   2.678   0.690   5.872  0.7703  0.0301  0.0696
12040SOL    HW137604   2.733   0.758   5.833  2.3405 -1.0054  0.4249
12040SOL    HW237605   2.645   0.639   5.798 -1.8771  2.2335 -0.3219
12041SOL     OW37606   6.098   6.184   4.399  0.0296  0.8019 -0.0253
12041SOL    HW137607   6.092   6.274   4.365  0.1367  0.4792 -0.9114
12041SOL    HW237608   6.185   6.179   4.438  0.1471  0.9894 -0.2618
12042SOL     OW37609   8.028   0.134   5.297  0.1599  0.0294 -0.7087
12042SOL    HW137610   8.058   0.047   5.322  1.3592  0.2529 -1.3372
12042SOL    HW237611   8.035   0.135   5.202 -1.4709  0.2299 -0.8352
12043SOL     OW37612   5.848   4.258   2.964  0.3431  0.2296 -0.0615
12043SOL    HW137613   5.893   4.219   3.039  0.0042 -1.6062 -0.7854
12043SOL    HW237614   5.913   4.260   2.895  0.8068  2.3956  0.3901
12044SOL     OW37615   7.403   7.123   3.326  0.3033  0.0806 -0.8004
12044SOL    HW137616   7.472   7.150   3.266  0.3204  0.2885 -0.6889
12044SOL    HW237617   7.448   7.111   3.410  0.3442 -0.5543 -0.9067
12045SOL     OW37618   5.089   7.000   7.779 -0.0991  0.5351 -0.0794
12045SOL    HW137619   5.067   7.091   7.796  0.9573  0.6815  0.5809
12045SOL    HW237620   5.012   6.951   7.807 -1.0015  1.2704 -1.2277
12046SOL     OW37621   1.903   2.551   1.734  0.0713 -0.7159  0.1219
12046SOL    HW137622   1.967   2.480   1.738  0.5739 -0.2349  0.5279
12046SOL    HW237623   1.847   2.537   1.811  1.2384  0.3504  1.1787
12047SOL     OW37624   6.999   0.794   4.510 -0.0061  0.8730  0.7712
12047SOL    HW137625   6.965   0.801   4.599  1.7548  1.4549  1.4230
12047SOL    HW237626   6.970   0.708   4.480  0.2214  0.2561  2.2810
12048SOL     OW37627   1.349   2.091   5.099  0.1940 -0.0820 -0.4470
12048SOL    HW137628   1.396   2.175   5.094  1.1670 -0.6134 -0.4379
12048SOL    HW237629   1.398   2.040   5.164 -0.6853 -0.4796 -0.0943
12049SOL     OW37630   3.036   0.445   1.428 -0.3230  0.6081  0.6392
12049SOL    HW137631   3.127   0.417   1.437 -0.3103  1.0129  1.8940
12049SOL    HW237632   3.042   0.538   1.404 -0.4105  1.0073  2.1343
12050SOL     OW37633   5.976   1.372   6.532 -0.2406 -0.7561 -0.3883
12050SOL    HW137634   5.990   1.330   6.447  0.9878 -0.2821 -0.4235
12050SOL    HW237635   5.904   1.432   6.517  0.9118  0.3833 -1.4809
12051SOL     OW37636   6.915   5.431   2.147 -0.0295  0.6477 -0.8685
12051SOL    HW137637   6.872   5.467   2.225 -0.4998  1.3779 -1.4513
12051SOL    HW237638   6.903   5.337   2.154 -0.1678  0.7192 -0.1128
12052SOL     OW37639   4.694   1.435   7.898 -0.5491 -0.0850 -0.5193
12052SOL    HW137640   4.768   1.400   7.848 -1.1040  0.5868 -1.8324
12052SOL    HW237641   4.648   1.492   7.836 -2.1020 -0.4047  0.3221
12053SOL     OW37642   7.099   5.161   1.481 -0.3314 -0.4184 -0.0403
12053SOL    HW137643   7.047   5.229   1.438 -1.1205  0.1650  1.8113
12053SOL    HW237644   7.035   5.104   1.522  0.4408 -0.4405  1.1536
12054SOL     OW37645   5.509   2.665   7.780 -0.4983  0.1444  0.4137
12054SOL    HW137646   5.575   2.602   7.753 -0.2762  0.6324 -0.1937
12054SOL    HW237647   5.448   2.615   7.834  0.1593 -0.3857  0.6629
12055SOL     OW37648   6.549   0.733   4.229  0.1374  0.0052 -0.3074
12055SOL    HW137649   6.574   0.770   4.314 -1.3198  0.9022 -0.2509
12055SOL    HW237650   6.454   0.726   4.233  0.2957 -3.0291 -0.6496
12056SOL     OW37651   6.307   0.815   8.027 -0.0640  0.0190  0.4780
12056SOL    HW137652   6.351   0.885   8.074  1.4268  0.3205 -1.3233
12056SOL    HW237653   6.230   0.856   7.989 -0.0448  0.3099  0.7511
12057SOL     OW37654   3.621   3.601   2.864 -0.3533 -0.0327 -0.0310
12057SOL    HW137655   3.599   3.557   2.947 -0.7193  0.7410  0.2835
12057SOL    HW237656   3.549   3.580   2.806 -1.7192  2.0617  0.8361
12058SOL     OW37657   8.242   5.902   7.729 -0.1742 -0.5328  0.2461
12058SOL    HW137658   8.194   5.861   7.657 -0.8109  0.0125  0.3528
12058SOL    HW237659   8.210   5.856   7.807 -0.2384 -0.4274  0.2809
12059SOL     OW37660   3.622   1.487   1.438  0.3074  0.0256 -0.1934
12059SOL    HW137661   3.663   1.445   1.513  0.2719 -0.5895 -0.5145
12059SOL    HW237662   3.669   1.453   1.362 -0.0105  0.2261 -0.4850
12060SOL     OW37663   0.155   4.197   0.722 -0.3152  0.0600 -0.1255
12060SOL    HW137664   0.210   4.194   0.643  1.4355  0.6110  1.0509
12060SOL    HW237665   0.076   4.149   0.697  1.2895 -2.0145 -1.4217
12061SOL     OW37666   7.331   8.217   6.337  0.0813 -0.1690  0.2727
12061SOL    HW137667   7.337   8.306   6.302  1.7245 -0.4745 -0.2628
12061SOL    HW237668   7.327   8.228   6.432 -0.4746  0.4999  0.1756
12062SOL     OW37669   7.667   6.095   4.539  0.2144 -0.1067  0.1776
12062SOL    HW137670   7.670   6.009   4.580 -2.0971 -0.4189 -0.1979
12062SOL    HW237671   7.644   6.078   4.448  2.5711  0.7583 -0.6133
12063SOL     OW37672   5.145   5.762   7.989  0.3966  0.0664 -0.3401
12063SOL    HW137673   5.105   5.790   7.907  0.9092 -0.3851 -0.7404
12063SOL    HW237674   5.081   5.704   8.029  1.3482 -2.0295 -1.7842
12064SOL     OW37675   5.222   8.262   4.569  0.0039  0.4458  0.0175
12064SOL    HW137676   5.306   8.234   4.533 -1.1019 -0.4836 -1.8957
12064SOL    HW237677   5.207   8.349   4.532 -0.7137 -0.1438 -1.1179
12065SOL     OW37678   7.282   5.093   5.246  0.1195 -0.4100  0.2274
12065SOL    HW137679   7.324   5.149   5.311  0.9994 -0.6764 -0.1006
12065SOL    HW237680   7.219   5.150   5.202  0.7393  0.2348  0.1575
12066SOL     OW37681   5.962   4.317   6.504  0.7122 -0.1067 -0.0562
12066SOL    HW137682   6.011   4.240   6.532  1.0797 -0.5342 -1.7687
12066SOL    HW237683   5.986   4.328   6.412 -1.3047  0.5146 -0.5432
12067SOL     OW37684   6.288   6.421   0.733  0.2235 -0.0928 -0.1743
12067SOL    HW137685   6.310   6.406   0.642 -1.8655 -0.0255 -0.7127
12067SOL    HW237686   6.225   6.493   0.731  0.3837  0.1133  1.3482
12068SOL     OW37687   0.049   2.287   2.788  0.4252 -0.6648 -0.2487
12068SOL    HW137688   0.011   2.367   2.750  0.4277 -0.6968 -0.3189
12068SOL    HW237689  -0.012   2.218   2.763 -0.0967 -0.5337  0.6658
12069SOL     OW37690   7.231   6.005   3.040 -0.3233 -0.2375  0.1001
12069SOL    HW137691   7.213   6.087   2.993  0.6625  0.1988  0.4808
12069SOL    HW237692   7.295   6.029   3.106 -0.7305 -1.1334  0.8258
12070SOL     OW37693   3.973   2.250   1.793 -0.0256  0.6281  0.0707
12070SOL    HW137694   4.047   2.298   1.756 -0.5438  1.5515  0.2136
12070SOL    HW237695   4.012   2.186   1.853  0.6792  0.7425 -0.2714
12071SOL     OW37696   8.308   3.494   0.814  0.2674  0.5700 -0.4778
12071SOL    HW137697   8.263   3.577   0.798 -2.1100 -1.0319 -2.5421
12071SOL    HW237698   8.247   3.443   0.867  0.9782 -0.4792 -0.6417
12072SOL     OW37699   5.160   2.772   3.895  0.6075  0.3030  0.2526
12072SOL    HW137700   5.163   2.810   3.807 -0.8015  2.0230  0.9090
12072SOL    HW237701   5.219   2.828   3.946  0.0174  0.4216  0.8016
12073SOL     OW37702   7.102   3.347   2.302 -0.5191  0.3162 -0.0342
12073SOL    HW137703   7.045   3.406   2.352 -1.0258 -0.0989 -0.1152
12073SOL    HW237704   7.047   3.271   2.284  0.1735 -0.2357  0.1781
12074SOL     OW37705   0.265   3.096   4.694 -0.2185  0.3569 -0.3522
12074SOL    HW137706   0.252   3.133   4.781 -1.5088  0.7602 -0.6972
12074SOL    HW237707   0.269   3.171   4.636 -0.4353  0.0526 -0.7657
12075SOL     OW37708   4.875   5.237   2.023 -0.3782 -0.2244  0.2458
12075SOL    HW137709   4.966   5.238   1.993 -0.6386  0.7339 -0.5195
12075SOL    HW237710   4.879   5.194   2.108  0.5922 -1.5668 -0.4514
12076SOL     OW37711   6.804   5.358   7.501  0.3571  0.1202 -0.6148
12076SOL    HW137712   6.866   5.396   7.563 -1.4032  2.4758 -0.2167
12076SOL    HW237713   6.719   5.390   7.530 -0.8886 -1.6412 -2.1768
12077SOL     OW37714   7.043   8.104   0.978  0.1839 -0.0644 -0.4428
12077SOL    HW137715   6.989   8.090   1.056  2.3308  1.4989  1.4073
12077SOL    HW237716   6.990   8.160   0.921 -1.0723 -0.5159  0.2779
12078SOL     OW37717   3.920   4.616   6.209 -0.3623  0.3344 -0.0604
12078SOL    HW137718   3.997   4.593   6.260  0.2398 -0.0804 -1.1554
12078SOL    HW237719   3.877   4.533   6.191  0.3817  0.2934 -1.7365
12079SOL     OW37720   1.081   1.733   2.283  0.2537  0.4224 -0.1752
12079SOL    HW137721   1.061   1.821   2.315 -0.5216  0.9306 -2.0074
12079SOL    HW237722   1.171   1.739   2.250 -0.4254  1.0343 -1.9757
12080SOL     OW37723   2.416   6.995   2.016 -0.4582 -0.0152 -0.1548
12080SOL    HW137724   2.407   6.932   1.944  0.5743  0.0635 -0.3656
12080SOL    HW237725   2.511   7.004   2.027 -0.6083  1.0462  0.2759
12081SOL     OW37726   8.188   6.468   2.179 -0.3632  0.2131  0.4329
12081SOL    HW137727   8.121   6.501   2.119  0.8830 -1.0057 -1.7148
12081SOL    HW237728   8.269   6.511   2.150 -0.1994  1.8327  3.1261
12082SOL     OW37729   0.360   1.543   3.242  0.0682  0.2565  0.7043
12082SOL    HW137730   0.349   1.470   3.181 -0.8449  0.0349  1.1230
12082SOL    HW237731   0.315   1.616   3.199 -0.5562  0.1065  1.0878
12083SOL     OW37732   6.269   5.666   7.867 -0.1053 -0.1874  0.4910
12083SOL    HW137733   6.276   5.582   7.821 -0.7691  1.1939 -2.1883
12083SOL    HW237734   6.177   5.690   7.860  0.2738  1.2685  0.3101
12084SOL     OW37735   0.497   3.096   1.707 -0.1684  0.1722 -0.3701
12084SOL    HW137736   0.407   3.114   1.679 -0.1775  0.4399 -0.1782
12084SOL    HW237737   0.510   3.155   1.782 -0.3611 -0.9734  0.5781
12085SOL     OW37738   5.819   8.014   1.416  0.4683  0.1964  0.5581
12085SOL    HW137739   5.731   7.981   1.433  0.7579 -0.0856  1.5609
12085SOL    HW237740   5.805   8.102   1.380 -0.2153  0.1768  0.7617
12086SOL     OW37741   2.493   6.220   0.662  0.0079  0.2557 -0.0151
12086SOL    HW137742   2.556   6.253   0.726 -1.0768  3.3597 -0.4603
12086SOL    HW237743   2.518   6.261   0.579  0.3324 -2.3543 -1.2494
12087SOL     OW37744   4.988   1.873   5.919 -0.3956 -0.5399  0.3447
12087SOL    HW137745   5.029   1.943   5.970 -1.7754 -1.0804  2.2185
12087SOL    HW237746   5.051   1.855   5.848  0.5764  1.6459  0.6295
12088SOL     OW37747   2.385   4.657   0.151  0.1585  0.0871  0.5433
12088SOL    HW137748   2.471   4.632   0.118  0.2123 -1.5647  1.8412
12088SOL    HW237749   2.404   4.713   0.227  0.1168 -0.6531  1.1106
12089SOL     OW37750   1.230   5.925   4.204 -0.2101 -0.4477  0.1004
12089SOL    HW137751   1.194   6.008   4.172  4.0101  1.6650  0.5669
12089SOL    HW237752   1.155   5.883   4.247 -1.9852  4.2356  2.0201
12090SOL     OW37753   0.061   0.093   1.355 -0.0946  0.1731  0.1969
12090SOL    HW137754   0.120   0.021   1.338 -0.9538 -0.3977 -0.4311
12090SOL    HW237755   0.025   0.076   1.442  0.9965  0.7628  0.7693
12091SOL     OW37756   6.190   6.187   5.582 -0.2232  0.2458  0.1872
12091SOL    HW137757   6.247   6.239   5.525 -1.4695  1.3976 -0.0563
12091SOL    HW237758   6.244   6.166   5.658  1.0163 -0.0833 -0.7795
12092SOL     OW37759   6.051   3.416   1.772  0.1304  0.2519  0.0604
12092SOL    HW137760   5.958   3.413   1.795  0.0890  0.3716 -0.0896
12092SOL    HW237761   6.063   3.344   1.710 -0.1571  1.0937 -0.9862
12093SOL     OW37762   0.338   3.217   6.192  0.0429  0.8550 -0.2301
12093SOL    HW137763   0.340   3.268   6.111  1.1598  1.3686  0.1123
12093SOL    HW237764   0.293   3.136   6.168 -0.0663  1.2043 -1.2403
12094SOL     OW37765   0.102   0.026   3.050 -0.1725 -0.3137 -0.5610
12094SOL    HW137766   0.127  -0.014   2.966 -0.3546 -1.8056  0.0767
12094SOL    HW237767   0.049  -0.042   3.093 -2.4787  1.4945 -0.4639
12095SOL     OW37768   3.557   3.449   3.080 -0.7036  0.2276 -0.6536
12095SOL    HW137769   3.465   3.475   3.092 -1.2535 -1.8047 -0.2210
12095SOL    HW237770   3.553   3.376   3.018  0.7231  0.6818 -1.2963
12096SOL     OW37771   7.151   7.012   0.253  0.3244 -0.3234 -0.3013
12096SOL    HW137772   7.234   6.987   0.293  0.7663  1.9504  0.2769
12096SOL    HW237773   7.084   6.965   0.303  1.1440 -0.6758  0.4555
12097SOL     OW37774   1.047   6.549   4.341 -0.3642 -0.0028 -0.0347
12097SOL    HW137775   1.043   6.645   4.346 -1.5560  0.0185 -1.4360
12097SOL    HW237776   1.120   6.531   4.283  1.1263  0.0024  1.7759
12098SOL     OW37777   5.461   4.944   2.606 -0.0676 -0.5800 -0.5699
12098SOL    HW137778   5.522   4.892   2.658  0.1647  0.0233 -0.2241
12098SOL    HW237779   5.397   4.977   2.670  0.1670  0.0901 -0.6713
12099SOL     OW37780   0.768   6.671   8.177 -0.2490 -0.2409  0.2700
12099SOL    HW137781   0.713   6.646   8.252 -0.3405  0.2683  0.3688
12099SOL    HW237782   0.742   6.760   8.156  0.1660 -0.1869 -0.0217
12100SOL     OW37783   1.821   7.672   5.768 -0.1749  0.3971 -0.1822
12100SOL    HW137784   1.900   7.679   5.822 -1.0109  0.0329  1.1106
12100SOL    HW237785   1.825   7.749   5.711  1.8547 -0.3856 -1.1607
12101SOL     OW37786   1.697   4.601   0.088  0.4200  0.3097  0.6401
12101SOL    HW137787   1.632   4.659   0.127  0.6061  0.6563  0.4343
12101SOL    HW237788   1.647   4.528   0.053  0.2219  0.1397  1.2636
12102SOL     OW37789   3.149   7.829   7.246  0.2462  0.3032  0.4526
12102SOL    HW137790   3.172   7.901   7.305  0.2517  2.1390 -1.6981
12102SOL    HW237791   3.178   7.860   7.160 -1.7088 -1.3835 -0.8378
12103SOL     OW37792   1.237   1.104   7.388  0.6538 -0.3491  0.1222
12103SOL    HW137793   1.273   1.141   7.469  0.9149  0.4257 -0.3446
12103SOL    HW237794   1.256   1.170   7.321 -1.8966  0.2020 -0.0970
12104SOL     OW37795   2.310   1.584   4.107 -0.5133  0.3042  0.1145
12104SOL    HW137796   2.274   1.540   4.184  0.8322 -1.1592 -0.0642
12104SOL    HW237797   2.294   1.677   4.122 -1.7569 -0.1056  1.3712
12105SOL     OW37798   1.077   6.356   5.549 -0.3016  0.2011  0.3324
12105SOL    HW137799   1.058   6.262   5.555 -0.2866  0.2333  0.9812
12105SOL    HW237800   1.155   6.367   5.603  0.7472  0.2991 -1.1990
12106SOL     OW37801   4.113   7.979   1.383 -0.1172 -0.1346 -0.4037
12106SOL    HW137802   4.098   8.017   1.470 -0.1329  0.4639 -0.6605
12106SOL    HW237803   4.070   8.040   1.323  1.0405  0.1765 -0.9365
12107SOL     OW37804   2.155   0.498   3.360  0.0505  0.0714 -0.3545
12107SOL    HW137805   2.135   0.553   3.284 -0.8058  0.2270 -0.0173
12107SOL    HW237806   2.077   0.503   3.414 -0.0347 -1.4839 -0.3226
12108SOL     OW37807   1.702   7.301   4.780 -0.1921 -0.1340 -0.2311
12108SOL    HW137808   1.749   7.226   4.817 -1.8342 -0.7206  0.7181
12108SOL    HW237809   1.686   7.277   4.689  1.9065  0.3626 -0.7614
12109SOL     OW37810   2.039   4.418   2.752 -0.1312 -0.1494 -0.2359
12109SOL    HW137811   2.115   4.360   2.753 -0.1074 -0.1120  2.5041
12109SOL    HW237812   2.074   4.503   2.725  0.1654 -0.8880 -2.3223
12110SOL     OW37813   1.726   5.673   1.427  0.5012 -0.2141  0.5204
12110SOL    HW137814   1.741   5.656   1.520 -1.0158 -0.2632  0.7658
12110SOL    HW237815   1.652   5.618   1.404  0.4848  0.2501 -0.5755
12111SOL     OW37816   1.862   1.909   4.313  0.6821  0.0741  0.3293
12111SOL    HW137817   1.858   1.903   4.409  0.5827  0.1516  0.3306
12111SOL    HW237818   1.889   1.822   4.285  1.2130  0.1993  0.4590
12112SOL     OW37819   0.902   0.295   3.158 -0.1305 -0.9134  0.0857
12112SOL    HW137820   0.824   0.298   3.215  0.3021  1.6438  0.6032
12112SOL    HW237821   0.868   0.310   3.070 -0.3826 -1.1732  0.1381
12113SOL     OW37822   6.948   7.378   3.971 -0.5062  0.8832  0.2889
12113SOL    HW137823   6.905   7.304   4.011  0.2235  0.7523  0.8440
12113SOL    HW237824   7.025   7.340   3.927 -0.2194  1.2851  0.4404
12114SOL     OW37825   4.052   1.784   2.858 -0.1269 -0.5548  0.5112
12114SOL    HW137826   3.973   1.734   2.878 -0.9871  0.7844  0.4788
12114SOL    HW237827   4.054   1.789   2.762 -0.0911 -0.4317  0.5187
12115SOL     OW37828   0.959   1.640   4.863  0.2511 -0.0365 -0.2037
12115SOL    HW137829   0.869   1.636   4.832 -0.3849 -0.2362  1.5985
12115SOL    HW237830   1.010   1.592   4.798 -1.4933 -3.1868  0.6893
12116SOL     OW37831   7.224   1.900   3.958  0.8645 -0.2923  0.0939
12116SOL    HW137832   7.245   1.992   3.969  1.1977 -0.3764  0.1657
12116SOL    HW237833   7.198   1.871   4.046 -0.2376 -0.0154 -0.1391
12117SOL     OW37834   1.887   7.948   8.000 -0.4759 -0.3670  0.0976
12117SOL    HW137835   1.951   7.898   7.948 -0.7567  0.0237 -0.6287
12117SOL    HW237836   1.802   7.916   7.969 -0.6595  0.7522 -0.5578
12118SOL     OW37837   7.828   2.217   4.434  0.4007  0.1636 -0.2856
12118SOL    HW137838   7.787   2.296   4.398 -0.4715 -0.3736 -0.4932
12118SOL    HW237839   7.755   2.157   4.448  1.2039 -1.1468 -1.5329
12119SOL     OW37840   6.459   3.704   2.797  0.9520 -0.9726  0.2303
12119SOL    HW137841   6.452   3.612   2.822  0.9830 -0.8727  0.6066
12119SOL    HW237842   6.455   3.752   2.879  2.9881 -0.7454  0.2232
12120SOL     OW37843   6.335   1.462   1.307 -0.2909  0.9867 -0.1118
12120SOL    HW137844   6.335   1.556   1.327  2.2569  0.9720  0.1790
12120SOL    HW237845   6.266   1.451   1.243 -2.4702  2.6013  1.8577
12121SOL     OW37846   0.603   0.200   3.546  0.0664 -0.0553  0.6016
12121SOL    HW137847   0.619   0.137   3.616 -0.9473 -1.3587 -0.3433
12121SOL    HW237848   0.511   0.188   3.522  0.0438  1.2975 -0.0582
12122SOL     OW37849   2.769   6.920   4.548 -0.1671 -0.0138 -0.5465
12122SOL    HW137850   2.827   6.980   4.501 -0.7745  0.8805 -0.1713
12122SOL    HW237851   2.693   6.910   4.490 -0.3686  0.1209 -0.3068
12123SOL     OW37852   1.122   2.387   7.356  0.0539 -0.0485  0.5037
12123SOL    HW137853   1.059   2.446   7.397 -1.0233  0.4348 -1.7394
12123SOL    HW237854   1.161   2.439   7.285  1.3569 -1.0515  0.4595
12124SOL     OW37855   3.377   0.929   7.940  0.4898 -0.3705 -0.1953
12124SOL    HW137856   3.405   0.861   8.001  1.6924 -0.5440 -0.9253
12124SOL    HW237857   3.437   1.002   7.957  1.0317 -0.5353 -1.3865
12125SOL     OW37858   5.546   5.769   2.152  0.2653  0.3423 -0.0268
12125SOL    HW137859   5.510   5.699   2.098 -3.2143  1.9690  0.0340
12125SOL    HW237860   5.578   5.834   2.090  0.5107  0.1565 -0.0943
12126SOL     OW37861   4.146   6.273   4.809  0.2954 -0.3442  0.0821
12126SOL    HW137862   4.185   6.278   4.722  1.0305 -2.0797  0.2808
12126SOL    HW237863   4.192   6.339   4.860  0.8355 -0.2755 -0.4859
12127SOL     OW37864   2.613   1.785   5.409  0.2964  0.3068 -0.2525
12127SOL    HW137865   2.661   1.797   5.492  1.2125  0.9402 -0.8522
12127SOL    HW237866   2.525   1.762   5.436  0.7226 -0.0433  0.9062
12128SOL     OW37867   2.778   1.996   4.882  0.1542 -0.0314 -0.3796
12128SOL    HW137868   2.689   1.992   4.915  0.4493  0.3038  0.4735
12128SOL    HW237869   2.829   2.032   4.955  0.5925  1.9651 -1.6298
12129SOL     OW37870   5.321   2.753   5.213  0.2936 -0.1035  0.1629
12129SOL    HW137871   5.311   2.682   5.276  0.3642  0.5725  0.9447
12129SOL    HW237872   5.321   2.710   5.127  0.5690 -1.0608  0.6439
12130SOL     OW37873   1.343   6.850   2.298 -0.2548 -0.2480  0.1285
12130SOL    HW137874   1.397   6.804   2.364 -0.0734 -0.7221 -0.3446
12130SOL    HW237875   1.267   6.881   2.347 -0.7689 -1.7383  0.3253
12131SOL     OW37876   1.407   0.804   5.688  0.3668 -0.2442 -0.3777
12131SOL    HW137877   1.317   0.827   5.709 -0.7474 -2.6127 -2.2762
12131SOL    HW237878   1.445   0.885   5.652 -1.1858  0.6023 -0.1336
12132SOL     OW37879   5.739   4.752   3.102 -0.2552  0.2910 -0.6216
12132SOL    HW137880   5.680   4.723   3.172  0.8241  1.3465  0.7592
12132SOL    HW237881   5.694   4.828   3.065 -0.9131 -0.3722 -1.2048
12133SOL     OW37882   5.421   3.280   2.370 -0.0772  0.4060  0.0275
12133SOL    HW137883   5.390   3.260   2.282  1.1356  1.8495 -0.7573
12133SOL    HW237884   5.494   3.220   2.383  0.5658  1.0590 -0.4812
12134SOL     OW37885   1.939   3.620   1.267 -1.0331 -0.7898 -0.2016
12134SOL    HW137886   1.997   3.555   1.306 -1.1296 -1.6253 -1.4387
12134SOL    HW237887   1.853   3.578   1.267 -0.9788 -0.9204 -1.5885
12135SOL     OW37888   6.065   0.741   2.045  0.3767 -0.0715 -0.3743
12135SOL    HW137889   6.043   0.823   2.089  0.3650 -0.6294  0.6714
12135SOL    HW237890   5.981   0.702   2.024  0.3759 -0.2968  0.0413
12136SOL     OW37891   7.375   5.814   1.367 -0.3907 -0.3354  0.0529
12136SOL    HW137892   7.403   5.723   1.355 -0.0657 -0.4296  1.4732
12136SOL    HW237893   7.416   5.841   1.449  0.3894  1.4411 -0.8819
12137SOL     OW37894   0.341   7.170   4.091 -0.2831 -0.8477 -0.1894
12137SOL    HW137895   0.411   7.125   4.138  1.5565  0.6402 -1.4293
12137SOL    HW237896   0.296   7.222   4.158  1.6457  0.4455  0.1337
12138SOL     OW37897   4.358   4.251   3.940  0.5106  0.0040  0.1354
12138SOL    HW137898   4.296   4.178   3.940  0.2858  0.1291 -3.1452
12138SOL    HW237899   4.313   4.320   3.990 -2.1264  0.1494 -2.3078
12139SOL     OW37900   3.609   6.191   4.280  0.5451  0.4225 -0.1981
12139SOL    HW137901   3.545   6.250   4.321  0.0448 -0.3963  0.2081
12139SOL    HW237902   3.663   6.162   4.353  1.2420  0.9268 -0.5085
12140SOL     OW37903   0.406   7.443   5.775  0.3998 -0.0042  0.7233
12140SOL    HW137904   0.398   7.410   5.864  0.4523  0.0816  0.7594
12140SOL    HW237905   0.477   7.391   5.736 -0.8557 -1.3142  0.1533
12141SOL     OW37906   5.386   1.590   2.235  0.6828  0.2194 -0.1741
12141SOL    HW137907   5.407   1.578   2.142  2.7378  1.7110  0.0633
12141SOL    HW237908   5.470   1.580   2.280 -0.3774 -1.0490  1.6018
12142SOL     OW37909   7.588   5.721   4.050 -0.0295  0.8562  0.8247
12142SOL    HW137910   7.656   5.685   3.993 -0.5933 -0.4983  0.9761
12142SOL    HW237911   7.506   5.691   4.011 -0.4169 -0.1359  2.3544
12143SOL     OW37912   3.079   4.904   2.295 -0.1495  0.8780  0.0894
12143SOL    HW137913   3.072   4.965   2.368  1.1185  1.0349  0.0867
12143SOL    HW237914   3.074   4.959   2.217  0.0398  0.8759  0.0759
12144SOL     OW37915   0.192   3.774   4.784  0.4442  0.3953 -0.0649
12144SOL    HW137916   0.211   3.856   4.828 -1.6857  0.9628 -0.1609
12144SOL    HW237917   0.142   3.724   4.848  1.9988 -0.9961  0.1180
12145SOL     OW37918   5.393   4.403   3.091  0.5185 -0.3973  0.1052
12145SOL    HW137919   5.387   4.498   3.083  0.4707 -0.3446  0.7130
12145SOL    HW237920   5.446   4.389   3.169  0.9309 -0.8702 -0.2526
12146SOL     OW37921   2.617   7.885   0.946 -0.3791 -0.2057  0.0572
12146SOL    HW137922   2.701   7.930   0.953  0.0414 -1.2293  1.7957
12146SOL    HW237923   2.613   7.859   0.854  1.7674 -1.1951  0.2019
12147SOL     OW37924   1.149   2.769   3.588 -0.1557  0.4233 -0.1504
12147SOL    HW137925   1.219   2.722   3.633 -0.3377 -1.0423 -1.3863
12147SOL    HW237926   1.194   2.826   3.526 -0.0320 -0.3440 -0.7741
12148SOL     OW37927   5.772   1.592   2.863 -0.4951 -0.2386  0.1919
12148SOL    HW137928   5.805   1.682   2.854  0.9130 -0.5908  1.5814
12148SOL    HW237929   5.817   1.558   2.941 -1.4328 -1.9651 -0.0043
12149SOL     OW37930   7.075   5.431   4.075 -0.4569 -0.3523 -0.2090
12149SOL    HW137931   7.107   5.358   4.022 -0.0772  0.7490 -1.5107
12149SOL    HW237932   7.138   5.502   4.060 -1.0100  0.3691  0.7805
12150SOL     OW37933   6.935   1.635   2.902  0.0242 -0.4753 -0.1065
12150SOL    HW137934   6.899   1.550   2.877  2.2055 -0.8450 -2.0787
12150SOL    HW237935   6.902   1.696   2.836 -0.5154  0.0073  0.5924
12151SOL     OW37936   4.256   0.652   5.947 -0.1910 -0.4748 -0.2016
12151SOL    HW137937   4.280   0.737   5.912 -0.4257  0.2039  1.2827
12151SOL    HW237938   4.322   0.633   6.014 -0.5785 -1.1101  0.0073
12152SOL     OW37939   5.748   3.616   0.569 -0.2613  0.4995 -0.0133
12152SOL    HW137940   5.806   3.684   0.604  0.7448 -0.5446  0.3780
12152SOL    HW237941   5.801   3.571   0.504 -1.4158  1.0263 -1.3441
12153SOL     OW37942   3.391   5.175   3.803 -0.1089  0.2039  0.6097
12153SOL    HW137943   3.302   5.187   3.770 -0.6088 -0.8391  1.5651
12153SOL    HW237944   3.418   5.089   3.772  0.4731  0.4115  0.5312
12154SOL     OW37945   1.785   1.796   2.928 -0.3688  0.0929  0.1457
12154SOL    HW137946   1.845   1.827   2.997  0.6387 -1.0927 -0.1779
12154SOL    HW237947   1.832   1.724   2.886 -1.9497 -0.7229 -0.2612
12155SOL     OW37948   2.263   2.531   4.256  0.0284  0.6127 -0.0910
12155SOL    HW137949   2.305   2.571   4.180  2.1230 -1.6864 -0.2119
12155SOL    HW237950   2.254   2.438   4.233 -2.5276  0.5205  1.0982
12156SOL     OW37951   2.628   1.096   3.762  0.0927 -0.1808  0.3496
12156SOL    HW137952   2.581   1.179   3.768  0.6176  0.1468 -0.0733
12156SOL    HW237953   2.559   1.030   3.759 -0.3495  0.3053 -0.3800
12157SOL     OW37954   5.954   5.881   1.111 -0.1588 -0.4442  0.1315
12157SOL    HW137955   5.906   5.814   1.158  1.0711 -0.5241  1.3091
12157SOL    HW237956   5.898   5.904   1.037 -0.8753 -2.2883  0.0853
12158SOL     OW37957   1.348   6.015   2.596  0.2207  0.3861  0.2354
12158SOL    HW137958   1.266   5.998   2.550  0.9640  0.1327 -0.9978
12158SOL    HW237959   1.405   6.056   2.531  0.4298  2.3328  1.6107
12159SOL     OW37960   5.371   5.362   2.553 -0.2542 -0.0669  0.5936
12159SOL    HW137961   5.413   5.340   2.636  0.5628 -1.3492 -0.1313
12159SOL    HW237962   5.436   5.415   2.507 -0.3615 -0.0936  0.4131
12160SOL     OW37963   2.642   1.629   7.507  0.2607  0.3841 -0.1141
12160SOL    HW137964   2.584   1.555   7.486  0.7672  0.6068 -2.4422
12160SOL    HW237965   2.729   1.590   7.509  0.5512  0.9241 -1.5508
12161SOL     OW37966   6.024   7.173   6.312  0.5974 -0.5021 -0.2627
12161SOL    HW137967   5.978   7.129   6.240  1.8417 -0.5830 -1.0149
12161SOL    HW237968   5.967   7.160   6.388 -0.1716 -1.4136 -0.9816
12162SOL     OW37969   4.445   7.388   2.751  0.2057  0.1382 -0.1196
12162SOL    HW137970   4.391   7.360   2.677  1.6965  0.4033 -1.3329
12162SOL    HW237971   4.445   7.483   2.745  0.8583  0.1335 -0.1517
12163SOL     OW37972   7.064   2.988   1.217 -0.3974 -0.2772  0.7239
12163SOL    HW137973   6.976   2.987   1.255 -0.8712  0.3359 -0.3100
12163SOL    HW237974   7.049   2.974   1.123  0.5875  0.1397  0.4996
12164SOL     OW37975   1.839   2.673   4.623  0.3757  0.0456 -0.3660
12164SOL    HW137976   1.776   2.742   4.647  0.2948 -0.1940  0.1169
12164SOL    HW237977   1.885   2.653   4.704 -0.7580 -1.6605 -0.1079
12165SOL     OW37978   4.933   2.504   5.733  0.4005 -0.4401  0.2266
12165SOL    HW137979   4.920   2.492   5.827  0.7585 -1.2126  0.1741
12165SOL    HW237980   4.970   2.592   5.725 -0.2623 -0.1105  0.7547
12166SOL     OW37981   1.517   2.886   2.230 -0.1043 -0.2000 -0.8441
12166SOL    HW137982   1.528   2.895   2.135  0.2306 -3.0802 -1.1007
12166SOL    HW237983   1.606   2.879   2.264 -0.3266 -2.0648 -0.6359
12167SOL     OW37984   5.072   5.717   1.987 -0.3043  0.2399 -0.2776
12167SOL    HW137985   5.097   5.805   1.959  0.5695 -0.4442 -1.7212
12167SOL    HW237986   5.136   5.695   2.055 -0.0680  0.4296 -0.4373
12168SOL     OW37987   1.785   6.970   2.988  0.0507 -0.1591 -0.3028
12168SOL    HW137988   1.755   7.055   3.022  0.6561  0.0455 -0.2813
12168SOL    HW237989   1.855   6.944   3.047  0.4345 -0.2748 -0.8088
12169SOL     OW37990   1.057   6.090   3.836  0.4630 -0.0014  0.2694
12169SOL    HW137991   1.135   6.035   3.825 -0.8156 -1.7240 -0.3901
12169SOL    HW237992   1.082   6.175   3.798  3.2585  0.6958  3.4079
12170SOL     OW37993   0.205   7.191   6.972 -0.1830 -0.3926 -0.0100
12170SOL    HW137994   0.190   7.216   6.881 -2.5874 -0.7802  0.2383
12170SOL    HW237995   0.161   7.259   7.023  0.3489 -0.6818  0.8480
12171SOL     OW37996   0.327   6.987   0.133 -0.1466 -0.0917  0.3193
12171SOL    HW137997   0.269   7.014   0.062  0.2420  2.0817  0.7889
12171SOL    HW237998   0.299   7.039   0.208  0.9391 -0.6784  1.1446
12172SOL     OW37999   6.669   2.485   2.437 -0.9329 -0.1281  0.2431
12172SOL    HW138000   6.601   2.449   2.494 -0.2782 -1.8880 -0.0403
12172SOL    HW238001   6.650   2.578   2.432 -2.6695 -0.4264  1.0516
12173SOL     OW38002   4.084   5.304   1.692 -0.3619 -0.5526 -0.0419
12173SOL    HW138003   4.063   5.225   1.743  2.0383 -0.5803  0.9752
12173SOL    HW238004   4.011   5.364   1.710 -0.6952 -1.4157  1.6198
12174SOL     OW38005   3.581   0.995   4.704 -0.2444  0.3314  0.0803
12174SOL    HW138006   3.621   0.909   4.690 -0.1922  0.2772  0.5785
12174SOL    HW238007   3.545   1.018   4.618  1.4310  0.6755 -0.5599
12175SOL     OW38008   7.162   4.087   4.918  0.5071  0.2150 -0.1478
12175SOL    HW138009   7.159   4.141   4.997  1.1319  0.5855 -0.3753
12175SOL    HW238010   7.219   4.135   4.858  0.2203 -0.1786 -0.7417
12176SOL     OW38011   3.741   0.319   4.679  0.5051  0.6557  0.0233
12176SOL    HW138012   3.710   0.365   4.757 -2.2785 -2.9563  1.1608
12176SOL    HW238013   3.668   0.324   4.618  0.2674 -1.9428  0.0601
12177SOL     OW38014   4.455   5.907   5.793  0.2377  0.0282  0.3979
12177SOL    HW138015   4.447   5.816   5.764 -1.3314  0.1673  0.3442
12177SOL    HW238016   4.426   5.906   5.884  1.9111  0.1753  0.9414
12178SOL     OW38017   3.122   6.567   3.648 -0.2121 -0.6392  0.6985
12178SOL    HW138018   3.067   6.527   3.580  0.2648 -0.1196 -0.0012
12178SOL    HW238019   3.119   6.505   3.721  0.8693 -2.1882 -0.5366
12179SOL     OW38020   2.432   7.282   0.776  0.7142  0.2089  0.1068
12179SOL    HW138021   2.479   7.349   0.826  0.4605 -0.3343  1.0825
12179SOL    HW238022   2.342   7.288   0.807  1.0321 -1.7572  1.4739
12180SOL     OW38023   4.188   3.496   6.210 -0.0717  0.4654  0.4310
12180SOL    HW138024   4.220   3.480   6.121  1.1621 -1.0598  1.1253
12180SOL    HW238025   4.099   3.460   6.209  0.7513 -1.6738  0.4299
12181SOL     OW38026   3.236   7.625   5.781 -0.4526 -0.6895 -0.8495
12181SOL    HW138027   3.305   7.678   5.742 -0.2589 -0.2266  0.1106
12181SOL    HW238028   3.163   7.685   5.793  0.6520  0.0706  2.6808
12182SOL     OW38029   6.991   2.997   6.151  0.0079 -0.0772  0.3964
12182SOL    HW138030   6.905   3.035   6.171 -0.2961 -0.1998 -0.6364
12182SOL    HW238031   7.006   3.019   6.059  1.0070 -0.2119  0.5215
12183SOL     OW38032   6.111   4.205   0.894  0.8693  0.0470 -0.1489
12183SOL    HW138033   6.132   4.186   0.986 -2.6944  0.5198  0.8616
12183SOL    HW238034   6.137   4.126   0.847  0.7216 -1.1010  1.6263
12184SOL     OW38035   2.266   0.694   0.214  0.2093  0.8331 -0.0622
12184SOL    HW138036   2.180   0.662   0.241  1.0991 -0.4835  1.2605
12184SOL    HW238037   2.276   0.663   0.123 -0.6505  0.8938 -0.1837
12185SOL     OW38038   5.602   7.752   2.445 -0.1756  0.1789 -0.1394
12185SOL    HW138039   5.589   7.658   2.455  0.3309  0.2306  1.0761
12185SOL    HW238040   5.573   7.771   2.355 -1.7458 -0.8687  0.1319
12186SOL     OW38041   4.427   1.231   2.611  0.3461  0.0338  0.4228
12186SOL    HW138042   4.427   1.136   2.621  0.6128 -0.1004 -0.7589
12186SOL    HW238043   4.492   1.262   2.674  0.1279 -0.5522  0.9383
12187SOL     OW38044   0.862   5.800   3.331  0.0150  0.0542  0.3031
12187SOL    HW138045   0.934   5.831   3.277  0.1025  1.1477  1.0318
12187SOL    HW238046   0.789   5.858   3.310 -0.5953 -0.8968 -0.2524
12188SOL     OW38047   1.283   6.917   2.025  0.9606  0.2990  0.6757
12188SOL    HW138048   1.300   6.914   2.119  1.6539 -2.5141  0.4968
12188SOL    HW238049   1.192   6.888   2.016  1.1015 -0.0741  0.4393
12189SOL     OW38050   7.546   3.110   6.311 -0.1841 -0.1587 -0.0423
12189SOL    HW138051   7.621   3.116   6.252 -0.9140  0.8045 -0.8901
12189SOL    HW238052   7.544   3.195   6.355 -1.2379  0.1141 -0.6022
12190SOL     OW38053   2.688   3.253   3.381 -0.2947 -0.7037  0.1757
12190SOL    HW138054   2.699   3.174   3.433  0.2547  0.4288  1.8162
12190SOL    HW238055   2.593   3.259   3.365 -0.0419 -3.4839 -2.8923
12191SOL     OW38056   8.066   4.761   3.658  0.3134  0.0346  0.2281
12191SOL    HW138057   8.142   4.817   3.676  1.4093 -1.1114 -0.7159
12191SOL    HW238058   8.048   4.774   3.565 -0.7079  0.3415  0.4579
12192SOL     OW38059   6.016   1.668   6.406  0.0311 -0.3152 -0.2587
12192SOL    HW138060   6.035   1.689   6.498 -0.7729 -1.9318  0.2922
12192SOL    HW238061   5.930   1.708   6.390 -0.5625 -1.3905  0.1818
12193SOL     OW38062   4.838   6.661   7.458 -0.2344 -0.4560 -0.1243
12193SOL    HW138063   4.917   6.697   7.418 -0.4533 -0.2128 -0.3435
12193SOL    HW238064   4.805   6.732   7.513  0.9213 -1.3146  1.7388
12194SOL     OW38065   4.556   4.351   7.891  0.1127  0.3495  0.3448
12194SOL    HW138066   4.583   4.366   7.800  2.9985  0.6905  1.2155
12194SOL    HW238067   4.606   4.274   7.918  1.1618  1.6966  2.3815
12195SOL     OW38068   0.962   6.362   6.963 -0.1156  0.7874  0.2252
12195SOL    HW138069   0.943   6.279   6.919  0.7525  1.0404 -0.6449
12195SOL    HW238070   1.023   6.406   6.905 -0.8060  2.1747  0.5299
12196SOL     OW38071   2.725   4.708   1.399 -0.7784  0.2538  0.1047
12196SOL    HW138072   2.713   4.668   1.314 -1.1555  0.1679  0.1960
12196SOL    HW238073   2.818   4.699   1.418 -0.5325  1.1013 -0.7083
12197SOL     OW38074   5.670   3.722   4.861 -0.2621 -0.0327 -0.3849
12197SOL    HW138075   5.648   3.689   4.774  1.1067  0.8505 -1.0710
12197SOL    HW238076   5.761   3.698   4.874 -0.6415 -0.7445  1.1007
12198SOL     OW38077   7.732   7.239   1.610 -0.4100 -0.0582  0.6037
12198SOL    HW138078   7.767   7.269   1.693  0.4243 -1.4675  0.7756
12198SOL    HW238079   7.807   7.238   1.551 -0.8833  0.3769 -0.0151
12199SOL     OW38080   8.156   5.153   1.846 -0.1407  0.2820 -0.5048
12199SOL    HW138081   8.225   5.169   1.782  0.4441  0.7494  0.2286
12199SOL    HW238082   8.192   5.186   1.929 -0.7088 -0.6956  0.1425
12200SOL     OW38083   1.837   0.987   8.135  0.2116  0.2150  0.3708
12200SOL    HW138084   1.850   0.912   8.193 -0.7605  0.1604  0.5220
12200SOL    HW238085   1.925   1.022   8.120  0.6241 -0.7275  0.6043
12201SOL     OW38086   1.316   7.351   4.094 -0.1844 -0.5501  0.4777
12201SOL    HW138087   1.369   7.272   4.087 -0.4300 -0.5804 -1.3448
12201SOL    HW238088   1.225   7.321   4.085 -0.2469 -0.0234 -0.8799
12202SOL     OW38089   5.760   1.277   1.147  0.0123  0.6468  0.7384
12202SOL    HW138090   5.814   1.356   1.148 -0.2449  0.8417 -0.0924
12202SOL    HW238091   5.678   1.302   1.188  0.3005  0.5303  1.3977
12203SOL     OW38092   0.188   6.199   2.257 -0.1658  0.5686  0.3999
12203SOL    HW138093   0.182   6.265   2.327 -0.1404  1.7503 -0.6907
12203SOL    HW238094   0.105   6.208   2.210  0.1701  0.3590 -0.2296
12204SOL     OW38095   5.635   0.695   3.233  0.1493 -0.5482  0.5117
12204SOL    HW138096   5.653   0.727   3.145  1.3147  1.0729  1.3162
12204SOL    HW238097   5.540   0.684   3.236 -0.0608  0.9350 -0.4421
12205SOL     OW38098   7.959   2.334   7.157  0.3094 -0.1925 -0.0518
12205SOL    HW138099   7.881   2.325   7.212 -0.0023  0.9425 -0.3126
12205SOL    HW238100   8.019   2.267   7.190 -1.1796 -1.8053 -0.5508
12206SOL     OW38101   4.463   6.214   3.299  0.0156 -0.2184  0.5662
12206SOL    HW138102   4.435   6.305   3.306  0.5120 -0.1841  2.3261
12206SOL    HW238103   4.506   6.209   3.214 -0.2306  1.1292  0.3477
12207SOL     OW38104   3.311   1.756   1.118 -0.3113  0.4462  0.3735
12207SOL    HW138105   3.268   1.698   1.055 -1.0393  0.9253  0.4274
12207SOL    HW238106   3.404   1.749   1.097 -0.4541 -0.2088 -0.0685
12208SOL     OW38107   4.918   3.530   3.727  0.0101 -0.3600  0.7646
12208SOL    HW138108   4.867   3.611   3.730 -0.3191 -0.5706  0.7992
12208SOL    HW238109   4.897   3.492   3.642  0.4603 -0.2180  0.5881
12209SOL     OW38110   2.798   2.626   6.729 -0.0632 -0.2674  0.1390
12209SOL    HW138111   2.826   2.688   6.662 -1.9841  0.9791  0.4729
12209SOL    HW238112   2.758   2.680   6.797  0.6076 -1.6437  1.6516
12210SOL     OW38113   7.551   1.095   4.756  0.9128 -0.0538 -0.3721
12210SOL    HW138114   7.587   1.181   4.778  1.3232 -0.1548 -0.6421
12210SOL    HW238115   7.527   1.102   4.663  0.5081 -0.0824 -0.2730
12211SOL     OW38116   3.318   2.627   1.161  0.3939 -0.1879 -0.1956
12211SOL    HW138117   3.239   2.582   1.131 -2.2675  1.4713  3.8841
12211SOL    HW238118   3.361   2.564   1.218  0.0741  0.1588  0.4347
12212SOL     OW38119   2.973   4.073   4.278  0.3476 -0.2182  0.2301
12212SOL    HW138120   2.884   4.074   4.244 -0.0422  0.9382  1.2710
12212SOL    HW238121   2.987   3.982   4.306 -1.4559  0.1706  2.5200
12213SOL     OW38122   7.186   6.827   3.776 -0.1709  0.5270 -0.2422
12213SOL    HW138123   7.175   6.739   3.740  2.4484  0.4524 -1.0119
12213SOL    HW238124   7.100   6.851   3.809 -1.4360 -1.4686 -1.9725
12214SOL     OW38125   2.940   5.507   6.419  0.1617 -0.1662  0.1319
12214SOL    HW138126   2.873   5.443   6.446 -1.0862  0.9000 -0.3655
12214SOL    HW238127   2.889   5.581   6.387  1.5931  1.4114  1.4673
12215SOL     OW38128   8.009   0.636   0.563  0.3239 -0.5448 -0.0733
12215SOL    HW138129   7.923   0.648   0.601  0.7912  0.4498  0.6901
12215SOL    HW238130   8.068   0.624   0.638  0.9937 -0.2393 -0.5364
12216SOL     OW38131   2.977   4.249   4.460  0.3996  0.0053  0.0698
12216SOL    HW138132   3.053   4.305   4.448  1.2291 -0.7789  1.5433
12216SOL    HW238133   2.971   4.198   4.379  0.2507  1.4481 -0.8542
12217SOL     OW38134   0.989   4.685   7.100 -0.1008  0.4575 -0.4352
12217SOL    HW138135   1.021   4.682   7.191 -0.4272  0.2989 -0.3232
12217SOL    HW238136   0.916   4.623   7.099  0.0893  0.2398 -0.8820
12218SOL     OW38137   0.572   4.910   6.316  0.3091  0.3713  0.5952
12218SOL    HW138138   0.499   4.850   6.309  1.7558 -1.2722 -1.2205
12218SOL    HW238139   0.643   4.858   6.353  1.7390  0.7584 -1.4829
12219SOL     OW38140   1.988   2.440   5.128  0.2025  0.2075 -0.0775
12219SOL    HW138141   2.057   2.494   5.167  0.3537  1.4172 -1.9194
12219SOL    HW238142   1.928   2.422   5.200  0.9349  1.6037  0.9154
12220SOL     OW38143   3.224   2.516   5.892 -0.1381 -0.4218  0.2095
12220SOL    HW138144   3.146   2.488   5.845  0.4679  0.3821 -1.3046
12220SOL    HW238145   3.286   2.443   5.883 -0.0477 -0.2970 -0.1946
12221SOL     OW38146   2.684   1.589   8.220  0.0453 -0.1798 -0.2191
12221SOL    HW138147   2.672   1.654   8.151  3.0968  2.0338  1.1934
12221SOL    HW238148   2.598   1.581   8.261 -0.6570  2.1853 -1.1291
12222SOL     OW38149   0.730   0.411   1.902  0.3370  0.3873  0.2112
12222SOL    HW138150   0.692   0.483   1.953  2.0800  0.4536  1.4827
12222SOL    HW238151   0.729   0.336   1.962 -0.7365 -0.4663 -0.8395
12223SOL     OW38152   7.780   1.827   3.956 -0.3273  0.0205 -0.1853
12223SOL    HW138153   7.844   1.852   3.890 -0.3552 -2.6461 -1.3116
12223SOL    HW238154   7.795   1.887   4.029  0.3905  2.3698 -2.1985
12224SOL     OW38155   1.654   2.895   5.257  0.0124  0.3684  0.3369
12224SOL    HW138156   1.589   2.882   5.325 -1.2028  0.6804 -0.7525
12224SOL    HW238157   1.616   2.961   5.199 -0.1857 -1.8480 -2.1589
12225SOL     OW38158   5.704   0.748   8.087  0.1096 -0.7279 -0.1253
12225SOL    HW138159   5.792   0.733   8.050  0.6636 -0.6789  1.1393
12225SOL    HW238160   5.650   0.681   8.046  1.0516 -1.6723  0.1222
12226SOL     OW38161   1.419   2.604   6.230 -0.1420  0.0714  0.0183
12226SOL    HW138162   1.357   2.624   6.160  1.2718  0.0938 -1.2661
12226SOL    HW238163   1.469   2.685   6.241 -0.2644  0.0179  0.9484
12227SOL     OW38164   7.950   0.152   4.687 -0.2334 -1.0806  0.0845
12227SOL    HW138165   7.857   0.149   4.665 -0.4707  1.8349  0.5040
12227SOL    HW238166   7.960   0.231   4.740  2.4625 -1.3743  0.0936
12228SOL     OW38167   7.670   5.273   7.880 -0.4206 -0.0660  0.0303
12228SOL    HW138168   7.603   5.311   7.824 -0.6980  1.2747  1.2510
12228SOL    HW238169   7.748   5.326   7.863  0.0308 -0.8993 -0.5368
12229SOL     OW38170   3.949   3.970   2.945 -0.2153 -0.2236 -0.2100
12229SOL    HW138171   3.980   3.882   2.965 -0.2590  0.5769  3.7101
12229SOL    HW238172   3.860   3.973   2.979 -0.0664  1.4523  0.0912
12230SOL     OW38173   4.618   7.532   0.500 -0.2606  0.3762 -0.2878
12230SOL    HW138174   4.626   7.565   0.411  0.1430 -0.0353 -0.4068
12230SOL    HW238175   4.703   7.550   0.540 -0.4015  0.4535 -0.0194
12231SOL     OW38176   1.458   0.067   5.877  0.6413 -0.2572  0.3605
12231SOL    HW138177   1.388   0.130   5.863 -1.0613 -1.9817  0.8018
12231SOL    HW238178   1.486   0.081   5.968  0.2450 -0.1599  0.4687
12232SOL     OW38179   5.124   4.130   3.908  0.8749  0.2628  0.5951
12232SOL    HW138180   5.107   4.069   3.980  1.4078 -0.5883  0.0066
12232SOL    HW238181   5.194   4.089   3.858  0.0269  0.5024 -0.8207
12233SOL     OW38182   3.243   6.668   1.808  0.1114 -0.5694 -0.1780
12233SOL    HW138183   3.284   6.659   1.722  0.8515  1.7174 -0.1078
12233SOL    HW238184   3.310   6.638   1.870 -0.0220 -1.1820 -0.3283
12234SOL     OW38185   5.680   2.954   7.719 -0.3959  0.0604  0.5417
12234SOL    HW138186   5.761   2.920   7.759  0.4908  1.6241  0.1450
12234SOL    HW238187   5.698   2.955   7.625  0.1131  2.7433  0.6049
12235SOL     OW38188   2.215   2.891   4.612 -0.7496 -0.0817 -0.2216
12235SOL    HW138189   2.258   2.973   4.587 -0.1562 -0.0018  1.0141
12235SOL    HW238190   2.265   2.823   4.566 -0.5512  0.1675 -0.3726
12236SOL     OW38191   1.179   5.859   2.776  0.0502 -0.1026 -0.4753
12236SOL    HW138192   1.155   5.892   2.863  0.0579 -0.1450 -0.4570
12236SOL    HW238193   1.251   5.916   2.749  0.6827 -0.6887 -0.0450
12237SOL     OW38194   6.926   4.739   6.320 -0.4804  0.1184  0.6121
12237SOL    HW138195   6.862   4.717   6.252  1.1272 -1.2358 -0.5025
12237SOL    HW238196   6.928   4.834   6.322  0.4120  0.2075 -2.2047
12238SOL     OW38197   2.578   7.541   4.840  0.1315  0.0400 -0.8041
12238SOL    HW138198   2.509   7.598   4.873  0.3674 -0.0659 -0.1375
12238SOL    HW238199   2.658   7.573   4.880  0.7652  1.3222 -3.0028
12239SOL     OW38200   4.114   3.023   0.001 -0.6659 -0.2154 -0.2719
12239SOL    HW138201   4.182   2.957  -0.007  2.7561  2.9770  0.8430
12239SOL    HW238202   4.109   3.063  -0.086  0.3473  0.8646  0.1534
12240SOL     OW38203   3.084   2.976   5.737 -0.4924  0.3351 -0.1613
12240SOL    HW138204   3.145   3.015   5.675 -0.0036 -0.7244 -0.3611
12240SOL    HW238205   3.041   2.906   5.688  0.5854 -1.1307  0.9424
12241SOL     OW38206   6.369   3.734   7.397  0.0381  0.1685  0.3168
12241SOL    HW138207   6.378   3.739   7.492  0.8201 -0.2595  0.2694
12241SOL    HW238208   6.305   3.801   7.375 -1.5058 -0.9525  1.3357
12242SOL     OW38209   0.192   1.604   7.525  0.2135 -0.5826  0.4756
12242SOL    HW138210   0.148   1.661   7.587 -2.8413 -4.2617  1.8930
12242SOL    HW238211   0.275   1.582   7.567  0.6806  1.4153  0.6475
12243SOL     OW38212   7.159   4.079   7.007  0.3345 -0.2072 -0.2356
12243SOL    HW138213   7.230   4.106   7.065 -1.1606 -0.1989  1.6284
12243SOL    HW238214   7.094   4.148   7.014 -1.0274 -1.5105  0.1489
12244SOL     OW38215   4.928   7.357   1.221 -0.5357 -0.0203 -0.0998
12244SOL    HW138216   4.969   7.424   1.167 -0.4505 -0.1560 -0.2037
12244SOL    HW238217   4.895   7.405   1.297 -0.4669  0.1378 -0.1684
12245SOL     OW38218   4.579   5.090   3.887 -0.6927 -0.6511  0.0755
12245SOL    HW138219   4.655   5.087   3.945 -0.7545 -2.1290  0.0886
12245SOL    HW238220   4.575   5.003   3.847 -1.2677  0.0133 -1.3671
12246SOL     OW38221   5.901   6.048   5.200 -0.5890 -0.0070  0.6690
12246SOL    HW138222   5.980   6.020   5.246  0.7134  0.5149 -1.1971
12246SOL    HW238223   5.902   6.143   5.205  0.5990  0.1599 -2.0551
12247SOL     OW38224   2.219   3.289   4.346 -0.1397 -0.1876  0.1270
12247SOL    HW138225   2.224   3.249   4.259  0.8040 -0.3143  0.2380
12247SOL    HW238226   2.231   3.382   4.330  2.2862 -0.4360  0.3385
12248SOL     OW38227   3.829   1.116   6.279 -0.2824  0.1781 -0.1763
12248SOL    HW138228   3.878   1.111   6.197 -0.4874 -1.2833 -0.2181
12248SOL    HW238229   3.832   1.027   6.314  1.1289  1.1078  2.1742
12249SOL     OW38230   0.283   5.704   4.374 -0.1378 -0.6550 -0.1312
12249SOL    HW138231   0.360   5.658   4.408 -1.2553 -2.3514  0.1391
12249SOL    HW238232   0.312   5.795   4.364  1.4622 -0.9778  1.3425
12250SOL     OW38233   5.678   2.364   1.839 -0.0822 -0.1597  0.0480
12250SOL    HW138234   5.766   2.396   1.823 -0.2455 -0.1271 -0.7620
12250SOL    HW238235   5.620   2.426   1.795 -0.4579 -0.8082 -0.3931
12251SOL     OW38236   3.868   7.080   2.989 -0.6258 -0.0639 -0.0746
12251SOL    HW138237   3.799   7.046   3.047 -2.4828  1.3373 -1.3950
12251SOL    HW238238   3.897   7.161   3.032 -1.5633  0.6445 -0.7490
12252SOL     OW38239   4.537   3.099   0.753 -0.4610 -0.1438  0.0963
12252SOL    HW138240   4.550   3.066   0.842  2.7232 -0.6169 -0.4971
12252SOL    HW238241   4.586   3.181   0.750 -0.2161 -0.3342 -1.3683
12253SOL     OW38242   2.568   0.535   3.496 -0.7261 -0.3130 -0.0580
12253SOL    HW138243   2.551   0.496   3.410 -0.1581 -0.5211 -0.0797
12253SOL    HW238244   2.660   0.514   3.514  0.3638  3.1282 -1.1739
12254SOL     OW38245   4.477   0.975   3.232  0.4582  1.0145 -0.7899
12254SOL    HW138246   4.488   1.001   3.141 -1.4183 -0.5936 -1.4964
12254SOL    HW238247   4.398   1.021   3.261  0.6360  0.9472 -0.1764
12255SOL     OW38248   1.182   1.185   3.811  0.8973  0.2576  0.4386
12255SOL    HW138249   1.266   1.225   3.834  2.3548 -2.5974  0.3772
12255SOL    HW238250   1.200   1.136   3.731 -1.1574  0.6010 -0.2594
12256SOL     OW38251   7.509   6.551   4.619 -0.1210 -0.0573  0.1031
12256SOL    HW138252   7.592   6.530   4.660  0.2414 -0.5476 -0.8496
12256SOL    HW238253   7.459   6.470   4.623 -0.1887 -0.0313 -0.1593
12257SOL     OW38254   2.875   7.617   3.745  0.3620 -0.2921 -0.1506
12257SOL    HW138255   2.948   7.629   3.806  0.3779  0.4789 -0.3165
12257SOL    HW238256   2.843   7.528   3.763  0.1016  0.0769  1.2640
12258SOL     OW38257   5.027   7.731   7.260 -0.0016 -0.7585  0.1017
12258SOL    HW138258   5.068   7.647   7.240  0.6663 -0.1502 -1.1395
12258SOL    HW238259   4.960   7.741   7.193 -0.4692 -0.5568  0.5941
12259SOL     OW38260   5.477   6.702   1.947 -0.2744 -0.2399 -0.1443
12259SOL    HW138261   5.412   6.694   2.017  0.5667  1.0441  0.8090
12259SOL    HW238262   5.441   6.768   1.888 -0.8034 -1.0419 -0.7236
12260SOL     OW38263   8.160   2.052   6.524 -0.0628  0.0188 -0.6896
12260SOL    HW138264   8.137   1.974   6.574 -0.7643  0.7007  0.0809
12260SOL    HW238265   8.119   2.040   6.439  1.4285 -1.3174 -1.2458
12261SOL     OW38266   7.888   5.189   1.914 -0.0731  0.0143 -0.2172
12261SOL    HW138267   7.972   5.150   1.889  0.1776  0.3264  0.1445
12261SOL    HW238268   7.835   5.183   1.835  0.3444 -0.0370 -0.4962
12262SOL     OW38269   4.584   3.699   2.377 -0.1595 -0.1470  0.2034
12262SOL    HW138270   4.662   3.677   2.428 -0.0531 -2.1391 -0.7913
12262SOL    HW238271   4.525   3.741   2.440  1.4253  0.7544  1.1179
12263SOL     OW38272   7.929   6.998   4.860  0.2824 -0.1818  0.4766
12263SOL    HW138273   7.842   7.021   4.829  0.1201  0.5444  1.4525
12263SOL    HW238274   7.982   6.991   4.781 -0.2100  1.3048  0.0145
12264SOL     OW38275   1.389   3.388   4.472 -0.1420 -0.4605 -0.0424
12264SOL    HW138276   1.459   3.435   4.517 -1.6851 -1.6165  3.7392
12264SOL    HW238277   1.426   3.301   4.455 -0.6415 -1.1198  2.0882
12265SOL     OW38278   3.296   7.801   6.112 -0.2385  0.2045 -0.5390
12265SOL    HW138279   3.256   7.876   6.155 -0.5247 -0.1368 -0.2081
12265SOL    HW238280   3.337   7.837   6.033 -0.4938  0.6826 -0.4515
12266SOL     OW38281   3.474   4.576   1.940  0.1396  0.2658 -0.2942
12266SOL    HW138282   3.522   4.500   1.907 -1.7543 -1.2984  0.4447
12266SOL    HW238283   3.538   4.623   1.994  0.8486 -1.8216  0.7516
12267SOL     OW38284   7.540   7.013   3.996  0.2602 -0.5315  0.5822
12267SOL    HW138285   7.472   6.965   4.043  0.3412 -0.3256  0.9047
12267SOL    HW238286   7.584   7.065   4.062 -1.8325  2.4106 -0.2571
12268SOL     OW38287   8.049   1.792   1.127  0.1021  0.3164 -0.0102
12268SOL    HW138288   8.017   1.822   1.213  0.4744 -1.3338  0.7226
12268SOL    HW238289   8.083   1.871   1.085 -0.8358  1.2881  1.0296
12269SOL     OW38290   0.507   6.704   5.026 -0.3635  0.2919  0.2637
12269SOL    HW138291   0.511   6.751   5.109  0.1640  1.6223 -0.4889
12269SOL    HW238292   0.592   6.723   4.985 -0.2751 -1.0705 -0.1880
12270SOL     OW38293   8.148   8.042   1.382  0.8040  0.0089 -0.7767
12270SOL    HW138294   8.136   8.135   1.398 -0.4244 -0.0986 -0.9930
12270SOL    HW238295   8.100   8.025   1.301 -1.6728 -1.3724  0.8953
12271SOL     OW38296   6.353   0.335   5.017 -0.4056  0.3355 -0.3025
12271SOL    HW138297   6.386   0.278   5.085  0.1887  1.8762  0.7154
12271SOL    HW238298   6.418   0.330   4.947 -1.3171 -1.7128 -1.0208
12272SOL     OW38299   5.044   7.210   2.269  0.2551  0.3323  0.0463
12272SOL    HW138300   5.009   7.134   2.316 -0.6543 -0.7782 -2.3245
12272SOL    HW238301   5.138   7.205   2.282  0.0566 -0.2078  1.3623
12273SOL     OW38302   4.233   1.903   4.585  0.0456  0.5348  0.4041
12273SOL    HW138303   4.277   1.860   4.659  1.2406  1.0447 -0.0043
12273SOL    HW238304   4.281   1.984   4.573 -0.5850  0.7728 -0.5065
12274SOL     OW38305   3.913   4.198   8.300 -0.4653  0.1660  0.1841
12274SOL    HW138306   3.926   4.132   8.368 -0.9993 -0.1606 -0.0281
12274SOL    HW238307   3.823   4.186   8.272 -0.3676  0.5625 -0.3101
12275SOL     OW38308   1.493   7.347   7.860  0.1196  0.4407 -0.1959
12275SOL    HW138309   1.568   7.317   7.809  1.3142  0.7807  1.2940
12275SOL    HW238310   1.460   7.269   7.903  0.0427  0.4038 -0.3227
12276SOL     OW38311   5.312   1.304   1.885  0.0641 -0.1273 -0.8659
12276SOL    HW138312   5.394   1.255   1.886 -0.2375 -0.6183 -0.0835
12276SOL    HW238313   5.253   1.254   1.941 -0.3204  0.9978 -0.2451
12277SOL     OW38314   2.674   5.483   2.075 -0.1018  0.0378 -0.6432
12277SOL    HW138315   2.721   5.559   2.041  0.7463 -0.3380 -0.2984
12277SOL    HW238316   2.619   5.455   2.002  1.9805 -0.9971 -1.8461
12278SOL     OW38317   2.490   6.678   7.914 -0.1429  0.5729 -0.0200
12278SOL    HW138318   2.443   6.615   7.860  1.4321  0.8751 -1.7980
12278SOL    HW238319   2.470   6.763   7.874 -0.9772  1.0757  1.4061
12279SOL     OW38320   0.734   5.786   4.788  0.1253  0.2825  0.1304
12279SOL    HW138321   0.661   5.786   4.727  0.3050  0.2932 -0.0820
12279SOL    HW238322   0.811   5.771   4.734  0.3765  1.1581  0.2383
12280SOL     OW38323   6.895   2.601   6.882 -0.1080  0.2552  0.2436
12280SOL    HW138324   6.902   2.600   6.787 -2.5092  0.6843  0.0391
12280SOL    HW238325   6.932   2.517   6.909 -1.1056 -0.6783 -1.2109
12281SOL     OW38326   2.127   5.512   3.713 -0.5558 -0.2432  0.5343
12281SOL    HW138327   2.107   5.433   3.763 -0.8064 -0.1334  0.6079
12281SOL    HW238328   2.222   5.510   3.703 -0.6523 -1.0217 -0.2421
12282SOL     OW38329   0.727   4.470   2.037 -0.3143  0.2098 -0.3702
12282SOL    HW138330   0.640   4.430   2.033 -1.3549  2.3099  0.5943
12282SOL    HW238331   0.784   4.401   2.072 -2.0264 -0.5094  1.0688
12283SOL     OW38332   0.252   7.349   1.791 -0.3338  0.2739 -0.3410
12283SOL    HW138333   0.200   7.343   1.871 -0.2117 -1.7926 -0.3664
12283SOL    HW238334   0.237   7.265   1.747  0.1378  1.1179 -2.1536
12284SOL     OW38335   4.194   6.534   2.349  0.2211 -0.1952  0.5285
12284SOL    HW138336   4.185   6.510   2.441  0.0015  1.8112  1.0613
12284SOL    HW238337   4.273   6.587   2.345  0.2747 -0.3287 -0.4640
12285SOL     OW38338   6.203   7.404   7.663 -0.0576 -0.2260  0.0660
12285SOL    HW138339   6.153   7.478   7.629  0.4565  0.0599 -0.0711
12285SOL    HW238340   6.275   7.444   7.712  0.4674 -0.6228 -0.3648
12286SOL     OW38341   2.319   3.866   7.034  0.4009  0.3928 -0.0883
12286SOL    HW138342   2.247   3.895   6.979 -0.4161 -0.2895  0.5903
12286SOL    HW238343   2.335   3.776   7.006 -2.2806 -1.1620  2.9675
12287SOL     OW38344   8.013   2.173   7.600  0.1919  0.0325 -0.3516
12287SOL    HW138345   7.966   2.205   7.678 -0.9718  1.3482 -1.5742
12287SOL    HW238346   7.968   2.092   7.577 -0.4273  0.4215 -0.5322
12288SOL     OW38347   4.270   4.172   4.663  0.2943  0.3408 -0.3801
12288SOL    HW138348   4.274   4.082   4.630 -2.2093  0.9835 -2.5874
12288SOL    HW238349   4.341   4.217   4.618  0.4588 -0.1174 -0.5818
12289SOL     OW38350   5.320   6.761   6.745 -0.1272  0.0554 -0.5889
12289SOL    HW138351   5.264   6.698   6.700  2.9910 -3.2930 -0.0221
12289SOL    HW238352   5.332   6.832   6.682 -2.8198 -0.3781 -1.6777
12290SOL     OW38353   2.969   5.539   0.032 -0.7219 -0.1243  0.4690
12290SOL    HW138354   2.922   5.456   0.028 -0.7752 -0.1474  1.5086
12290SOL    HW238355   2.911   5.597   0.080  0.5086 -0.3112  2.2502
12291SOL     OW38356   4.016   1.636   4.877  0.1400  0.1987  0.1274
12291SOL    HW138357   4.098   1.608   4.918 -1.0532 -0.4660  2.0895
12291SOL    HW238358   4.016   1.732   4.887  0.0174  0.0738  1.4204
12292SOL     OW38359   3.294   0.227   5.682 -0.2745  0.1689  0.2393
12292SOL    HW138360   3.312   0.312   5.722 -1.3951  0.5299 -0.0008
12292SOL    HW238361   3.209   0.201   5.717 -0.0247 -0.7732  0.1677
12293SOL     OW38362   7.186   5.471   8.218  0.0500  0.5016 -0.0104
12293SOL    HW138363   7.110   5.416   8.233 -0.3438  0.7664 -0.9625
12293SOL    HW238364   7.170   5.549   8.271  0.5527 -0.2340  1.2417
12294SOL     OW38365   3.976   2.484   2.074 -0.1473  0.2250 -0.2276
12294SOL    HW138366   3.926   2.414   2.032  1.2448 -0.6073 -0.5239
12294SOL    HW238367   4.050   2.439   2.115 -0.3383  1.2818  1.3189
12295SOL     OW38368   4.926   6.912   5.530 -0.0548  0.0943 -0.3208
12295SOL    HW138369   4.835   6.914   5.562  0.3732 -0.6896  0.9792
12295SOL    HW238370   4.929   6.981   5.464 -1.1633  1.2889  0.8191
12296SOL     OW38371   7.080   4.997   6.010 -0.4275 -0.0985 -0.1631
12296SOL    HW138372   7.162   5.019   5.965 -0.6808  0.8012 -0.1777
12296SOL    HW238373   7.050   5.079   6.048 -1.4341 -0.3931 -0.3166
12297SOL     OW38374   7.158   6.859   4.463 -0.2471  0.3048  0.1839
12297SOL    HW138375   7.179   6.835   4.553 -2.9048 -1.0006  0.5155
12297SOL    HW238376   7.145   6.776   4.418  0.0387  0.9625 -1.1531
12298SOL     OW38377   8.311   4.792   0.932 -0.3306  0.6268 -0.6338
12298SOL    HW138378   8.393   4.770   0.976  0.6411  1.0915 -2.1855
12298SOL    HW238379   8.330   4.872   0.884 -2.1268  1.5513  0.1483
12299SOL     OW38380   3.869   0.181   3.856  0.0323  0.1261  0.1714
12299SOL    HW138381   3.928   0.195   3.783 -1.1219  0.3808 -0.7191
12299SOL    HW238382   3.893   0.095   3.890  1.8435  0.8258  0.7031
12300SOL     OW38383   6.904   6.159   4.801 -0.0489  0.0989 -0.3370
12300SOL    HW138384   6.836   6.111   4.754 -0.8035  1.6659 -0.8740
12300SOL    HW238385   6.967   6.184   4.733  0.9341 -1.0968  0.1119
12301SOL     OW38386   6.783   4.311   6.336  0.2685  0.1333  0.2775
12301SOL    HW138387   6.773   4.391   6.388 -1.4675 -0.0400  0.2464
12301SOL    HW238388   6.754   4.241   6.395 -0.4315 -0.2079 -0.4607
12302SOL     OW38389   1.917   0.870   5.487 -0.0053 -0.5750 -0.2178
12302SOL    HW138390   1.946   0.958   5.465  0.3436 -0.7160 -0.3268
12302SOL    HW238391   1.993   0.830   5.530 -0.0225 -0.9571 -0.5417
12303SOL     OW38392   1.258   5.130   0.076  0.4395  0.2626 -0.4969
12303SOL    HW138393   1.326   5.183   0.115 -0.2409  0.1580  0.8652
12303SOL    HW238394   1.303   5.077   0.010  1.6625  0.2452  0.3383
12304SOL     OW38395   5.094   5.666   3.089 -0.4714 -0.3059  0.4225
12304SOL    HW138396   5.101   5.761   3.077 -1.7196 -0.1567  0.8295
12304SOL    HW238397   5.167   5.630   3.038 -0.4294  0.8260 -0.3352
12305SOL     OW38398   2.551   5.997   0.856  0.1896  0.9180 -0.6054
12305SOL    HW138399   2.535   5.908   0.825  0.8761  0.2850  0.8439
12305SOL    HW238400   2.517   6.053   0.786 -0.4172 -0.4746 -1.4368
12306SOL     OW38401   2.896   2.075   3.458 -0.4206 -0.4837  0.3965
12306SOL    HW138402   2.929   2.154   3.416  0.4146 -1.1232 -0.1618
12306SOL    HW238403   2.941   2.072   3.543  1.2151 -1.5104 -0.4826
12307SOL     OW38404   0.166   3.913   2.284  0.1993  0.0470 -0.3894
12307SOL    HW138405   0.189   4.000   2.316  0.1482 -0.0771 -0.0030
12307SOL    HW238406   0.070   3.910   2.288  0.2060 -0.0643 -0.2973
12308SOL     OW38407   5.212   4.422   7.941 -0.0044  0.0154 -0.3741
12308SOL    HW138408   5.135   4.451   7.990  0.1580 -0.7149  0.3251
12308SOL    HW238409   5.178   4.360   7.877  0.1227 -1.1289  0.6429
12309SOL     OW38410   0.356   2.695   7.371 -0.0361  0.5825 -0.5911
12309SOL    HW138411   0.356   2.782   7.412 -0.4830  0.2607  0.1033
12309SOL    HW238412   0.447   2.666   7.378  0.7165  2.1288 -3.2948
12310SOL     OW38413   8.071   7.087   1.343 -0.2113 -0.0617 -0.1213
12310SOL    HW138414   8.071   7.003   1.389  1.6910 -0.3525 -0.6190
12310SOL    HW238415   8.036   7.067   1.256 -0.3150 -0.2173 -0.0450
12311SOL     OW38416   3.968   4.764   3.804  0.1773 -0.3345  0.1845
12311SOL    HW138417   3.910   4.840   3.816  0.7865  0.0653  0.6830
12311SOL    HW238418   3.937   4.722   3.724 -0.2409  0.3798 -0.0365
12312SOL     OW38419   2.866   5.544   0.395  0.7825 -0.3016 -0.1502
12312SOL    HW138420   2.865   5.454   0.362  0.4847 -1.2085  2.2418
12312SOL    HW238421   2.778   5.559   0.428  1.2423  0.2984  0.8570
12313SOL     OW38422   5.464   2.702   1.975  0.3854 -0.3908  0.4355
12313SOL    HW138423   5.428   2.666   1.894 -1.6311 -0.4603  1.3264
12313SOL    HW238424   5.517   2.776   1.947 -1.5648  0.5580 -0.8427
12314SOL     OW38425   6.744   5.091   1.344 -0.0253  0.3081 -0.3611
12314SOL    HW138426   6.815   5.084   1.280  0.1557  0.9439 -0.2379
12314SOL    HW238427   6.676   5.033   1.311  0.5477 -0.3020 -0.4874
12315SOL     OW38428   0.814   3.057   0.079  0.3977  0.0800  0.7136
12315SOL    HW138429   0.726   3.065   0.043  0.1881 -0.1231  1.1889
12315SOL    HW238430   0.849   2.977   0.039  0.6020  0.5026  0.0315
12316SOL     OW38431   4.057   3.921   4.763  0.0288 -0.2232  0.2436
12316SOL    HW138432   3.969   3.935   4.726  0.1048 -1.0789 -0.2733
12316SOL    HW238433   4.116   3.936   4.690  0.2687 -0.4721  0.3885
12317SOL     OW38434   5.317   5.060   2.848 -0.0694  0.0687 -0.1861
12317SOL    HW138435   5.288   4.971   2.867 -0.4251  0.4990  1.3516
12317SOL    HW238436   5.237   5.112   2.848  0.3181  0.6684  0.5963
12318SOL     OW38437   5.218   6.958   1.634 -0.7049 -0.1891  0.2685
12318SOL    HW138438   5.289   6.994   1.580 -1.1022  1.9822  1.1593
12318SOL    HW238439   5.160   6.916   1.571  0.5700 -0.6415 -0.6325
12319SOL     OW38440   1.296   3.345   1.955  0.2489 -0.2459  0.3957
12319SOL    HW138441   1.207   3.340   1.920 -0.3605 -0.2771  1.9250
12319SOL    HW238442   1.343   3.275   1.909 -0.6062 -0.4944 -0.1343
12320SOL     OW38443   2.648   0.371   6.866  0.1146  0.3719  0.4854
12320SOL    HW138444   2.594   0.343   6.792  0.8763 -0.8171  0.3558
12320SOL    HW238445   2.635   0.303   6.932 -0.0550  1.0939  1.1953
12321SOL     OW38446   5.499   0.452   2.527  0.6115  0.2601 -0.8112
12321SOL    HW138447   5.585   0.493   2.518  0.9594  0.6414  3.3630
12321SOL    HW238448   5.518   0.358   2.534  0.9603  0.5052  2.2400
12322SOL     OW38449   4.346   3.600   7.382 -0.0602 -0.6218 -0.1507
12322SOL    HW138450   4.261   3.616   7.341  0.8364 -0.3415 -1.9336
12322SOL    HW238451   4.408   3.653   7.331  0.8538  1.0664  2.5797
12323SOL     OW38452   8.167   0.558   7.944  0.4137  0.2791  0.1922
12323SOL    HW138453   8.106   0.615   7.898  1.0051 -0.6672 -1.8554
12323SOL    HW238454   8.172   0.593   8.032 -2.6777  0.6855  0.2619
12324SOL     OW38455   6.368   0.308   6.857  0.1578  0.4459 -0.7026
12324SOL    HW138456   6.319   0.266   6.786 -0.1104 -1.1478  0.3708
12324SOL    HW238457   6.428   0.240   6.888 -0.0548  0.9578  0.8779
12325SOL     OW38458   7.595   2.124   1.726 -0.4954 -0.2674  0.0038
12325SOL    HW138459   7.640   2.185   1.784 -1.6922 -0.0193  0.6956
12325SOL    HW238460   7.502   2.136   1.746 -0.7801 -1.9445 -0.2121
12326SOL     OW38461   0.322   2.980   3.458  0.2659  0.2843  0.1157
12326SOL    HW138462   0.342   2.886   3.453  0.8057  0.3939  0.1609
12326SOL    HW238463   0.235   2.988   3.420  1.0773  0.0385 -1.8653
12327SOL     OW38464   6.385   5.298   0.197 -0.2306 -0.4666 -0.0837
12327SOL    HW138465   6.461   5.239   0.197 -0.5338 -0.8571  0.3496
12327SOL    HW238466   6.320   5.253   0.142  0.2941  0.4469 -1.4800
12328SOL     OW38467   8.307   4.539   0.834 -0.0928  0.1953  0.2541
12328SOL    HW138468   8.295   4.626   0.872  0.5151  0.1839  0.4860
12328SOL    HW238469   8.236   4.530   0.770 -1.4845 -0.0114  1.8005
12329SOL     OW38470   6.139   6.163   1.840 -0.2250 -0.0774 -0.1051
12329SOL    HW138471   6.183   6.237   1.882 -1.7584  0.6268  0.2774
12329SOL    HW238472   6.206   6.094   1.837  0.7042  0.7547  1.0638
12330SOL     OW38473   1.747   1.771   0.130 -0.1570  0.3156 -0.0126
12330SOL    HW138474   1.699   1.746   0.051 -0.9636  1.3904  0.1273
12330SOL    HW238475   1.692   1.839   0.171  0.2150 -0.2901  1.5078
12331SOL     OW38476   7.335   0.535   6.737  0.0978  0.4530  0.3315
12331SOL    HW138477   7.422   0.574   6.737 -0.2658  1.2833  0.1569
12331SOL    HW238478   7.347   0.448   6.776  1.0967  0.3421 -0.2140
12332SOL     OW38479   5.867   5.022   6.374  0.0119  0.1510  0.2637
12332SOL    HW138480   5.850   5.034   6.281  0.8903 -2.7694 -0.3444
12332SOL    HW238481   5.780   5.022   6.415 -0.6114 -1.6119 -1.0047
12333SOL     OW38482   4.743   1.967   4.552  0.3536 -0.0922 -0.3942
12333SOL    HW138483   4.652   1.985   4.526 -0.9704 -1.3587  3.0562
12333SOL    HW238484   4.772   2.048   4.594  0.5114  0.0037 -0.6868
12334SOL     OW38485   0.872   6.328   4.271 -0.1495  0.2023 -0.0711
12334SOL    HW138486   0.949   6.285   4.235 -1.1114 -0.8034 -0.9533
12334SOL    HW238487   0.887   6.421   4.254  0.2296 -0.1058 -1.5172
12335SOL     OW38488   2.138   3.809   7.889  0.0073  0.6725  0.2966
12335SOL    HW138489   2.231   3.814   7.866 -0.5943  1.3841 -2.1853
12335SOL    HW238490   2.106   3.900   7.881 -1.3294  0.1216 -0.9095
12336SOL     OW38491   2.050   4.065   7.797  0.6016  0.5118  0.2496
12336SOL    HW138492   2.036   4.136   7.860 -0.0526  0.6621 -0.0610
12336SOL    HW238493   2.075   4.109   7.716 -1.1214  0.4762 -0.3160
12337SOL     OW38494   8.192   2.300   6.650 -0.1152  0.2619 -0.6012
12337SOL    HW138495   8.114   2.355   6.640 -1.1842 -1.1238  0.0307
12337SOL    HW238496   8.173   2.221   6.599  0.4656 -0.5198  0.3770
12338SOL     OW38497   7.468   4.165   0.593 -0.1360 -0.4384  0.1750
12338SOL    HW138498   7.421   4.104   0.650 -2.0792 -0.1411 -1.0573
12338SOL    HW238499   7.399   4.220   0.555  1.4120  1.2530 -0.2199
12339SOL     OW38500   4.704   1.987   2.336 -0.4176  0.0467 -0.2521
12339SOL    HW138501   4.793   2.016   2.316 -0.2605  0.6717  1.2445
12339SOL    HW238502   4.649   2.063   2.317 -0.3611  0.3776  0.8764
12340SOL     OW38503   0.901   1.155   0.738  0.0100 -0.0936  0.5012
12340SOL    HW138504   0.809   1.141   0.713  0.4237 -0.4079 -0.8706
12340SOL    HW238505   0.897   1.177   0.831 -1.3425 -1.4620  0.7877
12341SOL     OW38506   6.304   0.385   3.142  0.4045 -0.1968 -0.3465
12341SOL    HW138507   6.275   0.321   3.207  2.4890 -0.3766  0.4381
12341SOL    HW238508   6.399   0.375   3.139  0.5300  1.2258 -1.9566
12342SOL     OW38509   0.403   3.556   2.742 -0.0189  0.3222  0.0455
12342SOL    HW138510   0.426   3.582   2.831 -0.1501  0.1836  0.1200
12342SOL    HW238511   0.484   3.522   2.704  0.6337  2.5942 -0.6849
12343SOL     OW38512   7.157   3.929   3.850  0.1459  0.1553  0.3588
12343SOL    HW138513   7.193   3.947   3.763 -1.3537  1.4099 -0.0210
12343SOL    HW238514   7.066   3.956   3.844 -0.2275 -0.6825  2.0395
12344SOL     OW38515   3.954   6.951   4.886  0.4322 -0.1292  0.5075
12344SOL    HW138516   4.023   6.935   4.822  0.2203 -1.4813  0.5985
12344SOL    HW238517   3.996   6.933   4.971 -0.4860 -2.6568  0.4582
12345SOL     OW38518   1.455   0.940   2.722 -0.2097  0.7308 -0.3780
12345SOL    HW138519   1.365   0.940   2.688 -0.6231  0.2026  0.6821
12345SOL    HW238520   1.495   0.862   2.684 -0.6677  0.1476  0.3154
12346SOL     OW38521   6.161   4.473   2.813 -0.1513 -0.8115  0.4721
12346SOL    HW138522   6.237   4.513   2.855  0.6140 -0.8055 -0.8944
12346SOL    HW238523   6.153   4.518   2.729 -1.0856 -1.4669  0.1952
12347SOL     OW38524   6.966   1.629   3.178 -0.1204  0.1873 -0.3477
12347SOL    HW138525   6.957   1.720   3.205 -0.7764 -0.6129  2.3082
12347SOL    HW238526   6.961   1.631   3.082 -3.4286  2.5996 -0.2012
12348SOL     OW38527   3.747   8.181   7.163 -0.5089  0.6618 -0.1683
12348SOL    HW138528   3.658   8.148   7.154  0.3856 -1.7884 -0.3248
12348SOL    HW238529   3.754   8.208   7.255 -1.2221  0.3052 -0.0109
12349SOL     OW38530   7.122   0.884   4.296  0.3689 -0.0501  0.5592
12349SOL    HW138531   7.211   0.851   4.308  0.2382 -1.1810 -1.2094
12349SOL    HW238532   7.071   0.841   4.365  0.9593 -0.4369  0.7615
12350SOL     OW38533   5.493   1.628   6.561  0.1765 -0.3114 -0.1739
12350SOL    HW138534   5.434   1.593   6.494  0.6167  1.8898 -1.7551
12350SOL    HW238535   5.438   1.688   6.611  0.7273  0.7108 -0.7909
12351SOL     OW38536   4.397   5.534   1.526 -0.1381 -0.1233  0.0804
12351SOL    HW138537   4.389   5.438   1.524  0.0229 -0.1394  0.1537
12351SOL    HW238538   4.488   5.549   1.555 -0.6447  0.0566  1.6533
12352SOL     OW38539   1.014   7.124   1.126  0.3547 -0.2597  0.0545
12352SOL    HW138540   1.024   7.198   1.066  0.1496 -0.1538  0.1507
12352SOL    HW238541   1.047   7.048   1.077 -0.0957 -0.2237 -0.3024
12353SOL     OW38542   5.539   5.686   4.925  0.7871  0.5178  0.6008
12353SOL    HW138543   5.538   5.779   4.905 -1.9052  0.5069  0.3990
12353SOL    HW238544   5.457   5.653   4.886  1.4273 -1.8093  1.1453
12354SOL     OW38545   1.335   6.472   5.506  0.3073 -0.1434 -0.4047
12354SOL    HW138546   1.242   6.487   5.492  0.0221 -1.0440  0.4811
12354SOL    HW238547   1.369   6.557   5.534 -0.2788  0.1324 -0.5190
12355SOL     OW38548   2.261   2.006   4.435  0.0484 -0.2193  0.0040
12355SOL    HW138549   2.291   2.028   4.346  0.4836  0.8562  0.4054
12355SOL    HW238550   2.284   1.914   4.446  0.6456 -0.1667 -0.7464
12356SOL     OW38551   4.778   2.509   3.070  0.4318  0.4885  0.6011
12356SOL    HW138552   4.708   2.449   3.096  1.3119 -0.7997  0.0655
12356SOL    HW238553   4.743   2.596   3.088 -0.6241 -0.2040  2.0253
12357SOL     OW38554   2.974   8.276   5.402 -0.3965  0.4564 -0.1714
12357SOL    HW138555   2.928   8.194   5.423  2.4491 -1.6302 -1.6328
12357SOL    HW238556   2.909   8.329   5.357 -2.7961 -0.2738  2.3048
12358SOL     OW38557   0.827   1.239   2.009  0.0559 -0.8066  0.5318
12358SOL    HW138558   0.884   1.182   2.060  2.7318  1.1018 -0.1400
12358SOL    HW238559   0.868   1.325   2.016 -2.2650  0.4495 -0.7895
12359SOL     OW38560   6.389   2.904   5.966 -0.0207  0.1948 -0.3638
12359SOL    HW138561   6.403   2.982   6.020 -1.0780  0.0479  0.1326
12359SOL    HW238562   6.463   2.848   5.986  0.8951  1.1784 -0.9260
12360SOL     OW38563   2.231   1.926   5.005  0.4028 -0.0083 -0.4961
12360SOL    HW138564   2.221   1.831   4.994  0.2681  0.0838 -1.2032
12360SOL    HW238565   2.234   1.960   4.915 -1.1733  0.8352 -0.2433
12361SOL     OW38566   7.537   0.885   4.924 -0.2780  0.0440 -0.1555
12361SOL    HW138567   7.499   0.819   4.866 -0.4556  0.1272 -0.1370
12361SOL    HW238568   7.543   0.963   4.870 -2.0051  0.5947  0.3969
12362SOL     OW38569   1.969   5.839   7.931  0.4542  0.1615 -0.0571
12362SOL    HW138570   2.042   5.780   7.914  1.7484  1.7066  0.0281
12362SOL    HW238571   1.973   5.858   8.024 -0.6506 -0.5045  0.1364
12363SOL     OW38572   8.131   5.769   0.659  0.2996 -0.4268 -0.1373
12363SOL    HW138573   8.065   5.711   0.620 -0.5035 -0.2206  0.9015
12363SOL    HW238574   8.147   5.732   0.746  0.1385  0.6206  0.3458
12364SOL     OW38575   4.753   2.089   3.648 -0.2473  0.0394  0.4544
12364SOL    HW138576   4.762   2.139   3.567 -1.7151  0.0489  0.2801
12364SOL    HW238577   4.662   2.059   3.647  0.2609 -1.5675  1.1706
12365SOL     OW38578   5.058   1.951   0.539  0.1107  0.2923 -0.2937
12365SOL    HW138579   4.985   1.935   0.478 -1.3732 -0.1624  1.5540
12365SOL    HW238580   5.053   1.878   0.601 -0.6637  2.6281  2.4740
12366SOL     OW38581   2.100   7.407   0.490 -1.0125 -0.2045 -0.1746
12366SOL    HW138582   2.028   7.405   0.427 -0.1521 -1.0503 -1.1625
12366SOL    HW238583   2.108   7.499   0.514  0.3819  0.5893 -3.3881
12367SOL     OW38584   5.249   4.738   5.687  0.3861 -0.0363 -0.2740
12367SOL    HW138585   5.261   4.810   5.624 -0.6387  0.3027 -0.0902
12367SOL    HW238586   5.261   4.779   5.772 -0.9921  0.1018 -0.1313
12368SOL     OW38587   3.860   2.940   2.056  0.6479 -0.2981 -0.4255
12368SOL    HW138588   3.941   2.943   2.106  0.0932 -0.9371  0.5342
12368SOL    HW238589   3.825   2.852   2.073 -0.8351  0.3892  0.1330
12369SOL     OW38590   0.040   1.456   1.297  0.1389 -0.6094  0.2259
12369SOL    HW138591   0.060   1.387   1.361  1.8284  0.2028  0.5946
12369SOL    HW238592  -0.027   1.417   1.240  1.2135 -2.6347  0.2918
12370SOL     OW38593   1.942   8.215   2.100  0.3538 -0.0825  0.7658
12370SOL    HW138594   1.898   8.273   2.039 -0.6406 -0.5348  1.0356
12370SOL    HW238595   2.012   8.174   2.050 -0.7237 -0.7738 -0.1849
12371SOL     OW38596   5.023   6.587   1.288 -0.4578 -0.4524 -0.1242
12371SOL    HW138597   5.038   6.512   1.345 -1.9069  0.3730  1.3917
12371SOL    HW238598   4.987   6.549   1.208  2.4320 -1.6985 -0.8912
12372SOL     OW38599   6.006   1.122   4.374  0.3638  0.4855 -0.0525
12372SOL    HW138600   5.943   1.191   4.355  0.4016  0.7502  0.7435
12372SOL    HW238601   6.077   1.135   4.312 -0.6907 -0.2431 -1.4280
12373SOL     OW38602   4.323   3.545   5.599  0.3242  0.1226  0.0215
12373SOL    HW138603   4.394   3.596   5.638 -0.8573  0.7507  1.4074
12373SOL    HW238604   4.279   3.605   5.539  0.9576 -0.2659 -0.8361
12374SOL     OW38605   1.228   3.320   1.546  0.1473 -0.0162 -0.1025
12374SOL    HW138606   1.160   3.374   1.587  2.3772  2.1067  0.9592
12374SOL    HW238607   1.233   3.352   1.456 -0.0276  0.0418 -0.0930
12375SOL     OW38608   4.978   6.323   6.401 -0.1951 -0.3090  0.2550
12375SOL    HW138609   4.920   6.248   6.385  0.0780 -0.1323 -1.6809
12375SOL    HW238610   4.920   6.392   6.433 -1.0096 -0.2290 -1.3682
12376SOL     OW38611   2.369   6.152   3.508 -0.6128 -0.5322 -0.4111
12376SOL    HW138612   2.450   6.200   3.490  0.5336 -2.6359 -1.1036
12376SOL    HW238613   2.370   6.138   3.603 -0.0158 -0.7751 -0.4499
12377SOL     OW38614   1.743   0.668   4.342 -0.3647  0.4573 -0.0158
12377SOL    HW138615   1.777   0.622   4.419  1.1439 -0.5555 -1.2686
12377SOL    HW238616   1.648   0.667   4.355 -0.1905 -0.6021  1.3321
12378SOL     OW38617   5.089   5.945   5.462 -0.3684  0.6047 -0.2667
12378SOL    HW138618   5.103   6.009   5.531  0.5150  1.0842 -0.8799
12378SOL    HW238619   5.119   5.988   5.382 -0.7263 -0.1969 -0.8481
12379SOL     OW38620   5.014   3.767   2.793  0.6033 -0.2785 -0.0663
12379SOL    HW138621   4.974   3.685   2.824  0.4146 -0.2926 -0.3490
12379SOL    HW238622   5.044   3.810   2.873 -1.6077  0.5996  0.3299
12380SOL     OW38623   3.151   3.125   4.131  0.5132 -0.4495 -0.3201
12380SOL    HW138624   3.120   3.144   4.219 -0.3200 -3.3245  0.0537
12380SOL    HW238625   3.236   3.168   4.125  0.4826 -0.0670  1.8075
12381SOL     OW38626   6.652   1.721   3.446  0.5182 -0.0515 -0.4537
12381SOL    HW138627   6.594   1.752   3.516  1.0196 -0.0107 -0.0572
12381SOL    HW238628   6.725   1.679   3.492 -0.0481 -1.6636 -0.9697
12382SOL     OW38629   5.535   5.487   3.585  0.5342  1.0503  0.2028
12382SOL    HW138630   5.609   5.474   3.644  1.1782  0.7159 -0.6806
12382SOL    HW238631   5.522   5.402   3.543 -1.0723  0.7893  1.1771
12383SOL     OW38632   0.655   0.752   3.866 -0.4321  0.0832  0.2283
12383SOL    HW138633   0.635   0.813   3.937 -1.2397  0.9306 -0.6994
12383SOL    HW238634   0.750   0.755   3.858 -0.4168  0.7599  0.5957
12384SOL     OW38635   0.544   5.936   5.819 -0.4761  0.2164 -0.3705
12384SOL    HW138636   0.469   5.902   5.868  0.6349 -2.4229 -0.4143
12384SOL    HW238637   0.617   5.932   5.881  0.7433 -2.3055 -1.9060
12385SOL     OW38638   7.669   2.101   2.116 -0.4416  0.2090 -0.3939
12385SOL    HW138639   7.574   2.095   2.104 -0.3560 -3.4796  0.2016
12385SOL    HW238640   7.685   2.058   2.200  1.7689  0.8237 -0.4751
12386SOL     OW38641   8.066   2.636   8.005 -0.4351 -0.1628 -0.1053
12386SOL    HW138642   8.133   2.693   8.044 -0.6159 -1.1925  1.7454
12386SOL    HW238643   8.038   2.579   8.076 -0.0759 -2.7609 -1.9569
12387SOL     OW38644   2.379   4.279   2.054  0.3142 -0.1815 -0.0676
12387SOL    HW138645   2.464   4.240   2.033  0.4887 -0.5447  1.2662
12387SOL    HW238646   2.321   4.204   2.068  0.4020  0.0236  1.5025
12388SOL     OW38647   1.668   0.080   6.117  0.7203 -0.1218  0.1891
12388SOL    HW138648   1.734   0.018   6.087  1.2467  0.6698 -0.3278
12388SOL    HW238649   1.704   0.166   6.094 -0.2308  0.3480  0.4231
12389SOL     OW38650   0.024   3.324   5.566 -0.0306  0.1041  0.2130
12389SOL    HW138651  -0.048   3.367   5.520  1.3961  0.5546 -1.6462
12389SOL    HW238652  -0.016   3.248   5.607 -1.2562 -0.6652 -2.2964
12390SOL     OW38653   3.869   3.405   6.566 -0.3043  0.0047  0.4431
12390SOL    HW138654   3.887   3.338   6.500  0.8784  4.1814 -3.7741
12390SOL    HW238655   3.775   3.398   6.582 -0.2855 -2.3381 -0.2546
12391SOL     OW38656   6.158   4.860   7.592 -0.3507 -0.0013 -0.3221
12391SOL    HW138657   6.175   4.852   7.498 -0.8055 -1.2073 -0.3131
12391SOL    HW238658   6.223   4.803   7.633 -0.3646  0.2672  0.0744
12392SOL     OW38659   0.795   2.268   5.153  0.1677  0.6706 -0.0376
12392SOL    HW138660   0.880   2.228   5.134 -0.1967 -0.3580  0.4788
12392SOL    HW238661   0.766   2.305   5.069  1.8699  2.4865  0.1324
12393SOL     OW38662   3.067   0.847   4.661  0.3651  0.0333 -0.2686
12393SOL    HW138663   2.993   0.843   4.722  1.9014  1.1074  1.7361
12393SOL    HW238664   3.034   0.898   4.587 -0.5358  1.6618  1.1943
12394SOL     OW38665   8.076   0.179   5.660 -0.0669  0.2062 -0.6334
12394SOL    HW138666   8.082   0.090   5.693 -1.6700 -0.1333 -1.2615
12394SOL    HW238667   8.094   0.234   5.737 -0.6863 -0.6199  0.1067
12395SOL     OW38668   2.714   6.836   2.669 -0.2386  0.2695 -0.1229
12395SOL    HW138669   2.628   6.796   2.661 -1.0775  2.1094 -0.5952
12395SOL    HW238670   2.745   6.844   2.579  0.8856 -1.3497  0.1135
12396SOL     OW38671   4.113   6.982   1.729 -0.0549  0.0174 -0.0286
12396SOL    HW138672   4.076   6.968   1.817 -0.1111  1.6634  0.2310
12396SOL    HW238673   4.197   6.937   1.731 -0.9009 -1.5748  0.2403
12397SOL     OW38674   5.910   3.179   7.749  0.3053  0.2543 -0.1067
12397SOL    HW138675   5.820   3.199   7.724  0.5809  0.5441 -0.8891
12397SOL    HW238676   5.950   3.265   7.764  0.4168  0.1205  0.3630
12398SOL     OW38677   3.671   4.588   4.289 -0.2482 -0.4421  0.0512
12398SOL    HW138678   3.619   4.637   4.354 -1.3417 -0.4939 -0.7634
12398SOL    HW238679   3.759   4.588   4.325 -0.7917 -0.2868  1.4468
12399SOL     OW38680   0.554   1.342   0.327 -0.3444 -0.0204 -0.7267
12399SOL    HW138681   0.529   1.254   0.300 -1.3976 -0.2807  1.0393
12399SOL    HW238682   0.471   1.385   0.348  0.3751  0.3543  1.4846
12400SOL     OW38683   1.401   2.625   4.464  0.1099  0.1091  0.1124
12400SOL    HW138684   1.336   2.678   4.510  0.7714  0.5481  0.5475
12400SOL    HW238685   1.402   2.658   4.375 -0.6642 -0.2705 -0.0421
12401SOL     OW38686   0.916   0.033   2.245 -0.3920  0.0681  0.1135
12401SOL    HW138687   0.897   0.042   2.338 -0.0714 -1.0439  0.2973
12401SOL    HW238688   1.011   0.042   2.239 -0.6271  2.4472 -0.4051
12402SOL     OW38689   4.262   1.348   4.806 -0.2862  0.0027 -0.4551
12402SOL    HW138690   4.275   1.359   4.900  0.2992  0.6705 -0.6140
12402SOL    HW238691   4.340   1.385   4.766 -1.0538  0.7926 -1.2626
12403SOL     OW38692   2.181   1.925   6.965 -0.0138 -0.1752 -0.2278
12403SOL    HW138693   2.106   1.920   6.906 -0.5706 -1.2596  0.5531
12403SOL    HW238694   2.191   2.019   6.983 -1.3606 -0.0382 -0.1097
12404SOL     OW38695   5.089   3.111   8.276 -0.0717  0.3767  0.6518
12404SOL    HW138696   5.124   3.082   8.193  0.3682  0.5023  0.7949
12404SOL    HW238697   5.156   3.089   8.340 -0.4869  0.1036  1.0002
12405SOL     OW38698   1.610   5.406   5.232 -0.1570 -0.4029 -0.0275
12405SOL    HW138699   1.561   5.479   5.269  0.8373  0.1525  0.2039
12405SOL    HW238700   1.689   5.446   5.196  0.7276 -1.4482  0.7170
12406SOL     OW38701   2.221   7.554   1.205  0.3953  0.3843  0.7598
12406SOL    HW138702   2.302   7.583   1.162 -0.5013  1.5195 -0.2174
12406SOL    HW238703   2.180   7.634   1.236 -0.2964 -0.1950  1.3646
12407SOL     OW38704   6.658   4.676   2.646 -0.3065 -0.0376  0.0026
12407SOL    HW138705   6.734   4.659   2.701  0.4466 -0.7429 -1.2420
12407SOL    HW238706   6.694   4.707   2.563 -1.4123  0.6415 -0.2405
12408SOL     OW38707   1.445   1.356   1.098 -0.3829 -0.2323  0.0181
12408SOL    HW138708   1.509   1.340   1.029  1.3680 -0.2695  1.6053
12408SOL    HW238709   1.493   1.341   1.180 -2.0366  1.1064  1.2902
12409SOL     OW38710   5.743   1.524   4.253 -0.2645  0.2375 -0.3846
12409SOL    HW138711   5.751   1.563   4.166 -0.7356  2.6275  0.5896
12409SOL    HW238712   5.650   1.504   4.262  0.0966 -1.9469 -1.1915
12410SOL     OW38713   6.937   0.868   6.580 -0.0050  0.6709 -0.1977
12410SOL    HW138714   6.855   0.821   6.565 -1.1126  1.8998  1.7525
12410SOL    HW238715   6.945   0.873   6.675  2.0576  1.0618 -0.3676
12411SOL     OW38716   0.243   5.570   1.417  0.5017 -0.0080 -0.1542
12411SOL    HW138717   0.231   5.632   1.345 -2.1096  0.1951  0.3905
12411SOL    HW238718   0.260   5.625   1.494 -3.3505  0.2614  0.6431
12412SOL     OW38719   4.114   0.528   0.211  0.8744  0.3312  0.3131
12412SOL    HW138720   4.057   0.566   0.143  1.8889  0.1044 -0.6792
12412SOL    HW238721   4.059   0.525   0.289 -0.8467 -0.8696 -0.9056
12413SOL     OW38722   5.779   0.570   5.986 -0.4190  0.1844 -0.0879
12413SOL    HW138723   5.802   0.477   5.987 -0.9900  0.0400  0.3855
12413SOL    HW238724   5.740   0.586   6.072 -0.4049  0.8409 -0.2008
12414SOL     OW38725   4.689   7.208   3.583  0.0992 -0.6077 -0.0369
12414SOL    HW138726   4.651   7.179   3.501 -1.6332 -1.3374  0.9999
12414SOL    HW238727   4.763   7.150   3.598 -0.1357 -1.0505 -0.6254
12415SOL     OW38728   0.277   6.013   4.983 -0.4268 -0.0033 -0.1187
12415SOL    HW138729   0.192   6.002   5.024  0.2783 -1.6127  0.9843
12415SOL    HW238730   0.293   5.930   4.937  0.9119 -0.0773  0.4346
12416SOL     OW38731   0.843   3.751   6.905  0.2660 -0.0564 -0.1203
12416SOL    HW138732   0.834   3.659   6.881  0.9541  0.0523 -0.8466
12416SOL    HW238733   0.937   3.768   6.897  0.1608  0.6590  0.1702
12417SOL     OW38734   0.691   6.669   1.112 -0.8482  0.3732 -0.3828
12417SOL    HW138735   0.668   6.714   1.031  2.3642 -2.3821 -2.9587
12417SOL    HW238736   0.783   6.646   1.102 -1.9772 -5.8318  1.1011
12418SOL     OW38737   7.819   0.653   4.053  0.3495  0.1741  0.2046
12418SOL    HW138738   7.808   0.691   3.966 -2.0302 -1.0468 -0.0558
12418SOL    HW238739   7.829   0.728   4.112  0.3809  1.0477 -0.9099
12419SOL     OW38740   3.437   4.722   1.236  0.2915  0.0177 -0.0429
12419SOL    HW138741   3.519   4.683   1.267  0.3552  0.5492  0.4864
12419SOL    HW238742   3.401   4.658   1.175  1.7589  0.3592 -1.3037
12420SOL     OW38743   2.380   7.789   4.754 -0.0830  0.0315  0.3369
12420SOL    HW138744   2.402   7.746   4.672 -0.4970  0.1447  0.1652
12420SOL    HW238745   2.286   7.773   4.765 -0.6289  2.3770 -0.5981
12421SOL     OW38746   4.557   4.872   6.837 -0.0089 -0.7899 -0.1458
12421SOL    HW138747   4.608   4.943   6.878 -0.1673  0.2898 -1.7705
12421SOL    HW238748   4.548   4.806   6.906 -1.7825  1.7344  2.1513
12422SOL     OW38749   5.550   3.436   3.802 -0.0852 -0.5132 -0.4399
12422SOL    HW138750   5.491   3.372   3.761 -0.4202  0.5534 -1.6680
12422SOL    HW238751   5.528   3.434   3.895  0.2260 -2.5113 -0.3778
12423SOL     OW38752   3.984   3.347   7.360 -0.3712 -0.3823  0.2374
12423SOL    HW138753   4.008   3.437   7.384  3.0454 -1.3179  0.5076
12423SOL    HW238754   3.993   3.345   7.265  2.3780 -1.1753  0.4806
12424SOL     OW38755   3.441   1.357   2.273  0.0198  0.8121  0.3785
12424SOL    HW138756   3.451   1.416   2.198 -0.0374 -0.6809 -0.8242
12424SOL    HW238757   3.358   1.312   2.258  0.9131 -0.8795  0.3279
12425SOL     OW38758   1.967   7.221   2.461  0.6539  0.8768 -0.2371
12425SOL    HW138759   2.060   7.220   2.482  0.7013 -1.0899 -0.4540
12425SOL    HW238760   1.961   7.271   2.379  1.3064  2.3801  0.6124
12426SOL     OW38761   6.807   6.353   1.957  0.0102  0.4873 -0.2015
12426SOL    HW138762   6.755   6.408   2.014 -0.4605 -1.2749  1.1068
12426SOL    HW238763   6.773   6.370   1.869 -1.2825  0.9832  0.3922
12427SOL     OW38764   6.775   8.017   2.746  0.0315  0.1810 -0.2324
12427SOL    HW138765   6.830   7.959   2.799  1.4110 -0.2678 -2.1153
12427SOL    HW238766   6.827   8.097   2.737  0.1755 -0.0607 -1.6203
12428SOL     OW38767   0.371   5.959   7.533  0.2952  0.0650  0.3718
12428SOL    HW138768   0.378   5.864   7.525  0.8131 -0.0231  1.6905
12428SOL    HW238769   0.295   5.972   7.591 -0.5201  0.5002 -0.7766
12429SOL     OW38770   7.089   2.130   5.162 -0.5657  0.3819  0.0845
12429SOL    HW138771   7.147   2.189   5.114 -0.2552 -0.6968 -0.8987
12429SOL    HW238772   7.147   2.062   5.197 -0.6319  1.7183  2.9424
12430SOL     OW38773   2.557   2.792   1.105 -0.3695 -0.0204  0.5697
12430SOL    HW138774   2.642   2.831   1.086 -0.3139 -0.3275  0.1767
12430SOL    HW238775   2.510   2.860   1.153 -0.6423  0.9125 -0.9823
12431SOL     OW38776   7.680   7.393   0.971  0.3154  0.0294 -0.5479
12431SOL    HW138777   7.766   7.426   0.942  0.2773  0.4470 -0.1821
12431SOL    HW238778   7.617   7.451   0.927  0.2756  1.2715  1.1137
12432SOL     OW38779   6.831   8.164   6.267  0.5407 -0.3380 -0.8409
12432SOL    HW138780   6.763   8.228   6.245  1.9404  0.5752 -2.6314
12432SOL    HW238781   6.912   8.214   6.267  1.3844 -1.6537  0.1528
12433SOL     OW38782   5.704   0.943   0.816 -0.2785 -0.3185  0.7672
12433SOL    HW138783   5.696   0.972   0.906 -2.5740 -0.1072  0.5304
12433SOL    HW238784   5.798   0.931   0.802  0.2053  1.0546  2.7182
12434SOL     OW38785   2.963   1.272   0.988  0.5319 -0.0965 -0.4746
12434SOL    HW138786   2.941   1.192   1.036 -3.1671  0.2504 -1.4132
12434SOL    HW238787   2.961   1.246   0.896  1.8846  0.5089 -0.6795
12435SOL     OW38788   4.257   7.151   0.088  0.6319 -0.0423  0.2525
12435SOL    HW138789   4.272   7.173   0.180  1.7722 -0.7029  0.2342
12435SOL    HW238790   4.330   7.094   0.065  0.2942  0.0320 -1.0386
12436SOL     OW38791   4.815   7.827   2.453 -0.0261 -0.1831 -0.5679
12436SOL    HW138792   4.761   7.888   2.402  0.4365  1.6580  1.0769
12436SOL    HW238793   4.780   7.832   2.542  0.3993 -1.9076 -0.2799
12437SOL     OW38794   4.748   5.937   6.013  0.6331 -0.0136  0.1989
12437SOL    HW138795   4.823   5.907   5.960 -0.9306 -0.8828 -1.5769
12437SOL    HW238796   4.672   5.919   5.958 -0.6803  3.6531  0.7074
12438SOL     OW38797   6.832   1.713   7.749 -0.3108  0.4401  0.0667
12438SOL    HW138798   6.845   1.805   7.727  1.2752  0.0146 -0.8898
12438SOL    HW238799   6.921   1.678   7.758 -0.8854 -1.2975 -0.8786
12439SOL     OW38800   2.715   6.272   7.908 -0.0519  0.0339  0.5702
12439SOL    HW138801   2.724   6.260   8.003 -0.2464 -0.7408  0.4906
12439SOL    HW238802   2.804   6.289   7.878 -0.1322  1.3579  1.0361
12440SOL     OW38803   3.543   7.239   3.252 -0.2092 -0.2422 -0.0129
12440SOL    HW138804   3.516   7.179   3.183  0.3314 -1.1195  0.5284
12440SOL    HW238805   3.611   7.192   3.300 -1.4203 -0.1332  1.8646
12441SOL     OW38806   7.841   7.766   5.639  0.1494 -0.2256  0.4125
12441SOL    HW138807   7.889   7.709   5.699  1.5233 -0.0240 -0.4750
12441SOL    HW238808   7.749   7.750   5.659  0.5630 -1.3351  1.4755
12442SOL     OW38809   5.301   5.659   3.473  0.4106 -0.0400  0.3961
12442SOL    HW138810   5.343   5.578   3.501 -1.2706 -0.1727  2.6954
12442SOL    HW238811   5.225   5.631   3.423  0.6457  0.1300 -0.0532
12443SOL     OW38812   4.708   6.628   1.922  0.3987  0.4853  0.1086
12443SOL    HW138813   4.620   6.596   1.901  0.2198  0.3403  1.0571
12443SOL    HW238814   4.750   6.553   1.963  1.2207  0.3208 -1.0124
12444SOL     OW38815   3.902   1.728   2.412 -0.3054  0.1781 -0.5445
12444SOL    HW138816   3.811   1.750   2.391 -0.6757 -1.1405 -0.3643
12444SOL    HW238817   3.920   1.649   2.361  0.2158 -0.4897  0.6652
12445SOL     OW38818   7.278   8.101   7.802 -0.9058 -0.4503 -0.3488
12445SOL    HW138819   7.273   8.183   7.752 -0.0117 -1.5967 -2.3887
12445SOL    HW238820   7.327   8.124   7.881  0.6107  0.6884 -1.5769
12446SOL     OW38821   2.792   1.889   5.756 -0.0546  0.1612  0.5560
12446SOL    HW138822   2.837   1.811   5.723  0.4583  1.2625 -1.4361
12446SOL    HW238823   2.842   1.914   5.834  0.7351 -0.6013  0.3058
12447SOL     OW38824   3.879   5.242   2.968 -0.2237 -0.4691 -0.3060
12447SOL    HW138825   3.839   5.163   2.931  2.6561 -2.5503  0.8203
12447SOL    HW238826   3.827   5.261   3.045 -2.0197 -0.2107 -1.5572
12448SOL     OW38827   0.732   6.350   4.752 -0.0542 -0.6612  0.5148
12448SOL    HW138828   0.827   6.358   4.740 -0.4054  3.1750 -0.5154
12448SOL    HW238829   0.716   6.389   4.838 -0.7512 -0.7887  0.4445
12449SOL     OW38830   7.501   1.981   1.512 -0.2584 -0.4228 -0.0767
12449SOL    HW138831   7.433   2.047   1.498 -1.5324 -1.5817  0.5637
12449SOL    HW238832   7.563   2.022   1.571 -0.2820  0.7195 -0.8242
12450SOL     OW38833   0.114   6.679   3.680  0.6912  0.3877 -0.3097
12450SOL    HW138834   0.172   6.686   3.755 -1.6653  0.6769  1.5192
12450SOL    HW238835   0.101   6.585   3.668  0.4078  0.3737  0.1372
12451SOL     OW38836   0.658   3.742   7.158  0.3689 -0.1030  0.4374
12451SOL    HW138837   0.627   3.822   7.200 -0.0946  0.5119 -1.0352
12451SOL    HW238838   0.583   3.711   7.107  0.5871 -1.4070  0.8862
12452SOL     OW38839   0.479   5.066   7.304  0.3948  0.5084 -0.0023
12452SOL    HW138840   0.557   5.011   7.308 -2.7564 -4.0909  1.6195
12452SOL    HW238841   0.461   5.076   7.211  1.1319 -1.0532 -0.3242
12453SOL     OW38842   3.529   7.274   2.468  0.9986  0.2860 -0.0527
12453SOL    HW138843   3.440   7.292   2.436  1.4112 -1.6968 -2.4443
12453SOL    HW238844   3.536   7.326   2.548 -1.8462  1.5268 -0.5321
12454SOL     OW38845   4.452   4.849   0.375  0.2538  0.2486  0.0466
12454SOL    HW138846   4.442   4.804   0.291  0.7127  1.2833 -0.5732
12454SOL    HW238847   4.367   4.890   0.391 -0.3382 -1.2612  0.8769
12455SOL     OW38848   6.893   3.517   1.784  0.2048 -0.2300 -0.4739
12455SOL    HW138849   6.799   3.512   1.767  0.1080 -0.4776  0.1211
12455SOL    HW238850   6.915   3.433   1.823  0.7838 -0.3821 -1.1125
12456SOL     OW38851   5.305   6.594   3.106  0.0266 -0.1527  0.2369
12456SOL    HW138852   5.270   6.528   3.045 -0.6278  0.1396  0.2955
12456SOL    HW238853   5.324   6.544   3.186  0.3692 -0.4320 -0.0135
12457SOL     OW38854   1.016   8.129   7.659  0.1693  0.0007  0.6255
12457SOL    HW138855   1.002   8.040   7.628  0.5133 -0.5812  2.0999
12457SOL    HW238856   1.099   8.156   7.618 -0.9678  0.4136 -1.4561
12458SOL     OW38857   3.080   5.086   8.182 -0.0513  0.1147 -0.2799
12458SOL    HW138858   3.146   5.117   8.119 -1.0836  0.1213 -1.3717
12458SOL    HW238859   3.125   5.017   8.231  0.8132  0.2143 -0.9134
12459SOL     OW38860   0.553   1.458   2.564  0.4480  0.3490  0.2291
12459SOL    HW138861   0.466   1.499   2.563 -0.4812 -1.5318  1.0951
12459SOL    HW238862   0.584   1.465   2.474 -1.6735 -1.1745 -0.6511
12460SOL     OW38863   5.938   4.803   4.989 -0.1364 -0.2304 -0.5398
12460SOL    HW138864   5.921   4.715   5.022  1.2212 -1.4287 -2.8850
12460SOL    HW238865   6.015   4.833   5.037  0.3935 -1.0004 -0.8983
12461SOL     OW38866   6.761   1.875   8.045  0.2334 -0.0267  0.0924
12461SOL    HW138867   6.688   1.858   8.103 -0.1219 -0.9344 -0.6133
12461SOL    HW238868   6.771   1.795   7.994  0.1414  0.9603 -1.5357
12462SOL     OW38869   0.579   6.044   7.276  0.4320 -0.0887  0.2170
12462SOL    HW138870   0.601   6.110   7.210  3.6459 -0.8653  0.4082
12462SOL    HW238871   0.503   5.998   7.240  0.7574  0.9530 -1.8931
12463SOL     OW38872   5.563   1.682   7.877 -0.1841 -0.3793 -0.1038
12463SOL    HW138873   5.499   1.660   7.809 -0.5777  0.6837 -0.0846
12463SOL    HW238874   5.541   1.771   7.903  1.0144 -0.1703  0.2343
12464SOL     OW38875   4.258   1.376   5.812  0.6656 -0.6750  0.2168
12464SOL    HW138876   4.201   1.417   5.747  1.9522 -0.2660 -0.6635
12464SOL    HW238877   4.311   1.448   5.847 -0.1725 -0.8463  1.9059
12465SOL     OW38878   5.053   5.372   8.307 -0.2891  0.1397  0.1882
12465SOL    HW138879   5.105   5.395   8.230 -1.7954  0.3342 -0.7977
12465SOL    HW238880   4.996   5.301   8.277 -1.1035  0.4200  1.0311
12466SOL     OW38881   2.995   2.064   1.153 -0.1983 -0.7976 -0.2677
12466SOL    HW138882   3.034   1.995   1.099 -0.5358 -0.5420 -0.8531
12466SOL    HW238883   2.928   2.103   1.096 -0.6053 -0.5658  0.3644
12467SOL     OW38884   7.277   1.450   5.347  0.0485  0.3859 -0.0048
12467SOL    HW138885   7.318   1.489   5.424 -1.4194  2.4805 -0.2233
12467SOL    HW238886   7.336   1.471   5.275  0.4228  0.1806  0.2417
12468SOL     OW38887   1.430   6.600   0.140 -0.6154 -0.1560 -0.4533
12468SOL    HW138888   1.350   6.556   0.111  0.1775 -2.0811  0.1900
12468SOL    HW238889   1.402   6.687   0.166 -2.3341 -0.4776 -1.1870
12469SOL     OW38890   0.145   6.465   2.683 -0.4079 -0.1887 -0.4701
12469SOL    HW138891   0.185   6.400   2.741  1.4031  1.3778  0.1065
12469SOL    HW238892   0.070   6.498   2.733 -1.0528 -1.4735 -0.5719
12470SOL     OW38893   4.868   7.427   7.192  0.1639 -0.0873 -0.5354
12470SOL    HW138894   4.843   7.426   7.284  1.7778 -1.7991 -0.1098
12470SOL    HW238895   4.789   7.396   7.146 -0.0330 -1.0363  0.4193
12471SOL     OW38896   7.899   6.277   7.143 -0.0446 -0.0335  0.4516
12471SOL    HW138897   7.843   6.355   7.142 -0.8469 -0.6194 -0.7336
12471SOL    HW238898   7.988   6.311   7.143 -0.3930  0.8969  1.3266
12472SOL     OW38899   6.112   4.670   0.509 -0.2051  0.3107  0.4516
12472SOL    HW138900   6.102   4.717   0.426  0.6653  2.5597  1.5877
12472SOL    HW238901   6.205   4.647   0.512 -0.2478  0.1853  0.8004
12473SOL     OW38902   2.084   0.368   7.858  0.0460  0.3020 -0.3770
12473SOL    HW138903   2.065   0.453   7.896 -0.7303  0.9905 -2.2403
12473SOL    HW238904   2.174   0.348   7.885 -0.0808  1.2979  0.7898
12474SOL     OW38905   2.995   1.233   5.780 -0.0663 -0.1531 -0.0427
12474SOL    HW138906   3.006   1.256   5.687  0.5501 -0.1304  0.0315
12474SOL    HW238907   2.979   1.317   5.823 -2.0937 -0.3440 -0.3559
12475SOL     OW38908   7.387   2.456   5.093  0.5095 -0.2712  0.7534
12475SOL    HW138909   7.477   2.484   5.075 -0.8143  2.4875 -2.1060
12475SOL    HW238910   7.360   2.508   5.169  0.9405 -0.1711  0.8360
12476SOL     OW38911   1.169   2.682   1.195 -0.2111 -0.0348 -0.5304
12476SOL    HW138912   1.077   2.704   1.207 -0.0539  0.2512  0.2077
12476SOL    HW238913   1.169   2.607   1.137 -0.8203  1.2688 -2.2589
12477SOL     OW38914   3.185   7.123   3.233  0.0631  0.1433 -0.3503
12477SOL    HW138915   3.249   7.167   3.177  0.6934  0.4678  0.6039
12477SOL    HW238916   3.236   7.056   3.280 -0.1751  0.7447  0.7931
12478SOL     OW38917   6.228   2.706   3.441  0.4173  0.1348  0.6119
12478SOL    HW138918   6.308   2.741   3.479  0.9090 -0.7949  0.4443
12478SOL    HW238919   6.221   2.750   3.356  0.6972  0.2868  0.6662
12479SOL     OW38920   3.573   1.619   4.305  0.2870 -0.0612 -0.3809
12479SOL    HW138921   3.579   1.708   4.268 -1.0665  0.3961  0.4358
12479SOL    HW238922   3.660   1.601   4.339  0.2893  1.4456  0.4978
12480SOL     OW38923   5.546   3.352   2.009 -0.3923 -0.2286 -0.4020
12480SOL    HW138924   5.513   3.439   2.031  0.5675  0.2318 -0.7455
12480SOL    HW238925   5.577   3.317   2.093 -0.4813 -0.1118 -0.3194
12481SOL     OW38926   3.348   6.708   5.282 -0.1133 -0.3649  0.4606
12481SOL    HW138927   3.375   6.685   5.193 -1.3982  1.1114 -0.3385
12481SOL    HW238928   3.425   6.751   5.319  0.0591  0.0240 -0.3353
12482SOL     OW38929   6.453   7.442   1.484 -0.2283 -0.0100 -0.5910
12482SOL    HW138930   6.510   7.476   1.553 -1.2570  1.1614 -0.3015
12482SOL    HW238931   6.416   7.520   1.443  0.5726 -0.6936 -2.6564
12483SOL     OW38932   7.384   5.664   3.146 -0.3907  0.0886  0.0678
12483SOL    HW138933   7.392   5.586   3.090 -0.5281  1.0149 -1.2808
12483SOL    HW238934   7.429   5.733   3.096 -3.2564  1.6979 -0.3737
12484SOL     OW38935   3.798   7.037   4.642 -0.0177 -0.0314 -0.1193
12484SOL    HW138936   3.801   6.943   4.659 -0.0646 -0.1710 -0.8948
12484SOL    HW238937   3.890   7.062   4.628  0.2047  0.3800  1.9368
12485SOL     OW38938   6.838   0.444   1.662 -0.4059 -0.4833 -0.0012
12485SOL    HW138939   6.906   0.412   1.722 -0.8590  0.2046  0.8781
12485SOL    HW238940   6.831   0.375   1.596 -0.2199 -1.4486  0.9777
12486SOL     OW38941   5.175   0.292   0.082 -0.4366  0.0800 -0.1176
12486SOL    HW138942   5.225   0.226   0.034 -0.8577  0.2219 -0.7562
12486SOL    HW238943   5.114   0.328   0.018  0.0579  1.3684  0.1188
12487SOL     OW38944   8.271   5.526   2.754  0.1571  0.1683  0.4541
12487SOL    HW138945   8.316   5.581   2.690 -0.1665 -0.6656 -0.5142
12487SOL    HW238946   8.202   5.483   2.704  0.7181 -1.5032  1.0700
12488SOL     OW38947   4.720   5.926   5.438  0.8381  0.0435  0.2410
12488SOL    HW138948   4.772   5.865   5.490 -1.8149 -2.7399 -0.2471
12488SOL    HW238949   4.652   5.872   5.399  0.0084  2.8800 -2.4233
12489SOL     OW38950   0.953   4.634   8.047  0.2546 -0.0251  0.4324
12489SOL    HW138951   0.922   4.650   7.958  1.7424  0.0772 -0.0880
12489SOL    HW238952   0.951   4.720   8.090 -1.5067 -0.2634  0.8504
12490SOL     OW38953   0.888   5.307   7.212  0.0805 -0.0872 -0.6001
12490SOL    HW138954   0.819   5.267   7.159  1.5403 -1.4722 -1.4748
12490SOL    HW238955   0.891   5.398   7.183 -0.5605 -0.3168 -1.4082
12491SOL     OW38956   7.535   0.152   1.197 -0.2993  0.7517 -0.2622
12491SOL    HW138957   7.482   0.173   1.120 -1.1250  1.5622  0.5175
12491SOL    HW238958   7.497   0.070   1.231  1.0754 -0.4817 -1.6168
12492SOL     OW38959   6.659   4.776   4.581 -0.2341 -0.2606 -0.6688
12492SOL    HW138960   6.678   4.687   4.611  0.9493 -0.4372 -1.8459
12492SOL    HW238961   6.614   4.817   4.654  0.3330 -1.4392  0.3724
12493SOL     OW38962   2.905   4.268   2.983  0.0993  0.9077  0.2439
12493SOL    HW138963   2.970   4.251   3.052  1.4573  0.7223 -1.0408
12493SOL    HW238964   2.909   4.362   2.970  0.5228  0.8323 -0.2068
12494SOL     OW38965   3.326   6.057   6.730  0.1126  0.2165 -0.4770
12494SOL    HW138966   3.399   6.119   6.730 -2.2087  3.0540 -0.5852
12494SOL    HW238967   3.293   6.059   6.820 -0.4304 -0.3279 -0.6614
12495SOL     OW38968   0.630   8.060   6.425 -0.2374  0.2224  0.4163
12495SOL    HW138969   0.714   8.038   6.385 -0.9566  0.2384 -1.1286
12495SOL    HW238970   0.573   7.986   6.404 -0.5562  0.0966  1.6683
12496SOL     OW38971   5.233   1.096   1.362  0.3205 -0.0002  0.0181
12496SOL    HW138972   5.278   1.101   1.447 -0.5476 -0.9027  0.5446
12496SOL    HW238973   5.152   1.146   1.375 -0.1800 -0.7905 -0.0344
12497SOL     OW38974   1.285   6.848   7.528  0.0281 -0.0080  0.2047
12497SOL    HW138975   1.339   6.827   7.452  0.2931  0.6066  0.2135
12497SOL    HW238976   1.196   6.825   7.502  0.0871  0.4097 -0.3729
12498SOL     OW38977   6.527   4.435   7.692 -0.0060 -0.9143 -0.0960
12498SOL    HW138978   6.442   4.395   7.710  0.1423 -1.3433 -0.3359
12498SOL    HW238979   6.590   4.363   7.702  0.2811 -0.7021 -0.3633
12499SOL     OW38980   6.149   7.499   6.162  0.0212 -0.4626  0.0527
12499SOL    HW138981   6.168   7.417   6.117  0.4044  0.0753 -0.7837
12499SOL    HW238982   6.181   7.567   6.102  2.1083  0.2226  1.8634
12500SOL     OW38983   7.072   2.344   7.223  0.6769 -0.9075 -0.0189
12500SOL    HW138984   7.072   2.356   7.128 -1.7352  0.9293  0.1492
12500SOL    HW238985   7.010   2.273   7.239 -2.5377  1.8715  0.4068
12501SOL     OW38986   2.142   3.633   7.660  0.2091 -0.3122  0.2942
12501SOL    HW138987   2.080   3.665   7.595  3.6818  2.7073 -1.7653
12501SOL    HW238988   2.145   3.703   7.726 -0.1524 -1.3995  1.4693
12502SOL     OW38989   4.437   4.659   5.761 -0.9025 -0.2244  0.3798
12502SOL    HW138990   4.466   4.748   5.742  1.2880 -0.7039  1.3924
12502SOL    HW238991   4.378   4.637   5.689  0.0031  1.3484 -0.8726
12503SOL     OW38992   2.477   1.679   5.986 -0.7034  0.5223 -0.4664
12503SOL    HW138993   2.519   1.747   6.039  0.0349  1.1373 -1.8031
12503SOL    HW238994   2.412   1.727   5.934 -1.4012 -0.0644 -0.1342
12504SOL     OW38995   3.582   7.824   0.863 -0.2392  0.0696  0.7371
12504SOL    HW138996   3.619   7.749   0.816 -3.5655 -0.1273 -1.8313
12504SOL    HW238997   3.658   7.877   0.887  1.9482 -2.3456 -0.5131
12505SOL     OW38998   4.705   6.746   2.581 -0.6202  0.2051  0.3009
12505SOL    HW138999   4.614   6.745   2.613 -0.5299 -2.3634  0.5712
12505SOL    HW239000   4.744   6.822   2.624 -2.0149  0.0001  2.0069
12506SOL     OW39001   7.993   4.124   2.685  0.1950  0.3304 -0.6940
12506SOL    HW139002   7.958   4.064   2.619  1.3475  0.4779 -1.4659
12506SOL    HW239003   7.989   4.075   2.767 -0.8245 -0.0267 -0.9450
12507SOL     OW39004   2.888   4.422   5.038  0.0235 -0.1003 -0.0793
12507SOL    HW139005   2.842   4.338   5.047  0.9661 -0.7081 -0.7362
12507SOL    HW239006   2.947   4.408   4.964  1.4201  0.5817  0.8822
12508SOL     OW39007   4.581   0.996   6.681  0.3114 -0.2839  0.5453
12508SOL    HW139008   4.625   0.944   6.748  0.9654  0.2517  0.5320
12508SOL    HW239009   4.565   0.933   6.610  1.0167 -0.4995  0.5679
12509SOL     OW39010   7.657   8.146   1.835 -0.1936  0.3562 -0.7129
12509SOL    HW139011   7.734   8.117   1.787  0.9344  0.7271  0.8120
12509SOL    HW239012   7.609   8.065   1.854  0.7328 -0.0712 -0.1632
12510SOL     OW39013   8.299   2.169   6.212  0.0103  0.0928 -0.4278
12510SOL    HW139014   8.210   2.142   6.236 -0.5899 -0.3310 -2.9825
12510SOL    HW239015   8.299   2.264   6.223  0.3013 -0.2359  2.8262
12511SOL     OW39016   2.152   7.349   0.843  0.4311  0.5488 -0.4641
12511SOL    HW139017   2.062   7.379   0.829  0.0451  0.2599  1.2846
12511SOL    HW239018   2.190   7.416   0.900  0.7201 -0.3450  0.3859
12512SOL     OW39019   0.972   5.535   8.111  0.0865  0.1951 -0.2221
12512SOL    HW139020   0.992   5.617   8.155  0.0044 -0.8054  1.7239
12512SOL    HW239021   0.890   5.505   8.152 -1.6728  0.7523 -3.1752
12513SOL     OW39022   7.421   1.757   2.479 -0.0383 -0.3046  0.1069
12513SOL    HW139023   7.364   1.765   2.555 -0.2914 -1.3462  0.0403
12513SOL    HW239024   7.485   1.691   2.505 -0.1226 -0.6583 -0.5742
12514SOL     OW39025   7.391   3.573   7.336 -0.1152 -0.4919 -0.4218
12514SOL    HW139026   7.407   3.511   7.406  0.4820 -2.3182 -2.1302
12514SOL    HW239027   7.311   3.619   7.362 -0.6684 -2.1017  0.7721
12515SOL     OW39028   4.712   1.255   6.033 -0.0013  0.3556 -0.4040
12515SOL    HW139029   4.675   1.341   6.013  0.0849  0.1931 -1.3099
12515SOL    HW239030   4.794   1.274   6.078 -1.5298  0.7113  2.3358
12516SOL     OW39031   0.056   6.854   2.665 -0.0727 -0.0709  0.3404
12516SOL    HW139032   0.047   6.854   2.760  0.9430 -0.4367  0.4388
12516SOL    HW239033  -0.033   6.848   2.632 -0.4942  0.9793  1.2683
12517SOL     OW39034   6.090   2.880   7.173  0.0089 -0.4419  0.4050
12517SOL    HW139035   6.098   2.962   7.124 -0.2218 -0.0513  1.0118
12517SOL    HW239036   6.108   2.905   7.264  1.0255 -1.2582  0.4480
12518SOL     OW39037   2.118   2.924   5.782 -0.0054  0.7151 -0.1374
12518SOL    HW139038   2.121   2.941   5.687 -0.8050 -0.3655 -0.3661
12518SOL    HW239039   2.081   3.004   5.819 -0.4104  0.8541 -0.8255
12519SOL     OW39040   5.307   3.165   2.132 -0.6359 -0.0690 -0.1122
12519SOL    HW139041   5.370   3.153   2.061  0.1879  0.0149  0.6033
12519SOL    HW239042   5.226   3.127   2.098 -0.2433 -0.0612 -1.0847
12520SOL     OW39043   1.544   7.732   7.399 -0.5971 -0.8376 -0.0799
12520SOL    HW139044   1.562   7.646   7.438 -0.6018 -1.3723 -1.2412
12520SOL    HW239045   1.595   7.733   7.319  1.8062  1.4561  1.4060
12521SOL     OW39046   1.075   3.874   5.108  0.4957 -0.5255  0.0672
12521SOL    HW139047   1.161   3.847   5.141  0.5771 -1.1256 -0.6217
12521SOL    HW239048   1.082   3.865   5.013  0.1685  0.8986 -0.1128
12522SOL     OW39049   6.758   1.068   2.944 -0.3958  0.1023 -0.1054
12522SOL    HW139050   6.696   0.996   2.960 -0.0616 -0.1200  0.1832
12522SOL    HW239051   6.714   1.145   2.980 -0.4780 -0.0649  0.1536
12523SOL     OW39052   7.255   6.707   1.192 -0.4537  0.5996 -0.2616
12523SOL    HW139053   7.301   6.655   1.257 -3.0042 -2.1066 -0.5358
12523SOL    HW239054   7.209   6.775   1.242 -0.8053 -0.2509  0.5607
12524SOL     OW39055   0.612   0.585   6.119 -0.7520 -0.1349 -0.7868
12524SOL    HW139056   0.601   0.538   6.202  1.1034  0.4704 -0.1827
12524SOL    HW239057   0.576   0.526   6.053 -0.3753 -1.5081  0.2176
12525SOL     OW39058   2.072   3.124   1.611 -0.7363  0.0660  0.5855
12525SOL    HW139059   2.060   3.106   1.518 -1.9302 -2.2264  1.1331
12525SOL    HW239060   2.111   3.044   1.647 -1.4484  0.4398  2.2630
12526SOL     OW39061   1.874   1.837   7.532  0.0707 -0.0831  0.4732
12526SOL    HW139062   1.940   1.795   7.477  0.2478  1.2706 -0.3666
12526SOL    HW239063   1.847   1.914   7.483 -1.4172 -0.0747  1.2649
12527SOL     OW39064   5.613   6.225   7.897 -0.9441 -0.2061 -0.0865
12527SOL    HW139065   5.530   6.187   7.866 -0.9210 -0.9706  0.7655
12527SOL    HW239066   5.677   6.200   7.831 -1.3073 -0.0056 -0.5177
12528SOL     OW39067   3.010   3.121   0.492 -0.1715 -0.2395 -0.2991
12528SOL    HW139068   3.069   3.113   0.417  0.9650  1.5702  0.3715
12528SOL    HW239069   2.943   3.055   0.476 -0.5715  0.8104 -3.4715
12529SOL     OW39070   8.147   2.167   1.806 -0.1751  0.5429  0.0604
12529SOL    HW139071   8.080   2.194   1.744  0.3840  1.1571 -0.2835
12529SOL    HW239072   8.167   2.247   1.856 -0.9795 -0.0558  1.3719
12530SOL     OW39073   2.787   1.765   0.081  0.0815 -0.2043 -0.0471
12530SOL    HW139074   2.759   1.714   0.005 -0.1400  0.4950 -0.4374
12530SOL    HW239075   2.785   1.856   0.051 -1.4057  0.1920  1.2374
12531SOL     OW39076   6.014   5.496   4.338  0.1064 -0.0800 -0.1136
12531SOL    HW139077   6.052   5.559   4.277 -1.1463  0.1792 -0.6385
12531SOL    HW239078   5.921   5.519   4.341 -0.3039 -1.7160 -0.0779
12532SOL     OW39079   2.507   5.554   2.957  0.0384  0.2715 -0.0266
12532SOL    HW139080   2.550   5.638   2.975  2.4358 -0.4138 -2.1767
12532SOL    HW239081   2.554   5.491   3.013 -2.0778  0.3807  1.9557
12533SOL     OW39082   7.467   3.058   3.343  0.1489 -0.3856  0.1612
12533SOL    HW139083   7.400   3.096   3.286  0.7163 -0.7790 -0.7721
12533SOL    HW239084   7.420   2.993   3.396 -0.0279 -1.3334 -1.1553
12534SOL     OW39085   1.481   1.502   7.644 -0.1469 -0.1241 -0.1313
12534SOL    HW139086   1.566   1.461   7.661  0.2930  1.0250  0.5160
12534SOL    HW239087   1.501   1.577   7.588 -0.8069 -0.1644 -0.4265
12535SOL     OW39088   0.081   4.984   6.053  0.1853  0.4480  0.1607
12535SOL    HW139089   0.061   4.899   6.014  0.4692  0.0275  0.9422
12535SOL    HW239090   0.176   4.985   6.061  0.0851  0.2878  1.4135
12536SOL     OW39091   2.223   5.459   8.023 -0.2395  0.2883 -0.2537
12536SOL    HW139092   2.219   5.551   7.996  0.9203  0.1571 -0.9261
12536SOL    HW239093   2.156   5.416   7.970 -0.8362  0.7553  0.1130
12537SOL     OW39094   0.153   3.017   0.626 -0.1511  0.2165  0.2538
12537SOL    HW139095   0.059   3.032   0.641 -0.4576 -0.3017 -1.1005
12537SOL    HW239096   0.187   3.104   0.603 -0.0961  0.5974  1.7204
12538SOL     OW39097   4.121   3.245   0.759 -0.9081 -0.5161 -0.1045
12538SOL    HW139098   4.215   3.233   0.748 -0.5426  0.1124  2.1964
12538SOL    HW239099   4.103   3.330   0.717 -0.4118 -0.4929 -0.2746
12539SOL     OW39100   7.596   7.396   6.109  0.4207 -0.1489  0.0448
12539SOL    HW139101   7.630   7.439   6.030  3.7272 -0.8081  1.0194
12539SOL    HW239102   7.613   7.459   6.179 -0.9783 -0.2649  0.4959
12540SOL     OW39103   4.486   6.958   2.952  0.2915 -0.2022  0.6335
12540SOL    HW139104   4.427   6.945   3.026  1.6890  2.4434  2.2859
12540SOL    HW239105   4.467   7.046   2.920  2.7367  0.4028  0.7004
12541SOL     OW39106   1.279   2.823   4.732  0.1406  0.5415 -0.3668
12541SOL    HW139107   1.219   2.883   4.688  0.3916  0.8674 -0.2645
12541SOL    HW239108   1.234   2.738   4.730 -0.8001  1.0053  0.6607
12542SOL     OW39109   6.103   6.291   6.088 -0.2880 -0.0814  0.2580
12542SOL    HW139110   6.119   6.198   6.104  0.2940  0.2227  1.4815
12542SOL    HW239111   6.183   6.323   6.047 -0.7363 -0.2560 -0.7669
12543SOL     OW39112   5.899   7.002   5.360 -0.0300 -0.2229 -0.1391
12543SOL    HW139113   5.924   7.089   5.392 -0.9185 -0.3237  0.8403
12543SOL    HW239114   5.920   7.004   5.267 -0.2138  1.1075 -0.1557
12544SOL     OW39115   0.772   7.881   1.252 -0.5132 -0.5123  0.1066
12544SOL    HW139116   0.727   7.963   1.273 -0.5246 -0.6891  0.7664
12544SOL    HW239117   0.771   7.831   1.334  3.0038  0.4903  0.8272
12545SOL     OW39118   2.793   4.833   4.450 -0.6076  0.3120 -0.5079
12545SOL    HW139119   2.874   4.850   4.498 -0.9365 -1.8487  0.8726
12545SOL    HW239120   2.811   4.752   4.402 -2.3940 -0.9390  0.8832
12546SOL     OW39121   6.158   2.276   2.409 -0.1323 -0.1690  0.0898
12546SOL    HW139122   6.218   2.310   2.475  0.8007 -2.0766  0.2716
12546SOL    HW239123   6.156   2.343   2.341  1.4495  0.3331  0.5301
12547SOL     OW39124   4.618   2.789   4.718  0.1345 -0.2209  0.0930
12547SOL    HW139125   4.587   2.710   4.673 -1.2047  0.5835 -0.4158
12547SOL    HW239126   4.538   2.838   4.739  0.9782  1.2401 -0.0270
12548SOL     OW39127   7.428   0.939   5.623  0.1717 -0.4845  0.4287
12548SOL    HW139128   7.407   1.027   5.653  0.3466 -0.1713 -0.3638
12548SOL    HW239129   7.364   0.921   5.553 -0.3950 -1.3053  1.1360
12549SOL     OW39130   6.528   8.060   2.589 -0.1667 -0.1475  1.0037
12549SOL    HW139131   6.507   7.970   2.562 -0.0735 -0.0040  0.4395
12549SOL    HW239132   6.605   8.051   2.644  0.1827 -0.3623  0.4912
12550SOL     OW39133   0.642   2.435   0.807 -0.5927  0.0156  0.4723
12550SOL    HW139134   0.712   2.498   0.818 -1.5162  1.3092 -0.8471
12550SOL    HW239135   0.636   2.422   0.712 -0.8100 -1.5953  0.6873
12551SOL     OW39136   2.895   7.210   1.628 -0.5736 -0.4757  0.0478
12551SOL    HW139137   2.927   7.122   1.649 -2.6295 -1.7329 -1.9098
12551SOL    HW239138   2.947   7.268   1.684  1.6156 -2.8223  0.5526
12552SOL     OW39139   5.856   6.167   4.630 -0.1672  0.7497 -0.2164
12552SOL    HW139140   5.911   6.154   4.553  0.3808  0.6445  0.1873
12552SOL    HW239141   5.911   6.215   4.691 -0.6348  0.9233  0.0706
12553SOL     OW39142   0.877   8.224   4.414  0.3196 -0.1766 -0.3977
12553SOL    HW139143   0.928   8.303   4.428 -1.4837  0.9450  0.0660
12553SOL    HW239144   0.906   8.164   4.483  0.5579  0.6728  0.2473
12554SOL     OW39145   7.999   2.309   5.087  0.2445  0.0401 -0.3293
12554SOL    HW139146   7.989   2.375   5.018  0.6054  1.5063  1.0074
12554SOL    HW239147   8.038   2.356   5.160  0.0230 -1.5496  0.8352
12555SOL     OW39148   6.540   6.174   5.216  0.2470 -0.0315 -0.7418
12555SOL    HW139149   6.551   6.139   5.128  0.2457 -2.2903  0.1333
12555SOL    HW239150   6.524   6.097   5.271 -0.0284  1.3682  1.1880
12556SOL     OW39151   7.020   0.545   1.216 -0.0442 -0.1151 -0.1856
12556SOL    HW139152   7.063   0.474   1.264 -0.0522  0.0659  0.0928
12556SOL    HW239153   7.091   0.602   1.188 -0.1122  0.2596  0.3979
12557SOL     OW39154   5.483   0.479   4.805  0.1844 -1.0020  0.3914
12557SOL    HW139155   5.509   0.562   4.845 -0.8341  0.2090 -1.4179
12557SOL    HW239156   5.508   0.488   4.713 -1.1905 -2.1758 -0.1081
12558SOL     OW39157   1.659   0.902   5.449 -0.3063  0.5583 -0.2156
12558SOL    HW139158   1.754   0.908   5.465 -0.0337 -2.9401 -0.2076
12558SOL    HW239159   1.622   0.971   5.504  2.2919  2.6754 -0.9849
12559SOL     OW39160   6.289   7.723   3.815 -0.0536  0.7516  0.3260
12559SOL    HW139161   6.313   7.700   3.905  1.2775  1.5067  0.1696
12559SOL    HW239162   6.215   7.783   3.825  0.4486  1.2726  0.9292
12560SOL     OW39163   6.519   6.120   7.881  0.1709  0.8628 -0.3433
12560SOL    HW139164   6.524   6.139   7.974 -0.0076  0.0591 -0.1648
12560SOL    HW239165   6.463   6.188   7.844 -1.3698  0.0354  0.4531
12561SOL     OW39166   6.201   2.706   0.130  0.4369  0.4256 -0.1104
12561SOL    HW139167   6.210   2.611   0.116 -0.0707  0.5555 -1.4388
12561SOL    HW239168   6.161   2.714   0.217  0.3677 -0.5873 -0.0443
12562SOL     OW39169   4.686   0.442   5.831  0.1475 -0.7495 -0.4930
12562SOL    HW139170   4.700   0.476   5.742  0.7682 -1.4388 -0.6590
12562SOL    HW239171   4.591   0.429   5.836  0.2324 -1.9435 -1.5239
12563SOL     OW39172   5.416   8.230   2.681  0.1197  0.2199 -0.0045
12563SOL    HW139173   5.425   8.184   2.764  0.4895 -0.9335 -0.6774
12563SOL    HW239174   5.506   8.239   2.649 -0.1310 -0.7226 -1.0160
12564SOL     OW39175   5.630   6.052   3.917 -0.1910  0.4547  0.0244
12564SOL    HW139176   5.682   6.123   3.879  0.3646 -1.2747 -2.6076
12564SOL    HW239177   5.694   5.994   3.958 -0.5145  0.7325  0.9400
12565SOL     OW39178   0.368   4.719   6.279  0.1230  0.0543 -0.2581
12565SOL    HW139179   0.318   4.758   6.207 -0.6242  0.7359  0.6173
12565SOL    HW239180   0.328   4.634   6.293  0.2045 -0.0373 -0.5893
12566SOL     OW39181   2.448   5.594   6.769 -0.2378 -0.1135  0.0139
12566SOL    HW139182   2.433   5.523   6.832  1.4931  0.4275  1.0581
12566SOL    HW239183   2.449   5.673   6.822 -0.4174  0.5294 -0.9257
12567SOL     OW39184   4.821   2.995   0.915  0.2108 -0.0088  0.4950
12567SOL    HW139185   4.742   2.946   0.892 -1.2791  2.9213 -0.9562
12567SOL    HW239186   4.882   2.929   0.947 -2.7695 -2.3830  1.5116
12568SOL     OW39187   7.412   1.100   7.418 -0.3666 -0.1189 -0.0753
12568SOL    HW139188   7.457   1.184   7.423 -1.3684  0.4584 -0.5823
12568SOL    HW239189   7.378   1.096   7.328  1.8407 -2.2019 -0.8542
12569SOL     OW39190   3.275   6.396   4.668  0.2398 -0.5944  0.4046
12569SOL    HW139191   3.203   6.342   4.700  1.5872 -2.5080  0.3262
12569SOL    HW239192   3.328   6.413   4.747  1.1186 -1.4528  0.0073
12570SOL     OW39193   1.252   4.813   5.346 -0.5077  0.1511 -0.2281
12570SOL    HW139194   1.290   4.725   5.350  0.2808  0.5295  1.0808
12570SOL    HW239195   1.328   4.872   5.347 -1.0628  0.8694  0.1044
12571SOL     OW39196   1.577   6.003   5.531  0.5936 -0.4375  0.1976
12571SOL    HW139197   1.502   5.995   5.590  1.3186  0.8236  1.3137
12571SOL    HW239198   1.648   5.957   5.575  1.1887  0.6640  0.4127
12572SOL     OW39199   0.530   3.944   1.147 -0.9557 -0.1485  0.1933
12572SOL    HW139200   0.573   4.013   1.198 -2.2239 -0.2724  1.4817
12572SOL    HW239201   0.439   3.975   1.138 -1.4302 -1.4413  0.4255
12573SOL     OW39202   0.568   2.302   8.037 -0.7596 -0.1090  0.0672
12573SOL    HW139203   0.538   2.227   7.985  1.5654 -0.2219 -1.1905
12573SOL    HW239204   0.487   2.340   8.072 -2.0555 -2.6660  0.0244
12574SOL     OW39205   0.867   7.252   6.172  0.0798  0.2270 -0.0165
12574SOL    HW139206   0.943   7.307   6.154  1.3413 -2.1756 -2.4061
12574SOL    HW239207   0.904   7.166   6.190 -2.0113 -0.5585  0.6663
12575SOL     OW39208   4.693   4.377   7.325 -0.6967 -0.4968 -0.2088
12575SOL    HW139209   4.709   4.353   7.416 -1.3830  0.3420  0.1385
12575SOL    HW239210   4.711   4.297   7.275  0.9975 -0.5793  0.5187
12576SOL     OW39211   8.010   6.580   1.116 -0.2132 -0.1682  0.1485
12576SOL    HW139212   8.095   6.623   1.124 -0.1152 -0.0043 -1.6540
12576SOL    HW239213   7.959   6.639   1.060 -0.7480 -1.3987 -0.6691
12577SOL     OW39214   0.727   6.188   4.097 -0.0778  0.5093 -0.0046
12577SOL    HW139215   0.742   6.256   4.162 -0.9365  0.4956  0.2137
12577SOL    HW239216   0.757   6.107   4.140  0.2437  0.6366  0.0126
12578SOL     OW39217   6.166   4.891   4.633  0.6658 -0.2744  0.4127
12578SOL    HW139218   6.251   4.925   4.604  1.3554 -0.8889  1.6538
12578SOL    HW239219   6.105   4.963   4.616  1.0668 -0.5218 -2.2662
12579SOL     OW39220   6.231   3.797   6.919 -0.7642  0.2696 -0.2005
12579SOL    HW139221   6.301   3.772   6.980 -0.6653 -0.4850 -0.6280
12579SOL    HW239222   6.153   3.804   6.975 -0.3687  1.0584  0.2663
12580SOL     OW39223   4.151   0.627   0.528  0.0442 -0.2856  0.5308
12580SOL    HW139224   4.057   0.639   0.539 -0.0943  0.0199 -0.8544
12580SOL    HW239225   4.188   0.646   0.614 -0.8948  2.4864  0.3753
12581SOL     OW39226   3.565   4.122   1.867 -0.5599  0.0739  0.9913
12581SOL    HW139227   3.489   4.147   1.919 -2.2192 -0.4095 -1.1622
12581SOL    HW239228   3.567   4.026   1.871 -0.7580  0.0278  0.0829
12582SOL     OW39229   4.755   8.152   4.271 -0.2378 -0.5393  0.6321
12582SOL    HW139230   4.764   8.247   4.276  0.1912 -0.6129  1.4212
12582SOL    HW239231   4.837   8.118   4.307 -1.4490 -1.2054  2.8563
12583SOL     OW39232   1.727   2.700   7.787  0.0889 -0.2184  0.0257
12583SOL    HW139233   1.781   2.717   7.864  0.1006 -2.2275  0.4875
12583SOL    HW239234   1.767   2.623   7.747 -1.8166 -1.0822 -0.2307
12584SOL     OW39235   2.314   0.106   6.311  0.7049  0.2193  0.1194
12584SOL    HW139236   2.405   0.093   6.340  0.8216  0.3872 -0.1651
12584SOL    HW239237   2.321   0.119   6.217  0.4900  1.2362  0.2372
12585SOL     OW39238   2.015   6.611   4.252  0.1148  0.0489  0.4963
12585SOL    HW139239   2.027   6.530   4.303  2.9517 -1.0769 -1.8152
12585SOL    HW239240   2.098   6.623   4.207 -0.8423  3.4085 -0.5160
12586SOL     OW39241   7.688   6.174   4.820  0.6685 -0.0544 -0.0678
12586SOL    HW139242   7.690   6.134   4.733  0.6973  0.2414 -0.2049
12586SOL    HW239243   7.638   6.255   4.808 -1.1202 -1.0339  0.6356
12587SOL     OW39244   3.011   4.100   5.902 -0.0848 -0.2397  0.1568
12587SOL    HW139245   3.043   4.190   5.893  1.1279 -0.8205 -1.7992
12587SOL    HW239246   3.088   4.049   5.926  0.0339 -1.2758 -2.2157
12588SOL     OW39247   1.961   6.878   2.294  0.4834 -0.3605  0.0751
12588SOL    HW139248   1.903   6.840   2.228  0.9194 -0.1518 -0.4240
12588SOL    HW239249   2.049   6.869   2.258  0.6470  0.5738  0.2300
12589SOL     OW39250   7.662   3.867   3.276  0.6892 -0.3682 -0.3747
12589SOL    HW139251   7.663   3.781   3.234 -0.9156 -0.1190 -0.9645
12589SOL    HW239252   7.569   3.883   3.295  1.1153  0.6879  0.8473
12590SOL     OW39253   2.795   5.125   1.203 -0.1298 -0.1097  0.0810
12590SOL    HW139254   2.822   5.064   1.272 -1.7464  0.1364  0.9749
12590SOL    HW239255   2.742   5.072   1.144  1.1403 -0.2870 -0.9102
12591SOL     OW39256   6.878   0.212   7.783 -0.4949 -0.3054 -0.4642
12591SOL    HW139257   6.810   0.145   7.791 -1.9334  0.7217 -3.4789
12591SOL    HW239258   6.831   0.295   7.786  0.8076  0.4603 -0.9951
12592SOL     OW39259   0.764   7.894   5.212  0.7941 -0.7386  0.0115
12592SOL    HW139260   0.761   7.856   5.300 -2.3019 -2.3784 -0.7603
12592SOL    HW239261   0.802   7.825   5.158 -0.4792 -1.0152 -0.5411
12593SOL     OW39262   5.357   8.221   1.545  0.0885  0.2135  0.7546
12593SOL    HW139263   5.300   8.287   1.507 -1.1278 -0.3210  1.5957
12593SOL    HW239264   5.439   8.228   1.497 -0.5252  1.3449 -0.1301
12594SOL     OW39265   5.959   6.064   7.268  0.3876 -0.3583  0.3748
12594SOL    HW139266   6.022   6.055   7.339  0.5374  1.0987  0.4507
12594SOL    HW239267   5.975   5.989   7.211  2.1486 -0.0522  0.4333
12595SOL     OW39268   5.477   0.444   2.097 -0.1891  0.0146 -0.4068
12595SOL    HW139269   5.440   0.418   2.181 -0.8543 -0.3166 -0.8026
12595SOL    HW239270   5.423   0.516   2.068 -0.9524 -0.9065 -1.3037
12596SOL     OW39271   5.159   7.066   3.377 -0.2598 -0.1529 -0.2030
12596SOL    HW139272   5.081   7.121   3.389  0.5287  0.2039  4.0115
12596SOL    HW239273   5.124   6.981   3.351 -2.0292  0.2805  0.6728
12597SOL     OW39274   2.822   4.222   0.923  0.0187 -0.1932 -0.2829
12597SOL    HW139275   2.767   4.151   0.890  0.7836 -0.8479 -0.1457
12597SOL    HW239276   2.898   4.223   0.865  0.1266  0.3574 -0.1352
12598SOL     OW39277   5.005   4.103   1.490  0.3800  0.3635  0.3292
12598SOL    HW139278   4.999   4.197   1.507 -0.2716  0.4293 -0.2288
12598SOL    HW239279   5.085   4.092   1.439  0.1169  0.7064 -0.1642
12599SOL     OW39280   7.843   1.174   6.140  0.2298  0.3905  0.2499
12599SOL    HW139281   7.891   1.246   6.181 -1.4161  1.2684  0.7004
12599SOL    HW239282   7.910   1.117   6.105  1.7021  0.1743  3.2456
12600SOL     OW39283   6.002   4.343   6.867 -0.2565  0.1349 -0.3787
12600SOL    HW139284   5.946   4.401   6.815  0.4664  0.2077 -1.0936
12600SOL    HW239285   6.090   4.361   6.835  0.0691 -0.7033  0.0440
12601SOL     OW39286   0.040   3.978   8.305 -0.1296 -0.1030  0.2177
12601SOL    HW139287   0.133   3.978   8.328 -0.3049  2.2194  1.0381
12601SOL    HW239288   0.036   4.017   8.218 -0.2800 -0.8460 -0.1120
12602SOL     OW39289   3.623   3.082   7.982  0.0539  0.3209 -0.5553
12602SOL    HW139290   3.672   3.084   8.064 -0.2084 -0.6218 -0.3633
12602SOL    HW239291   3.538   3.119   8.004  0.2639  0.8252 -0.5958
12603SOL     OW39292   0.575   3.408   5.575 -1.0188 -0.4222 -0.4255
12603SOL    HW139293   0.583   3.366   5.661  1.1529 -0.4812 -0.6311
12603SOL    HW239294   0.589   3.338   5.512 -0.4485  0.0137 -0.7955
12604SOL     OW39295   2.065   1.153   3.450 -0.2180 -0.0803  0.4831
12604SOL    HW139296   2.127   1.149   3.378 -0.6933  0.6166  0.0293
12604SOL    HW239297   2.106   1.209   3.516 -0.5435  0.7151  0.0098
12605SOL     OW39298   4.127   6.341   3.067  0.7232 -0.2073 -0.4176
12605SOL    HW139299   4.217   6.318   3.041  0.9083 -0.2297  0.2294
12605SOL    HW239300   4.097   6.266   3.119  1.0644  0.6747  1.0816
12606SOL     OW39301   5.727   6.475   0.568  0.5847  0.0932 -0.5871
12606SOL    HW139302   5.811   6.443   0.601  0.4977  0.6514  0.1819
12606SOL    HW239303   5.712   6.424   0.488 -0.1279 -2.7417  1.2629
12607SOL     OW39304   1.009   1.790   6.393 -0.2016  0.1824  0.2282
12607SOL    HW139305   1.046   1.860   6.340 -0.6686 -0.4410 -0.9587
12607SOL    HW239306   0.915   1.810   6.398 -0.2367 -0.0230  0.4131
12608SOL     OW39307   1.854   3.862   2.096 -0.2088  0.3839 -0.1555
12608SOL    HW139308   1.849   3.885   2.003  1.0850  1.3831  0.0088
12608SOL    HW239309   1.793   3.922   2.139  0.6374  1.2540 -0.1419
12609SOL     OW39310   0.634   2.007   0.321 -0.2521  0.3437  0.1977
12609SOL    HW139311   0.720   1.976   0.293 -1.4051 -0.7478 -2.3062
12609SOL    HW239312   0.631   2.098   0.290  0.3556  0.7224  1.2001
12610SOL     OW39313   2.953   0.795   3.096 -0.5977 -0.3499  0.3975
12610SOL    HW139314   3.042   0.817   3.122 -1.2421  0.8859  1.6336
12610SOL    HW239315   2.917   0.749   3.172 -1.4132  0.2491  0.3731
12611SOL     OW39316   5.477   4.566   1.985  0.1957 -0.0627 -0.1415
12611SOL    HW139317   5.509   4.599   1.901 -0.7770 -0.6487 -0.7589
12611SOL    HW239318   5.472   4.643   2.042  0.5133  0.3987 -0.7389
12612SOL     OW39319   0.132   4.305   3.880 -0.0720 -0.3397  0.5604
12612SOL    HW139320   0.111   4.327   3.789  0.1883 -0.3488  0.4994
12612SOL    HW239321   0.067   4.239   3.904 -0.2896 -0.1665  0.4573
12613SOL     OW39322   3.335   0.161   4.608 -0.0908 -0.4913  0.8944
12613SOL    HW139323   3.411   0.175   4.665 -0.8011  2.3845  1.1993
12613SOL    HW239324   3.264   0.138   4.667 -0.5179  1.2403  1.0811
12614SOL     OW39325   2.210   0.835   7.191 -0.2778 -0.0270  0.0750
12614SOL    HW139326   2.169   0.876   7.114 -1.6274 -0.4693  0.5457
12614SOL    HW239327   2.184   0.891   7.264 -0.9527 -0.9213  0.5282
12615SOL     OW39328   5.826   2.874   5.069 -0.4026 -0.4203 -0.0208
12615SOL    HW139329   5.813   2.819   4.992 -1.7707  0.6797 -0.5867
12615SOL    HW239330   5.747   2.862   5.121  0.7816 -1.6504  1.5491
12616SOL     OW39331   8.078   2.907   5.774  0.0117 -0.2145  0.2135
12616SOL    HW139332   7.989   2.903   5.738 -0.6359 -2.3013  1.9222
12616SOL    HW239333   8.131   2.857   5.712 -0.5355 -1.2698  0.5861
12617SOL     OW39334   6.927   0.161   1.559 -0.0041 -0.3354  0.2564
12617SOL    HW139335   6.907   0.098   1.628 -0.0476 -2.8996 -1.9956
12617SOL    HW239336   7.019   0.143   1.536 -0.9209 -1.8195 -2.5284
12618SOL     OW39337   7.929   2.187   2.310 -0.1499 -0.4363  0.8183
12618SOL    HW139338   8.000   2.126   2.288 -0.1514 -0.2739  0.3494
12618SOL    HW239339   7.971   2.273   2.314 -0.7666  0.0412 -2.0704
12619SOL     OW39340   2.136   2.997   0.065 -0.4866  0.1033 -0.1137
12619SOL    HW139341   2.089   2.983  -0.017 -0.3452  0.3460 -0.2362
12619SOL    HW239342   2.069   3.027   0.127 -0.6628 -0.4484 -0.0374
12620SOL     OW39343   5.424   0.755   3.770 -0.0174  0.1921  0.2156
12620SOL    HW139344   5.403   0.847   3.788 -0.6860  0.0039  0.4453
12620SOL    HW239345   5.394   0.741   3.681  0.6436  0.3580 -0.0320
12621SOL     OW39346   2.114   4.409   5.453 -0.3199 -0.0702  0.0309
12621SOL    HW139347   2.199   4.386   5.489 -0.8849 -2.0680  0.1619
12621SOL    HW239348   2.128   4.491   5.406  1.4246  0.1628  0.9471
12622SOL     OW39349   6.766   3.537   5.291 -0.3061  0.4704  0.3278
12622SOL    HW139350   6.715   3.612   5.322 -0.6711  0.6557 -0.7003
12622SOL    HW239351   6.700   3.476   5.258  0.1187  0.7144 -1.0114
12623SOL     OW39352   2.049   1.967   1.856  1.1687  0.2395 -0.7892
12623SOL    HW139353   1.984   1.900   1.879  0.6452  0.9242 -0.2582
12623SOL    HW239354   2.129   1.917   1.840  0.5368 -0.6047 -1.3705
12624SOL     OW39355   2.100   7.536   4.022  0.1400 -0.2650  0.0898
12624SOL    HW139356   2.047   7.553   3.944  3.0948  1.2909 -1.6788
12624SOL    HW239357   2.110   7.622   4.063 -2.0886 -1.2002  2.7419
12625SOL     OW39358   1.858   6.636   3.855  0.0589  0.3249 -0.2641
12625SOL    HW139359   1.911   6.630   3.935 -0.2047 -1.0952 -0.1830
12625SOL    HW239360   1.767   6.631   3.886 -0.1263  2.2248 -0.4494
12626SOL     OW39361   0.442   8.128   7.559 -0.2228  0.6770 -0.1881
12626SOL    HW139362   0.369   8.116   7.619  0.2885  0.2145  0.3529
12626SOL    HW239363   0.411   8.093   7.475 -0.3070 -0.3522  0.2640
12627SOL     OW39364   4.653   4.998   5.900  0.2040 -0.3689 -0.0626
12627SOL    HW139365   4.661   5.090   5.874 -0.4175  0.0819  1.2953
12627SOL    HW239366   4.570   4.970   5.862 -0.3017  0.0511  0.7119
12628SOL     OW39367   6.657   4.621   2.189 -0.2297  0.2923 -0.1626
12628SOL    HW139368   6.593   4.561   2.227  1.4514 -1.5815 -0.2088
12628SOL    HW239369   6.655   4.602   2.095 -0.3432  0.9628 -0.2994
12629SOL     OW39370   2.446   4.437   4.484  0.3922  0.3340  0.3047
12629SOL    HW139371   2.393   4.512   4.459  0.9927  0.5463 -0.3300
12629SOL    HW239372   2.422   4.420   4.576 -2.0270 -0.6338 -0.4589
12630SOL     OW39373   6.953   6.639   1.280 -0.2188 -0.1583  0.2494
12630SOL    HW139374   6.914   6.629   1.193  0.5153  1.1132 -0.2330
12630SOL    HW239375   7.019   6.708   1.269 -1.2919  1.1942  2.2069
12631SOL     OW39376   4.267   2.593   8.171  0.7813  0.0023  0.1449
12631SOL    HW139377   4.330   2.655   8.135  0.2617  0.5092  0.0967
12631SOL    HW239378   4.210   2.646   8.227  0.7141 -0.5385  0.5889
12632SOL     OW39379   5.105   5.004   4.562 -0.6170  0.8680 -0.5215
12632SOL    HW139380   5.009   5.000   4.567 -0.6517  2.6943  0.8982
12632SOL    HW239381   5.124   5.096   4.545  0.8913  0.4700 -1.0391
12633SOL     OW39382   2.428   5.201   8.269  0.3645  0.6397 -0.2241
12633SOL    HW139383   2.442   5.128   8.330 -1.6467 -0.4208 -0.9854
12633SOL    HW239384   2.456   5.166   8.184  0.0319  0.9960 -0.4769
12634SOL     OW39385   7.580   5.009   4.578  0.5910  0.0833  0.0796
12634SOL    HW139386   7.554   5.086   4.628  0.2083 -0.7452  1.1599
12634SOL    HW239387   7.674   5.020   4.564  0.4959  0.8552  0.0266
12635SOL     OW39388   7.741   3.184   2.572  0.3111 -0.2072  0.0370
12635SOL    HW139389   7.744   3.265   2.523 -1.0235  0.2372  0.6459
12635SOL    HW239390   7.709   3.119   2.510  0.1603  0.0167 -0.1208
12636SOL     OW39391   3.311   7.616   5.115 -0.2735  0.5580 -0.0306
12636SOL    HW139392   3.219   7.642   5.113 -1.2591 -2.5860  0.6703
12636SOL    HW239393   3.332   7.596   5.024 -0.7434 -0.1462  0.0121
12637SOL     OW39394   4.748   7.993   4.835  0.1320  0.6096  0.0390
12637SOL    HW139395   4.657   7.963   4.831  0.2674  0.3768 -2.0397
12637SOL    HW239396   4.747   8.077   4.788  1.6460 -1.2422 -3.5089
12638SOL     OW39397   0.516   7.163   3.647  0.0782 -0.0869 -0.3952
12638SOL    HW139398   0.452   7.213   3.698 -1.0915 -2.0160  0.0590
12638SOL    HW239399   0.476   7.157   3.560  0.4720  0.2135 -0.5989
12639SOL     OW39400   4.529   7.871   6.490 -0.1872  0.0038  0.4550
12639SOL    HW139401   4.567   7.933   6.553  0.6600 -0.4324  0.3721
12639SOL    HW239402   4.443   7.851   6.526  0.8010 -1.2453  2.1795
12640SOL     OW39403   1.402   4.869   8.276  0.1569  0.6419  0.3810
12640SOL    HW139404   1.490   4.891   8.247  0.5433 -0.9985  0.3050
12640SOL    HW239405   1.414   4.831   8.363 -0.3052 -1.0219 -0.2601
12641SOL     OW39406   5.823   3.049   1.728  0.2772  0.0771 -0.1153
12641SOL    HW139407   5.801   3.127   1.676  0.6867  0.3716  0.1538
12641SOL    HW239408   5.875   3.083   1.801  0.8043 -0.5023 -0.2236
12642SOL     OW39409   1.858   4.922   5.681 -0.5519  0.3633 -0.1407
12642SOL    HW139410   1.907   4.898   5.602 -0.7622 -1.1949  0.1853
12642SOL    HW239411   1.921   4.916   5.752 -0.3422  1.8498 -0.1716
12643SOL     OW39412   2.284   2.388   7.333  0.4984 -0.2479  0.4055
12643SOL    HW139413   2.310   2.383   7.241  0.4709  1.5425  0.2903
12643SOL    HW239414   2.266   2.481   7.349  2.5824 -0.1720  2.7751
12644SOL     OW39415   4.894   3.273   3.870 -0.0895  0.3375 -0.6017
12644SOL    HW139416   4.813   3.293   3.916  1.4015  1.6835  1.5922
12644SOL    HW239417   4.909   3.349   3.813 -1.1722 -0.6543 -2.2481
12645SOL     OW39418   6.437   3.788   2.541  0.1821 -0.1776 -0.0383
12645SOL    HW139419   6.395   3.724   2.484  0.6700 -0.2087 -0.3636
12645SOL    HW239420   6.448   3.742   2.624  0.1607 -0.3839 -0.1486
12646SOL     OW39421   5.769   0.571   3.982  0.0177  0.4484  0.7878
12646SOL    HW139422   5.689   0.519   3.982  0.7104 -0.6225  0.4570
12646SOL    HW239423   5.752   0.641   3.919 -0.8095  0.4712  1.0254
12647SOL     OW39424   5.913   2.970   6.729 -0.1324  0.3545 -0.4429
12647SOL    HW139425   5.837   2.918   6.702  0.4093 -1.0365  0.6513
12647SOL    HW239426   5.968   2.908   6.778  0.4508  2.0106  1.0194
12648SOL     OW39427   4.346   2.590   0.509 -0.1634 -0.0834  0.2974
12648SOL    HW139428   4.252   2.598   0.495  0.0621  2.3661  0.0299
12648SOL    HW239429   4.380   2.679   0.502  2.2971 -1.0118 -0.3900
12649SOL     OW39430   0.701   3.336   2.555 -0.1676 -0.5233  0.0442
12649SOL    HW139431   0.700   3.393   2.478 -0.3598 -0.9896 -0.3054
12649SOL    HW239432   0.783   3.356   2.599  0.3749 -0.8987 -0.7760
12650SOL     OW39433   0.762   7.680   8.290  0.0092 -0.2690  0.7713
12650SOL    HW139434   0.703   7.754   8.278  0.5984  0.0012 -0.5683
12650SOL    HW239435   0.819   7.707   8.363 -1.5311 -0.5602  2.0935
12651SOL     OW39436   5.153   5.687   4.225  0.2677 -0.0628  0.0042
12651SOL    HW139437   5.178   5.634   4.301 -1.6840 -0.5181  0.3324
12651SOL    HW239438   5.213   5.762   4.229  1.8098 -1.2824  0.5893
12652SOL     OW39439   1.834   7.903   0.495  0.1325  0.0598 -0.2118
12652SOL    HW139440   1.796   7.831   0.546 -1.5801  2.1931  1.6438
12652SOL    HW239441   1.761   7.935   0.441  0.7166  0.7697 -0.5839
12653SOL     OW39442   5.315   6.922   1.887 -0.5642  0.1772  0.1754
12653SOL    HW139443   5.300   6.952   1.797 -1.0506  2.3252  0.9356
12653SOL    HW239444   5.249   6.854   1.901 -0.2327 -0.4523 -1.1933
12654SOL     OW39445   4.008   8.163   6.548 -0.1347  0.5221 -0.1428
12654SOL    HW139446   3.994   8.254   6.575  0.9126  1.0263 -1.2480
12654SOL    HW239447   3.946   8.149   6.477 -3.8383 -1.2209  3.2834
12655SOL     OW39448   6.293   4.326   5.883  0.0808  0.5365 -0.8148
12655SOL    HW139449   6.202   4.355   5.888 -0.1319 -0.2765  0.1302
12655SOL    HW239450   6.307   4.306   5.791 -0.8667  0.1500 -0.8791
12656SOL     OW39451   3.184   5.061   0.990 -0.0770 -0.5076  0.0623
12656SOL    HW139452   3.237   5.114   1.049  1.1335 -0.8255 -0.7041
12656SOL    HW239453   3.120   5.121   0.953  0.3799  0.1030  0.2649
12657SOL     OW39454   2.484   7.566   3.532 -0.0564  0.2877 -0.0811
12657SOL    HW139455   2.389   7.573   3.546 -0.3775 -0.3855 -1.7646
12657SOL    HW239456   2.511   7.495   3.590 -0.7766 -0.2503 -0.3883
12658SOL     OW39457   5.211   6.028   4.442  0.0782 -0.1733 -0.1253
12658SOL    HW139458   5.261   5.985   4.512  1.4489  0.5239 -0.6676
12658SOL    HW239459   5.230   5.976   4.364 -0.2916 -0.0828 -0.2737
12659SOL     OW39460   6.569   0.495   3.677  0.3488  0.4275  0.0687
12659SOL    HW139461   6.571   0.574   3.623 -2.5065 -0.3129 -1.1953
12659SOL    HW239462   6.537   0.525   3.762 -0.9745  0.6241 -0.4830
12660SOL     OW39463   6.115   2.732   4.706 -0.3721  0.3293  0.1048
12660SOL    HW139464   6.162   2.649   4.697  0.7546  1.1436 -1.8757
12660SOL    HW239465   6.097   2.740   4.800  1.2149 -1.2341  0.5617
12661SOL     OW39466   3.915   3.895   5.148 -0.0952 -0.3579  0.4136
12661SOL    HW139467   3.850   3.943   5.097 -0.6728  2.9732  3.9694
12661SOL    HW239468   3.864   3.836   5.203  0.1943 -0.7662  0.2491
12662SOL     OW39469   5.673   2.455   2.799 -0.5257 -0.3617  0.9194
12662SOL    HW139470   5.606   2.397   2.764 -1.1425  0.7884  0.1451
12662SOL    HW239471   5.625   2.521   2.849 -0.0904  1.0124 -0.4096
12663SOL     OW39472   5.521   0.486   0.499 -0.0690  0.2813 -0.1589
12663SOL    HW139473   5.608   0.513   0.528  0.1296 -0.9302  0.3859
12663SOL    HW239474   5.467   0.489   0.578 -1.5034  4.6830 -1.1323
12664SOL     OW39475   7.381   5.157   7.784  0.4318 -0.0393  0.2925
12664SOL    HW139476   7.399   5.242   7.825 -0.1561 -0.0625  0.6017
12664SOL    HW239477   7.288   5.141   7.801  0.7892 -1.2526  1.1545
12665SOL     OW39478   6.835   4.611   7.868  0.3269 -0.3195 -0.1749
12665SOL    HW139479   6.919   4.651   7.847 -0.7766  2.7063  0.8345
12665SOL    HW239480   6.775   4.643   7.800 -0.3729 -1.0560  0.0867
12666SOL     OW39481   4.180   2.856   0.584  0.2001 -0.0997  0.2828
12666SOL    HW139482   4.140   2.861   0.671 -0.1301 -0.1118  0.1315
12666SOL    HW239483   4.125   2.795   0.535  0.3981 -0.1105  0.0726
12667SOL     OW39484   7.432   0.811   0.304  0.1309  0.3159 -0.0101
12667SOL    HW139485   7.500   0.806   0.372  1.3170  1.2675 -1.1027
12667SOL    HW239486   7.355   0.846   0.349 -0.1414 -2.2427  1.6041
12668SOL     OW39487   0.513   2.595   7.017 -0.0708 -0.7633  0.5480
12668SOL    HW139488   0.427   2.609   6.977 -1.2927  1.8869  3.8261
12668SOL    HW239489   0.495   2.592   7.111  3.6554  1.7743  1.4535
12669SOL     OW39490   6.413   5.443   1.920 -0.2009 -0.6901 -0.5642
12669SOL    HW139491   6.452   5.451   1.833  0.7768  0.6504 -0.0108
12669SOL    HW239492   6.464   5.501   1.975 -1.5541 -0.6459  0.6756
12670SOL     OW39493   6.595   3.361   0.878  0.1995  1.1076 -0.0245
12670SOL    HW139494   6.522   3.373   0.817  1.2967  1.4081 -1.2951
12670SOL    HW239495   6.640   3.283   0.846 -1.5858 -1.2217  2.8282
12671SOL     OW39496   5.934   0.021   5.346 -0.2290 -0.3184 -0.4361
12671SOL    HW139497   5.992   0.038   5.271  1.0132 -0.4353  0.4881
12671SOL    HW239498   5.994   0.001   5.418 -1.4257 -0.2352  0.5820
12672SOL     OW39499   7.140   1.588   7.350 -0.0576  0.2697  0.5669
12672SOL    HW139500   7.200   1.564   7.279  0.4154  0.3775  0.9261
12672SOL    HW239501   7.168   1.675   7.376 -1.7013  1.1922 -0.6584
12673SOL     OW39502   2.573   0.128   2.920  0.4450 -0.2819 -0.8476
12673SOL    HW139503   2.662   0.125   2.887  0.7958 -0.9692  0.1382
12673SOL    HW239504   2.521   0.081   2.854  0.9508 -0.6373 -0.9927
12674SOL     OW39505   2.253   2.693   6.031  0.0808  0.0752  0.5987
12674SOL    HW139506   2.309   2.765   6.060  0.9625 -0.2144 -0.3627
12674SOL    HW239507   2.313   2.620   6.018 -0.4956 -0.1770 -0.6459
12675SOL     OW39508   8.242   2.027   4.315  0.4681  0.3352  0.0382
12675SOL    HW139509   8.301   2.075   4.373  0.7702 -0.5248  0.4551
12675SOL    HW239510   8.194   2.095   4.267  1.1067  1.0429  0.3952
12676SOL     OW39511   0.555   2.660   6.672  0.0565  0.6012  0.1465
12676SOL    HW139512   0.507   2.652   6.590  0.7041  0.6650 -0.2440
12676SOL    HW239513   0.527   2.585   6.724 -1.1646  1.1528  0.2914
12677SOL     OW39514   3.490   6.191   1.154 -0.9459 -0.2666  0.0412
12677SOL    HW139515   3.560   6.254   1.141 -1.7916  0.8825  0.9109
12677SOL    HW239516   3.449   6.182   1.068  0.0163 -0.6603 -0.3828
12678SOL     OW39517   6.178   0.089   2.477  0.0320  0.2162  0.7812
12678SOL    HW139518   6.136   0.174   2.468 -0.8030 -0.2984 -0.2429
12678SOL    HW239519   6.206   0.066   2.389 -0.9542 -1.1749  0.8091
12679SOL     OW39520   7.952   4.026   3.821  0.3568 -0.1969  0.6388
12679SOL    HW139521   7.976   4.109   3.861  3.2888 -1.5782  1.8800
12679SOL    HW239522   7.940   3.966   3.895  0.1971 -1.3681 -0.3126
12680SOL     OW39523   2.183   7.791   6.139 -0.2549 -0.5845 -0.4350
12680SOL    HW139524   2.119   7.747   6.083 -1.4004 -1.0080  1.1661
12680SOL    HW239525   2.236   7.720   6.175  0.1830 -0.3547 -0.6288
12681SOL     OW39526   3.030   1.511   2.761  0.5282  0.3828 -0.1517
12681SOL    HW139527   2.979   1.570   2.706 -0.0925 -1.6552 -1.8215
12681SOL    HW239528   3.120   1.544   2.755 -0.3721  3.5084  2.1630
12682SOL     OW39529   5.209   0.873   7.132  0.4823  0.1759  0.7600
12682SOL    HW139530   5.189   0.901   7.221  1.2909  0.1940  0.9376
12682SOL    HW239531   5.303   0.887   7.123  0.4763 -0.2342  0.0475
12683SOL     OW39532   6.917   1.078   6.770  0.0323 -0.6834  0.7675
12683SOL    HW139533   6.984   1.049   6.832  1.2383 -1.0309 -0.6906
12683SOL    HW239534   6.952   1.158   6.731  0.8457 -2.2723 -1.9273
12684SOL     OW39535   0.174   5.707   7.175 -0.5790 -0.2782  0.4683
12684SOL    HW139536   0.103   5.711   7.111 -1.2843 -0.9930  1.1870
12684SOL    HW239537   0.228   5.634   7.146  0.3983  0.8483 -0.6059
12685SOL     OW39538   2.023   0.431   5.971  0.1821 -0.0950  0.3815
12685SOL    HW139539   1.991   0.505   5.919  0.7556  0.1377  0.3520
12685SOL    HW239540   2.087   0.470   6.030 -1.2401 -0.1844  2.0191
12686SOL     OW39541   4.091   2.790   6.176  0.1991  0.0744  0.1091
12686SOL    HW139542   4.115   2.698   6.165  2.3138  0.6980 -0.7592
12686SOL    HW239543   4.035   2.809   6.100  3.0448  0.5345 -1.9540
12687SOL     OW39544   2.977   5.071   2.603 -0.1460 -0.0352 -0.4665
12687SOL    HW139545   2.975   5.097   2.511 -1.3193  0.3331 -0.3427
12687SOL    HW239546   2.903   5.011   2.612 -1.3368  1.5800  0.7200
12688SOL     OW39547   5.557   7.749   2.129 -0.0127 -0.8602  0.1838
12688SOL    HW139548   5.530   7.825   2.077 -0.4488 -0.1529  1.4445
12688SOL    HW239549   5.481   7.691   2.128 -1.3041  0.6965  2.9085
12689SOL     OW39550   0.643   4.712   7.353 -0.1790  0.0592  0.3897
12689SOL    HW139551   0.548   4.710   7.362 -0.0982  0.2014  1.3613
12689SOL    HW239552   0.659   4.774   7.281 -0.8146  0.0850  0.2682
12690SOL     OW39553   7.324   0.626   2.195  0.1049 -0.4041 -0.7072
12690SOL    HW139554   7.290   0.626   2.106 -0.6680 -1.3173 -0.4127
12690SOL    HW239555   7.286   0.704   2.236 -1.6255 -1.4052 -0.3854
12691SOL     OW39556   6.704   2.552   4.270  0.2256  0.0531 -0.0748
12691SOL    HW139557   6.608   2.560   4.271  0.3077  1.4092 -1.4119
12691SOL    HW239558   6.727   2.527   4.359 -1.1603  2.4747  1.0097
12692SOL     OW39559   2.181   4.299   0.858  0.5620  0.3248  0.1086
12692SOL    HW139560   2.256   4.270   0.806 -0.9533 -1.5320 -1.1229
12692SOL    HW239561   2.202   4.273   0.947  0.9477 -1.1116 -0.3858
12693SOL     OW39562   7.875   7.099   5.877  0.2280 -0.1772  0.0526
12693SOL    HW139563   7.861   7.192   5.894  2.1116 -0.1309  1.5124
12693SOL    HW239564   7.894   7.095   5.783 -0.6934  0.7981 -0.1795
12694SOL     OW39565   1.200   2.929   5.786 -0.3414 -0.0016 -0.3249
12694SOL    HW139566   1.207   2.945   5.691 -1.0404  1.3674 -0.1615
12694SOL    HW239567   1.234   3.009   5.825 -1.1605 -0.0914  0.5795
12695SOL     OW39568   6.187   8.219   5.122 -0.2573 -0.5271 -0.5007
12695SOL    HW139569   6.183   8.305   5.162 -0.8137 -0.4632 -0.6947
12695SOL    HW239570   6.228   8.234   5.037 -0.4880 -0.4377 -0.5941
12696SOL     OW39571   7.057   7.015   7.655 -0.2149  0.1834  0.2719
12696SOL    HW139572   7.137   7.055   7.620 -0.4148  2.9224  2.7673
12696SOL    HW239573   6.989   7.038   7.593  0.4584 -0.0143 -0.5542
12697SOL     OW39574   8.307   3.764   1.447 -0.0290 -0.8916  0.0613
12697SOL    HW139575   8.275   3.759   1.357  0.1931  2.2491 -0.2659
12697SOL    HW239576   8.228   3.775   1.500 -0.0564 -1.2067  0.0847
12698SOL     OW39577   5.755   0.315   3.809 -0.4592 -0.4481 -0.0985
12698SOL    HW139578   5.676   0.366   3.791 -0.7991 -2.0495 -3.3628
12698SOL    HW239579   5.827   0.370   3.777 -0.2914  0.4113  1.6433
12699SOL     OW39580   6.621   7.201   7.117  0.7441 -0.2303 -0.2688
12699SOL    HW139581   6.594   7.268   7.054  0.1374  1.0985  1.3911
12699SOL    HW239582   6.653   7.129   7.062  1.2868  1.3441 -2.0920
12700SOL     OW39583   4.980   6.660   5.011  0.0249 -0.3273  0.2124
12700SOL    HW139584   5.045   6.699   5.069  1.0126  1.8895 -2.2972
12700SOL    HW239585   4.968   6.724   4.941 -2.0158 -2.3886 -1.4148
12701SOL     OW39586   5.699   2.474   6.666  0.3367 -1.0896 -0.7731
12701SOL    HW139587   5.644   2.431   6.731  2.3024 -2.7461 -0.1368
12701SOL    HW239588   5.774   2.416   6.657  1.8083  0.9254 -1.8709
12702SOL     OW39589   4.369   8.292   1.919  0.1107  0.4907  0.2598
12702SOL    HW139590   4.284   8.331   1.936  0.4748  0.8196  1.3773
12702SOL    HW239591   4.349   8.204   1.888 -0.6242  0.3252  1.1754
12703SOL     OW39592   3.452   5.645   6.227  0.0001  0.0164  0.2137
12703SOL    HW139593   3.377   5.601   6.268 -0.7009  0.9520 -0.0598
12703SOL    HW239594   3.529   5.605   6.269 -0.6058 -1.6587 -0.2232
12704SOL     OW39595   6.999   7.276   6.745  0.1452  0.1535  0.0571
12704SOL    HW139596   6.935   7.348   6.742 -0.8968 -0.7855 -0.6981
12704SOL    HW239597   6.946   7.198   6.761  1.0751 -0.6769 -0.8494
12705SOL     OW39598   0.381   4.288   1.161 -0.2334  0.0519 -0.2181
12705SOL    HW139599   0.350   4.294   1.070 -0.3952  1.4982 -0.0803
12705SOL    HW239600   0.476   4.278   1.154 -0.0584  1.8089 -0.5259
12706SOL     OW39601   6.144   1.777   7.658 -0.5199 -0.0598  0.3276
12706SOL    HW139602   6.116   1.731   7.578 -0.4398 -0.1898  0.3735
12706SOL    HW239603   6.162   1.706   7.720 -0.2227  0.0292  0.3423
12707SOL     OW39604   6.888   2.732   3.127 -0.0092  0.3677  0.1820
12707SOL    HW139605   6.832   2.721   3.204 -0.9684 -0.6707 -0.6471
12707SOL    HW239606   6.966   2.775   3.161  0.2772 -1.5088  2.0651
12708SOL     OW39607   6.176   7.971   0.853 -0.4834 -0.2647 -0.5247
12708SOL    HW139608   6.220   8.040   0.804 -0.5821 -0.4825 -0.9249
12708SOL    HW239609   6.195   7.990   0.945  0.7214 -0.5415 -0.7097
12709SOL     OW39610   4.584   5.437   6.813  0.2895 -0.0147 -0.7559
12709SOL    HW139611   4.621   5.524   6.831 -0.0792 -0.0885  0.3976
12709SOL    HW239612   4.586   5.430   6.718 -0.0627  1.4325 -0.8871
12710SOL     OW39613   7.133   6.473   4.661 -0.0958  0.2077  0.3486
12710SOL    HW139614   7.046   6.468   4.701 -1.1755 -2.3690 -2.1498
12710SOL    HW239615   7.120   6.528   4.584  0.2801 -0.8895 -0.5007
12711SOL     OW39616   5.639   0.846   0.016  0.4167  0.0086  0.1740
12711SOL    HW139617   5.659   0.801  -0.066  0.2280 -0.3972  0.3422
12711SOL    HW239618   5.710   0.821   0.075 -0.4299 -1.2252  0.6960
12712SOL     OW39619   2.880   7.691   2.301  0.3086  0.1248  0.4059
12712SOL    HW139620   2.830   7.762   2.342  2.8985  2.0743  0.3835
12712SOL    HW239621   2.894   7.627   2.370 -0.0733  0.7655  1.0739
12713SOL     OW39622   6.950   2.949   7.348 -0.0829 -0.2635 -0.2535
12713SOL    HW139623   6.973   2.888   7.418 -1.5790  0.1997  0.6655
12713SOL    HW239624   6.957   3.035   7.389 -1.7357 -0.0316 -0.4546
12714SOL     OW39625   7.340   3.922   6.330  0.7250 -0.2095 -0.1461
12714SOL    HW139626   7.316   3.997   6.275 -0.6446  0.8238  1.7874
12714SOL    HW239627   7.257   3.877   6.345  1.1368 -0.6778  0.7640
12715SOL     OW39628   3.328   8.272   5.764 -0.7279 -0.0113  0.4201
12715SOL    HW139629   3.324   8.367   5.747 -1.1041  0.0423  0.8117
12715SOL    HW239630   3.415   8.259   5.801 -0.1457 -0.0265 -0.9304
12716SOL     OW39631   5.175   4.537   3.326 -0.3977 -0.1960 -0.0212
12716SOL    HW139632   5.139   4.551   3.238 -3.8135  0.6421  1.4278
12716SOL    HW239633   5.169   4.443   3.340  0.0652 -0.3200 -0.6600
12717SOL     OW39634   5.784   4.276   2.052  0.6967 -0.0787 -0.4252
12717SOL    HW139635   5.753   4.279   1.961  0.5328  1.0681 -0.3403
12717SOL    HW239636   5.814   4.186   2.064 -2.6104 -1.2588 -0.4953
12718SOL     OW39637   0.458   6.398   5.253 -0.4400  0.6317 -0.1573
12718SOL    HW139638   0.487   6.464   5.316 -2.1562  0.6819  0.6140
12718SOL    HW239639   0.470   6.315   5.300  0.7573  0.4556 -0.7530
12719SOL     OW39640   5.347   7.346   6.806  0.0516  0.2551  0.2264
12719SOL    HW139641   5.261   7.306   6.818 -0.5486  1.2224 -0.7065
12719SOL    HW239642   5.373   7.375   6.894 -1.2479  1.2790  0.2896
12720SOL     OW39643   1.134   0.922   3.286  0.3723  0.0210 -0.4286
12720SOL    HW139644   1.082   1.002   3.276 -1.8035 -1.1827  0.9246
12720SOL    HW239645   1.100   0.863   3.219  0.5382 -0.5065 -0.0530
12721SOL     OW39646   2.989   6.984   3.875 -0.0181 -0.3364  0.3142
12721SOL    HW139647   3.071   6.985   3.825 -0.5654  0.1287 -0.6088
12721SOL    HW239648   2.978   7.075   3.904 -0.3304 -0.3405  0.2124
12722SOL     OW39649   2.084   6.426   1.069  0.3122 -0.3028  0.3507
12722SOL    HW139650   2.047   6.386   0.990  1.8582 -0.6813 -0.1886
12722SOL    HW239651   2.016   6.413   1.136 -0.7814 -0.4476 -0.7774
12723SOL     OW39652   3.940   4.048   7.977  0.1661 -0.1007  0.3652
12723SOL    HW139653   3.891   4.043   8.060  0.1420  2.7234  0.5744
12723SOL    HW239654   3.875   4.027   7.910  0.1409 -2.2219  1.0080
12724SOL     OW39655   5.428   1.900   1.037 -0.5346 -0.1843 -0.4519
12724SOL    HW139656   5.461   1.981   1.076 -1.2851 -1.6590  3.4574
12724SOL    HW239657   5.505   1.845   1.026 -0.6287 -0.6932  1.3458
12725SOL     OW39658   7.150   2.411   0.501  0.0176 -0.4359  0.4281
12725SOL    HW139659   7.239   2.395   0.533  0.4839 -0.1647 -0.7157
12725SOL    HW239660   7.121   2.326   0.466 -0.0097 -0.4190  0.4099
12726SOL     OW39661   6.171   5.097   1.825 -0.2883 -0.5367  0.5024
12726SOL    HW139662   6.222   5.151   1.763 -1.0847 -0.5570 -0.1712
12726SOL    HW239663   6.221   5.016   1.831 -0.8976 -1.0518 -1.1467
12727SOL     OW39664   4.753   4.712   4.609 -0.2268 -0.2014  0.8360
12727SOL    HW139665   4.700   4.709   4.689  1.0885  1.7743  1.8409
12727SOL    HW239666   4.823   4.649   4.625 -0.4610 -0.4499  0.8794
12728SOL     OW39667   3.899   8.177   6.921  0.3752 -0.5538 -0.2156
12728SOL    HW139668   3.936   8.088   6.921 -1.2629 -1.2524  0.2318
12728SOL    HW239669   3.853   8.184   7.004  0.7200  0.8266 -0.1382
12729SOL     OW39670   5.427   2.493   6.205  0.5509 -0.0675 -0.2309
12729SOL    HW139671   5.424   2.413   6.257  2.7897 -0.0338 -0.0200
12729SOL    HW239672   5.458   2.560   6.266  0.9721  0.4639 -1.0202
12730SOL     OW39673   2.686   0.044   2.266 -0.0382  0.1509 -0.2106
12730SOL    HW139674   2.655   0.063   2.355  0.8066  1.5827 -0.2112
12730SOL    HW239675   2.605   0.038   2.214 -0.6220 -2.0963  0.8773
12731SOL     OW39676   5.646   1.591   8.307  0.2605 -0.2732 -0.2778
12731SOL    HW139677   5.625   1.561   8.218 -2.5716  0.8900 -0.0495
12731SOL    HW239678   5.629   1.515   8.363 -0.0524 -0.3525 -0.4821
12732SOL     OW39679   1.439   3.870   7.227 -0.3097 -0.4483 -0.0839
12732SOL    HW139680   1.380   3.905   7.160  0.3656 -1.9236 -1.4954
12732SOL    HW239681   1.490   3.803   7.181  0.7454 -0.9157  1.7182
12733SOL     OW39682   1.467   6.972   7.110  0.5209  0.0784 -0.9924
12733SOL    HW139683   1.516   7.053   7.094  0.7783 -0.1633 -1.4307
12733SOL    HW239684   1.530   6.902   7.095  0.0986 -0.2291 -1.3780
12734SOL     OW39685   0.148   3.033   8.065 -0.7582  0.0860  0.1950
12734SOL    HW139686   0.177   3.117   8.100  0.1727  0.0057 -0.3580
12734SOL    HW239687   0.154   2.973   8.139 -0.9870  0.4125  0.4779
12735SOL     OW39688   6.757   7.400   0.981  0.1971  0.4173  0.1038
12735SOL    HW139689   6.697   7.338   1.023  0.1157  0.2058 -0.3128
12735SOL    HW239690   6.783   7.460   1.050 -1.0769  0.9537  0.1308
12736SOL     OW39691   1.315   3.186   6.491 -0.4306  0.0549 -0.5478
12736SOL    HW139692   1.403   3.204   6.458 -0.4143  0.3321 -0.3576
12736SOL    HW239693   1.328   3.173   6.585 -0.5546 -0.1759 -0.5634
12737SOL     OW39694   8.142   6.725   8.143  0.0789  0.0939 -0.4586
12737SOL    HW139695   8.184   6.649   8.183  0.2090  0.1600 -0.4701
12737SOL    HW239696   8.054   6.694   8.122  0.0388  0.0313 -0.2050
12738SOL     OW39697   4.508   5.225   4.861  0.0005 -0.3751 -0.1108
12738SOL    HW139698   4.519   5.302   4.805 -0.5104  0.2214  0.6116
12738SOL    HW239699   4.524   5.257   4.950  1.2448 -1.4093  0.0539
12739SOL     OW39700   6.715   4.190   7.685 -0.1660  0.1034  1.1378
12739SOL    HW139701   6.791   4.209   7.630  1.2647 -2.1154  2.3001
12739SOL    HW239702   6.751   4.149   7.763 -2.1373  3.2402  3.8340
12740SOL     OW39703   6.028   1.989   3.820 -0.0605 -0.3171 -0.0918
12740SOL    HW139704   6.005   1.897   3.806 -0.0434 -0.4151  0.5132
12740SOL    HW239705   6.100   2.005   3.759 -1.4426 -0.1199 -1.6887
12741SOL     OW39706   3.340   1.241   7.865  0.0092 -0.5534 -0.3965
12741SOL    HW139707   3.368   1.158   7.904  1.5078 -0.2876 -0.8757
12741SOL    HW239708   3.389   1.308   7.913 -1.2739  0.0782  0.0604
12742SOL     OW39709   2.423   3.089   3.494  0.4444  0.0600  0.2619
12742SOL    HW139710   2.438   3.075   3.401 -2.0567  1.1789 -0.3409
12742SOL    HW239711   2.382   3.009   3.525  0.4781  0.0234  0.2120
12743SOL     OW39712   7.243   7.931   4.002  0.2120  0.7587 -0.4490
12743SOL    HW139713   7.291   8.014   4.005  0.6582  0.4514  1.0091
12743SOL    HW239714   7.301   7.871   3.956  0.0128  1.1574 -1.2413
12744SOL     OW39715   5.726   6.649   2.283 -0.1293  0.1846 -0.1988
12744SOL    HW139716   5.742   6.743   2.285 -0.1170  0.1710  0.5329
12744SOL    HW239717   5.653   6.638   2.222  1.3491  0.4387 -2.0781
12745SOL     OW39718   7.938   1.085   3.973 -0.2429  0.5147 -0.6350
12745SOL    HW139719   7.942   0.998   4.015 -0.0738  0.9957  0.3730
12745SOL    HW239720   7.920   1.066   3.881  2.1681 -0.7120 -0.8947
12746SOL     OW39721   5.933   5.054   1.675 -0.0587 -0.0638 -0.0576
12746SOL    HW139722   5.950   4.960   1.681 -0.4782 -0.1739 -0.5079
12746SOL    HW239723   6.012   5.096   1.708 -0.2487 -0.5826  1.0557
12747SOL     OW39724   5.491   2.596   0.241  0.2975  0.2079  0.2262
12747SOL    HW139725   5.560   2.594   0.307  0.0427 -0.3425  0.4839
12747SOL    HW239726   5.521   2.534   0.174  0.0520 -0.0452  0.3465
12748SOL     OW39727   5.698   8.180   2.087 -0.2049 -0.3071  0.1805
12748SOL    HW139728   5.761   8.148   2.023  0.1280  1.2472 -0.3116
12748SOL    HW239729   5.751   8.203   2.164 -0.1730  0.8153 -0.1618
12749SOL     OW39730   6.609   3.983   0.914 -0.0607  0.6995 -0.2388
12749SOL    HW139731   6.665   3.941   0.849 -0.4259 -0.4270  0.1612
12749SOL    HW239732   6.529   4.006   0.865 -0.3711 -0.2279 -0.1681
12750SOL     OW39733   1.259   0.976   6.022  0.1059 -0.1729  0.6007
12750SOL    HW139734   1.350   0.956   6.044  0.2064  1.6537  2.0008
12750SOL    HW239735   1.240   0.920   5.947  2.2030 -1.0049  0.6383
12751SOL     OW39736   4.475   6.260   1.357  0.5830 -0.5899 -0.0434
12751SOL    HW139737   4.475   6.333   1.419 -0.3310  0.0496 -0.7879
12751SOL    HW239738   4.446   6.299   1.274 -1.2014 -2.0636 -0.1264
12752SOL     OW39739   1.157   8.176   3.391  0.2227  0.0562 -0.0956
12752SOL    HW139740   1.186   8.261   3.359  0.3173  1.1241  2.7012
12752SOL    HW239741   1.087   8.196   3.452  0.4339 -1.8450  0.7969
12753SOL     OW39742   2.057   2.103   8.069  0.2208 -1.1445 -0.5186
12753SOL    HW139743   1.982   2.048   8.047 -1.2722  0.7268 -0.2497
12753SOL    HW239744   2.109   2.106   7.989 -1.5466 -0.0458 -1.6410
12754SOL     OW39745   2.364   4.047   4.187 -0.3327  0.1997 -0.1755
12754SOL    HW139746   2.398   4.067   4.275 -0.9534  0.1591  0.0755
12754SOL    HW239747   2.370   4.130   4.140  0.8948 -0.0099 -0.3893
12755SOL     OW39748   1.816   0.757   6.686 -0.2622 -0.6970  0.1789
12755SOL    HW139749   1.824   0.847   6.656 -1.9056 -0.5643  0.1184
12755SOL    HW239750   1.859   0.705   6.618 -0.6166 -0.0835 -0.5126
12756SOL     OW39751   2.204   4.682   5.346 -0.4785 -0.6097 -0.0373
12756SOL    HW139752   2.166   4.675   5.258  1.2381  0.2816 -0.8749
12756SOL    HW239753   2.154   4.753   5.387  0.7738  1.1090 -1.4193
12757SOL     OW39754   6.595   1.808   2.888  0.0785 -0.2209  0.0559
12757SOL    HW139755   6.664   1.874   2.889  1.6439 -1.7831 -2.1269
12757SOL    HW239756   6.611   1.756   2.967  2.4052 -1.5279 -1.2132
12758SOL     OW39757   4.754   5.208   5.444 -0.0061  0.4412 -0.1344
12758SOL    HW139758   4.829   5.253   5.483  0.4572 -0.7064  0.3180
12758SOL    HW239759   4.737   5.255   5.362  1.6505  0.2589 -0.5889
12759SOL     OW39760   7.838   7.181   6.340  0.4845 -0.2610  0.6806
12759SOL    HW139761   7.889   7.123   6.283 -0.8600 -0.5250 -0.2717
12759SOL    HW239762   7.777   7.123   6.385 -0.1623  0.2846  0.5102
12760SOL     OW39763   5.974   0.031   3.299 -0.2445 -0.4663 -0.2405
12760SOL    HW139764   5.901   0.058   3.354 -1.2345 -0.6952 -1.4299
12760SOL    HW239765   5.955  -0.060   3.276  1.4972 -1.2354  1.1735
12761SOL     OW39766   1.408   4.242   4.820 -0.1664 -0.3570 -0.0543
12761SOL    HW139767   1.320   4.205   4.820 -0.6752  0.8449  0.0669
12761SOL    HW239768   1.401   4.320   4.874  0.6753  0.4487 -1.0938
12762SOL     OW39769   6.077   3.288   2.319 -0.3863  0.5166 -0.3771
12762SOL    HW139770   6.108   3.198   2.316 -0.4612  0.5265 -1.4521
12762SOL    HW239771   6.069   3.307   2.413  2.8135  0.5093 -0.0217
12763SOL     OW39772   2.660   2.239   5.948 -0.3484 -0.4226  1.0169
12763SOL    HW139773   2.755   2.238   5.948 -0.2985 -0.5635 -1.5126
12763SOL    HW239774   2.635   2.167   5.889 -1.9690  0.7065  0.2868
12764SOL     OW39775   1.656   0.151   2.372 -0.2246 -0.0547  0.1237
12764SOL    HW139776   1.623   0.165   2.283 -1.4401  0.7821  0.6887
12764SOL    HW239777   1.690   0.061   2.371  0.8416  0.3510 -1.5017
12765SOL     OW39778   7.247   5.924   5.693  0.1794 -0.2835 -0.8511
12765SOL    HW139779   7.198   5.955   5.770  0.4316 -0.4129 -0.6387
12765SOL    HW239780   7.287   6.003   5.657 -0.5031 -0.1145 -1.2545
12766SOL     OW39781   1.592   1.953   6.395 -0.1133 -0.1389  0.1572
12766SOL    HW139782   1.538   1.954   6.474 -0.0712 -0.5108  0.1945
12766SOL    HW239783   1.533   1.923   6.326  0.0168 -0.4599  0.1808
12767SOL     OW39784   5.572   3.343   1.029 -0.1126 -0.0424  0.3904
12767SOL    HW139785   5.544   3.252   1.013  0.9306 -0.2676 -0.2396
12767SOL    HW239786   5.658   3.349   0.986 -0.4001  1.3923 -0.0017
12768SOL     OW39787   7.497   2.999   7.502 -0.3744  0.2974 -0.0588
12768SOL    HW139788   7.557   2.934   7.466 -0.7022  0.0898 -0.2325
12768SOL    HW239789   7.495   2.980   7.596 -0.7144 -0.1490 -0.1541
12769SOL     OW39790   7.424   2.752   1.651 -0.0564 -0.2676 -0.6475
12769SOL    HW139791   7.440   2.666   1.612  1.0388 -0.6960  0.7252
12769SOL    HW239792   7.511   2.788   1.669 -0.5202  0.6965 -0.2736
12770SOL     OW39793   6.543   2.550   3.621 -0.1723  0.2335  0.0232
12770SOL    HW139794   6.460   2.596   3.607  0.6951  1.5952 -0.8106
12770SOL    HW239795   6.592   2.564   3.540  1.2743  0.3260  0.8880
12771SOL     OW39796   4.895   5.330   6.549  0.4927  0.1685 -0.0479
12771SOL    HW139797   4.964   5.345   6.614 -0.8495  2.0085  0.9941
12771SOL    HW239798   4.937   5.351   6.465  1.9600 -1.3334  0.2665
12772SOL     OW39799   7.459   8.070   0.178  0.4442  0.3889 -0.0230
12772SOL    HW139800   7.454   8.080   0.083 -1.6840  0.0287  0.0387
12772SOL    HW239801   7.400   8.137   0.212 -0.7591 -1.1303  0.9479
12773SOL     OW39802   7.229   5.794   2.869 -0.0195 -0.2601  0.1985
12773SOL    HW139803   7.241   5.862   2.936  1.7996 -0.3146 -0.0356
12773SOL    HW239804   7.317   5.757   2.858 -0.7550 -1.7675 -0.6165
12774SOL     OW39805   3.539   7.175   5.423  0.4761  0.5261 -0.1641
12774SOL    HW139806   3.503   7.264   5.416 -1.3714 -0.1314  0.5442
12774SOL    HW239807   3.553   7.162   5.516  0.6568  0.0531 -0.2549
12775SOL     OW39808   2.836   0.035   1.628 -0.1945 -0.4432  0.0371
12775SOL    HW139809   2.805  -0.019   1.701 -0.5937  0.6843  0.7157
12775SOL    HW239810   2.925   0.059   1.652 -0.9679  1.4669  1.0477
12776SOL     OW39811   1.157   0.101   1.624  0.3810  0.6536  0.3894
12776SOL    HW139812   1.176   0.008   1.610 -0.1395  0.5355  0.4503
12776SOL    HW239813   1.077   0.102   1.676  0.0709  1.1435 -0.0903
12777SOL     OW39814   7.884   4.838   1.910  0.5258  0.1102 -0.0584
12777SOL    HW139815   7.882   4.900   1.836 -1.4164 -0.1866 -0.2811
12777SOL    HW239816   7.949   4.875   1.970 -0.0149  1.9499 -0.5517
12778SOL     OW39817   0.260   2.351   4.343  0.5118  0.3402  0.6825
12778SOL    HW139818   0.176   2.397   4.343  0.0240 -0.4368 -2.0113
12778SOL    HW239819   0.246   2.276   4.402 -0.0488  1.2560  1.7380
12779SOL     OW39820   6.679   6.024   1.498 -0.1655 -0.0685 -0.4135
12779SOL    HW139821   6.597   6.061   1.466 -1.0122  0.2333  2.0437
12779SOL    HW239822   6.661   5.930   1.506  0.2656 -0.2483 -1.4157
12780SOL     OW39823   4.220   1.037   7.660  0.1738  0.2494 -0.4135
12780SOL    HW139824   4.130   1.057   7.632  0.0579  1.1188  0.5769
12780SOL    HW239825   4.216   0.946   7.689  0.1556 -0.4878 -2.6354
12781SOL     OW39826   7.583   1.102   1.895 -0.3135  0.2023 -0.5233
12781SOL    HW139827   7.640   1.178   1.882 -0.7385  0.2827 -2.0492
12781SOL    HW239828   7.584   1.056   1.811 -0.6384 -1.0893  0.1655
12782SOL     OW39829   1.842   7.411   1.759  0.0387  0.6000  0.0842
12782SOL    HW139830   1.864   7.354   1.833 -0.9127 -0.4688 -0.4458
12782SOL    HW239831   1.884   7.370   1.683 -0.0466  0.9962 -0.1782
12783SOL     OW39832   0.373   5.287   5.032 -0.1688  0.2209  0.2149
12783SOL    HW139833   0.419   5.204   5.042 -0.1554  0.0132 -1.4973
12783SOL    HW239834   0.368   5.301   4.938 -2.8619  0.6641  0.3881
12784SOL     OW39835   3.227   2.513   0.833 -0.1486  0.0462 -0.0098
12784SOL    HW139836   3.290   2.492   0.764 -0.4559 -2.5563  0.4589
12784SOL    HW239837   3.261   2.469   0.911 -1.0942  0.9242  0.9054
12785SOL     OW39838   1.151   5.743   0.716 -0.2254  0.3159 -0.3306
12785SOL    HW139839   1.200   5.821   0.742 -0.1025  0.0321  0.3022
12785SOL    HW239840   1.215   5.672   0.722 -0.8598 -0.1495  1.0400
12786SOL     OW39841   7.463   6.343   3.566  0.5078 -0.6341 -0.3369
12786SOL    HW139842   7.385   6.364   3.514  0.9872 -0.1531 -0.8824
12786SOL    HW239843   7.466   6.411   3.634  2.0229  1.1096 -2.0640
12787SOL     OW39844   3.480   6.635   1.928  0.0211 -0.6099 -0.1866
12787SOL    HW139845   3.541   6.650   1.856 -0.5527  1.0912 -0.3410
12787SOL    HW239846   3.506   6.699   1.994  0.8070 -2.4228  1.3289
12788SOL     OW39847   7.250   7.326   5.029 -0.0824  0.2323  0.2145
12788SOL    HW139848   7.257   7.420   5.047  2.4585  0.2332 -0.6488
12788SOL    HW239849   7.206   7.321   4.944 -1.2947  0.5677  0.7991
12789SOL     OW39850   2.605   0.328   6.363 -0.5868  0.1392 -0.3328
12789SOL    HW139851   2.551   0.367   6.432  0.3001  1.0809 -0.1472
12789SOL    HW239852   2.606   0.235   6.383 -0.3826  0.3940  0.9042
12790SOL     OW39853   0.588   3.730   8.265 -0.4462 -0.4712  0.6388
12790SOL    HW139854   0.574   3.641   8.234  0.0153 -0.1340 -0.5698
12790SOL    HW239855   0.683   3.741   8.263 -0.5651  0.4447 -0.3746
12791SOL     OW39856   4.030   2.265   8.190 -0.1716  0.1137 -0.5111
12791SOL    HW139857   3.971   2.190   8.188  0.5604 -0.4593 -0.7485
12791SOL    HW239858   4.012   2.307   8.274  1.6588 -2.1493  1.0817
12792SOL     OW39859   0.883   1.711   5.159 -0.2833  0.3297  0.0035
12792SOL    HW139860   0.934   1.666   5.091 -0.4847  0.0697  0.0210
12792SOL    HW239861   0.792   1.684   5.141 -0.4098  0.7621 -0.0093
12793SOL     OW39862   7.640   4.952   8.266  0.2664 -0.1928 -0.2692
12793SOL    HW139863   7.630   4.891   8.194  0.1653 -0.9868  0.4064
12793SOL    HW239864   7.665   5.035   8.225 -0.7818 -0.3720 -1.2829
12794SOL     OW39865   2.247   3.447   6.526  0.3589  0.1534  0.1324
12794SOL    HW139866   2.233   3.530   6.571  0.0484  0.9574 -1.4127
12794SOL    HW239867   2.187   3.450   6.451  1.6221 -0.6924 -0.9325
12795SOL     OW39868   5.712   5.505   4.274 -0.0056  0.0914 -0.2211
12795SOL    HW139869   5.714   5.581   4.217  0.7203  0.4006  0.2159
12795SOL    HW239870   5.644   5.449   4.236  0.5074  0.2653 -1.4212
12796SOL     OW39871   6.233   2.126   2.892  0.1129  0.0349 -0.2332
12796SOL    HW139872   6.179   2.078   2.829  0.2371  1.1051 -1.1707
12796SOL    HW239873   6.318   2.082   2.889 -0.5242 -1.3109  0.8419
12797SOL     OW39874   5.764   6.762   3.834  0.0428 -0.0178 -0.1994
12797SOL    HW139875   5.735   6.753   3.743 -0.1547 -0.2367 -0.1163
12797SOL    HW239876   5.822   6.838   3.833 -1.3696  1.0789 -0.1702
12798SOL     OW39877   4.776   4.997   0.424 -0.4496 -0.5211  0.1830
12798SOL    HW139878   4.746   5.075   0.377  3.1885  0.7381 -0.1642
12798SOL    HW239879   4.770   5.021   0.517 -0.8557 -0.4523  0.1432
12799SOL     OW39880   4.579   2.967   2.471 -0.0410  0.0243 -0.2305
12799SOL    HW139881   4.639   3.041   2.465 -0.5029  0.3605 -0.6955
12799SOL    HW239882   4.555   2.963   2.563  1.8345 -1.0200  0.2526
12800SOL     OW39883   7.052   6.039   6.333 -0.3663  0.0522  0.0211
12800SOL    HW139884   7.011   5.982   6.399 -1.2321  1.1655  0.4724
12800SOL    HW239885   7.091   6.110   6.385 -0.4432  0.5588 -0.6125
12801SOL     OW39886   8.062   3.388   1.644 -0.0713 -0.1646 -0.0201
12801SOL    HW139887   8.027   3.311   1.599  0.6307 -0.5073  0.0052
12801SOL    HW239888   7.991   3.452   1.643 -0.6123 -0.7755 -0.1475
12802SOL     OW39889   6.466   1.298   6.535 -0.3064  0.1541  0.1255
12802SOL    HW139890   6.558   1.286   6.514 -0.5138  0.3267 -0.8989
12802SOL    HW239891   6.450   1.391   6.517 -0.5543  0.2445  0.8013
12803SOL     OW39892   3.643   7.294   4.228  0.3651 -0.6142 -0.5545
12803SOL    HW139893   3.552   7.279   4.203  0.1180 -0.5261  0.2698
12803SOL    HW239894   3.645   7.277   4.322  0.7922  1.1696 -0.2080
12804SOL     OW39895   1.788   7.070   0.792  0.0266  0.0372 -0.5735
12804SOL    HW139896   1.793   7.037   0.882 -1.5617 -1.7687 -1.1139
12804SOL    HW239897   1.837   7.152   0.794 -2.8045  1.7718  2.7108
12805SOL     OW39898   1.001   0.877   8.031 -0.2303  0.3364  0.5796
12805SOL    HW139899   0.927   0.819   8.010  0.1732 -0.1182  0.3848
12805SOL    HW239900   1.029   0.849   8.118 -0.6273  0.8661  0.8745
12806SOL     OW39901   0.145   6.890   7.581  0.1352  0.2480  0.3261
12806SOL    HW139902   0.207   6.831   7.539  0.5985  0.4273  0.7478
12806SOL    HW239903   0.059   6.865   7.545  0.2429 -1.0736  0.9338
12807SOL     OW39904   6.849   2.434   1.259 -0.6837  0.2511  0.0227
12807SOL    HW139905   6.776   2.395   1.307 -0.3375 -0.1252  0.2396
12807SOL    HW239906   6.863   2.519   1.301 -0.4059 -0.0599  0.5693
12808SOL     OW39907   6.207   3.826   3.602  0.1343  0.8056 -0.0579
12808SOL    HW139908   6.235   3.825   3.510 -0.7861 -0.6337 -0.3512
12808SOL    HW239909   6.139   3.893   3.605  1.8383  2.5792  0.1266
12809SOL     OW39910   4.296   5.943   8.296 -0.4975 -0.7126 -0.1068
12809SOL    HW139911   4.228   6.009   8.313  1.3882  1.3934 -0.4688
12809SOL    HW239912   4.294   5.886   8.373 -0.7853  1.0146  1.2118
12810SOL     OW39913   0.729   4.833   5.999  0.2017  0.1696  0.4208
12810SOL    HW139914   0.810   4.795   5.966 -0.6193  0.5578 -2.2322
12810SOL    HW239915   0.736   4.828   6.094  1.6974 -3.2181  0.1845
12811SOL     OW39916   0.395   2.021   3.975  1.0130 -0.1778 -0.5039
12811SOL    HW139917   0.440   2.058   4.052  0.5288  2.4658 -1.4266
12811SOL    HW239918   0.305   2.008   4.004  1.1265 -0.3959 -0.2466
12812SOL     OW39919   8.152   2.915   6.052 -0.1678  0.0072  0.0133
12812SOL    HW139920   8.161   2.990   6.111 -0.0902 -0.3048  0.3927
12812SOL    HW239921   8.141   2.955   5.965  0.4676  0.4484  0.1372
12813SOL     OW39922   2.413   3.272   3.827  0.6329  0.2712 -0.1001
12813SOL    HW139923   2.442   3.360   3.803  1.8895  0.3100  1.4728
12813SOL    HW239924   2.488   3.216   3.807  0.8506 -0.0257  1.4245
12814SOL     OW39925   5.077   3.197   0.527  0.1697  0.3320  0.4265
12814SOL    HW139926   4.983   3.210   0.536 -0.0293 -1.0022  0.4504
12814SOL    HW239927   5.116   3.258   0.589 -0.6864  0.8920  0.4206
12815SOL     OW39928   1.649   0.725   2.311  0.4504 -0.2171  0.1884
12815SOL    HW139929   1.732   0.772   2.304 -0.2494  1.1413  0.7677
12815SOL    HW239930   1.584   0.786   2.277  0.0771 -2.5910 -3.6782
12816SOL     OW39931   4.705   0.009   7.372 -0.3346  0.2499 -0.6883
12816SOL    HW139932   4.775  -0.001   7.307 -0.6423 -2.0282 -0.6885
12816SOL    HW239933   4.633   0.048   7.323  1.1845  3.4459 -0.4987
12817SOL     OW39934   6.620   7.124   7.657  0.0403 -0.0751 -0.3849
12817SOL    HW139935   6.610   7.168   7.573  1.2108  0.2923 -0.3430
12817SOL    HW239936   6.579   7.183   7.720  1.7043  1.0353 -0.3130
12818SOL     OW39937   0.602   3.522   4.315  0.0235  0.0831 -0.2951
12818SOL    HW139938   0.662   3.464   4.362 -0.7145  0.2490  0.8800
12818SOL    HW239939   0.629   3.610   4.340  0.8249  0.2514 -1.6850
12819SOL     OW39940   5.328   3.551   4.937  0.4732  0.0149  0.2810
12819SOL    HW139941   5.350   3.506   4.855 -0.1890  0.0277  0.0927
12819SOL    HW239942   5.400   3.529   4.996  1.9953  1.6276 -0.9162
12820SOL     OW39943   6.571   6.658   6.589  0.5470  0.1169 -0.7388
12820SOL    HW139944   6.604   6.701   6.668  1.4513 -0.4831 -0.7843
12820SOL    HW239945   6.540   6.730   6.534  0.9776  0.6256 -0.3246
12821SOL     OW39946   0.281   6.714   1.031  0.3340  0.0081  0.0309
12821SOL    HW139947   0.224   6.776   1.077  0.3016 -0.6932  0.9447
12821SOL    HW239948   0.364   6.761   1.023  0.7027 -0.2801  1.8605
12822SOL     OW39949   0.679   7.722   2.064  0.1578 -0.7099 -0.3392
12822SOL    HW139950   0.695   7.717   1.970  0.7842 -0.6213 -0.2361
12822SOL    HW239951   0.766   7.717   2.104 -0.0322  0.1754  0.2022
12823SOL     OW39952   7.036   0.389   5.859  0.2707  0.0440  0.4292
12823SOL    HW139953   6.998   0.437   5.933 -0.7914  2.1405 -1.4077
12823SOL    HW239954   7.097   0.451   5.820 -1.2151  0.0077 -2.0725
12824SOL     OW39955   0.062   6.684   5.507 -0.2218 -0.3204  0.2051
12824SOL    HW139956   0.138   6.670   5.452  0.0909  1.0058  0.2726
12824SOL    HW239957   0.086   6.648   5.592  0.8064  1.1418  0.5663
12825SOL     OW39958   7.319   5.661   3.421 -0.2881 -0.3164  0.0218
12825SOL    HW139959   7.332   5.666   3.327  2.4129  3.1057  0.4723
12825SOL    HW239960   7.262   5.735   3.442 -1.3919 -1.4200  1.0218
12826SOL     OW39961   2.171   4.883   3.731 -0.2752  0.3300  0.6102
12826SOL    HW139962   2.108   4.853   3.796  1.6212 -0.7727  1.9865
12826SOL    HW239963   2.192   4.973   3.757 -1.1201  0.6258  0.2689
12827SOL     OW39964   1.415   4.441   5.010 -0.0584 -0.4629  0.1491
12827SOL    HW139965   1.325   4.430   5.042 -0.8682 -0.4912 -2.0816
12827SOL    HW239966   1.470   4.411   5.083 -1.8454 -0.4976  1.5194
12828SOL     OW39967   3.443   8.066   7.038  1.1335 -0.2438  0.1700
12828SOL    HW139968   3.375   8.004   7.014  1.8864  0.0742 -2.9021
12828SOL    HW239969   3.397   8.132   7.091 -0.9225 -0.1116 -1.7203
12829SOL     OW39970   0.490   7.661   3.376  0.2465 -0.3157 -0.0745
12829SOL    HW139971   0.406   7.683   3.417 -0.0796 -1.7526  0.0242
12829SOL    HW239972   0.556   7.697   3.435 -0.2715 -0.2286  0.4545
12830SOL     OW39973   3.152   2.194   6.297  0.1175 -0.7406 -0.0677
12830SOL    HW139974   3.172   2.249   6.221 -1.0633  0.8486  0.7143
12830SOL    HW239975   3.173   2.250   6.372 -0.5008 -1.5919  0.7467
12831SOL     OW39976   1.054   2.695   4.501 -0.8746 -0.1879  0.4995
12831SOL    HW139977   1.051   2.639   4.579 -0.9416 -1.0138 -0.0850
12831SOL    HW239978   1.038   2.783   4.534  1.6200 -0.1655  1.7732
12832SOL     OW39979   7.975   4.050   8.150 -0.0334 -0.0627  0.3192
12832SOL    HW139980   7.993   4.139   8.181  1.1251  0.0548 -0.6559
12832SOL    HW239981   8.032   3.994   8.203  1.7051  0.1069 -1.3323
12833SOL     OW39982   1.196   5.393   5.280 -0.1068  0.4107  0.0366
12833SOL    HW139983   1.121   5.399   5.338 -2.1455 -1.2634 -2.3369
12833SOL    HW239984   1.239   5.478   5.287 -4.2487  2.7191 -1.2096
12834SOL     OW39985   5.250   1.760   3.484 -0.8236 -0.3990  0.5714
12834SOL    HW139986   5.217   1.837   3.529 -1.9401 -0.3334 -0.3240
12834SOL    HW239987   5.291   1.794   3.404  0.9898 -0.5249  1.4301
12835SOL     OW39988   4.185   2.125   1.901 -0.6772  0.1040  0.2163
12835SOL    HW139989   4.275   2.132   1.933 -0.8852  2.2510  0.4051
12835SOL    HW239990   4.194   2.087   1.814  0.3517 -0.3217  0.4936
12836SOL     OW39991   3.317   5.092   1.794  0.5019 -0.0104 -0.9159
12836SOL    HW139992   3.339   5.046   1.713 -2.4567 -1.2622 -1.0691
12836SOL    HW239993   3.326   5.025   1.862  0.4854  0.3560 -0.5571
12837SOL     OW39994   0.830   6.392   1.055 -0.3183 -0.9344 -0.1526
12837SOL    HW139995   0.745   6.374   1.096 -0.0022 -0.5295  0.7055
12837SOL    HW239996   0.887   6.321   1.087  0.2057 -0.0188  0.9818
12838SOL     OW39997   0.558   7.644   6.169  0.1111 -0.0692 -0.2472
12838SOL    HW139998   0.609   7.569   6.139 -0.9608 -1.1712  0.6479
12838SOL    HW239999   0.470   7.627   6.138  0.2422  1.8253 -1.7732
12839SOL     OW40000   7.730   0.864   3.055 -0.5860 -0.0999 -0.4105
12839SOL    HW140001   7.723   0.769   3.050  0.9896 -0.2927  0.7287
12839SOL    HW240002   7.735   0.883   3.148 -0.8230  1.0935 -0.6353
12840SOL     OW40003   0.712   2.931   3.214  0.4612  0.3810  0.0322
12840SOL    HW140004   0.636   2.918   3.158  0.5905 -2.1660  0.3772
12840SOL    HW240005   0.680   2.988   3.285 -0.9035 -0.0114 -0.2563
12841SOL     OW40006   0.363   1.902   3.475 -0.0366  0.4648 -0.3256
12841SOL    HW140007   0.321   1.931   3.394  0.6753  1.1994 -0.4417
12841SOL    HW240008   0.380   1.983   3.523 -0.3638  0.0385  0.5148
12842SOL     OW40009   0.776   2.972   4.795 -0.6171  0.8512  0.1877
12842SOL    HW140010   0.725   3.049   4.819 -2.2094  0.9339 -3.1091
12842SOL    HW240011   0.711   2.912   4.757  0.7715 -1.6856  1.6214
12843SOL     OW40012   5.490   3.198   4.883 -0.6804 -0.1472  0.2158
12843SOL    HW140013   5.543   3.275   4.900 -0.7329  0.6947 -3.1860
12843SOL    HW240014   5.401   3.223   4.910 -0.6290  0.8577 -0.5556
12844SOL     OW40015   3.853   8.053   6.301  0.6626 -0.8799 -0.1444
12844SOL    HW140016   3.881   8.053   6.209 -1.0342 -1.3664 -0.6846
12844SOL    HW240017   3.766   8.011   6.299  0.4257 -0.4877  1.6211
12845SOL     OW40018   3.697   4.929   8.075 -0.2143  0.1613 -0.0436
12845SOL    HW140019   3.673   4.909   8.165  2.5894  3.0455  1.4350
12845SOL    HW240020   3.792   4.916   8.072 -0.4584 -1.3449 -3.0166
12846SOL     OW40021   0.534   2.522   4.894  0.4527 -0.0875  0.8277
12846SOL    HW140022   0.608   2.579   4.915  1.1368 -0.6650  0.0012
12846SOL    HW240023   0.510   2.546   4.805 -0.1342 -0.1479  0.9698
12847SOL     OW40024   4.404   6.327   2.984  0.1587  0.1644  0.0925
12847SOL    HW140025   4.490   6.285   2.986 -0.0187 -0.2069 -0.1668
12847SOL    HW240026   4.424   6.421   2.987  0.5521  0.0671  0.7144
12848SOL     OW40027   3.169   0.483   3.210 -0.0043 -0.2001 -0.0567
12848SOL    HW140028   3.244   0.438   3.250 -0.7112 -0.4865  0.9592
12848SOL    HW240029   3.159   0.564   3.261 -0.3291 -0.1205 -0.2429
12849SOL     OW40030   7.818   0.950   2.601  0.3154 -0.2612  0.4148
12849SOL    HW140031   7.831   0.992   2.686 -0.0072  1.4263 -0.3520
12849SOL    HW240032   7.858   0.863   2.611  0.0649 -0.1784  2.3558
12850SOL     OW40033   3.806   3.892   3.715 -0.7353 -0.3000  0.4088
12850SOL    HW140034   3.816   3.798   3.701  0.9889  0.0305 -0.7546
12850SOL    HW240035   3.714   3.910   3.693 -0.6830 -1.4656 -0.8689
12851SOL     OW40036   4.755   1.229   3.054  0.3907 -0.6279 -0.0866
12851SOL    HW140037   4.679   1.214   3.111  2.2655 -1.8131  2.1848
12851SOL    HW240038   4.718   1.270   2.976 -2.6872 -1.8373  0.6415
12852SOL     OW40039   0.738   2.911   0.321  0.8519 -0.4927  0.4607
12852SOL    HW140040   0.781   2.966   0.256  0.2180 -1.4909 -0.8090
12852SOL    HW240041   0.671   2.863   0.273  1.5475 -2.5588  1.4743
12853SOL     OW40042   7.124   3.607   7.518 -0.1769  0.0106 -0.3301
12853SOL    HW140043   7.076   3.584   7.438 -1.7907  2.2563 -0.0766
12853SOL    HW240044   7.059   3.601   7.588  0.4496  0.9672  0.3553
12854SOL     OW40045   3.152   6.912   5.235  0.1442  0.1489  0.7969
12854SOL    HW140046   3.213   6.986   5.226  1.5551 -0.9595  1.0746
12854SOL    HW240047   3.208   6.838   5.256 -1.1309 -1.2919 -0.8220
12855SOL     OW40048   6.195   7.373   6.394  0.1882 -0.0324  0.0584
12855SOL    HW140049   6.178   7.440   6.328  0.9742  2.0341  1.9056
12855SOL    HW240050   6.112   7.326   6.402 -0.0611  0.0085 -2.0103
12856SOL     OW40051   0.392   4.992   0.134  0.1325 -0.6582 -0.2672
12856SOL    HW140052   0.363   4.993   0.043 -2.0884  2.3313  0.3793
12856SOL    HW240053   0.323   4.945   0.180 -0.8586  1.3986  0.4218
12857SOL     OW40054   7.913   4.524   3.829  0.0256  0.5650 -0.0203
12857SOL    HW140055   7.921   4.457   3.897  0.6682 -0.1502 -0.7921
12857SOL    HW240056   7.997   4.521   3.782 -0.4044  1.0571 -0.8346
12858SOL     OW40057   1.241   1.475   2.950  0.0718  0.0853  0.3217
12858SOL    HW140058   1.281   1.476   2.863 -1.4470 -1.2078 -0.4157
12858SOL    HW240059   1.200   1.561   2.958 -0.1086  0.0696 -0.4011
12859SOL     OW40060   2.295   5.888   2.515  0.0541  0.0756 -0.2569
12859SOL    HW140061   2.300   5.863   2.607  1.2366  1.6794  0.1315
12859SOL    HW240062   2.210   5.931   2.505  0.3614  0.8102  0.3156
12860SOL     OW40063   0.209   5.486   6.563 -0.6725 -0.3974 -0.0733
12860SOL    HW140064   0.304   5.488   6.548 -0.7819  0.2692 -0.7215
12860SOL    HW240065   0.172   5.457   6.479 -1.1417  0.9295 -0.3395
12861SOL     OW40066   3.774   3.940   8.193 -0.2403  0.5740  0.5718
12861SOL    HW140067   3.724   3.997   8.251  0.7210  0.0859  1.9171
12861SOL    HW240068   3.796   3.864   8.248 -1.4006 -1.0497 -1.1294
12862SOL     OW40069   1.681   6.329   2.801  0.1674 -0.1885  0.0180
12862SOL    HW140070   1.663   6.402   2.741  1.6368 -0.6200 -0.9614
12862SOL    HW240071   1.595   6.307   2.837 -0.6369  0.5171 -1.4214
12863SOL     OW40072   2.491   7.992   3.057 -0.1352 -0.0581 -0.1997
12863SOL    HW140073   2.491   7.968   3.150 -0.1583  0.1700 -0.1398
12863SOL    HW240074   2.583   7.997   3.033 -0.1537 -1.8559 -0.6437
12864SOL     OW40075   5.102   6.328   4.158 -0.3991 -0.2954 -0.3146
12864SOL    HW140076   5.056   6.245   4.146 -1.6143  0.4721 -1.0303
12864SOL    HW240077   5.076   6.381   4.083  1.4073  0.2767 -0.5591
12865SOL     OW40078   5.095   2.265   5.742  0.2777  0.1067 -0.0334
12865SOL    HW140079   5.113   2.269   5.836  0.4852 -1.0796 -0.0120
12865SOL    HW240080   5.040   2.341   5.725  0.1372  0.2652  1.0711
12866SOL     OW40081   5.894   4.152   2.329 -0.1445  0.0862 -0.6649
12866SOL    HW140082   5.973   4.107   2.357  0.0264  0.8614  0.1421
12866SOL    HW240083   5.870   4.111   2.246  0.1047 -1.3544 -0.0325
12867SOL     OW40084   2.558   1.186   4.073 -0.1409  0.2193  0.3507
12867SOL    HW140085   2.635   1.221   4.029 -0.5454  0.7083  0.0237
12867SOL    HW240086   2.592   1.120   4.133  0.3718 -0.7567 -1.0016
12868SOL     OW40087   6.901   3.907   5.370  0.3009  0.2338 -0.1340
12868SOL    HW140088   6.822   3.948   5.407 -1.4694 -1.0216 -2.3737
12868SOL    HW240089   6.917   3.955   5.289 -0.7447 -2.2320 -1.8835
12869SOL     OW40090   3.361   1.016   4.209 -0.2204 -0.1580 -0.4173
12869SOL    HW140091   3.278   0.969   4.209 -1.2057  1.5586 -0.5617
12869SOL    HW240092   3.357   1.073   4.132  1.4883 -0.7308 -0.9682
12870SOL     OW40093   7.517   6.349   5.376 -0.1021 -0.5116  0.4394
12870SOL    HW140094   7.560   6.327   5.294  1.3508  0.4890  0.9022
12870SOL    HW240095   7.433   6.387   5.350  0.3864 -0.1250 -0.5813
12871SOL     OW40096   0.009   2.740   2.128  0.0359  0.3287  0.5863
12871SOL    HW140097   0.065   2.732   2.206 -0.1643  0.4774  0.7460
12871SOL    HW240098   0.071   2.753   2.056  0.3170 -1.6838  0.4450
12872SOL     OW40099   4.250   3.481   8.253  0.0624  0.4169  0.2084
12872SOL    HW140100   4.334   3.494   8.298 -0.0728  1.2288  0.2477
12872SOL    HW240101   4.256   3.536   8.175 -0.2639  0.1350 -0.0168
12873SOL     OW40102   7.263   2.494   1.770  0.4146 -0.1583  0.2557
12873SOL    HW140103   7.180   2.455   1.745  0.5609 -0.7935  0.7409
12873SOL    HW240104   7.246   2.588   1.774 -0.4790 -0.3446  1.0866
12874SOL     OW40105   2.007   1.227   4.528 -0.2409  0.2606 -0.9340
12874SOL    HW140106   2.001   1.146   4.476 -1.1918 -1.1103  1.2312
12874SOL    HW240107   2.030   1.197   4.616  1.1047  2.5177 -0.4733
12875SOL     OW40108   5.016   1.231   2.473  0.0381 -0.4084  0.2840
12875SOL    HW140109   4.954   1.300   2.498 -0.0492  0.1018 -1.2878
12875SOL    HW240110   4.961   1.160   2.441  0.2340 -0.0583 -0.8582
12876SOL     OW40111   5.111   1.606   7.980  0.3048 -0.4368  0.0864
12876SOL    HW140112   5.080   1.697   7.982  0.9077 -0.1702 -1.7368
12876SOL    HW240113   5.060   1.566   7.909  0.2922 -1.4279  0.6532
12877SOL     OW40114   1.773   7.970   1.080  0.1652 -0.6112 -0.4411
12877SOL    HW140115   1.679   7.955   1.071  0.2356 -0.7136 -1.0193
12877SOL    HW240116   1.801   8.000   0.993  0.3862  0.9336  0.1454
12878SOL     OW40117   0.627   4.683   7.726  0.1218  0.1173  0.0226
12878SOL    HW140118   0.689   4.637   7.783 -1.0134 -0.8504  0.4963
12878SOL    HW240119   0.639   4.642   7.640 -0.5231 -0.7142  0.3276
12879SOL     OW40120   6.718   3.778   8.143  0.6249  0.0902 -0.4933
12879SOL    HW140121   6.803   3.768   8.184  0.7611  2.3312 -0.1655
12879SOL    HW240122   6.684   3.861   8.177 -0.7676  0.2803 -2.2374
12880SOL     OW40123   5.671   4.004   5.727  0.5194  0.1116  0.7198
12880SOL    HW140124   5.678   4.042   5.639 -1.8366  0.2494  0.5802
12880SOL    HW240125   5.762   3.998   5.757  1.2386  1.6814 -1.0301
12881SOL     OW40126   1.953   0.065   1.469 -0.2622  0.2208  0.3605
12881SOL    HW140127   2.006  -0.015   1.469 -0.6004 -0.0014  0.4047
12881SOL    HW240128   1.915   0.069   1.381  1.5548  1.5238 -0.4078
12882SOL     OW40129   7.941   2.894   4.091 -0.5004  0.1776  0.3782
12882SOL    HW140130   7.951   2.848   4.174 -1.1363  1.8799  1.4269
12882SOL    HW240131   7.846   2.909   4.083 -0.2763  1.6121  0.2449
12883SOL     OW40132   6.020   7.564   7.063  0.2029 -0.9501  0.0265
12883SOL    HW140133   6.044   7.530   6.977  2.2079  1.8869 -0.6248
12883SOL    HW240134   5.974   7.646   7.044 -1.6196 -1.5768  1.6076
12884SOL     OW40135   0.859   6.928   3.185 -0.2109 -0.0937  0.6233
12884SOL    HW140136   0.890   6.872   3.114 -0.1114  0.8571 -0.0963
12884SOL    HW240137   0.777   6.966   3.151 -1.2709 -1.2475  1.8307
12885SOL     OW40138   6.660   3.624   6.948  0.3439 -0.4992  0.0207
12885SOL    HW140139   6.666   3.689   6.878  0.6567 -0.4585  0.0820
12885SOL    HW240140   6.691   3.670   7.026  2.7703 -1.3678 -0.3849
12886SOL     OW40141   6.955   4.278   3.160  0.4303  0.2718 -0.2279
12886SOL    HW140142   6.882   4.235   3.204  2.5274 -2.8849  0.3704
12886SOL    HW240143   6.993   4.334   3.227 -0.1406  0.2694  0.1024
12887SOL     OW40144   2.933   2.250   5.425 -0.1180 -0.5759  1.2412
12887SOL    HW140145   2.883   2.302   5.487  1.7017 -1.1797  3.2790
12887SOL    HW240146   2.896   2.163   5.430 -1.5276 -0.0865 -0.3179
12888SOL     OW40147   5.777   3.785   3.221 -0.1266  0.5289 -0.6136
12888SOL    HW140148   5.817   3.698   3.225 -1.3063  0.0266  0.5279
12888SOL    HW240149   5.831   3.833   3.159  0.5806 -0.9991 -1.2023
12889SOL     OW40150   6.861   6.520   4.075 -0.1323 -0.4549  0.1717
12889SOL    HW140151   6.932   6.573   4.038  0.4781 -0.7660  0.8568
12889SOL    HW240152   6.813   6.486   4.000 -0.1231  0.5331 -0.2808
12890SOL     OW40153   5.475   2.301   2.666  0.1747  0.3672  0.0290
12890SOL    HW140154   5.401   2.266   2.716 -0.9148  1.7219 -0.5927
12890SOL    HW240155   5.439   2.320   2.580  1.6897 -0.5901 -0.8299
12891SOL     OW40156   7.907   1.146   3.486  0.4952  0.0557  0.1387
12891SOL    HW140157   7.982   1.163   3.544  0.5910  0.7995 -0.1952
12891SOL    HW240158   7.894   1.229   3.440 -0.0993 -0.2879 -0.3083
12892SOL     OW40159   7.299   7.329   7.405 -0.7890 -0.1072 -0.0572
12892SOL    HW140160   7.366   7.397   7.417  2.0941 -2.9107  0.2178
12892SOL    HW240161   7.309   7.301   7.314 -1.0963 -1.0611  0.1985
12893SOL     OW40162   5.851   5.098   6.111 -0.3344 -0.8797  0.1121
12893SOL    HW140163   5.756   5.093   6.114 -0.3426 -0.4611  1.0193
12893SOL    HW240164   5.869   5.180   6.064 -0.4434 -0.4795  0.7549
12894SOL     OW40165   3.827   1.555   4.433  0.2319 -0.5257  0.0863
12894SOL    HW140166   3.793   1.470   4.407 -1.2107 -0.2533  0.9878
12894SOL    HW240167   3.840   1.548   4.528  0.8882 -0.0050  0.0449
12895SOL     OW40168   1.376   4.760   3.284 -0.2281 -0.1153  0.1616
12895SOL    HW140169   1.288   4.768   3.320 -1.1578  0.7702 -2.1904
12895SOL    HW240170   1.409   4.850   3.283  0.5378 -0.3837  0.5890
12896SOL     OW40171   7.441   1.847   0.163 -0.0617  0.1308 -0.1892
12896SOL    HW140172   7.491   1.892   0.232 -0.8500  1.5282 -0.5184
12896SOL    HW240173   7.499   1.847   0.087  0.2668 -0.1699  0.0588
12897SOL     OW40174   1.704   6.584   7.990 -0.5236  0.1014  0.4496
12897SOL    HW140175   1.642   6.589   8.063  1.0746  4.9257  1.6373
12897SOL    HW240176   1.659   6.629   7.918  0.3432  0.7904  0.3414
12898SOL     OW40177   4.611   1.208   6.833 -0.5906 -0.3511 -0.4113
12898SOL    HW140178   4.695   1.232   6.794 -0.3903 -0.0663  0.1791
12898SOL    HW240179   4.592   1.121   6.800 -1.2998  0.5897 -2.5722
12899SOL     OW40180   6.378   6.946   7.900 -0.3425 -0.0085  0.0034
12899SOL    HW140181   6.302   6.993   7.867 -0.9803 -0.9896  0.0459
12899SOL    HW240182   6.379   6.865   7.850  0.3920 -0.2139  0.3487
12900SOL     OW40183   4.767   3.354   1.852 -0.0827  0.9760  0.4640
12900SOL    HW140184   4.789   3.444   1.827 -0.7953  1.3536  1.1830
12900SOL    HW240185   4.677   3.342   1.820  0.9785 -0.4215 -2.1134
12901SOL     OW40186   7.222   0.395   3.371 -0.3060  0.1166 -0.3248
12901SOL    HW140187   7.217   0.489   3.387  0.0290  0.2342 -0.9156
12901SOL    HW240188   7.214   0.386   3.276 -1.0174 -0.4957 -0.2126
12902SOL     OW40189   0.284   7.802   0.314  0.0861  0.3730  0.1735
12902SOL    HW140190   0.248   7.841   0.394 -2.8584  1.1090 -1.4019
12902SOL    HW240191   0.317   7.877   0.264 -0.8379  0.2904 -0.5802
12903SOL     OW40192   6.150   4.769   8.266  0.2079 -0.0400 -0.1253
12903SOL    HW140193   6.238   4.732   8.257 -0.6221 -2.0148 -0.2389
12903SOL    HW240194   6.123   4.788   8.176  0.9961  1.7820 -0.0076
12904SOL     OW40195   4.861   6.458   7.836 -0.0481 -0.0183  0.3911
12904SOL    HW140196   4.820   6.529   7.787 -0.3227 -1.0960 -0.9530
12904SOL    HW240197   4.936   6.499   7.879 -0.7130  1.2730  0.3387
12905SOL     OW40198   4.243   6.377   2.130 -0.4779 -0.4357 -0.1378
12905SOL    HW140199   4.223   6.429   2.208  0.0206 -0.9178  0.3182
12905SOL    HW240200   4.231   6.438   2.057  0.0851  0.3197  0.3889
12906SOL     OW40201   2.439   0.338   3.921 -0.5776 -0.2135  0.3743
12906SOL    HW140202   2.445   0.333   3.826 -0.3425  1.8004  0.2583
12906SOL    HW240203   2.346   0.354   3.939 -0.3367  1.3512  0.3464
12907SOL     OW40204   7.694   1.858   0.986 -0.0802 -0.0865  0.4817
12907SOL    HW140205   7.781   1.896   0.978 -0.8992  1.5584 -1.0363
12907SOL    HW240206   7.645   1.922   1.037 -0.6788 -0.5116  0.4420
12908SOL     OW40207   3.097   4.055   5.166 -0.2518  0.1761  0.0788
12908SOL    HW140208   3.011   4.029   5.200 -0.1485 -0.1054  0.1221
12908SOL    HW240209   3.114   4.139   5.208 -0.9492  0.7048 -0.6889
12909SOL     OW40210   6.857   7.972   5.038  0.5583  0.2780  0.1224
12909SOL    HW140211   6.843   7.904   4.972  1.0298 -0.8781  1.2020
12909SOL    HW240212   6.830   8.053   4.994  0.8254 -0.4714 -1.4761
12910SOL     OW40213   2.948   1.400   1.803  0.6781  0.0047  0.4184
12910SOL    HW140214   2.947   1.344   1.880 -0.1394 -1.3143 -0.5236
12910SOL    HW240215   2.917   1.344   1.732 -1.0084  1.8839 -0.3907
12911SOL     OW40216   0.207   6.951   5.102  0.4197 -0.1846  0.0390
12911SOL    HW140217   0.191   6.859   5.082 -2.4183  0.7290 -2.1143
12911SOL    HW240218   0.132   6.977   5.155 -0.5395  1.7273 -2.1956
12912SOL     OW40219   1.927   7.127   0.004 -0.1141  0.4150  0.2661
12912SOL    HW140220   2.000   7.167   0.051 -0.0916  1.4139 -0.6005
12912SOL    HW240221   1.860   7.115   0.071  0.4141  0.5792  0.8342
12913SOL     OW40222   1.442   1.226   5.800  0.0317  0.7636  0.2825
12913SOL    HW140223   1.438   1.183   5.885 -0.0841 -0.8594 -0.5191
12913SOL    HW240224   1.474   1.314   5.819 -0.4222  0.5695  2.0489
12914SOL     OW40225   7.266   5.851   0.369  0.4602 -0.0273  0.1471
12914SOL    HW140226   7.273   5.946   0.375  1.7876 -0.0738 -0.5995
12914SOL    HW240227   7.221   5.825   0.450 -0.7783  1.3086 -0.0976
12915SOL     OW40228   7.286   4.507   4.902  0.1749  0.2349 -0.2599
12915SOL    HW140229   7.364   4.524   4.849 -1.6664  1.7811 -2.5366
12915SOL    HW240230   7.229   4.455   4.846 -0.7501 -0.2922  1.1438
12916SOL     OW40231   0.148   8.014   7.110  0.2370 -0.2418  0.2573
12916SOL    HW140232   0.225   7.992   7.058 -0.0303  1.5826 -0.9267
12916SOL    HW240233   0.075   8.007   7.049  0.1854  4.3686 -0.3349
12917SOL     OW40234   5.436   0.836   7.621 -0.4158  0.0239  0.2688
12917SOL    HW140235   5.344   0.842   7.597 -0.7313 -0.8655  1.2774
12917SOL    HW240236   5.464   0.750   7.589 -0.2939 -0.2931  1.2296
12918SOL     OW40237   1.056   6.333   6.612 -0.2745 -0.2753  0.0349
12918SOL    HW140238   1.132   6.316   6.556  0.3707  2.3931  0.0182
12918SOL    HW240239   1.060   6.427   6.629 -3.4049 -0.1328  0.2953
12919SOL     OW40240   1.601   2.646   3.495  0.2372 -0.4357 -0.0493
12919SOL    HW140241   1.603   2.737   3.465 -0.6046 -1.1897 -2.5394
12919SOL    HW240242   1.664   2.601   3.439 -0.3476 -1.6523  0.2561
12920SOL     OW40243   3.221   7.031   3.749  0.0455 -0.2504  0.5475
12920SOL    HW140244   3.301   7.079   3.770 -0.0489 -0.6020  1.7112
12920SOL    HW240245   3.170   7.093   3.696  1.6366 -0.4952 -1.3326
12921SOL     OW40246   0.545   2.190   0.988  0.5583  0.5318 -0.1158
12921SOL    HW140247   0.464   2.210   1.036  0.7921 -1.7183  1.3146
12921SOL    HW240248   0.571   2.273   0.949 -0.3327  2.1809  2.6505
12922SOL     OW40249   7.125   3.577   1.936 -0.2627  0.2786 -0.1158
12922SOL    HW140250   7.055   3.529   1.893 -0.3936  0.6887 -0.3688
12922SOL    HW240251   7.151   3.644   1.872 -0.4499  0.8881  0.4381
12923SOL     OW40252   4.237   4.890   1.313 -0.0317 -0.0697 -0.0065
12923SOL    HW140253   4.306   4.891   1.247  0.7826  1.3365  0.8731
12923SOL    HW240254   4.200   4.801   1.307  1.4908 -0.6598 -0.8249
12924SOL     OW40255   2.722   3.326   1.894  0.2603  0.0250 -0.7510
12924SOL    HW140256   2.795   3.351   1.838 -0.5998 -0.8138 -2.2679
12924SOL    HW240257   2.745   3.238   1.924 -0.3536 -0.4465 -1.6423
12925SOL     OW40258   6.088   5.055   2.691  0.1975 -0.1055 -0.1478
12925SOL    HW140259   6.100   5.089   2.603 -0.6687 -0.1913 -0.3044
12925SOL    HW240260   6.170   5.074   2.736  0.6345 -0.0553 -0.9677
12926SOL     OW40261   4.703   3.799   3.609  0.1226 -0.1050  0.3275
12926SOL    HW140262   4.702   3.704   3.600 -0.2554 -0.0074 -0.8694
12926SOL    HW240263   4.689   3.816   3.702  1.0108 -1.2346  0.6639
12927SOL     OW40264   2.190   4.981   0.894  0.3261 -0.1107  0.2390
12927SOL    HW140265   2.140   4.908   0.931 -0.4951  0.8340  1.0512
12927SOL    HW240266   2.123   5.043   0.866  0.9987  0.0283 -1.1103
12928SOL     OW40267   7.709   3.911   5.325 -0.2818 -0.0544 -0.5011
12928SOL    HW140268   7.652   3.959   5.264  1.9963  0.9393 -1.9406
12928SOL    HW240269   7.733   3.976   5.391  0.4284 -0.0472 -0.7689
12929SOL     OW40270   3.911   3.583   5.537  0.6843 -0.2669 -0.1417
12929SOL    HW140271   3.936   3.665   5.579  0.2180 -0.0320 -0.3144
12929SOL    HW240272   3.816   3.577   5.552  0.3506  0.2454 -1.8901
12930SOL     OW40273   7.321   6.194   5.062 -0.2076  0.3831 -0.3755
12930SOL    HW140274   7.298   6.279   5.099 -1.4322 -0.4916  0.9507
12930SOL    HW240275   7.259   6.180   4.990 -0.0096  0.6105 -0.5891
12931SOL     OW40276   2.782   1.594   4.687  0.1343  0.1504 -0.8447
12931SOL    HW140277   2.848   1.564   4.625 -0.0125 -1.1632 -0.3684
12931SOL    HW240278   2.750   1.676   4.649  0.1621 -0.5407 -2.4244
12932SOL     OW40279   8.184   3.174   4.751  0.1564  0.2850  0.2871
12932SOL    HW140280   8.259   3.191   4.807  0.6505  1.1833 -0.6272
12932SOL    HW240281   8.200   3.227   4.673 -1.7557  1.0204  0.3720
12933SOL     OW40282   6.252   5.843   1.367 -0.2757 -0.0093  0.0332
12933SOL    HW140283   6.291   5.810   1.286  0.2348  0.7116 -0.0149
12933SOL    HW240284   6.160   5.821   1.359 -0.0933 -0.6557 -0.3879
12934SOL     OW40285   3.372   0.146   6.084 -0.0299  0.3938  0.3531
12934SOL    HW140286   3.343   0.156   6.175  2.5851 -0.3897  1.3158
12934SOL    HW240287   3.399   0.234   6.057  0.3088  0.4132  0.7476
12935SOL     OW40288   2.099   7.739   2.425 -0.3060 -0.5828 -0.4716
12935SOL    HW140289   2.122   7.677   2.493  3.1856 -0.8993 -1.8480
12935SOL    HW240290   2.138   7.822   2.453 -0.6276 -0.2173 -1.0750
12936SOL     OW40291   5.527   3.765   3.371  0.3054  0.2251  0.3614
12936SOL    HW140292   5.595   3.780   3.305 -0.5681  1.6473 -0.2197
12936SOL    HW240293   5.558   3.688   3.419  1.5216 -0.1256 -0.9504
12937SOL     OW40294   7.974   0.338   6.509  0.2609  0.2398 -0.2950
12937SOL    HW140295   7.924   0.288   6.445 -1.4862 -1.0574  2.0437
12937SOL    HW240296   8.036   0.275   6.546  1.0747  0.9161 -0.4940
12938SOL     OW40297   0.416   4.157   4.353 -0.3185 -0.6256 -0.3542
12938SOL    HW140298   0.335   4.160   4.302 -1.7425  3.6202  1.8958
12938SOL    HW240299   0.387   4.130   4.441  0.7765  0.4017  0.3292
12939SOL     OW40300   3.598   4.288   3.756 -0.7732 -0.2709  0.2857
12939SOL    HW140301   3.503   4.281   3.758 -0.7715 -0.8707 -0.9147
12939SOL    HW240302   3.625   4.227   3.687  0.3288  1.3952 -0.8015
12940SOL     OW40303   5.261   8.132   3.407  0.4299  0.2664 -0.6368
12940SOL    HW140304   5.329   8.131   3.340  1.2588 -0.4209  0.2026
12940SOL    HW240305   5.303   8.094   3.485 -1.3087 -1.4191 -0.4850
12941SOL     OW40306   5.177   6.270   3.310 -0.2438 -0.6945 -0.3486
12941SOL    HW140307   5.220   6.219   3.379 -1.3684  0.2820  1.0985
12941SOL    HW240308   5.125   6.205   3.262  0.9802 -1.4733 -0.6522
12942SOL     OW40309   0.812   3.531   2.820  0.7570  0.0522  0.1977
12942SOL    HW140310   0.823   3.577   2.737  1.3823  0.3069  0.4165
12942SOL    HW240311   0.870   3.455   2.813 -0.2301 -0.6853 -0.1395
12943SOL     OW40312   8.088   3.947   4.042  0.6186  0.0604 -0.3694
12943SOL    HW140313   8.064   3.932   4.134 -1.7797  2.3806 -0.5312
12943SOL    HW240314   8.141   3.871   4.018  1.0407 -0.7389  2.8402
12944SOL     OW40315   4.610   3.844   6.479  0.1206  0.0271  0.3636
12944SOL    HW140316   4.627   3.916   6.540  0.2375 -0.3526  0.7856
12944SOL    HW240317   4.655   3.769   6.518  1.3193  0.0813 -0.8626
12945SOL     OW40318   0.036   3.490   7.038  0.2713 -0.0097  0.0076
12945SOL    HW140319   0.014   3.401   7.066  0.9977 -0.1841  0.0348
12945SOL    HW240320  -0.004   3.546   7.104  1.8264 -0.4108  1.3162
12946SOL     OW40321   7.365   3.115   4.861 -0.2693  0.4690  0.6431
12946SOL    HW140322   7.362   3.020   4.851 -2.1001  0.4497  1.2715
12946SOL    HW240323   7.409   3.145   4.781  0.4524 -0.8969  0.5016
12947SOL     OW40324   1.421   7.503   3.902 -0.2736 -0.6852 -0.4114
12947SOL    HW140325   1.498   7.448   3.917 -0.7064 -1.2187 -0.1552
12947SOL    HW240326   1.361   7.482   3.973 -0.1585  0.6416  0.0931
12948SOL     OW40327   4.956   1.927   3.249 -0.7827  0.0576  0.1915
12948SOL    HW140328   4.899   1.852   3.234 -0.7006 -0.2521  1.3576
12948SOL    HW240329   5.039   1.889   3.278 -0.2170  0.5344 -0.7979
12949SOL     OW40330   1.234   2.942   2.578  0.0393 -0.0069  0.1232
12949SOL    HW140331   1.204   2.877   2.641  0.6188 -0.1057  0.2937
12949SOL    HW240332   1.323   2.915   2.555  0.2945  0.7368  0.2180
12950SOL     OW40333   0.747   7.683   6.644  0.0018  0.5013 -0.3996
12950SOL    HW140334   0.749   7.651   6.554 -0.5775  0.9029 -0.5574
12950SOL    HW240335   0.660   7.659   6.676 -0.2374  1.4320 -0.3417
12951SOL     OW40336   5.092   4.285   7.702  0.0031  0.1162 -0.0670
12951SOL    HW140337   5.153   4.216   7.678  2.0428  0.8371  2.8393
12951SOL    HW240338   5.119   4.361   7.650 -0.3635 -0.3963 -1.0264
12952SOL     OW40339   7.299   7.231   1.745  0.2787 -0.0855 -0.7222
12952SOL    HW140340   7.322   7.323   1.759  1.4275 -0.5845  0.7348
12952SOL    HW240341   7.204   7.232   1.730  0.0691  1.1927  0.6108
12953SOL     OW40342   2.833   0.094   2.790 -0.0082  0.2161 -0.6490
12953SOL    HW140343   2.892   0.065   2.721 -1.0484  0.4707 -1.6533
12953SOL    HW240344   2.877   0.169   2.830  0.1820  0.6185 -1.6169
12954SOL     OW40345   6.670   2.510   2.064 -0.3361 -0.6071 -0.2311
12954SOL    HW140346   6.599   2.460   2.025  0.6859 -1.4781 -0.9926
12954SOL    HW240347   6.735   2.520   1.994  1.5168 -2.1821  1.1895
12955SOL     OW40348   7.663   4.472   7.738  0.1928 -0.4035 -0.1090
12955SOL    HW140349   7.700   4.559   7.727 -0.2370 -0.3642 -1.2774
12955SOL    HW240350   7.638   4.445   7.650 -3.1379 -0.1732  0.7172
12956SOL     OW40351   5.477   5.570   6.647  0.3115 -0.3871  0.1439
12956SOL    HW140352   5.444   5.525   6.570 -0.6126  1.5985 -0.6713
12956SOL    HW240353   5.464   5.663   6.627  0.2518  0.1596  2.6034
12957SOL     OW40354   2.598   7.151   7.619  0.1569 -0.4495 -0.0134
12957SOL    HW140355   2.686   7.189   7.625  0.2713 -0.1117 -3.1737
12957SOL    HW240356   2.614   7.059   7.597 -0.2792 -0.2424 -1.2138
12958SOL     OW40357   2.240   0.360   1.364 -0.2333 -0.6216  0.8090
12958SOL    HW140358   2.239   0.412   1.445  1.2189  0.6107  0.0539
12958SOL    HW240359   2.314   0.300   1.375 -0.0430 -0.4633  0.3986
12959SOL     OW40360   7.209   8.137   8.106 -0.3750 -0.1690 -0.1993
12959SOL    HW140361   7.254   8.221   8.101 -0.3554 -0.2439 -1.4948
12959SOL    HW240362   7.120   8.156   8.079 -0.3667 -0.5650 -0.5076
12960SOL     OW40363   3.710   0.463   3.515 -0.4395  0.4163 -0.6202
12960SOL    HW140364   3.739   0.526   3.581  1.7110 -0.6077 -0.5475
12960SOL    HW240365   3.735   0.503   3.431  1.6825 -0.6881 -0.5343
12961SOL     OW40366   5.340   3.252   5.511 -0.0273 -0.0741 -0.0791
12961SOL    HW140367   5.387   3.309   5.571 -0.6270 -1.1845  1.4522
12961SOL    HW240368   5.259   3.230   5.557 -1.1012  0.1317 -1.8232
12962SOL     OW40369   7.787   5.364   4.069 -0.2823  0.0951 -0.0236
12962SOL    HW140370   7.871   5.320   4.060  0.3817  1.7279 -2.4551
12962SOL    HW240371   7.798   5.424   4.142  0.0314 -1.0183  0.8564
12963SOL     OW40372   4.511   5.686   2.808 -0.5540  0.0575 -0.1213
12963SOL    HW140373   4.462   5.634   2.872 -1.1712  0.9255  0.1238
12963SOL    HW240374   4.445   5.712   2.744 -0.2287  0.4566 -0.2926
12964SOL     OW40375   4.015   5.692   1.238 -0.2336 -0.0124  0.5235
12964SOL    HW140376   4.060   5.698   1.322  0.6752  0.4089  0.0188
12964SOL    HW240377   4.057   5.759   1.183 -0.4662 -0.6190 -0.4176
12965SOL     OW40378   0.900   5.774   0.823  0.4651  0.3176  0.0569
12965SOL    HW140379   0.983   5.727   0.818  1.2865  1.8118 -0.8974
12965SOL    HW240380   0.909   5.845   0.759 -1.7013  0.2663 -0.3645
12966SOL     OW40381   3.596   3.539   5.327  0.2279 -0.7196  0.4898
12966SOL    HW140382   3.664   3.542   5.395 -0.5606  0.1824  1.2450
12966SOL    HW240383   3.523   3.588   5.364 -0.1231  0.0070 -1.1139
12967SOL     OW40384   0.357   5.783   2.543 -0.0355  0.6352 -0.1660
12967SOL    HW140385   0.304   5.715   2.501  1.4052 -0.6005 -0.0179
12967SOL    HW240386   0.406   5.736   2.611  1.3923  1.7036 -0.4350
12968SOL     OW40387   2.529   4.269   2.832 -0.3354  0.0364 -0.3946
12968SOL    HW140388   2.585   4.341   2.861 -0.6971  0.0657  0.2282
12968SOL    HW240389   2.570   4.238   2.751 -1.4830  2.4856 -1.9823
12969SOL     OW40390   1.307   1.312   7.583 -0.4580  0.2572  0.0295
12969SOL    HW140391   1.342   1.400   7.596  0.5528 -0.5354  2.8306
12969SOL    HW240392   1.215   1.319   7.608 -0.2613  0.4151  0.7124
12970SOL     OW40393   5.050   7.555   3.557  0.4199 -0.6151  0.5246
12970SOL    HW140394   5.116   7.623   3.543  0.8846 -0.6713  2.3834
12970SOL    HW240395   4.967   7.603   3.559  0.9004  0.1878  3.7225
12971SOL     OW40396   4.991   2.077   2.392  0.2472  0.1674 -0.4255
12971SOL    HW140397   5.008   2.054   2.483  0.8357  0.8428 -0.3660
12971SOL    HW240398   4.998   2.172   2.389 -1.2389  0.2897 -0.8681
12972SOL     OW40399   0.780   6.142   3.837 -0.1757  0.5738 -0.6685
12972SOL    HW140400   0.759   6.162   3.929 -0.6273  1.2494 -0.9143
12972SOL    HW240401   0.873   6.119   3.838  0.0321  1.4002 -0.1699
12973SOL     OW40402   5.134   3.759   5.752 -0.0252  0.2141 -0.1203
12973SOL    HW140403   5.191   3.836   5.743  1.4447 -0.4341  2.9010
12973SOL    HW240404   5.190   3.685   5.731 -0.3719 -0.2837  0.6952
12974SOL     OW40405   3.998   4.843   1.937 -0.1143  0.4758 -0.0709
12974SOL    HW140406   3.925   4.811   1.990  1.8656  0.4756  2.7577
12974SOL    HW240407   4.069   4.780   1.954  0.7773  0.8562 -2.2309
12975SOL     OW40408   1.790   0.653   6.133 -0.4788  0.1699 -0.2179
12975SOL    HW140409   1.713   0.682   6.181  0.0169 -0.2687  0.8551
12975SOL    HW240410   1.844   0.608   6.198  1.6587  2.2435 -0.4667
12976SOL     OW40411   1.779   0.004   1.254  0.1618  0.0352  0.0710
12976SOL    HW140412   1.746   0.018   1.165 -0.3236 -0.4167  0.1740
12976SOL    HW240413   1.823  -0.082   1.249  0.5475  0.2245  0.1546
12977SOL     OW40414   3.540   7.453   2.920  0.1477  0.7163  0.3767
12977SOL    HW140415   3.549   7.474   3.013  1.1535  2.1357 -0.0225
12977SOL    HW240416   3.614   7.497   2.878 -0.6989  0.6836 -1.1951
12978SOL     OW40417   7.708   3.218   5.549  0.1815  0.1875 -0.4089
12978SOL    HW140418   7.624   3.203   5.506 -0.4197  0.1557  0.7425
12978SOL    HW240419   7.708   3.311   5.570 -0.4609 -0.2108  1.4122
12979SOL     OW40420   1.717   5.159   5.648 -0.2660  0.3914 -0.2887
12979SOL    HW140421   1.632   5.121   5.629 -0.8333  1.8928 -0.8121
12979SOL    HW240422   1.775   5.084   5.662 -0.8524 -0.7041 -3.4931
12980SOL     OW40423   6.558   2.273   2.620  0.4866  0.1727  0.4615
12980SOL    HW140424   6.556   2.178   2.633  0.4361  0.1143  0.0151
12980SOL    HW240425   6.646   2.299   2.648  0.3766  0.0484  0.9428
12981SOL     OW40426   4.586   7.312   6.175  0.0776 -0.1467  0.1532
12981SOL    HW140427   4.626   7.251   6.237  2.4001  0.0439 -1.0904
12981SOL    HW240428   4.576   7.261   6.094 -1.0109  0.1894  0.0659
12982SOL     OW40429   6.564   1.861   1.301  0.6241  0.1709  0.0985
12982SOL    HW140430   6.625   1.928   1.269  1.6431 -0.7720  0.0287
12982SOL    HW240431   6.599   1.779   1.268 -0.0255 -0.5120  1.0649
12983SOL     OW40432   6.159   7.411   5.641 -0.1524 -0.0856  0.0930
12983SOL    HW140433   6.238   7.438   5.594 -0.0752 -1.6837 -0.7272
12983SOL    HW240434   6.111   7.493   5.657  0.3148  0.5912 -1.8894
12984SOL     OW40435   2.589   5.372   0.659  0.1080  0.2826  0.2114
12984SOL    HW140436   2.617   5.400   0.746 -1.2061  2.6597 -0.0806
12984SOL    HW240437   2.559   5.282   0.672 -1.5009  1.0826  2.6008
12985SOL     OW40438   2.758   1.150   7.482  0.4067  0.1670 -0.1437
12985SOL    HW140439   2.763   1.071   7.429  0.0850 -0.2158  0.3920
12985SOL    HW240440   2.671   1.147   7.522 -0.5405  2.0075 -2.0121
12986SOL     OW40441   6.842   7.437   4.689 -0.2458 -0.1486  0.0512
12986SOL    HW140442   6.878   7.371   4.748  1.9285  0.1127 -0.9169
12986SOL    HW240443   6.748   7.435   4.705 -0.0446 -2.3338  1.1994
12987SOL     OW40444   1.057   5.078   5.764  0.0169 -0.3308 -0.2527
12987SOL    HW140445   1.043   5.082   5.669 -1.5263  1.1042  0.0169
12987SOL    HW240446   0.982   5.029   5.798  1.1588 -1.8536  0.1329
12988SOL     OW40447   3.385   4.762   7.022 -0.4299 -0.0873  0.0090
12988SOL    HW140448   3.296   4.771   7.058 -0.3381 -1.3153  0.5644
12988SOL    HW240449   3.400   4.668   7.018  1.0372  0.1195  0.3552
12989SOL     OW40450   2.420   5.498   6.507 -0.6201 -0.0085 -0.0960
12989SOL    HW140451   2.438   5.539   6.592 -0.7688  0.9326 -0.5170
12989SOL    HW240452   2.325   5.501   6.499 -0.6876 -1.1255  0.2107
12990SOL     OW40453   4.740   6.918   5.227 -0.2809 -0.7134  0.2742
12990SOL    HW140454   4.747   6.960   5.141 -1.5333 -2.7364 -0.8556
12990SOL    HW240455   4.646   6.917   5.246  0.0093 -0.1038  1.7513
12991SOL     OW40456   0.843   1.882   5.573 -0.6576 -0.1898 -0.2837
12991SOL    HW140457   0.872   1.853   5.660  2.0308  0.4696 -0.9225
12991SOL    HW240458   0.815   1.802   5.529 -0.8925 -0.6861  0.7436
12992SOL     OW40459   2.377   2.866   0.124  0.4880  0.2811  0.3400
12992SOL    HW140460   2.435   2.919   0.069 -0.4457  2.1789  1.1329
12992SOL    HW240461   2.290   2.903   0.109  0.0277 -0.1132  1.9685
12993SOL     OW40462   6.682   2.506   6.350 -0.7395  0.0499  0.6086
12993SOL    HW140463   6.703   2.599   6.364 -0.3316  0.6224 -3.1727
12993SOL    HW240464   6.588   2.499   6.371 -0.7907  1.3327  0.8395
12994SOL     OW40465   4.056   5.374   2.244  0.0835  0.1656  0.0455
12994SOL    HW140466   3.986   5.354   2.307  0.8521 -1.4771  0.4230
12994SOL    HW240467   4.010   5.399   2.164 -1.0074 -2.0431 -0.0741
12995SOL     OW40468   4.521   0.289   2.301 -0.4153 -0.1647  0.1494
12995SOL    HW140469   4.540   0.230   2.228 -1.9416  1.6311 -1.7882
12995SOL    HW240470   4.569   0.252   2.375 -0.0275 -2.9045 -1.3761
12996SOL     OW40471   6.628   7.215   7.389  0.2463 -0.2162 -0.3643
12996SOL    HW140472   6.596   7.300   7.418  1.4629 -0.0564  0.5312
12996SOL    HW240473   6.628   7.220   7.293  0.8206  0.9702 -0.3078
12997SOL     OW40474   6.775   6.969   0.814 -0.6012  0.1688  0.1397
12997SOL    HW140475   6.731   6.895   0.774  1.9491  0.1864 -2.9459
12997SOL    HW240476   6.834   6.931   0.879 -1.3958 -0.2257  0.6403
12998SOL     OW40477   1.471   3.659   0.736 -0.1868 -0.3194 -0.0300
12998SOL    HW140478   1.452   3.601   0.663 -2.9055  0.3553  0.1205
12998SOL    HW240479   1.476   3.747   0.697  0.6194 -0.2351  0.2509
12999SOL     OW40480   5.375   0.763   1.489 -0.0123 -0.8999  0.3175
12999SOL    HW140481   5.315   0.708   1.539 -0.0154  0.4619  1.8982
12999SOL    HW240482   5.325   0.791   1.413 -0.7647 -1.2835  0.6645
13000SOL     OW40483   1.448   5.273   8.151  0.2111 -0.4097 -0.4333
13000SOL    HW140484   1.451   5.362   8.186 -0.7511 -0.0487 -1.2276
13000SOL    HW240485   1.482   5.218   8.221 -2.1160  0.2465  1.2829
13001SOL     OW40486   4.538   4.417   8.144  0.1905  0.1558 -0.4894
13001SOL    HW140487   4.561   4.419   8.051  2.4874 -0.2117  0.0223
13001SOL    HW240488   4.553   4.506   8.174  0.3908  0.0521 -0.2775
13002SOL     OW40489   1.657   4.709   8.141 -0.7803 -0.2362 -0.2747
13002SOL    HW140490   1.607   4.636   8.106  1.1392 -1.2376 -0.9857
13002SOL    HW240491   1.685   4.680   8.228 -0.2487 -0.2538 -0.4479
13003SOL     OW40492   1.983   5.914   0.627 -0.4334 -0.1048 -0.2846
13003SOL    HW140493   2.078   5.903   0.631 -0.4169  0.4113  0.9466
13003SOL    HW240494   1.955   5.918   0.718 -1.4347  1.4130 -0.6394
13004SOL     OW40495   4.784   4.610   4.113  0.6946  0.2816  0.2310
13004SOL    HW140496   4.844   4.549   4.070  1.2517 -0.1154  1.5558
13004SOL    HW240497   4.711   4.619   4.051  0.6715 -1.6169 -0.0494
13005SOL     OW40498   3.012   2.058   6.775  0.2395  0.6230  0.3168
13005SOL    HW140499   3.087   2.101   6.814  1.3722 -1.1690  0.2003
13005SOL    HW240500   3.035   1.965   6.774 -1.3095  0.2120 -1.1900
13006SOL     OW40501   3.789   6.725   1.146  0.3234 -0.4066  0.1296
13006SOL    HW140502   3.729   6.692   1.213 -0.8841  1.3161 -0.0719
13006SOL    HW240503   3.769   6.673   1.068 -2.8506  1.8897 -0.7097
13007SOL     OW40504   0.089   4.534   2.790 -0.6458 -0.2845  0.3760
13007SOL    HW140505   0.144   4.499   2.721 -0.9753  2.3210 -1.2945
13007SOL    HW240506   0.109   4.628   2.792 -1.3870 -0.1201  3.1383
13008SOL     OW40507   1.834   4.219   7.458  0.1633  0.5609  0.2696
13008SOL    HW140508   1.880   4.223   7.374 -0.0405  0.1139  0.1357
13008SOL    HW240509   1.747   4.185   7.436 -0.1390  1.1327  0.5612
13009SOL     OW40510   5.554   5.391   1.436  0.0438 -0.2798 -0.3509
13009SOL    HW140511   5.527   5.481   1.421 -0.7751 -0.4070  0.3593
13009SOL    HW240512   5.638   5.383   1.390 -0.0090  0.7635 -0.6284
13010SOL     OW40513   2.407   4.802   5.032 -0.2808  0.0581  0.1250
13010SOL    HW140514   2.491   4.757   5.040  0.8615  1.7187 -1.7363
13010SOL    HW240515   2.361   4.755   4.963 -0.5228 -0.3669  0.5827
13011SOL     OW40516   4.328   1.095   5.698 -0.7630 -1.0878 -0.2273
13011SOL    HW140517   4.305   1.041   5.773 -1.9594 -1.6781 -1.0051
13011SOL    HW240518   4.306   1.184   5.725 -1.6426 -1.3578 -0.0625
13012SOL     OW40519   5.665   1.629   1.019  0.0779 -0.4347 -0.2853
13012SOL    HW140520   5.667   1.679   0.938 -0.4720 -0.1952 -0.1546
13012SOL    HW240521   5.748   1.581   1.020  0.4640  0.2248 -0.5635
13013SOL     OW40522   1.423   7.074   0.773 -0.1494  0.7323 -0.3635
13013SOL    HW140523   1.467   7.153   0.804  0.4044 -0.3878  1.7988
13013SOL    HW240524   1.341   7.106   0.735  0.2887  2.3786  0.0269
13014SOL     OW40525   2.812   2.502   1.619  0.7831 -0.3254 -0.1504
13014SOL    HW140526   2.784   2.417   1.584  1.3703 -0.2287 -0.8775
13014SOL    HW240527   2.802   2.494   1.714 -2.2779 -0.0778 -0.4076
13015SOL     OW40528   5.781   4.103   6.929  0.4889 -0.3152  0.1648
13015SOL    HW140529   5.748   4.161   6.998  1.6475  0.3751  0.1612
13015SOL    HW240530   5.793   4.161   6.853 -2.1183 -1.3360 -1.0617
13016SOL     OW40531   3.057   4.307   2.056  0.4951  0.6701 -0.6429
13016SOL    HW140532   3.077   4.223   2.014 -0.6537 -0.2930  0.6941
13016SOL    HW240533   3.114   4.309   2.133  0.5712  1.1637 -0.7114
13017SOL     OW40534   5.735   0.452   6.618 -0.4419 -0.5792 -0.5372
13017SOL    HW140535   5.795   0.518   6.582  0.3507 -0.4592  0.9575
13017SOL    HW240536   5.776   0.369   6.597 -1.7701 -0.6540 -3.0004
13018SOL     OW40537   0.795   0.032   5.650  0.2365 -0.1626  0.0494
13018SOL    HW140538   0.847   0.080   5.586 -1.1164  1.7216  0.3034
13018SOL    HW240539   0.771  -0.050   5.606  0.5251  0.4769 -1.3121
13019SOL     OW40540   3.718   0.546   8.065 -0.2966 -0.4173 -0.4790
13019SOL    HW140541   3.792   0.500   8.105  1.8285  2.2623 -1.1442
13019SOL    HW240542   3.720   0.520   7.973 -0.8333 -1.1325 -0.2934
13020SOL     OW40543   7.109   5.967   5.281  0.1073  0.2441 -0.1684
13020SOL    HW140544   7.084   5.998   5.194 -1.7779  0.2917  0.3824
13020SOL    HW240545   7.161   6.039   5.318  2.1642 -0.3579 -1.7792
13021SOL     OW40546   1.938   7.528   3.793 -0.0307 -0.2141  0.6620
13021SOL    HW140547   1.883   7.470   3.740  0.0793  0.1116  0.1947
13021SOL    HW240548   1.954   7.604   3.737  2.0119 -0.9046  0.2950
13022SOL     OW40549   1.283   1.375   6.124  0.5207 -0.5211 -0.0772
13022SOL    HW140550   1.223   1.304   6.150  2.7816 -2.7800 -0.8244
13022SOL    HW240551   1.238   1.455   6.151 -2.3541 -2.1952  0.3337
13023SOL     OW40552   7.538   3.707   5.956  0.4224 -0.5290 -0.2657
13023SOL    HW140553   7.575   3.622   5.932  0.4269 -0.6814  0.2686
13023SOL    HW240554   7.520   3.700   6.050 -0.8399 -0.4143 -0.4816
13024SOL     OW40555   4.220   0.703   1.677 -0.1173 -0.3854 -0.5560
13024SOL    HW140556   4.300   0.735   1.636 -0.5926  1.3199 -0.1927
13024SOL    HW240557   4.230   0.723   1.770 -0.4905 -1.1576 -0.3471
13025SOL     OW40558   6.175   3.809   7.637 -0.5248  0.0400  0.4570
13025SOL    HW140559   6.106   3.775   7.581 -0.6705  0.9385  0.0841
13025SOL    HW240560   6.193   3.897   7.603  1.8122 -0.7085 -0.3681
13026SOL     OW40561   6.606   2.103   7.677 -0.1631 -0.5135 -0.1721
13026SOL    HW140562   6.539   2.156   7.632  0.2915  0.4111  0.2279
13026SOL    HW240563   6.560   2.067   7.753 -0.7557 -1.5432 -1.0008
13027SOL     OW40564   0.016   6.645   0.587  0.0273  0.6046  0.1290
13027SOL    HW140565   0.069   6.687   0.520 -0.0139  1.5225  0.6754
13027SOL    HW240566   0.074   6.579   0.626  0.1482  0.2863 -0.5874
13028SOL     OW40567   5.772   6.217   8.104  0.3095  0.1535 -0.0795
13028SOL    HW140568   5.725   6.200   8.022  0.6409 -0.0371 -0.2310
13028SOL    HW240569   5.772   6.133   8.149  0.7870  0.0756 -0.2259
13029SOL     OW40570   7.388   7.546   4.020  0.2926  0.5277  0.5534
13029SOL    HW140571   7.460   7.484   4.013  0.2512  0.6502 -1.4570
13029SOL    HW240572   7.428   7.629   4.047  0.9504  0.6324 -0.7040
13030SOL     OW40573   1.106   5.834   7.865  0.3047  0.3858  0.5033
13030SOL    HW140574   1.016   5.854   7.840  0.3682 -0.4353 -0.4130
13030SOL    HW240575   1.159   5.861   7.790  0.8835  1.3862  1.2646
13031SOL     OW40576   5.884   4.202   8.048 -0.2054  0.1272  0.1318
13031SOL    HW140577   5.926   4.279   8.085  0.9665 -0.9398  1.0801
13031SOL    HW240578   5.859   4.228   7.960 -0.9737  1.9825  0.8833
13032SOL     OW40579   5.242   3.723   6.535 -0.2336  0.3200  0.0591
13032SOL    HW140580   5.274   3.797   6.587  0.5264  0.8931 -1.2066
13032SOL    HW240581   5.221   3.761   6.450  0.1854 -0.9198 -0.6144
13033SOL     OW40582   4.273   5.117   8.063  0.3828 -0.9178  1.0616
13033SOL    HW140583   4.230   5.092   8.144 -2.2410 -0.4437 -0.1264
13033SOL    HW240584   4.275   5.036   8.011  1.0856 -0.9696  1.1596
13034SOL     OW40585   8.060   2.234   4.283  0.0449  0.3092  0.4772
13034SOL    HW140586   8.100   2.316   4.313  0.1345 -0.1591  1.6884
13034SOL    HW240587   7.988   2.219   4.344  2.7204 -2.7674  3.0824
13035SOL     OW40588   8.111   2.666   4.773  0.3876  0.1623 -0.2203
13035SOL    HW140589   8.102   2.760   4.759  0.4847  0.3448  0.8630
13035SOL    HW240590   8.198   2.645   4.739 -0.3433  0.1244 -2.1062
13036SOL     OW40591   3.393   1.898   2.098  0.2023 -0.4827  0.3845
13036SOL    HW140592   3.304   1.929   2.083 -0.0170 -0.6924  1.2230
13036SOL    HW240593   3.382   1.818   2.149  0.9409  0.5801  2.2313
13037SOL     OW40594   5.448   0.051   5.715 -0.1116 -0.0396  0.2417
13037SOL    HW140595   5.445   0.140   5.680  2.2116  0.6153  1.6001
13037SOL    HW240596   5.406   0.058   5.801  0.1847 -0.2228  0.4012
13038SOL     OW40597   0.022   0.661   7.041  0.0874  0.4483  0.2657
13038SOL    HW140598   0.029   0.618   7.126 -0.2635 -0.3231 -0.0867
13038SOL    HW240599   0.047   0.593   6.978 -1.8825  0.3135 -0.4016
13039SOL     OW40600   2.250   3.828   2.008  0.2488 -0.2971 -0.7314
13039SOL    HW140601   2.220   3.773   2.081  3.3165 -0.1254  0.7097
13039SOL    HW240602   2.195   3.801   1.934 -1.1903 -2.2776  1.0091
13040SOL     OW40603   6.047   6.405   5.831 -0.2647 -0.1973  0.2839
13040SOL    HW140604   6.036   6.340   5.761 -1.2103 -0.0193  0.2661
13040SOL    HW240605   6.028   6.357   5.912 -4.9819  0.9715  0.0141
13041SOL     OW40606   5.827   1.620   6.885  0.1276  0.9613  0.4130
13041SOL    HW140607   5.826   1.537   6.838  2.5982  2.1730 -1.9368
13041SOL    HW240608   5.920   1.641   6.895 -0.4409  4.2646 -0.6352
13042SOL     OW40609   7.279   3.820   5.844 -0.5292  0.6924 -0.7613
13042SOL    HW140610   7.353   3.796   5.788  0.4487  1.4412  0.1904
13042SOL    HW240611   7.312   3.810   5.933 -1.6146  0.9342 -0.3285
13043SOL     OW40612   7.073   4.110   2.655 -0.1980 -0.0728 -0.1887
13043SOL    HW140613   7.115   4.196   2.650 -1.6185  0.5867 -0.8940
13043SOL    HW240614   7.142   4.052   2.687  0.9971  1.1790 -0.4427
13044SOL     OW40615   7.411   3.235   3.608 -0.0508  0.0950  0.4448
13044SOL    HW140616   7.420   3.141   3.626  2.7354  0.4388  1.0400
13044SOL    HW240617   7.480   3.254   3.544 -1.2931  1.5326 -0.4988
13045SOL     OW40618   8.164   3.560   5.577  0.3612  0.0755  0.1474
13045SOL    HW140619   8.208   3.536   5.659 -2.1963  1.6119  2.0682
13045SOL    HW240620   8.080   3.515   5.582 -0.0464  0.6592 -1.3818
13046SOL     OW40621   2.349   5.998   3.281  0.2054  0.3198  0.4055
13046SOL    HW140622   2.378   6.058   3.350  1.4749  0.1925  0.0102
13046SOL    HW240623   2.274   5.953   3.318 -0.2457  1.5509  1.0232
13047SOL     OW40624   8.237   8.063   2.880 -0.6647  0.5505  0.1257
13047SOL    HW140625   8.200   8.146   2.911 -3.1775 -1.2393  2.0797
13047SOL    HW240626   8.242   8.008   2.958  2.4529 -0.6576 -0.8465
13048SOL     OW40627   1.417   1.498   1.798 -0.3665 -0.6287  0.4447
13048SOL    HW140628   1.429   1.566   1.865  0.3002  0.5996 -0.8801
13048SOL    HW240629   1.322   1.497   1.783 -0.4004 -0.0908  0.5809
13049SOL     OW40630   5.573   4.710   1.376 -0.2168  0.2461 -0.1781
13049SOL    HW140631   5.660   4.705   1.415  0.2904  0.1821 -1.3001
13049SOL    HW240632   5.519   4.653   1.431  0.5531 -0.0721  0.2562
13050SOL     OW40633   5.463   6.145   2.735  0.8376 -0.2132  0.4522
13050SOL    HW140634   5.394   6.079   2.726  0.2653  0.7177 -2.4084
13050SOL    HW240635   5.541   6.094   2.758  0.4668 -1.9924 -1.9958
13051SOL     OW40636   6.784   7.855   6.675  0.0344  0.1347 -0.2214
13051SOL    HW140637   6.728   7.907   6.733  1.0252 -1.2402  2.0594
13051SOL    HW240638   6.725   7.789   6.639 -0.0209 -0.8786  1.6325
13052SOL     OW40639   7.516   4.243   5.620 -0.2476 -0.3593 -0.0978
13052SOL    HW140640   7.553   4.329   5.601  2.1268 -1.6933 -1.6627
13052SOL    HW240641   7.497   4.245   5.714 -0.9244  2.1132 -0.2571
13053SOL     OW40642   0.128   0.791   6.184  0.8462  0.3280  0.5770
13053SOL    HW140643   0.159   0.750   6.265 -1.2405 -0.3045  1.0927
13053SOL    HW240644   0.082   0.870   6.213 -0.0720  0.0027  0.0275
13054SOL     OW40645   1.244   0.657   5.974  0.1053 -0.2945  0.6071
13054SOL    HW140646   1.277   0.704   5.897  0.0664 -0.4274  0.5083
13054SOL    HW240647   1.323   0.622   6.016  0.2062  0.6483  1.1988
13055SOL     OW40648   2.915   1.589   7.165 -0.3589  0.1623 -0.7505
13055SOL    HW140649   2.871   1.513   7.204  1.9438 -0.5179  0.6392
13055SOL    HW240650   2.966   1.626   7.237  1.2408  0.9806 -2.2726
13056SOL     OW40651   2.946   4.671   2.709  0.3739  0.9104  0.3981
13056SOL    HW140652   2.997   4.663   2.790  2.6163  1.2186 -0.9192
13056SOL    HW240653   2.886   4.597   2.710 -1.8824  2.7179  3.8586
13057SOL     OW40654   6.876   1.729   1.946 -0.0017  0.2377  0.0841
13057SOL    HW140655   6.816   1.710   1.874  1.2436  0.8371 -1.1579
13057SOL    HW240656   6.843   1.811   1.984 -0.9872 -0.3757  0.5623
13058SOL     OW40657   0.604   2.535   2.337 -0.1667  0.3859  0.4768
13058SOL    HW140658   0.605   2.494   2.250 -0.4296 -1.6912  1.4108
13058SOL    HW240659   0.666   2.482   2.388 -0.5136  1.1776  1.7237
13059SOL     OW40660   7.759   7.417   7.505 -0.2040  0.0800  0.4775
13059SOL    HW140661   7.846   7.433   7.542  0.9171 -0.5445 -1.7998
13059SOL    HW240662   7.744   7.323   7.519  0.5215 -0.3044 -1.2111
13060SOL     OW40663   4.843   1.435   6.999  0.4884 -0.3793 -0.7200
13060SOL    HW140664   4.934   1.448   7.023  0.8925  1.2316 -2.9387
13060SOL    HW240665   4.846   1.380   6.921 -0.3026  0.9368 -1.7217
13061SOL     OW40666   4.693   1.744   0.643  0.3247 -0.1335 -0.0835
13061SOL    HW140667   4.782   1.754   0.677  0.0952  0.9473  0.1941
13061SOL    HW240668   4.698   1.777   0.553  0.2099 -0.1085 -0.0810
13062SOL     OW40669   3.186   0.372   4.838 -0.2272 -0.4134  0.3380
13062SOL    HW140670   3.166   0.452   4.789  1.1520 -0.9046 -1.0873
13062SOL    HW240671   3.194   0.400   4.929 -1.8492  0.6924  0.1645
13063SOL     OW40672   0.789   5.028   6.578 -0.4979  0.1178 -0.5158
13063SOL    HW140673   0.763   4.942   6.545 -0.7091  0.0086 -0.0720
13063SOL    HW240674   0.835   5.010   6.660 -1.6491  0.4966  0.2368
13064SOL     OW40675   6.694   1.548   4.566  0.4853  0.2397  0.3865
13064SOL    HW140676   6.649   1.546   4.482 -1.5335  0.8701  1.4153
13064SOL    HW240677   6.744   1.630   4.565 -0.1000  0.5994  0.0726
13065SOL     OW40678   1.282   3.714   3.116  0.3665 -0.4021  0.2701
13065SOL    HW140679   1.360   3.765   3.137  0.4293 -0.3227 -0.1528
13065SOL    HW240680   1.245   3.757   3.039 -0.0064 -0.5346  0.3762
13066SOL     OW40681   3.401   2.410   6.333 -0.7509  0.4128  0.2574
13066SOL    HW140682   3.462   2.442   6.400  0.2760 -1.3443  0.1977
13066SOL    HW240683   3.318   2.400   6.380 -1.0087  2.7672  0.3496
13067SOL     OW40684   0.437   4.112   0.260 -0.0935  0.7064  0.0499
13067SOL    HW140685   0.409   4.203   0.252  0.4152  0.9717  1.2245
13067SOL    HW240686   0.532   4.116   0.247 -0.4324 -0.0999 -3.2741
13068SOL     OW40687   7.887   4.962   1.661 -0.0380 -0.1099  0.1945
13068SOL    HW140688   7.808   5.006   1.691 -0.8496 -1.9031  0.7135
13068SOL    HW240689   7.873   4.947   1.568 -1.2531 -2.3422  0.7066
13069SOL     OW40690   6.976   5.831   0.820  0.0002  0.1290 -0.8654
13069SOL    HW140691   7.051   5.816   0.878 -1.3153  0.2741  0.9144
13069SOL    HW240692   7.014   5.869   0.741  2.0576 -1.7375 -0.8460
13070SOL     OW40693   0.112   1.307   6.253  0.1247 -0.0060  0.2159
13070SOL    HW140694   0.120   1.354   6.337  1.0053  0.7459 -0.2919
13070SOL    HW240695   0.190   1.252   6.248 -0.4813 -0.8985  0.4033
13071SOL     OW40696   8.276   5.694   7.004 -0.6901 -0.0819 -0.3994
13071SOL    HW140697   8.202   5.735   6.959 -0.3224 -0.7300 -1.5894
13071SOL    HW240698   8.318   5.639   6.938  0.8919  0.3160  0.2584
13072SOL     OW40699   2.435   5.249   3.282 -0.0484 -0.0311 -0.5841
13072SOL    HW140700   2.499   5.319   3.270 -2.0370  1.6794 -1.5090
13072SOL    HW240701   2.377   5.256   3.206 -1.3889 -1.4854  0.2674
13073SOL     OW40702   5.167   1.168   6.556 -0.4645 -0.1742  0.0303
13073SOL    HW140703   5.139   1.256   6.581  2.6504  1.1183 -0.8345
13073SOL    HW240704   5.200   1.130   6.637  0.2101  0.2597 -0.0400
13074SOL     OW40705   8.240   2.188   0.056 -0.0849 -0.2041 -0.1955
13074SOL    HW140706   8.319   2.160   0.102 -1.1358 -0.3533  1.5738
13074SOL    HW240707   8.168   2.165   0.115 -1.5227 -0.8234 -2.1411
13075SOL     OW40708   1.097   5.391   6.835 -0.0186 -0.6932 -0.2890
13075SOL    HW140709   1.134   5.370   6.749  1.1470  0.9020 -0.2072
13075SOL    HW240710   1.146   5.338   6.897  1.0068  0.1499 -0.3571
13076SOL     OW40711   4.235   3.733   4.133 -0.3323  0.6156 -0.3405
13076SOL    HW140712   4.327   3.732   4.107 -0.0083  1.9140  0.7033
13076SOL    HW240713   4.196   3.657   4.088  1.2227  0.0953 -0.8295
13077SOL     OW40714   4.300   1.998   5.667  0.2099  0.5010 -0.2003
13077SOL    HW140715   4.379   2.001   5.613 -0.9200 -0.7885 -1.9671
13077SOL    HW240716   4.326   1.949   5.745  1.9221  2.5788  0.5975
13078SOL     OW40717   5.091   7.567   4.086 -0.4722 -0.2368  0.5821
13078SOL    HW140718   5.013   7.536   4.039 -0.2519  1.4744 -0.9621
13078SOL    HW240719   5.117   7.647   4.040  2.3363 -0.8877  0.9346
13079SOL     OW40720   2.829   1.071   3.058  0.3992  0.4072  0.5179
13079SOL    HW140721   2.862   0.982   3.070  1.5403  1.0541  2.3216
13079SOL    HW240722   2.840   1.113   3.143  1.3476  2.7486 -0.6948
13080SOL     OW40723   6.586   7.113   0.153 -0.0552  0.6365  0.0425
13080SOL    HW140724   6.507   7.092   0.103 -0.9241  0.3752  1.4966
13080SOL    HW240725   6.565   7.195   0.198  0.1552  0.1110  1.1292
13081SOL     OW40726   6.216   5.631   6.515  0.1582 -0.5564  0.3330
13081SOL    HW140727   6.146   5.596   6.570 -0.6509  1.7575  0.8456
13081SOL    HW240728   6.177   5.708   6.474  2.7186  1.4205  1.4893
13082SOL     OW40729   3.695   1.197   5.702  0.0580  0.3800  0.2324
13082SOL    HW140730   3.709   1.258   5.629  1.6706 -0.5816 -0.2827
13082SOL    HW240731   3.760   1.223   5.767  0.2105 -0.2667  0.3385
13083SOL     OW40732   0.904   3.201   5.375 -0.0622  0.0381 -0.1192
13083SOL    HW140733   0.963   3.181   5.303 -0.0654  1.1032 -0.4223
13083SOL    HW240734   0.818   3.213   5.334 -0.4816 -1.4452  0.3133
13084SOL     OW40735   0.704   1.713   4.499  0.1142 -0.6871  0.2798
13084SOL    HW140736   0.712   1.682   4.408 -1.7614 -2.2102  0.6182
13084SOL    HW240737   0.715   1.808   4.492 -0.5785 -0.7148 -1.6265
13085SOL     OW40738   7.496   6.848   3.048  0.7054 -0.0610  0.6593
13085SOL    HW140739   7.410   6.863   3.088  1.1389  0.3905  1.4528
13085SOL    HW240740   7.552   6.915   3.088  1.5358 -0.6714  0.5208
13086SOL     OW40741   2.633   6.472   4.893  0.0105 -0.1138 -0.1675
13086SOL    HW140742   2.539   6.462   4.906 -0.2382  0.7389 -1.2725
13086SOL    HW240743   2.668   6.383   4.897 -0.8907 -0.4681 -0.1979
13087SOL     OW40744   7.145   1.976   7.671 -0.2002  0.0924 -0.1266
13087SOL    HW140745   7.165   2.069   7.677 -1.2827  0.3295  0.0454
13087SOL    HW240746   7.051   1.971   7.689 -0.3569 -0.9257 -1.1813
13088SOL     OW40747   6.056   1.056   2.537  0.1916 -0.4873 -0.8114
13088SOL    HW140748   5.973   1.088   2.573  0.7752  0.0180  0.0913
13088SOL    HW240749   6.042   0.962   2.526  0.7727 -1.1221  2.9924
13089SOL     OW40750   5.421   3.738   4.506  0.0866 -0.3670  0.2486
13089SOL    HW140751   5.350   3.797   4.530 -0.1829 -0.4204 -0.4015
13089SOL    HW240752   5.490   3.755   4.570 -0.8903 -1.0361  1.5023
13090SOL     OW40753   2.419   4.821   4.052  0.1566 -0.2142  0.1372
13090SOL    HW140754   2.361   4.749   4.077  0.8291 -0.1766  1.8794
13090SOL    HW240755   2.372   4.900   4.081  2.5151 -0.3278  4.8336
13091SOL     OW40756   4.396   7.227   3.178 -0.3962  0.0063 -0.8094
13091SOL    HW140757   4.388   7.259   3.089  0.3066 -0.5351 -1.0703
13091SOL    HW240758   4.306   7.224   3.211 -0.4607  2.6984 -0.6029
13092SOL     OW40759   1.444   1.281   2.021  0.1211  0.2553  0.3362
13092SOL    HW140760   1.526   1.289   2.069  1.0985 -3.8310 -0.4414
13092SOL    HW240761   1.470   1.248   1.935 -2.2818 -0.6714 -0.0766
13093SOL     OW40762   6.466   6.861   1.769 -0.3574  0.4792  0.0951
13093SOL    HW140763   6.545   6.890   1.815  0.8195 -0.9417 -0.9685
13093SOL    HW240764   6.410   6.938   1.765  2.0161  2.1777 -1.2448
13094SOL     OW40765   3.271   3.892   1.795  0.0132  0.3670 -0.7912
13094SOL    HW140766   3.222   3.932   1.866 -0.2172  0.9781 -1.2905
13094SOL    HW240767   3.353   3.941   1.791 -0.4179  1.0403 -1.6350
13095SOL     OW40768   4.604   3.649   7.286  0.2477 -0.2996 -0.2665
13095SOL    HW140769   4.658   3.629   7.362  2.0076  2.1675 -0.7996
13095SOL    HW240770   4.662   3.633   7.211 -0.1002  1.2368 -0.8877
13096SOL     OW40771   3.759   0.658   2.419 -0.0291 -0.2431  0.1294
13096SOL    HW140772   3.756   0.626   2.329 -0.9139 -0.2250  0.1527
13096SOL    HW240773   3.831   0.721   2.419 -1.9049  2.0120 -1.3107
13097SOL     OW40774   1.717   0.438   4.834 -0.0764 -0.3251 -0.3034
13097SOL    HW140775   1.688   0.511   4.780 -1.2415 -1.1088 -0.7749
13097SOL    HW240776   1.639   0.411   4.883  0.3774 -1.1274  0.0013
13098SOL     OW40777   1.241   2.678   6.014  0.3690  0.1672  0.6175
13098SOL    HW140778   1.172   2.627   5.973 -0.0078 -0.0854  1.5602
13098SOL    HW240779   1.321   2.652   5.968 -0.0429 -0.1355  0.0729
13099SOL     OW40780   3.895   6.491   4.377 -0.2327 -0.7174 -0.2124
13099SOL    HW140781   3.983   6.520   4.401 -0.0475  0.4013 -2.1005
13099SOL    HW240782   3.890   6.401   4.407  1.8377 -1.0496 -0.7957
13100SOL     OW40783   6.363   7.257   5.748 -0.0083 -0.1645 -0.0613
13100SOL    HW140784   6.387   7.176   5.702  3.8103  1.1167 -0.5363
13100SOL    HW240785   6.321   7.311   5.681 -1.1082 -1.1467 -0.1588
13101SOL     OW40786   7.713   4.405   5.887 -0.3616 -0.3107  0.3999
13101SOL    HW140787   7.644   4.400   5.954 -0.0366 -2.9436  0.5597
13101SOL    HW240788   7.723   4.316   5.855  3.7396 -0.2098  1.1172
13102SOL     OW40789   4.449   5.787   5.362  0.5246  0.3916 -0.0491
13102SOL    HW140790   4.368   5.799   5.412  0.2355  1.1108 -0.6792
13102SOL    HW240791   4.421   5.785   5.271  1.5485  4.4280 -0.5424
13103SOL     OW40792   5.532   4.374   0.132  0.4897 -0.2348  0.2293
13103SOL    HW140793   5.511   4.285   0.106  0.3728  0.1423 -1.0057
13103SOL    HW240794   5.623   4.370   0.163  0.3838 -0.8324  0.4565
13104SOL     OW40795   6.185   5.548   3.465 -0.1761  0.1061  0.3090
13104SOL    HW140796   6.135   5.474   3.499 -1.2311 -0.0788 -1.6079
13104SOL    HW240797   6.119   5.614   3.444  0.4741  0.2890 -1.1918
13105SOL     OW40798   6.877   1.336   5.662 -0.6719  0.1867  0.2562
13105SOL    HW140799   6.947   1.330   5.597  0.7627  1.9462  1.5863
13105SOL    HW240800   6.897   1.269   5.726 -0.1226  0.7901  0.7147
13106SOL     OW40801   6.036   7.158   5.694  0.0521 -0.2705  0.2829
13106SOL    HW140802   6.106   7.125   5.751 -0.7721 -0.7342  1.0519
13106SOL    HW240803   6.057   7.250   5.680  1.3891 -0.6665 -0.3657
13107SOL     OW40804   1.039   8.227   0.876 -0.3849 -0.6584 -0.0413
13107SOL    HW140805   1.059   8.293   0.809 -2.6482 -1.5520 -1.6828
13107SOL    HW240806   0.950   8.198   0.854 -1.4517 -0.5376  3.7397
13108SOL     OW40807   3.431   3.036   2.488  0.2225 -0.1188 -0.7834
13108SOL    HW140808   3.336   3.045   2.485  0.1199 -1.3920 -1.8451
13108SOL    HW240809   3.446   2.953   2.534  0.8784  0.7729  0.6798
13109SOL     OW40810   1.185   7.203   3.273 -0.1442  0.6004  0.1261
13109SOL    HW140811   1.114   7.229   3.332 -0.8880 -0.2308 -0.3874
13109SOL    HW240812   1.201   7.111   3.294 -1.0379  0.0480 -1.5904
13110SOL     OW40813   6.985   3.726   5.114 -0.7658  0.5032  0.2901
13110SOL    HW140814   6.907   3.694   5.161 -0.8949 -0.7417 -0.7436
13110SOL    HW240815   6.953   3.801   5.063 -1.0649  0.6242  0.6517
13111SOL     OW40816   3.214   4.168   3.456  0.4498  0.5035  0.5299
13111SOL    HW140817   3.218   4.165   3.361 -1.7861  0.6251  0.4252
13111SOL    HW240818   3.225   4.077   3.484 -0.7753  0.2263  0.0868
13112SOL     OW40819   6.318   0.277   4.072 -0.3543  0.1738 -0.7363
13112SOL    HW140820   6.395   0.224   4.051 -0.5775  0.4851 -2.4617
13112SOL    HW240821   6.257   0.216   4.114  0.8995 -0.0269  0.8266
13113SOL     OW40822   1.645   5.303   0.719 -0.1933 -0.3811 -0.8016
13113SOL    HW140823   1.702   5.236   0.682  0.7929  1.0363 -1.9681
13113SOL    HW240824   1.647   5.374   0.654 -0.0514  1.3627  1.0389
13114SOL     OW40825   1.430   6.907   4.994  0.1348  0.3092 -0.3730
13114SOL    HW140826   1.377   6.867   5.064 -0.4921  2.0003  0.1539
13114SOL    HW240827   1.484   6.971   5.040  0.9276  0.2514 -1.2317
13115SOL     OW40828   4.549   5.088   0.250  0.0771  0.2085 -0.1075
13115SOL    HW140829   4.565   4.996   0.272 -1.3678 -0.0255  0.0342
13115SOL    HW240830   4.483   5.116   0.313 -1.4091  0.5959 -1.8153
13116SOL     OW40831   6.255   5.724   1.630 -0.0028  0.3819 -0.5929
13116SOL    HW140832   6.248   5.743   1.536 -0.1979 -1.5753 -0.9945
13116SOL    HW240833   6.176   5.675   1.651  0.2405  0.4500  0.5212
13117SOL     OW40834   4.569   2.858   5.040  0.5881  0.0743 -0.7365
13117SOL    HW140835   4.565   2.772   5.083 -0.7463  0.5533  0.1340
13117SOL    HW240836   4.593   2.838   4.949  0.3872 -1.2117 -0.5250
13118SOL     OW40837   4.676   3.096   7.069 -0.1824 -0.1433 -0.1686
13118SOL    HW140838   4.671   3.144   7.151 -1.9598 -0.9671  0.2297
13118SOL    HW240839   4.646   3.008   7.091 -1.8897 -0.0395 -1.9381
13119SOL     OW40840   1.544   2.486   1.235 -0.2498 -0.1203  0.0105
13119SOL    HW140841   1.582   2.426   1.171 -1.6610 -0.1017 -0.8872
13119SOL    HW240842   1.456   2.451   1.250  0.1444 -0.2809  2.1683
13120SOL     OW40843   7.540   5.209   4.783 -0.1553 -0.7750 -0.6388
13120SOL    HW140844   7.506   5.239   4.868  1.5651 -0.1458 -0.1490
13120SOL    HW240845   7.495   5.264   4.719  1.0899  1.1363  0.0977
13121SOL     OW40846   4.068   5.876   1.880 -0.1202 -0.3255  0.5219
13121SOL    HW140847   4.076   5.877   1.785  0.7421 -0.6825  0.5873
13121SOL    HW240848   3.981   5.912   1.897 -0.8249 -1.5177 -0.4622
13122SOL     OW40849   6.875   5.133   0.547  0.0651  0.0516 -0.8428
13122SOL    HW140850   6.797   5.085   0.522  1.0058 -0.7177 -2.3688
13122SOL    HW240851   6.846   5.223   0.559 -0.9169 -0.0994 -2.0614
13123SOL     OW40852   5.878   7.920   7.863 -0.7631 -0.0110 -0.3055
13123SOL    HW140853   5.884   7.971   7.944  1.5365 -0.1184 -0.3720
13123SOL    HW240854   5.785   7.924   7.839 -1.6081 -0.5700  2.6913
13124SOL     OW40855   5.327   2.966   2.343  0.3961  0.4552  0.1217
13124SOL    HW140856   5.269   2.890   2.347  0.6548  0.2885  0.6018
13124SOL    HW240857   5.269   3.040   2.363  0.2157  0.3536 -0.0195
13125SOL     OW40858   6.868   0.795   3.839  0.3471 -0.2193  0.0233
13125SOL    HW140859   6.816   0.742   3.778  1.8717 -1.9479  0.2025
13125SOL    HW240860   6.828   0.779   3.924  0.5204 -0.7433  0.0100
13126SOL     OW40861   1.540   3.902   8.291  0.1970  0.5947  0.2899
13126SOL    HW140862   1.514   3.943   8.209  1.2915  0.7439  0.0056
13126SOL    HW240863   1.485   3.944   8.357  0.8403  2.0615 -0.0796
13127SOL     OW40864   2.439   7.636   8.191  0.2653 -0.1307 -0.4624
13127SOL    HW140865   2.366   7.696   8.170 -0.4299 -1.1607 -1.0243
13127SOL    HW240866   2.455   7.650   8.284 -0.0161  0.8050 -0.5450
13128SOL     OW40867   1.115   0.498   0.978  0.0401 -0.2568  0.0641
13128SOL    HW140868   1.083   0.416   0.939  0.8241 -0.8633  0.6838
13128SOL    HW240869   1.053   0.517   1.049  0.6437 -1.0474  0.8034
13129SOL     OW40870   0.568   5.888   2.427 -0.3694  0.0907 -0.6235
13129SOL    HW140871   0.635   5.861   2.490  0.8495  0.1968 -1.8544
13129SOL    HW240872   0.488   5.848   2.459  0.8528 -2.5877 -0.7995
13130SOL     OW40873   7.071   0.107   2.246  0.3395  0.1855 -0.1540
13130SOL    HW140874   7.100   0.049   2.176  3.7208 -1.4590  2.4636
13130SOL    HW240875   7.122   0.187   2.234  1.4470 -0.3587  0.7596
13131SOL     OW40876   0.926   5.720   1.321  0.2275  0.2005 -0.0582
13131SOL    HW140877   0.967   5.721   1.407  1.4731  0.4298 -0.6294
13131SOL    HW240878   1.000   5.725   1.260 -0.5644 -1.0069 -1.1536
13132SOL     OW40879   1.445   2.804   5.377 -0.4643 -0.0340 -0.3393
13132SOL    HW140880   1.360   2.769   5.351  0.4391 -1.1474 -1.8707
13132SOL    HW240881   1.439   2.812   5.473 -2.3578  0.1367 -0.4474
13133SOL     OW40882   6.654   7.081   1.694 -0.9038 -0.0993  0.0517
13133SOL    HW140883   6.560   7.090   1.682 -1.1857 -0.0553  2.0676
13133SOL    HW240884   6.693   7.131   1.623 -2.4064  0.8283 -0.1316
13134SOL     OW40885   4.756   6.374   4.339  0.2829 -0.0828 -0.1549
13134SOL    HW140886   4.758   6.356   4.432  1.1466 -0.9922 -0.3474
13134SOL    HW240887   4.734   6.290   4.298 -2.8836  0.8974 -0.6053
13135SOL     OW40888   7.243   4.313   0.516  0.2581  0.4844  0.3053
13135SOL    HW140889   7.172   4.276   0.464  2.0747 -1.1111 -1.1183
13135SOL    HW240890   7.206   4.393   0.554 -2.4479 -0.6278  0.0789
13136SOL     OW40891   1.137   4.366   7.324 -0.0360 -0.2255  0.1014
13136SOL    HW140892   1.162   4.456   7.307  0.4201 -0.7326 -2.0439
13136SOL    HW240893   1.049   4.372   7.362  0.4059  1.1479  0.9553
13137SOL     OW40894   8.312   2.059   2.126 -0.6598  0.5219  0.2130
13137SOL    HW140895   8.281   2.121   2.191 -0.8252  1.0929 -0.4096
13137SOL    HW240896   8.233   2.024   2.085 -0.5646  0.0276  0.4431
13138SOL     OW40897   2.708   0.916   6.892  0.1297 -0.3977  0.6337
13138SOL    HW140898   2.769   0.984   6.920  0.2755 -1.3007  2.5820
13138SOL    HW240899   2.740   0.888   6.806  1.7321 -0.0002  1.0877
13139SOL     OW40900   0.374   3.349   5.969  0.1646  0.5341  0.2667
13139SOL    HW140901   0.466   3.322   5.967  0.3711  1.3208 -2.6408
13139SOL    HW240902   0.344   3.343   5.878 -2.4194  1.1455  1.0185
13140SOL     OW40903   0.350   4.149   1.866 -0.0633 -0.1678 -0.1182
13140SOL    HW140904   0.334   4.088   1.938 -0.0365 -0.8535 -0.6877
13140SOL    HW240905   0.263   4.165   1.829 -0.1337  0.5191  0.3255
13141SOL     OW40906   4.413   4.162   5.843  0.2135 -0.1431  0.3512
13141SOL    HW140907   4.480   4.193   5.783  1.0584 -0.4557  1.1332
13141SOL    HW240908   4.339   4.222   5.830  0.7486  0.3753 -0.2886
13142SOL     OW40909   5.824   0.060   3.713 -1.0358 -0.3201  0.8107
13142SOL    HW140910   5.809   0.072   3.619  0.0629 -1.1515  0.5166
13142SOL    HW240911   5.798   0.143   3.752  2.6766  1.6477 -0.7104
13143SOL     OW40912   1.897   7.968   3.853  0.1309 -0.5130  0.4509
13143SOL    HW140913   1.882   7.888   3.905 -1.3692 -0.2109  0.5149
13143SOL    HW240914   1.886   8.039   3.916 -0.7749 -0.1797 -0.0704
13144SOL     OW40915   3.094   2.661   6.928  0.5859  0.8290 -0.8438
13144SOL    HW140916   3.068   2.720   6.857 -2.0503 -1.1813 -1.6702
13144SOL    HW240917   3.072   2.709   7.008 -0.2748  1.5153 -1.4751
13145SOL     OW40918   6.005   5.426   7.530  0.7342  0.6654  0.2635
13145SOL    HW140919   5.964   5.392   7.451 -1.9931  0.5266  1.6420
13145SOL    HW240920   6.093   5.450   7.504  0.2676 -0.4738 -2.5168
13146SOL     OW40921   6.489   2.976   5.639 -0.1651  0.8280  0.4019
13146SOL    HW140922   6.455   2.960   5.727  2.5780 -2.2903  0.9703
13146SOL    HW240923   6.575   3.016   5.654  0.5546 -0.2416 -0.8395
13147SOL     OW40924   5.235   1.478   3.559  0.3379  0.3021  0.3225
13147SOL    HW140925   5.188   1.445   3.483 -0.2662 -0.7930  1.1450
13147SOL    HW240926   5.247   1.571   3.542 -2.9686  0.8400  0.4675
13148SOL     OW40927   0.299   3.100   0.866  0.5424  0.1711  0.1317
13148SOL    HW140928   0.255   3.068   0.787 -0.9184 -0.8867  1.3357
13148SOL    HW240929   0.387   3.123   0.836 -0.1838  0.4220 -1.9280
13149SOL     OW40930   4.614   3.854   6.924  0.3987  0.3053 -0.1691
13149SOL    HW140931   4.702   3.886   6.906  0.1854  0.1155 -1.6227
13149SOL    HW240932   4.625   3.790   6.994  1.2819  0.9928  0.3222
13150SOL     OW40933   7.005   4.686   5.883  0.6674 -0.2758  0.2120
13150SOL    HW140934   6.994   4.606   5.831  0.2913  0.6763 -1.1857
13150SOL    HW240935   6.945   4.749   5.844  0.1613  0.3765  1.9991
13151SOL     OW40936   6.695   2.371   8.183 -0.1199 -0.0819  0.1728
13151SOL    HW140937   6.665   2.365   8.092  1.1337  1.6515 -0.3753
13151SOL    HW240938   6.761   2.302   8.191 -1.0511 -1.0034  0.1269
13152SOL     OW40939   1.057   4.545   5.313  0.8741 -0.0886 -0.2004
13152SOL    HW140940   1.004   4.579   5.241  0.9375 -0.7253 -0.5453
13152SOL    HW240941   1.124   4.492   5.271  1.3084  0.0752  0.2886
13153SOL     OW40942   1.849   5.914   4.598 -0.2788  0.3085 -0.1986
13153SOL    HW140943   1.847   5.958   4.514  0.5631 -0.4885 -0.6429
13153SOL    HW240944   1.820   5.824   4.580 -2.2650  0.7266  0.7437
13154SOL     OW40945   4.352   1.761   4.776  0.3673 -0.0259  0.1555
13154SOL    HW140946   4.333   1.711   4.856  1.2792 -1.3646 -0.4494
13154SOL    HW240947   4.446   1.747   4.762  0.3045  0.6029 -0.8885
13155SOL     OW40948   6.604   4.374   0.482 -0.4006 -0.2648  0.2209
13155SOL    HW140949   6.581   4.336   0.397  0.9267  0.5293 -0.5266
13155SOL    HW240950   6.546   4.332   0.545 -0.9342 -1.3661 -0.9975
13156SOL     OW40951   6.938   2.900   4.701 -0.3087 -0.4526  0.4825
13156SOL    HW140952   6.865   2.962   4.709 -0.9672 -1.4188  2.2976
13156SOL    HW240953   7.000   2.929   4.768  0.7200  0.0270 -0.6814
13157SOL     OW40954   0.916   3.734   2.595  0.0004  0.3129 -0.0968
13157SOL    HW140955   0.906   3.777   2.510  0.3193  1.1586  0.2854
13157SOL    HW240956   0.937   3.643   2.574 -0.8281  0.2986 -0.9150
13158SOL     OW40957   1.697   4.985   7.162  0.5119  0.9599  0.2417
13158SOL    HW140958   1.652   4.990   7.078 -0.0186 -3.0485  0.2036
13158SOL    HW240959   1.628   4.972   7.226  1.1615  0.8044  0.9188
13159SOL     OW40960   0.814   5.596   1.800 -0.1820 -0.6897  0.1727
13159SOL    HW140961   0.746   5.531   1.784 -0.5082 -0.5973  1.1413
13159SOL    HW240962   0.827   5.594   1.895  0.2078  0.2567  0.1451
13160SOL     OW40963   1.461   3.552   5.761  0.1912  0.3936 -0.1448
13160SOL    HW140964   1.467   3.621   5.695 -1.7333 -0.9491 -1.8211
13160SOL    HW240965   1.376   3.568   5.804  0.7329  0.3503  0.9546
13161SOL     OW40966   3.551   1.130   8.023  0.3873  0.3365 -0.3643
13161SOL    HW140967   3.645   1.114   8.024  0.2234 -0.6143  0.9891
13161SOL    HW240968   3.530   1.154   8.114 -0.8813 -0.7555 -0.3643
13162SOL     OW40969   7.788   4.954   6.258 -0.5058 -0.0914  0.0224
13162SOL    HW140970   7.797   4.861   6.280 -0.5534 -0.0018  0.4299
13162SOL    HW240971   7.848   4.998   6.318  1.6662 -0.0767 -2.0913
13163SOL     OW40972   2.392   7.580   2.561 -0.3222  0.3039  0.2866
13163SOL    HW140973   2.421   7.505   2.614 -0.3258  0.6170  0.7318
13163SOL    HW240974   2.324   7.544   2.504  0.1574 -0.1887  0.0179
13164SOL     OW40975   1.440   8.194   1.658  0.0235  0.8102  0.0235
13164SOL    HW140976   1.503   8.123   1.641 -0.4004  0.8966 -2.1313
13164SOL    HW240977   1.458   8.258   1.589 -1.4522  1.5087  0.2703
13165SOL     OW40978   7.877   3.765   2.163 -0.3516 -0.1538  0.0404
13165SOL    HW140979   7.958   3.736   2.204 -0.2938 -0.5244 -0.3361
13165SOL    HW240980   7.811   3.756   2.232 -0.3628 -1.2974 -0.1067
13166SOL     OW40981   3.254   6.623   4.515  0.2054  0.7395  0.6078
13166SOL    HW140982   3.184   6.665   4.565 -1.4291  0.1099 -1.1117
13166SOL    HW240983   3.258   6.534   4.551  0.3348  0.8684  0.9154
13167SOL     OW40984   7.493   1.853   2.877  0.0226 -0.0609 -0.4992
13167SOL    HW140985   7.528   1.795   2.945  0.3498 -0.0221 -0.6325
13167SOL    HW240986   7.525   1.940   2.901 -0.4658  0.0660 -0.3014
13168SOL     OW40987   7.740   4.001   4.413 -0.1191 -0.2640 -0.2702
13168SOL    HW140988   7.820   3.998   4.360 -0.5508 -0.3231 -0.9262
13168SOL    HW240989   7.766   3.965   4.498  1.2986  2.5188  0.5274
13169SOL     OW40990   0.902   8.016   2.622 -0.1392  0.6402 -0.2660
13169SOL    HW140991   0.886   8.017   2.527 -0.1704  0.0802 -0.2683
13169SOL    HW240992   0.907   7.923   2.644 -1.7142  0.7358  0.5505
13170SOL     OW40993   1.261   6.517   1.427  0.0985  1.0606  0.0417
13170SOL    HW140994   1.186   6.462   1.403  0.1710  1.5097 -1.2239
13170SOL    HW240995   1.300   6.471   1.501  1.3608 -1.7267 -2.2534
13171SOL     OW40996   2.734   4.041   4.132  0.4068 -0.5145 -0.0443
13171SOL    HW140997   2.685   4.104   4.079  1.6832  0.1183 -0.4729
13171SOL    HW240998   2.785   3.990   4.069 -0.3226 -1.7565  0.3319
13172SOL     OW40999   1.838   7.300   6.301  0.2566 -0.0055 -0.0112
13172SOL    HW141000   1.750   7.295   6.338 -0.3200  1.6516 -1.0978
13172SOL    HW241001   1.861   7.209   6.282 -1.6662 -0.3565 -0.7251
13173SOL     OW41002   6.786   0.866   1.880 -0.1657 -0.0718 -0.1349
13173SOL    HW141003   6.843   0.932   1.919 -0.1149 -0.6451  0.7741
13173SOL    HW241004   6.740   0.827   1.955 -2.3052  0.9140 -0.9213
13174SOL     OW41005   1.200   0.375   6.129  0.2947  0.1599 -0.2856
13174SOL    HW141006   1.251   0.456   6.129  0.5215  0.0354 -1.3586
13174SOL    HW241007   1.109   0.403   6.118  0.4791  0.2367 -1.7750
13175SOL     OW41008   7.319   0.369   5.949 -0.2255  0.2683 -0.1047
13175SOL    HW141009   7.394   0.424   5.973  0.9598  0.0218 -3.0597
13175SOL    HW241010   7.259   0.429   5.906 -2.4636  0.7644  3.5090
13176SOL     OW41011   3.591   1.398   7.800  0.2929  0.0708  0.2652
13176SOL    HW141012   3.531   1.434   7.865 -1.0587  0.8663 -1.3758
13176SOL    HW241013   3.678   1.406   7.840 -0.5452  0.1758  2.1040
13177SOL     OW41014   0.217   5.406   3.383 -0.2335 -0.5414  0.2990
13177SOL    HW141015   0.302   5.400   3.427  0.5391 -0.6474 -1.1889
13177SOL    HW241016   0.161   5.346   3.432  0.2226  0.4028  2.0159
13178SOL     OW41017   7.011   6.588   2.502 -0.0036  0.3046 -0.2663
13178SOL    HW141018   6.977   6.515   2.452 -0.3347 -1.3203  2.2247
13178SOL    HW241019   6.988   6.666   2.451 -2.2190 -1.1285 -1.5126
13179SOL     OW41020   0.167   2.250   6.810 -0.4406 -0.0193 -0.4057
13179SOL    HW141021   0.195   2.203   6.888 -1.7358  2.5495  1.7031
13179SOL    HW241022   0.077   2.278   6.831 -1.1108 -0.0118 -3.1629
13180SOL     OW41023   3.215   5.633   3.622  0.5450 -0.0855  0.3154
13180SOL    HW141024   3.182   5.709   3.668 -0.3252 -0.5938  0.5352
13180SOL    HW241025   3.236   5.665   3.534 -1.6089  0.0097 -0.1980
13181SOL     OW41026   6.653   7.687   2.856 -0.2204 -0.2356 -0.3629
13181SOL    HW141027   6.615   7.687   2.769  0.4408  2.9225 -0.7335
13181SOL    HW241028   6.709   7.610   2.859 -1.4600 -1.2418 -2.1352
13182SOL     OW41029   2.580   0.448   2.197  0.8324 -0.0170  0.2526
13182SOL    HW141030   2.543   0.473   2.113 -0.6871 -0.6605  0.7105
13182SOL    HW241031   2.609   0.357   2.185  1.4556  0.1944  0.1541
13183SOL     OW41032   6.024   0.459   1.802 -0.0385  0.5097  0.1613
13183SOL    HW141033   6.113   0.462   1.837  0.5167 -1.4592 -1.0335
13183SOL    HW241034   5.986   0.543   1.828  1.4870  0.5411  2.4269
13184SOL     OW41035   4.537   2.507   4.883  0.2992  0.0789  0.1276
13184SOL    HW141036   4.520   2.419   4.851 -1.4050 -0.3851  2.2134
13184SOL    HW241037   4.632   2.517   4.878  0.3334 -1.1471 -1.9634
13185SOL     OW41038   7.525   0.690   4.062  0.1611 -0.2993  0.0409
13185SOL    HW141039   7.561   0.775   4.036  0.2541 -0.1264  0.7246
13185SOL    HW241040   7.564   0.628   4.001  0.7463  0.0389  0.0665
13186SOL     OW41041   0.540   7.023   4.231 -0.6711  0.5341  0.7361
13186SOL    HW141042   0.543   6.944   4.178  1.2234  0.0635  1.5111
13186SOL    HW241043   0.593   7.003   4.308 -0.4075  2.4562  1.0917
13187SOL     OW41044   7.182   3.852   1.203 -0.2898 -0.0973  0.3721
13187SOL    HW141045   7.093   3.826   1.225 -1.0586  1.2825 -0.9752
13187SOL    HW241046   7.186   3.945   1.225  0.6680 -0.0327 -0.0278
13188SOL     OW41047   7.990   2.741   3.513 -0.3041 -0.2090 -0.1332
13188SOL    HW141048   7.987   2.820   3.458 -1.3321 -0.6900 -0.7932
13188SOL    HW241049   7.938   2.763   3.590  0.9525  0.3893  0.5654
13189SOL     OW41050   0.574   6.076   4.704  0.7187  0.1520  0.1982
13189SOL    HW141051   0.621   6.151   4.742  2.7223 -1.0776  0.2188
13189SOL    HW241052   0.508   6.054   4.770  0.9365  1.0928  0.7492
13190SOL     OW41053   0.881   0.609   1.790 -0.1259  0.1237 -0.3261
13190SOL    HW141054   0.831   0.538   1.830 -1.4366  1.8804  1.1988
13190SOL    HW241055   0.832   0.630   1.710 -1.3280  1.2317  0.6974
13191SOL     OW41056   5.212   0.512   7.555  0.4129  0.3704 -0.7298
13191SOL    HW141057   5.186   0.425   7.586  0.1639  0.9454  0.7199
13191SOL    HW241058   5.243   0.497   7.466  0.9858 -1.3221 -0.2744
13192SOL     OW41059   1.467   1.671   4.765 -0.1476  0.2615 -0.3557
13192SOL    HW141060   1.437   1.675   4.674 -0.2625  0.3644 -0.3145
13192SOL    HW241061   1.422   1.744   4.807  2.2419  2.1487 -0.9074
13193SOL     OW41062   0.466   3.857   1.503 -0.5627 -0.4580  0.1298
13193SOL    HW141063   0.439   3.944   1.471 -0.0620 -0.9423 -1.6968
13193SOL    HW241064   0.559   3.852   1.480 -0.4806 -1.3071  0.6450
13194SOL     OW41065   5.479   1.750   2.803 -0.2032  0.0116  0.3001
13194SOL    HW141066   5.533   1.717   2.732 -0.4200  0.2933  0.0060
13194SOL    HW241067   5.416   1.679   2.821  1.3030 -0.9881  1.7447
13195SOL     OW41068   7.386   0.064   2.901  0.2746 -0.1238  0.1841
13195SOL    HW141069   7.471   0.027   2.927  0.0205 -0.4764  0.5099
13195SOL    HW241070   7.323  -0.006   2.918 -0.2191  0.4736  0.8698
13196SOL     OW41071   2.406   7.888   2.078 -0.2268  0.0709 -0.2967
13196SOL    HW141072   2.438   7.801   2.054 -0.4849 -0.0737 -0.1150
13196SOL    HW241073   2.438   7.902   2.167  0.2369  0.3688 -0.5086
13197SOL     OW41074   6.013   6.583   5.365  0.0926  0.1389 -0.2903
13197SOL    HW141075   6.076   6.579   5.438 -3.0594  4.6835  2.9950
13197SOL    HW241076   6.056   6.639   5.300  0.0611  2.1303  1.3512
13198SOL     OW41077   7.926   4.143   1.264  0.1096  0.6375  0.2127
13198SOL    HW141078   7.885   4.134   1.178  0.8156  2.5225 -0.3410
13198SOL    HW241079   7.853   4.162   1.323 -0.3655 -0.5540  0.0090
13199SOL     OW41080   7.697   0.169   0.016 -0.0769 -0.0634  0.0473
13199SOL    HW141081   7.777   0.168  -0.037  0.1091 -1.0657  0.3266
13199SOL    HW241082   7.696   0.255   0.056  1.6158 -0.5203  1.1440
13200SOL     OW41083   6.306   0.279   1.101 -0.0491  0.9385  0.0954
13200SOL    HW141084   6.341   0.330   1.028 -1.3119 -0.0762 -1.2418
13200SOL    HW241085   6.371   0.210   1.115 -0.2814  0.5497 -0.7277
13201SOL     OW41086   3.246   4.404   6.113 -0.3600  0.4862 -0.3321
13201SOL    HW141087   3.243   4.315   6.149 -0.2179  1.5477  2.4820
13201SOL    HW241088   3.157   4.422   6.083 -0.2473 -0.8038 -1.4647
13202SOL     OW41089   7.023   8.110   4.718 -0.0261 -0.6400 -0.1392
13202SOL    HW141090   6.936   8.139   4.744  0.4191 -0.2998  1.0318
13202SOL    HW241091   7.063   8.186   4.676 -0.4140 -0.8984 -0.9691
13203SOL     OW41092   7.506   7.795   3.971  0.3635  0.1443 -0.8822
13203SOL    HW141093   7.585   7.829   4.012 -0.4127  0.0935  0.6852
13203SOL    HW241094   7.538   7.742   3.897  1.7058  1.3772 -1.1970
13204SOL     OW41095   5.719   2.128   2.844  0.0129 -0.0849 -0.4600
13204SOL    HW141096   5.761   2.145   2.928 -0.0860 -0.4114 -0.3435
13204SOL    HW241097   5.751   2.198   2.786 -0.0062  0.2053 -0.1220
13205SOL     OW41098   8.020   6.893   0.078  0.2877  0.0965 -0.4569
13205SOL    HW141099   8.065   6.846   0.007 -0.0657  1.0918 -1.3469
13205SOL    HW241100   8.059   6.858   0.158  0.4673 -1.2752 -1.1302
13206SOL     OW41101   2.557   7.023   4.329  0.2753 -0.7523  0.5738
13206SOL    HW141102   2.508   6.943   4.349 -1.2230 -0.5656 -2.1151
13206SOL    HW241103   2.608   7.001   4.251  1.7704  0.1853  1.2531
13207SOL     OW41104   7.801   2.930   0.857  0.6585 -0.1949  0.3088
13207SOL    HW141105   7.818   2.952   0.766  1.5409 -1.2973  0.1947
13207SOL    HW241106   7.777   2.838   0.856 -3.0223  0.6973  0.7754
13208SOL     OW41107   4.538   2.271   3.513 -0.1163  0.0178 -0.5529
13208SOL    HW141108   4.449   2.290   3.543  0.0675 -1.1931  0.8062
13208SOL    HW241109   4.593   2.335   3.559 -0.2714  0.7172 -1.3351
13209SOL     OW41110   7.608   4.000   1.288 -0.4849 -0.0230 -0.7302
13209SOL    HW141111   7.661   4.055   1.346 -0.9379  0.4012 -0.7169
13209SOL    HW241112   7.573   4.061   1.223  0.4267 -0.5712 -1.7558
13210SOL     OW41113   5.021   1.612   4.768 -0.9847  0.0810 -0.0456
13210SOL    HW141114   4.994   1.521   4.771 -1.4315  0.1916 -0.7166
13210SOL    HW241115   5.015   1.636   4.676 -0.3867  0.6430  0.0580
13211SOL     OW41116   1.799   7.796   4.250 -0.0328  0.3767  0.2388
13211SOL    HW141117   1.853   7.863   4.291  0.5834 -0.4828  0.8447
13211SOL    HW241118   1.817   7.716   4.300 -1.2960 -0.0830 -0.0248
13212SOL     OW41119   0.137   7.357   4.599 -0.4006 -0.1502 -0.9513
13212SOL    HW141120   0.057   7.404   4.576  0.0642  0.6552 -0.9700
13212SOL    HW241121   0.186   7.351   4.517 -0.3194 -0.3924 -0.8854
13213SOL     OW41122   3.520   5.754   2.034  0.2868  0.2243  0.2224
13213SOL    HW141123   3.448   5.741   2.097 -0.2868 -0.5408 -0.5813
13213SOL    HW241124   3.524   5.672   1.985  1.6215  0.3101  0.1499
13214SOL     OW41125   5.208   1.505   4.968  0.0043 -0.2025  0.1604
13214SOL    HW141126   5.264   1.565   5.016  0.2535 -0.6097  0.3817
13214SOL    HW241127   5.163   1.560   4.903 -0.2812  0.3269  0.8101
13215SOL     OW41128   6.289   0.951   0.946 -0.3674 -0.6016  1.3215
13215SOL    HW141129   6.357   0.883   0.944 -1.1650 -1.4858  3.3036
13215SOL    HW241130   6.323   1.017   1.007 -0.2564  0.1044  0.5164
13216SOL     OW41131   2.432   6.882   0.582 -0.3524  0.3635 -0.3506
13216SOL    HW141132   2.504   6.870   0.520 -0.3337  0.5887 -0.3721
13216SOL    HW241133   2.458   6.957   0.635 -0.4242  0.2468 -0.1471
13217SOL     OW41134   7.832   6.206   2.720  0.7265  0.5025 -0.2258
13217SOL    HW141135   7.827   6.300   2.704 -1.3539  0.5393  0.4311
13217SOL    HW241136   7.871   6.170   2.641  1.7096  1.9341 -0.4072
13218SOL     OW41137   0.093   5.726   8.153 -0.2210 -0.0046  0.1123
13218SOL    HW141138   0.165   5.725   8.216  0.1750  0.2677 -0.3284
13218SOL    HW241139   0.125   5.782   8.082 -0.8816  0.1358 -0.0716
13219SOL     OW41140   4.841   2.592   1.560  0.2152  0.3554 -0.2634
13219SOL    HW141141   4.813   2.580   1.469 -1.3923 -0.4747  0.3014
13219SOL    HW241142   4.761   2.619   1.606  1.0422  0.9163  0.8740
13220SOL     OW41143   6.680   1.664   4.922 -0.1514 -0.0389  0.3572
13220SOL    HW141144   6.591   1.694   4.904  0.0967  0.5177  0.0244
13220SOL    HW241145   6.726   1.672   4.838 -0.0668 -1.3396  0.2667
13221SOL     OW41146   0.995   7.792   3.804  0.5518 -0.2441  0.2303
13221SOL    HW141147   1.008   7.728   3.874  0.4569  0.0286  0.4988
13221SOL    HW241148   1.041   7.870   3.834 -0.6524  0.3237  0.6290
13222SOL     OW41149   8.135   1.309   2.971  0.0073 -0.2027 -0.3784
13222SOL    HW141150   8.157   1.403   2.973  1.9180 -0.6221 -0.1926
13222SOL    HW241151   8.103   1.294   2.882 -0.7868  0.7232 -0.2586
13223SOL     OW41152   6.974   4.708   8.241  0.1091 -0.0631  0.3441
13223SOL    HW141153   7.012   4.628   8.205  0.4468  0.6764 -0.9688
13223SOL    HW241154   6.885   4.711   8.205  0.8205  1.2431 -1.3189
13224SOL     OW41155   6.476   1.971   1.547  0.3711  0.0250 -0.0473
13224SOL    HW141156   6.501   1.949   1.457 -1.9142 -0.9284 -0.4729
13224SOL    HW241157   6.557   2.002   1.588  1.4746  0.2636 -2.3697
13225SOL     OW41158   0.203   7.449   0.473  0.3853  0.2503 -0.1818
13225SOL    HW141159   0.260   7.473   0.400 -0.7238  0.6257 -0.9424
13225SOL    HW241160   0.161   7.531   0.498 -0.1533 -0.1045  0.0776
13226SOL     OW41161   8.151   5.276   7.454  0.0563  0.2647 -0.0974
13226SOL    HW141162   8.087   5.206   7.470 -0.2873  0.5273 -0.3066
13226SOL    HW241163   8.106   5.336   7.395  1.0821 -0.3708 -1.5408
13227SOL     OW41164   1.624   4.661   2.901 -0.3507 -0.7316  0.3453
13227SOL    HW141165   1.696   4.604   2.877 -0.6232 -0.5668 -0.9072
13227SOL    HW241166   1.634   4.738   2.844 -1.0217 -0.3354  0.7531
13228SOL     OW41167   4.060   6.134   5.396  0.0206  0.1604 -0.6070
13228SOL    HW141168   4.096   6.170   5.477 -0.6974  1.8940 -1.0350
13228SOL    HW241169   3.968   6.116   5.416  0.1811 -0.7306 -0.6322
13229SOL     OW41170   5.140   0.033   4.828 -0.6689 -0.3727  0.5319
13229SOL    HW141171   5.167  -0.003   4.744 -1.9656  2.4343 -1.1774
13229SOL    HW241172   5.169  -0.031   4.893  1.1749 -2.1460 -1.9675
13230SOL     OW41173   8.212   5.629   5.824 -0.1885 -0.5310  0.4326
13230SOL    HW141174   8.307   5.636   5.833 -0.3504  0.1637  1.6940
13230SOL    HW241175   8.179   5.629   5.914 -1.4848  1.0418 -0.0084
13231SOL     OW41176   1.049   6.143   6.828 -0.0216  0.1399  0.3165
13231SOL    HW141177   1.139   6.109   6.826  1.5416  4.0698  0.0787
13231SOL    HW241178   1.040   6.192   6.746 -1.7316  1.3541  1.1981
13232SOL     OW41179   5.325   2.925   4.034  0.2418 -0.1593 -0.1498
13232SOL    HW141180   5.377   2.917   4.115  0.7746 -0.8899 -0.5563
13232SOL    HW241181   5.331   3.017   4.010 -0.5573  0.2301  1.0658
13233SOL     OW41182   7.643   5.369   6.624  0.6832  0.4411 -0.2174
13233SOL    HW141183   7.587   5.299   6.590  1.9783 -0.3011 -0.8239
13233SOL    HW241184   7.630   5.366   6.719  1.2297 -1.0483 -0.1851
13234SOL     OW41185   4.754   7.936   3.469  0.1341 -0.1231  0.5959
13234SOL    HW141186   4.666   7.954   3.502 -0.3210  1.2279 -1.2656
13234SOL    HW241187   4.810   7.998   3.514 -0.0779 -0.0946  0.8210
13235SOL     OW41188   7.197   7.594   5.818 -0.4093 -0.3226 -0.0076
13235SOL    HW141189   7.115   7.636   5.845 -1.1090 -0.0562 -2.4319
13235SOL    HW241190   7.173   7.502   5.804 -0.4729 -0.0731 -1.5155
13236SOL     OW41191   7.915   3.743   4.819 -0.1264 -0.7015 -0.6796
13236SOL    HW141192   7.917   3.755   4.914 -2.1929 -0.3204 -0.6572
13236SOL    HW241193   7.930   3.649   4.806 -1.9640 -1.1186  0.1526
13237SOL     OW41194   6.583   4.277   4.389 -0.0505 -0.2064 -0.0188
13237SOL    HW141195   6.662   4.332   4.385 -0.5882  0.6110  0.4641
13237SOL    HW241196   6.515   4.335   4.422 -1.1109 -0.6531 -1.3987
13238SOL     OW41197   0.153   3.573   3.674 -0.6256  0.8539 -0.1527
13238SOL    HW141198   0.106   3.552   3.754  1.7840 -1.2236  0.8110
13238SOL    HW241199   0.097   3.541   3.603 -1.1909 -0.4853  0.8881
13239SOL     OW41200   0.231   1.376   6.482 -0.1187 -0.2257 -0.2346
13239SOL    HW141201   0.320   1.363   6.448 -0.4372  1.6744 -1.9465
13239SOL    HW241202   0.227   1.469   6.504 -1.9257 -0.1152 -0.9313
13240SOL     OW41203   3.820   3.880   0.610 -0.1038  0.0937  0.1617
13240SOL    HW141204   3.907   3.911   0.583  0.7617 -1.5179  0.9895
13240SOL    HW241205   3.759   3.929   0.555  1.3983  0.0631 -1.6068
13241SOL     OW41206   2.140   6.283   4.778  0.4983  0.2570 -0.0610
13241SOL    HW141207   2.172   6.331   4.702 -0.6174 -0.4033 -0.9716
13241SOL    HW241208   2.186   6.199   4.775 -0.1583 -0.0957 -0.5011
13242SOL     OW41209   0.486   1.169   2.239  0.5120 -0.4431 -0.0446
13242SOL    HW141210   0.412   1.228   2.256 -0.4536 -1.2666 -1.3315
13242SOL    HW241211   0.562   1.228   2.236 -0.3548  0.6706 -0.6856
13243SOL     OW41212   7.334   2.316   0.166  0.0432 -0.1098 -0.6954
13243SOL    HW141213   7.371   2.401   0.190 -0.2693  0.0248 -0.6975
13243SOL    HW241214   7.410   2.258   0.162  0.3253  0.2804 -1.1998
13244SOL     OW41215   5.833   1.393   4.475  0.4661  0.1036  0.0601
13244SOL    HW141216   5.818   1.429   4.387 -2.0662 -0.9490  0.0200
13244SOL    HW241217   5.745   1.380   4.511  1.4420 -0.8746  2.1938
13245SOL     OW41218   4.853   5.081   0.687 -0.0690 -0.5588  0.4913
13245SOL    HW141219   4.889   5.169   0.676  0.6002 -0.7354  1.1977
13245SOL    HW241220   4.930   5.026   0.707 -0.5937 -1.1381  0.9328
13246SOL     OW41221   1.599   0.735   7.126 -0.0629  0.3846  0.0450
13246SOL    HW141222   1.516   0.774   7.152 -0.6638 -1.0765  0.3920
13246SOL    HW241223   1.577   0.678   7.052  0.6445  0.1225  0.0317
13247SOL     OW41224   1.287   0.016   0.009  0.0934 -0.4395  0.4064
13247SOL    HW141225   1.289   0.054  -0.079 -0.2172 -0.2085  0.5001
13247SOL    HW241226   1.345  -0.060   0.003 -0.0976 -0.5493 -0.0523
13248SOL     OW41227   3.654   1.557   3.936 -0.0386 -0.1305  0.7487
13248SOL    HW141228   3.613   1.643   3.929 -0.8993 -0.7193 -1.9621
13248SOL    HW241229   3.590   1.504   3.984 -0.7478 -0.0085 -0.0585
13249SOL     OW41230   0.597   4.442   6.243  0.5084  0.3803 -0.4609
13249SOL    HW141231   0.596   4.504   6.171  0.2150  0.0145 -0.7698
13249SOL    HW241232   0.630   4.493   6.318 -0.5151  1.1362 -0.5074
13250SOL     OW41233   1.424   3.175   0.892 -0.0274 -0.4734  0.1696
13250SOL    HW141234   1.449   3.099   0.945  0.8987  0.9477  1.8497
13250SOL    HW241235   1.434   3.147   0.802 -0.8617 -2.7242  0.7603
13251SOL     OW41236   1.657   5.927   3.675  0.5253  0.2916  0.0320
13251SOL    HW141237   1.606   6.006   3.659  1.1001  1.1326  2.1744
13251SOL    HW241238   1.675   5.928   3.769 -0.4784 -3.0246  0.3161
13252SOL     OW41239   1.185   1.831   7.092 -0.1322  0.4036  0.1364
13252SOL    HW141240   1.240   1.810   7.017  0.5139 -0.7216  0.9173
13252SOL    HW241241   1.165   1.924   7.082  2.2599  0.9359  0.0699
13253SOL     OW41242   6.944   4.812   2.467  0.0957  0.2709  0.0359
13253SOL    HW141243   6.906   4.812   2.379  0.3545  1.3596 -0.0760
13253SOL    HW241244   6.898   4.880   2.515  0.7132  0.4319  0.4160
13254SOL     OW41245   2.233   0.558   5.311 -0.1565  0.0274 -0.5859
13254SOL    HW141246   2.204   0.493   5.247  1.5131 -0.8002 -0.5475
13254SOL    HW241247   2.303   0.514   5.360 -0.2124  1.2477  0.6392
13255SOL     OW41248   5.867   7.955   2.777  0.1631  0.4487 -0.0129
13255SOL    HW141249   5.894   7.962   2.686  0.5234 -0.0811  0.0504
13255SOL    HW241250   5.772   7.941   2.773  0.1203  0.8127 -0.2901
13256SOL     OW41251   7.399   4.661   1.116  0.2869 -0.0995  0.1518
13256SOL    HW141252   7.321   4.632   1.070  2.1629 -2.7783 -1.4334
13256SOL    HW241253   7.383   4.639   1.208 -0.2783 -1.7981 -0.3538
13257SOL     OW41254   8.056   1.107   3.231 -0.1706  0.1575 -0.5549
13257SOL    HW141255   7.978   1.127   3.284  0.7222  0.0553  0.8228
13257SOL    HW241256   8.055   1.173   3.162 -0.7796  0.9568  0.2023
13258SOL     OW41257   3.099   5.872   3.712  0.0051 -0.2765 -0.1216
13258SOL    HW141258   3.162   5.890   3.782 -0.4026  1.7523 -0.2361
13258SOL    HW241259   3.122   5.934   3.643 -1.7831  0.1670 -0.3546
13259SOL     OW41260   0.386   1.620   4.011 -0.0750 -0.0010 -0.3644
13259SOL    HW141261   0.438   1.610   3.932 -1.1577 -3.4044 -0.6924
13259SOL    HW241262   0.308   1.567   3.996 -1.8912  1.9875  1.6558
13260SOL     OW41263   6.030   7.084   1.981 -0.0277  0.1473  0.3322
13260SOL    HW141264   6.023   7.106   2.074  1.8161  1.3504  0.2148
13260SOL    HW241265   6.021   6.989   1.978 -1.2473  0.2121  1.6106
13261SOL     OW41266   4.194   2.877   0.950  0.2234  0.3763  0.5329
13261SOL    HW141267   4.169   2.791   0.986  1.9470 -1.5584 -2.7116
13261SOL    HW241268   4.214   2.930   1.028 -0.1480 -2.3643  2.5813
13262SOL     OW41269   5.966   7.990   3.037 -0.1585 -0.1749 -0.3169
13262SOL    HW141270   5.926   7.996   2.951 -1.5924  1.0332  0.4081
13262SOL    HW241271   6.040   8.051   3.034 -2.3294  2.5459  0.4237
13263SOL     OW41272   0.441   0.240   4.807 -0.1442  0.6225  0.1552
13263SOL    HW141273   0.447   0.191   4.724 -2.7627  0.5491 -0.0406
13263SOL    HW241274   0.401   0.178   4.868 -0.0552  1.3340  0.9396
13264SOL     OW41275   7.938   7.923   2.470 -0.5018 -0.1768  0.3446
13264SOL    HW141276   7.976   7.971   2.544 -0.9688  0.3343  0.2489
13264SOL    HW241277   7.856   7.887   2.504 -0.2158 -0.8101  0.3788
13265SOL     OW41278   1.567   0.478   2.368 -0.3021  0.3163  0.2839
13265SOL    HW141279   1.616   0.558   2.352 -1.6349  1.4989  1.9691
13265SOL    HW241280   1.504   0.473   2.297  0.0631  0.5240 -0.0573
13266SOL     OW41281   5.450   0.077   2.245 -0.4621  0.5118  0.3206
13266SOL    HW141282   5.446   0.104   2.153  1.0031  1.2395  0.4508
13266SOL    HW241283   5.499  -0.005   2.244 -0.1842  0.6768  0.4863
13267SOL     OW41284   3.953   3.382   6.117  0.0664 -0.4305  0.7590
13267SOL    HW141285   3.963   3.320   6.045  0.3465 -1.1886  1.4367
13267SOL    HW241286   3.873   3.430   6.096  0.2606 -0.5056 -0.1587
13268SOL     OW41287   5.735   1.751   0.771 -0.1709 -0.7016 -0.0023
13268SOL    HW141288   5.674   1.810   0.728 -0.1844 -0.2950  0.5650
13268SOL    HW241289   5.822   1.782   0.744 -0.2061 -1.0954 -0.5701
13269SOL     OW41290   6.362   1.189   2.830  0.6166 -0.0435 -0.2942
13269SOL    HW141291   6.352   1.186   2.925  2.1787  1.7943 -0.0350
13269SOL    HW241292   6.359   1.282   2.809  3.6293 -0.1891 -1.6231
13270SOL     OW41293   5.218   4.931   5.503  0.3799  0.1639 -0.1188
13270SOL    HW141294   5.264   5.011   5.480 -0.5747  0.0835 -2.5650
13270SOL    HW241295   5.134   4.938   5.457 -0.7434 -1.1062  1.6648
13271SOL     OW41296   4.192   1.635   7.547  0.0403 -0.2572 -0.5046
13271SOL    HW141297   4.125   1.570   7.526 -2.6307  1.0103  3.4018
13271SOL    HW241298   4.195   1.635   7.643  2.1206  3.2278 -0.5071
13272SOL     OW41299   5.303   7.150   7.677  0.2572 -0.1196 -0.5401
13272SOL    HW141300   5.255   7.231   7.662 -1.3876 -1.2624 -1.5896
13272SOL    HW241301   5.237   7.086   7.704  1.3694 -1.3821 -0.6868
13273SOL     OW41302   2.120   0.514   1.183 -0.2678 -0.4570  0.0083
13273SOL    HW141303   2.041   0.469   1.153  1.3297 -2.8252 -0.8121
13273SOL    HW241304   2.158   0.455   1.249  0.2683  1.1527  1.1758
13274SOL     OW41305   3.060   3.125   1.989  0.4334 -0.4001  0.2987
13274SOL    HW141306   3.089   3.194   1.929  0.3953  2.0179  2.9656
13274SOL    HW241307   3.136   3.066   1.997  1.0830  0.3114 -0.6144
13275SOL     OW41308   4.981   0.819   5.694 -0.0312  0.0132 -0.6844
13275SOL    HW141309   5.025   0.751   5.745  0.1162 -0.8355 -1.9098
13275SOL    HW241310   4.903   0.841   5.745 -0.7885 -2.0299 -0.8991
13276SOL     OW41311   3.178   3.028   2.899 -0.4070  0.0071  0.4895
13276SOL    HW141312   3.220   3.031   2.985  0.7810  0.2028 -0.0952
13276SOL    HW241313   3.187   2.936   2.872  1.1893  0.3991 -0.3834
13277SOL     OW41314   5.494   7.317   1.913 -0.1843  0.3506 -0.1204
13277SOL    HW141315   5.415   7.360   1.882 -0.1785  0.2797 -0.2351
13277SOL    HW241316   5.558   7.332   1.844  0.1060  0.9969  0.2838
13278SOL     OW41317   2.032   2.128   4.822  0.0371 -0.3509  0.5579
13278SOL    HW141318   2.088   2.082   4.759 -0.1495 -0.1181  0.2196
13278SOL    HW241319   1.961   2.066   4.840  0.4081 -0.6511  0.9979
13279SOL     OW41320   3.821   1.818   6.634  0.1702 -0.5392 -0.0537
13279SOL    HW141321   3.863   1.854   6.712  1.1912  0.8776 -1.2191
13279SOL    HW241322   3.871   1.739   6.613 -2.0413 -2.7410  2.4790
13280SOL     OW41323   3.319   8.195   6.615  0.2664  0.3603  0.1680
13280SOL    HW141324   3.355   8.127   6.558  0.5317  0.2464  0.4639
13280SOL    HW241325   3.261   8.246   6.559  0.1154 -0.0745 -0.0733
13281SOL     OW41326   4.151   1.349   7.882 -0.1051 -0.0042 -0.0346
13281SOL    HW141327   4.191   1.436   7.883  1.8414 -0.8428 -1.9025
13281SOL    HW241328   4.075   1.359   7.824  0.4259  0.3343 -0.6798
13282SOL     OW41329   8.219   3.015   0.753  0.3742 -0.0446 -0.0796
13282SOL    HW141330   8.248   2.957   0.823  1.7542  0.0713 -0.5444
13282SOL    HW241331   8.130   3.040   0.778 -0.3623 -2.5866 -0.0186
13283SOL     OW41332   5.019   7.639   6.581  0.4349 -0.2425  0.2475
13283SOL    HW141333   4.991   7.571   6.641  1.3751 -0.2442  0.6851
13283SOL    HW241334   4.965   7.626   6.503  1.0887 -1.9168  0.0643
13284SOL     OW41335   8.060   5.208   6.994  0.1636 -0.1318  0.1362
13284SOL    HW141336   8.100   5.158   6.923 -0.4844 -0.0613 -0.2842
13284SOL    HW241337   7.966   5.198   6.980  0.0205 -1.4035  1.8982
13285SOL     OW41338   1.807   7.337   8.186  0.0029  0.5648  0.4811
13285SOL    HW141339   1.733   7.335   8.247 -1.7611 -0.2743 -1.6660
13285SOL    HW241340   1.848   7.251   8.196 -1.3751 -0.2598 -0.8193
13286SOL     OW41341   2.688   4.029   7.296  0.0912  0.2071 -0.7034
13286SOL    HW141342   2.646   3.976   7.228  0.5089  1.2367 -1.7797
13286SOL    HW241343   2.782   4.014   7.283  0.1286 -1.0040  0.8106
13287SOL     OW41344   2.745   5.524   6.744 -0.1870  0.0221  0.0827
13287SOL    HW141345   2.660   5.558   6.773  0.5165  0.9441  1.0976
13287SOL    HW241346   2.781   5.479   6.820  0.7983  0.7266  0.0403
13288SOL     OW41347   7.707   2.649   3.006 -0.1048 -0.4786  0.3601
13288SOL    HW141348   7.657   2.638   2.925 -0.5806  0.7608  0.4750
13288SOL    HW241349   7.746   2.563   3.022  1.4809 -0.2651 -2.1458
13289SOL     OW41350   2.291   6.455   8.198 -0.2284 -0.0706 -0.2946
13289SOL    HW141351   2.375   6.444   8.154 -1.0630 -1.0764 -1.6807
13289SOL    HW241352   2.308   6.518   8.268  1.7887 -0.6898 -0.2239
13290SOL     OW41353   2.704   0.823   1.747  0.0652 -0.0109  0.0974
13290SOL    HW141354   2.721   0.825   1.841 -0.7130 -0.0509  0.2437
13290SOL    HW241355   2.788   0.797   1.708  0.7092  1.1581  0.6842
13291SOL     OW41356   6.123   1.600   7.873  0.2860  0.2038  0.6240
13291SOL    HW141357   6.042   1.635   7.910  0.5272 -0.0641  1.4191
13291SOL    HW241358   6.185   1.600   7.946  0.3987 -1.5266  0.5613
13292SOL     OW41359   2.949   8.248   3.515 -0.3019 -0.5422 -0.2254
13292SOL    HW141360   2.906   8.206   3.589 -0.4359 -0.3539 -0.1968
13292SOL    HW241361   2.880   8.260   3.450 -0.2758 -0.3149 -0.2124
13293SOL     OW41362   0.146   6.150   7.302 -0.3356 -0.4197  0.0519
13293SOL    HW141363   0.198   6.175   7.379 -1.0645 -2.4789  1.2598
13293SOL    HW241364   0.175   6.209   7.233  2.7311 -0.7097  1.0316
13294SOL     OW41365   1.305   3.190   8.162 -0.0871  0.3668 -0.8011
13294SOL    HW141366   1.265   3.208   8.247  3.1721  1.3000  0.5781
13294SOL    HW241367   1.276   3.262   8.106 -1.7009  0.0952 -0.3588
13295SOL     OW41368   3.538   0.675   0.246 -0.9274  0.3009  0.3886
13295SOL    HW141369   3.607   0.617   0.212 -0.4819  1.0364  0.0263
13295SOL    HW241370   3.576   0.712   0.326  0.7992  3.9327 -1.9797
13296SOL     OW41371   5.729   1.727   0.438  0.1509  0.2006  0.4397
13296SOL    HW141372   5.636   1.709   0.423  0.1775 -0.7375  1.3567
13296SOL    HW241373   5.740   1.819   0.413 -0.8993  0.1576 -0.2193
13297SOL     OW41374   8.222   6.177   2.172  0.0236 -0.0147 -0.0847
13297SOL    HW141375   8.199   6.103   2.115  0.9105 -0.7662  0.5123
13297SOL    HW241376   8.202   6.255   2.120 -0.1585 -0.6819 -1.0303
13298SOL     OW41377   3.141   0.258   7.169  0.3417  0.5849 -0.2231
13298SOL    HW141378   3.124   0.245   7.076  0.0960 -0.8876  0.0144
13298SOL    HW241379   3.219   0.314   7.172  1.9735 -1.5617 -1.3348
13299SOL     OW41380   1.146   5.296   7.610 -0.0208  0.0109 -0.1805
13299SOL    HW141381   1.186   5.291   7.524  0.5488  0.4485  0.0574
13299SOL    HW241382   1.052   5.302   7.593  0.1695  1.2347 -0.8034
13300SOL     OW41383   2.891   3.249   5.775 -0.0088  0.0698 -0.4396
13300SOL    HW141384   2.834   3.314   5.732 -0.5997  0.1639  0.4558
13300SOL    HW241385   2.869   3.166   5.732 -1.0794  0.0476  0.1150
13301SOL     OW41386   2.768   5.719   4.590  0.2434 -0.4913  0.4232
13301SOL    HW141387   2.864   5.722   4.590  0.2283  0.3775 -1.4354
13301SOL    HW241388   2.747   5.627   4.607  1.4141 -0.7974  0.2410
13302SOL     OW41389   0.598   5.438   1.745 -0.2118 -0.3450 -0.2071
13302SOL    HW141390   0.564   5.453   1.657 -1.9677 -1.9326  0.1617
13302SOL    HW241391   0.630   5.348   1.744  0.6775 -0.0514  0.5092
13303SOL     OW41392   2.764   4.360   2.297  0.3909  0.2707  0.0643
13303SOL    HW141393   2.771   4.399   2.210 -2.1775  1.3362  0.2932
13303SOL    HW241394   2.783   4.267   2.283  2.8039  0.9127 -1.1306
13304SOL     OW41395   1.049   2.596   7.515 -0.2502  0.5370 -0.1600
13304SOL    HW141396   0.989   2.557   7.578 -0.8590  0.3626 -0.8547
13304SOL    HW241397   1.136   2.580   7.553 -0.6607  1.4543  1.2179
13305SOL     OW41398   2.540   2.810   6.487  0.1130 -0.1838  0.2431
13305SOL    HW141399   2.472   2.750   6.518 -0.5958  1.3643  1.7804
13305SOL    HW241400   2.503   2.897   6.501  1.2930  0.6367 -1.5790
13306SOL     OW41401   0.666   1.612   8.305  0.1158 -0.0847  0.0586
13306SOL    HW141402   0.747   1.655   8.332 -0.1067 -0.4037  1.2855
13306SOL    HW241403   0.691   1.522   8.285  0.6011  0.6015 -2.6132
13307SOL     OW41404   0.369   7.323   6.489 -0.5105 -0.3646  0.1149
13307SOL    HW141405   0.452   7.281   6.465  0.0620  0.6838  0.2548
13307SOL    HW241406   0.310   7.301   6.418  0.2292 -0.1118 -0.5820
13308SOL     OW41407   6.351   6.779   2.996  0.0603 -0.0183 -0.4887
13308SOL    HW141408   6.261   6.747   3.010 -0.2830  1.5434  0.9318
13308SOL    HW241409   6.349   6.816   2.907 -0.5604 -0.4332 -0.6527
13309SOL     OW41410   6.143   2.897   5.603 -0.1925  0.2668 -0.4938
13309SOL    HW141411   6.082   2.857   5.665  0.0048  0.9027  0.1129
13309SOL    HW241412   6.177   2.823   5.551 -1.1939 -0.1288 -0.5901
13310SOL     OW41413   2.615   3.261   4.760  0.1468  0.7687  0.2169
13310SOL    HW141414   2.689   3.219   4.716 -1.2465 -2.1103  0.5292
13310SOL    HW241415   2.580   3.322   4.696  0.5740 -0.5212 -1.2629
13311SOL     OW41416   4.657   7.067   1.879  0.3955  0.6624 -0.5455
13311SOL    HW141417   4.659   7.010   1.802  0.2931  0.4119 -0.3666
13311SOL    HW241418   4.739   7.116   1.875  0.1734  0.9948 -1.0663
13312SOL     OW41419   4.468   7.420   1.088 -0.0957 -0.2625  0.1875
13312SOL    HW141420   4.483   7.487   1.155 -1.5552  2.3689 -2.0361
13312SOL    HW241421   4.555   7.392   1.061  0.5178 -0.7765  2.5572
13313SOL     OW41422   0.656   6.124   2.268  0.7290  0.6538  0.4302
13313SOL    HW141423   0.663   6.044   2.321  0.4772  0.6316  0.4306
13313SOL    HW241424   0.581   6.171   2.306  1.1271  1.0856  0.6912
13314SOL     OW41425   8.188   3.237   1.856  0.1679 -0.0928 -0.1885
13314SOL    HW141426   8.148   3.301   1.796 -0.6939 -0.2201  0.2512
13314SOL    HW241427   8.247   3.290   1.910 -0.3514  0.2959  0.0042
13315SOL     OW41428   5.651   7.057   2.616 -0.2733  0.1092 -0.2554
13315SOL    HW141429   5.670   6.992   2.684  1.2856 -0.0041 -0.7703
13315SOL    HW241430   5.574   7.023   2.571 -0.9413 -0.1248  1.0577
13316SOL     OW41431   7.339   1.070   5.898 -0.2460 -0.4993  0.0267
13316SOL    HW141432   7.289   1.005   5.948 -2.0954  1.4893  0.8925
13316SOL    HW241433   7.430   1.051   5.918 -0.8096 -2.1681  1.1055
13317SOL     OW41434   6.388   0.046   7.927  0.1519  0.5504 -0.1116
13317SOL    HW141435   6.416   0.137   7.919 -2.2122  1.3244 -0.1796
13317SOL    HW241436   6.378   0.031   8.021  1.0569  0.1924 -0.0728
13318SOL     OW41437   2.148   2.403   2.958  0.3088 -0.1161 -0.0926
13318SOL    HW141438   2.189   2.447   2.884 -0.6213 -0.6384 -0.9283
13318SOL    HW241439   2.106   2.473   3.008  1.1936  0.2732  0.1259
13319SOL     OW41440   1.208   6.465   0.033 -0.7118  0.1194 -0.2497
13319SOL    HW141441   1.210   6.448  -0.061 -0.5269  0.5450 -0.3237
13319SOL    HW241442   1.134   6.525   0.045 -0.8493 -0.0798 -0.0996
13320SOL     OW41443   3.158   5.911   1.482 -0.0098 -0.3585 -0.5247
13320SOL    HW141444   3.089   5.903   1.548  2.5842 -1.6854  2.1877
13320SOL    HW241445   3.124   5.867   1.405 -1.3133 -3.0576  1.5157
13321SOL     OW41446   4.777   3.625   0.832 -0.1143 -0.4865 -0.4639
13321SOL    HW141447   4.710   3.654   0.893  1.2025 -1.5448  1.5562
13321SOL    HW241448   4.797   3.702   0.779 -1.7849  0.2548 -0.0385
13322SOL     OW41449   5.539   3.657   6.298 -0.0557  0.0302  0.2928
13322SOL    HW141450   5.451   3.626   6.277  0.4256 -0.9302 -0.3362
13322SOL    HW241451   5.559   3.722   6.230  0.5539 -1.3239 -0.8582
13323SOL     OW41452   4.596   7.453   4.815  0.3006  0.1037 -0.6257
13323SOL    HW141453   4.652   7.528   4.834  0.7619 -0.2181 -0.6887
13323SOL    HW241454   4.515   7.490   4.781  0.3291  0.5913 -0.1622
13324SOL     OW41455   2.606   6.025   0.169 -0.3000  0.4372  0.2106
13324SOL    HW141456   2.691   6.065   0.188 -0.0834  0.3231 -0.5152
13324SOL    HW241457   2.595   5.960   0.238 -0.3422  1.2773  0.9969
13325SOL     OW41458   2.662   6.062   2.727  0.3822 -0.1908  0.7664
13325SOL    HW141459   2.730   6.039   2.790  1.8235  0.8308 -0.3718
13325SOL    HW241460   2.601   6.117   2.776  1.9774  1.3554  1.0614
13326SOL     OW41461   1.678   2.127   2.426  0.1333  0.0946  0.4514
13326SOL    HW141462   1.712   2.147   2.513 -2.7306 -1.7473  2.0921
13326SOL    HW241463   1.676   2.211   2.381  2.8729  0.8648  1.6841
13327SOL     OW41464   5.432   3.193   2.786 -1.0367 -0.2692 -0.4832
13327SOL    HW141465   5.390   3.267   2.743 -1.1502 -0.2334 -0.3142
13327SOL    HW241466   5.456   3.227   2.873 -2.8979 -0.9986  0.3576
13328SOL     OW41467   4.092   6.145   3.736  0.6465  0.2045  0.1323
13328SOL    HW141468   4.146   6.084   3.787 -0.5096 -0.5475  0.4657
13328SOL    HW241469   4.024   6.174   3.797 -1.3348 -1.4514 -1.2365
13329SOL     OW41470   3.438   3.288   4.166 -0.1622  0.0954  0.1021
13329SOL    HW141471   3.450   3.288   4.071 -0.1843  2.3540  0.0695
13329SOL    HW241472   3.502   3.225   4.198  0.0480 -0.4722 -1.3750
13330SOL     OW41473   8.247   0.723   1.706  0.1006 -0.0530  0.0772
13330SOL    HW141474   8.182   0.777   1.660 -0.9124  0.0142  1.5718
13330SOL    HW241475   8.275   0.659   1.641 -1.0345  0.2873 -0.7583
13331SOL     OW41476   6.004   2.248   0.063  0.4317  0.0764 -0.1300
13331SOL    HW141477   6.073   2.183   0.049 -0.6016 -1.4185  1.5947
13331SOL    HW241478   5.925   2.198   0.079 -0.2638  1.7352  1.8708
13332SOL     OW41479   5.754   4.116   2.563  0.1446  0.1680 -0.4138
13332SOL    HW141480   5.797   4.129   2.479  0.8859  1.5382  0.1466
13332SOL    HW241481   5.787   4.187   2.618 -0.4371 -0.6149  0.9907
13333SOL     OW41482   2.370   4.400   1.540 -0.0233 -0.1030  0.2936
13333SOL    HW141483   2.294   4.435   1.492  0.4403 -1.8256 -1.7910
13333SOL    HW241484   2.436   4.469   1.535 -0.5211  0.3407 -0.2106
13334SOL     OW41485   2.009   7.387   1.204  0.3765 -0.1445 -0.1130
13334SOL    HW141486   2.086   7.438   1.231  0.8017 -0.2345 -1.1337
13334SOL    HW241487   1.943   7.453   1.183  0.8973 -0.0001 -1.3473
13335SOL     OW41488   3.362   0.869   1.154 -0.1540  0.1219  0.0591
13335SOL    HW141489   3.281   0.849   1.202  1.0752 -2.9348  0.9534
13335SOL    HW241490   3.335   0.873   1.062 -1.3664 -0.6426  0.3725
13336SOL     OW41491   5.660   2.580   7.418 -0.2052  0.4285  0.1020
13336SOL    HW141492   5.640   2.521   7.345  1.3271 -0.2503  0.2187
13336SOL    HW241493   5.577   2.588   7.465 -0.3327 -2.0785  0.3740
13337SOL     OW41494   6.507   2.816   1.443 -0.2492 -0.1798  0.6160
13337SOL    HW141495   6.574   2.756   1.477  2.2717  1.5353 -1.1070
13337SOL    HW241496   6.515   2.894   1.498 -0.4273  0.2449  0.0423
13338SOL     OW41497   7.743   6.192   6.184 -0.2206 -0.6255  0.6022
13338SOL    HW141498   7.759   6.253   6.112 -3.2054  1.2437  1.4103
13338SOL    HW241499   7.650   6.172   6.178  0.3312 -3.7516  1.4658
13339SOL     OW41500   3.850   6.883   5.200  0.3356 -0.3221 -1.0087
13339SOL    HW141501   3.905   6.949   5.242 -1.9136 -0.3960  2.2663
13339SOL    HW241502   3.778   6.932   5.160 -2.0079 -0.7079  2.4759
13340SOL     OW41503   2.387   7.254   6.007  0.3358 -0.1448 -0.0969
13340SOL    HW141504   2.456   7.210   6.056  1.5639  1.2261 -0.5655
13340SOL    HW241505   2.306   7.210   6.035  1.2365 -0.8089  1.5376
13341SOL     OW41506   7.638   1.706   5.033  0.0682  0.1327 -0.0706
13341SOL    HW141507   7.657   1.795   5.004 -1.1033  0.5383  0.3660
13341SOL    HW241508   7.602   1.663   4.955 -0.2498  0.3160 -0.0232
13342SOL     OW41509   7.890   2.454   3.135 -0.6628  0.3637 -0.0747
13342SOL    HW141510   7.906   2.381   3.075 -0.2909 -0.1186  0.6010
13342SOL    HW241511   7.963   2.451   3.196 -0.5741  1.3946 -0.1219
13343SOL     OW41512   4.741   4.776   3.030  0.3279 -0.0923  0.3437
13343SOL    HW141513   4.732   4.869   3.010 -0.7026 -0.1555  0.4959
13343SOL    HW241514   4.696   4.765   3.114  2.4781 -0.2831  1.5253
13344SOL     OW41515   8.181   1.420   5.692  0.5117  0.5034 -0.0335
13344SOL    HW141516   8.246   1.413   5.622  0.2446 -0.0499 -0.2300
13344SOL    HW241517   8.097   1.421   5.646  0.4017  1.9816  0.1670
13345SOL     OW41518   6.505   5.808   5.006  0.4219 -0.4918  0.3157
13345SOL    HW141519   6.439   5.776   5.067  0.2373 -0.2637  0.2362
13345SOL    HW241520   6.498   5.904   5.010  1.4510 -0.4360  1.0905
13346SOL     OW41521   4.375   7.980   2.932  0.2142 -0.9075 -0.4778
13346SOL    HW141522   4.448   8.007   2.989 -0.5543  0.2509 -0.0459
13346SOL    HW241523   4.358   8.056   2.877 -1.2812 -0.8426  0.0597
13347SOL     OW41524   5.099   8.130   0.449  0.2426  0.1443 -0.6008
13347SOL    HW141525   5.187   8.162   0.467 -1.2472  2.9547  1.9977
13347SOL    HW241526   5.065   8.103   0.534 -2.0370  0.7100 -1.3077
13348SOL     OW41527   3.932   6.203   4.976 -0.6311 -0.3003 -0.2788
13348SOL    HW141528   3.999   6.235   4.915  0.2952 -0.9567  0.3717
13348SOL    HW241529   3.917   6.276   5.035 -0.8131 -0.0016 -0.6872
13349SOL     OW41530   4.941   2.170   1.206  0.6070  0.3554 -0.4955
13349SOL    HW141531   4.873   2.223   1.165 -0.6289  1.5485  2.9080
13349SOL    HW241532   5.023   2.211   1.180 -0.1063  0.7599 -2.1575
13350SOL     OW41533   5.468   7.701   2.848  0.1426 -0.5071  0.3287
13350SOL    HW141534   5.472   7.606   2.833 -0.0568 -0.3956 -0.4360
13350SOL    HW241535   5.378   7.717   2.877  0.3424 -0.6301  1.0311
13351SOL     OW41536   0.344   5.430   5.875  0.1780 -0.0255  0.2743
13351SOL    HW141537   0.267   5.381   5.903 -0.4003  0.6453 -0.1229
13351SOL    HW241538   0.309   5.509   5.834  1.0910  0.5681  0.6118
13352SOL     OW41539   0.688   4.141   5.079 -0.4830  1.0432  0.0052
13352SOL    HW141540   0.615   4.094   5.119  0.4712 -0.3602  0.0991
13352SOL    HW241541   0.760   4.132   5.142  0.3059  0.9162 -0.9084
13353SOL     OW41542   5.619   2.872   4.469 -0.4914 -0.1328  0.0250
13353SOL    HW141543   5.654   2.850   4.555  0.3554 -1.6273 -0.6818
13353SOL    HW241544   5.655   2.959   4.450  0.4057 -0.3676  0.6026
13354SOL     OW41545   3.986   8.010   2.831 -0.3149 -0.0540 -0.0069
13354SOL    HW141546   4.062   7.952   2.836  0.8345  1.4766  0.8357
13354SOL    HW241547   3.919   7.966   2.883  1.0884  0.1470  2.0248
13355SOL     OW41548   3.525   7.846   2.092 -0.0859 -0.5901 -0.3530
13355SOL    HW141549   3.565   7.923   2.053 -0.5546 -0.6292 -0.9146
13355SOL    HW241550   3.551   7.773   2.036 -0.0412 -0.7695 -0.1005
13356SOL     OW41551   1.600   4.596   7.781  0.4819 -0.5973  0.1978
13356SOL    HW141552   1.598   4.525   7.845  1.2735 -1.5640 -0.8307
13356SOL    HW241553   1.590   4.553   7.697 -0.5825  0.6699 -0.3489
13357SOL     OW41554   4.275   4.959   7.383  0.0660  0.1438 -0.0164
13357SOL    HW141555   4.290   5.034   7.326 -1.6316  1.0084  0.6529
13357SOL    HW241556   4.216   4.902   7.333  0.9115 -0.4848 -0.3014
13358SOL     OW41557   0.971   3.692   0.843 -0.3203  0.3718 -0.0001
13358SOL    HW141558   1.052   3.684   0.792 -0.2025  0.1647  0.2182
13358SOL    HW241559   0.943   3.602   0.858  0.2817  0.3913  1.3040
13359SOL     OW41560   7.758   6.691   5.064 -0.5476 -0.2058  0.2728
13359SOL    HW141561   7.670   6.659   5.084 -0.5081 -0.6827 -0.2777
13359SOL    HW241562   7.810   6.612   5.050  0.0565  0.0704  0.9539
13360SOL     OW41563   0.691   7.248   0.011  0.1407 -0.5103  0.2324
13360SOL    HW141564   0.689   7.287   0.098  1.5851 -0.2316  0.1530
13360SOL    HW241565   0.729   7.316  -0.045 -1.7697 -0.2901 -0.8308
13361SOL     OW41566   6.894   3.743   2.463 -0.0258  0.1779 -0.0551
13361SOL    HW141567   6.924   3.793   2.539  0.7839  0.7665 -0.7461
13361SOL    HW241568   6.802   3.766   2.454  0.3288  1.5254 -0.3451
13362SOL     OW41569   3.925   3.859   6.461  0.3312 -0.1479 -0.6786
13362SOL    HW141570   3.991   3.832   6.398  0.7102 -1.1962  0.1308
13362SOL    HW241571   3.943   3.804   6.538  0.2935  1.5527  0.5654
13363SOL     OW41572   6.770   1.690   6.893  0.1233 -0.2541  0.7421
13363SOL    HW141573   6.685   1.654   6.870 -0.6607  1.1001  1.4202
13363SOL    HW241574   6.819   1.616   6.930 -0.6150 -1.1297 -0.0218
13364SOL     OW41575   6.491   2.813   3.192 -0.3443  0.3030 -0.1675
13364SOL    HW141576   6.519   2.732   3.234  0.3378  0.3004 -0.6123
13364SOL    HW241577   6.562   2.875   3.211 -1.4045  1.1290  1.1630
13365SOL     OW41578   0.333   0.772   6.415  0.5014 -0.3918 -0.9200
13365SOL    HW141579   0.302   0.848   6.464 -1.0018  0.2252 -2.7662
13365SOL    HW241580   0.424   0.793   6.394  1.2397 -0.7839  1.8013
13366SOL     OW41581   4.528   7.548   4.154  0.6092 -0.1051  0.7773
13366SOL    HW141582   4.487   7.513   4.233  0.1584 -0.3121  0.4583
13366SOL    HW241583   4.596   7.607   4.186  1.1126 -0.9778  1.3143
13367SOL     OW41584   2.124   4.332   3.064 -0.4507  0.2909 -0.2892
13367SOL    HW141585   2.182   4.293   3.129  0.1280  1.1923 -0.2539
13367SOL    HW241586   2.162   4.304   2.980 -0.6577 -0.1066 -0.2501
13368SOL     OW41587   1.280   2.537   5.103  0.2920 -0.4310  0.0158
13368SOL    HW141588   1.360   2.586   5.123  0.9472 -1.9032  1.0950
13368SOL    HW241589   1.281   2.528   5.007  2.0562 -1.4910  0.1152
13369SOL     OW41590   5.322   5.120   3.327  0.0134 -0.1824 -0.8270
13369SOL    HW141591   5.273   5.195   3.294 -1.6397 -0.1730  1.5533
13369SOL    HW241592   5.268   5.085   3.398  1.8603 -2.2221 -0.3732
13370SOL     OW41593   0.919   8.129   8.220  0.6728  0.2457  0.2781
13370SOL    HW141594   0.826   8.131   8.198  0.6414  1.3612  0.4622
13370SOL    HW241595   0.957   8.067   8.158  0.4124  2.5966 -2.3713
13371SOL     OW41596   0.330   1.131   7.070  0.0294 -0.6880  0.4401
13371SOL    HW141597   0.308   1.126   6.977 -1.7154 -0.2036  0.8090
13371SOL    HW241598   0.246   1.118   7.115  0.5489  0.9317  1.9144
13372SOL     OW41599   5.444   1.589   7.348 -0.0686  0.0461  0.3883
13372SOL    HW141600   5.391   1.509   7.351 -0.2346  0.1390  0.0076
13372SOL    HW241601   5.466   1.607   7.440  1.3346 -1.3371  0.3486
13373SOL     OW41602   3.770   5.275   3.857  0.4319 -0.2204 -0.0430
13373SOL    HW141603   3.693   5.322   3.825 -0.0672  0.4697  2.0815
13373SOL    HW241604   3.844   5.320   3.816 -0.1993  0.1143 -0.8490
13374SOL     OW41605   7.459   7.590   4.298  0.2441 -0.7838 -0.0059
13374SOL    HW141606   7.430   7.680   4.311  0.1327 -0.9091  0.6256
13374SOL    HW241607   7.380   7.542   4.274  0.3733 -0.6409 -0.7538
13375SOL     OW41608   0.799   7.191   3.627  0.3456  0.6384 -0.1192
13375SOL    HW141609   0.844   7.152   3.701  2.2524  2.2051 -0.3917
13375SOL    HW241610   0.706   7.180   3.646  0.8161 -2.0750  0.7871
13376SOL     OW41611   2.611   0.399   2.959  0.1720 -0.5270 -0.0172
13376SOL    HW141612   2.590   0.309   2.934 -2.4621 -0.1672  0.7484
13376SOL    HW241613   2.598   0.449   2.879 -1.1023 -0.4252  0.2525
13377SOL     OW41614   0.069   6.046   5.169 -0.5237  0.0320  0.3100
13377SOL    HW141615   0.053   6.122   5.225 -0.2601  0.8926 -0.7718
13377SOL    HW241616  -0.015   6.000   5.166 -1.0053  0.9310 -0.0014
13378SOL     OW41617   4.899   1.182   1.850  0.1005 -0.0701 -0.6092
13378SOL    HW141618   4.827   1.157   1.908  0.6572 -1.3913 -0.4714
13378SOL    HW241619   4.858   1.237   1.783 -0.8411  0.0866  0.0805
13379SOL     OW41620   5.898   5.543   4.635 -0.0832 -0.5110 -0.4102
13379SOL    HW141621   5.821   5.600   4.635 -0.5363 -1.1220 -0.3239
13379SOL    HW241622   5.969   5.598   4.669 -0.7817 -0.3595  0.8094
13380SOL     OW41623   5.549   2.486   3.942 -0.4795  0.6782 -0.2598
13380SOL    HW141624   5.591   2.465   4.025  0.7859  0.9555 -0.8066
13380SOL    HW241625   5.482   2.419   3.931 -0.7608  0.7311  1.0499
13381SOL     OW41626   8.197   3.584   4.660 -0.0643  0.2531 -0.4760
13381SOL    HW141627   8.124   3.522   4.655  1.6106 -1.7865 -0.5067
13381SOL    HW241628   8.263   3.538   4.711  0.9560  2.3501  0.1384
13382SOL     OW41629   3.943   7.158   3.665  0.3604 -0.3428  0.1859
13382SOL    HW141630   3.912   7.084   3.716  1.1862 -0.3265  0.7167
13382SOL    HW241631   4.035   7.169   3.690  1.1132 -1.0235 -2.1078
13383SOL     OW41632   4.137   4.662   5.751 -0.2244  0.7230  0.0386
13383SOL    HW141633   4.168   4.696   5.835 -2.7643  3.1207  0.0885
13383SOL    HW241634   4.140   4.737   5.692 -0.5783 -0.3815 -1.4088
13384SOL     OW41635   0.656   4.909   7.158 -1.0401  0.0354 -0.0627
13384SOL    HW141636   0.620   4.869   7.078  0.8603 -0.2959 -0.7779
13384SOL    HW241637   0.732   4.958   7.128  0.4285 -1.1060  1.7173
13385SOL     OW41638   3.634   1.089   7.657 -0.8830 -0.0739 -0.5693
13385SOL    HW141639   3.587   1.169   7.680 -1.9012 -1.1602  1.3331
13385SOL    HW241640   3.722   1.102   7.692 -0.5983  0.8041 -1.5903
13386SOL     OW41641   1.017   3.361   2.782 -0.2810  0.4344 -0.7859
13386SOL    HW141642   1.048   3.272   2.767 -0.7396  0.0842  0.2549
13386SOL    HW241643   1.012   3.368   2.878 -0.8183  1.3723 -0.8788
13387SOL     OW41644   7.582   1.394   7.680 -0.1880  0.6036  0.7430
13387SOL    HW141645   7.674   1.417   7.672 -0.2514  0.1908 -1.3300
13387SOL    HW241646   7.582   1.310   7.727  0.4905  0.5080  0.5758
13388SOL     OW41647   4.248   4.401   1.107 -0.0050  0.5620 -0.0007
13388SOL    HW141648   4.156   4.426   1.112 -0.1526  0.6199 -2.3547
13388SOL    HW241649   4.270   4.409   1.014  2.9201  2.4435  0.7912
13389SOL     OW41650   5.382   0.180   2.753  0.5596  0.7788 -0.1922
13389SOL    HW141651   5.433   0.137   2.684  0.9402  1.9937 -0.6828
13389SOL    HW241652   5.404   0.132   2.833 -1.3433 -1.8884 -1.1774
13390SOL     OW41653   2.439   8.067   1.068  0.4017 -0.1796 -0.2946
13390SOL    HW141654   2.484   7.992   1.029  0.5807 -0.0159 -0.4036
13390SOL    HW241655   2.358   8.030   1.104 -0.1476 -0.2015 -1.5273
13391SOL     OW41656   5.941   1.332   2.005  0.1293  0.0350 -0.1300
13391SOL    HW141657   5.860   1.353   2.053  0.2328  0.8893 -0.3256
13391SOL    HW241658   5.913   1.325   1.914  0.4652  1.4260 -0.3470
13392SOL     OW41659   7.762   7.160   7.531  0.0302  0.0934 -0.1971
13392SOL    HW141660   7.706   7.082   7.531  2.3596 -1.6307 -0.5272
13392SOL    HW241661   7.827   7.143   7.599 -0.3188  2.4641  0.7882
13393SOL     OW41662   1.791   3.308   8.141 -0.2333  0.0894  0.4243
13393SOL    HW141663   1.739   3.383   8.114  0.8869  0.7986  0.2216
13393SOL    HW241664   1.813   3.263   8.059 -1.3289 -0.7605  0.5795
13394SOL     OW41665   6.443   3.201   0.008 -0.6628  0.3032  0.0788
13394SOL    HW141666   6.378   3.251   0.058 -1.3260 -0.3428 -0.1358
13394SOL    HW241667   6.469   3.130   0.067  0.2863  0.8880  0.3860
13395SOL     OW41668   2.366   3.125   4.510 -0.1450 -0.3307 -0.1032
13395SOL    HW141669   2.334   3.173   4.435 -0.2614 -0.3964 -0.0957
13395SOL    HW241670   2.404   3.191   4.567 -1.1874 -0.1211  0.3618
13396SOL     OW41671   1.940   7.710   6.037 -0.3905  0.5845 -0.1778
13396SOL    HW141672   1.900   7.763   6.106  0.6039  0.4767  0.4968
13396SOL    HW241673   1.940   7.621   6.071 -1.7282  0.1983 -1.1611
13397SOL     OW41674   8.193   4.858   5.794  0.0053 -0.4916  0.0206
13397SOL    HW141675   8.180   4.853   5.888  0.9153  0.3690  0.2084
13397SOL    HW241676   8.201   4.952   5.776 -1.0813 -0.5810 -1.0486
13398SOL     OW41677   3.759   3.258   5.866  0.2830  0.4344  0.2843
13398SOL    HW141678   3.853   3.265   5.850  0.4871 -0.1976  1.1789
13398SOL    HW241679   3.732   3.348   5.888  0.9003  0.4086  1.1848
13399SOL     OW41680   6.840   0.313   4.772  0.1080 -0.5170  0.4407
13399SOL    HW141681   6.789   0.232   4.775  0.2482 -0.5667  2.1405
13399SOL    HW241682   6.774   0.383   4.768 -0.1217 -0.6118  1.9879
13400SOL     OW41683   4.160   7.449   5.228  0.2871 -0.1685 -0.1492
13400SOL    HW141684   4.162   7.544   5.219 -1.6676 -0.0353  0.5417
13400SOL    HW241685   4.178   7.433   5.320  2.1322 -0.5765 -0.5534
13401SOL     OW41686   6.133   6.486   3.134  0.2237 -0.0007 -0.2060
13401SOL    HW141687   6.209   6.446   3.091 -2.2390 -0.1094 -4.7747
13401SOL    HW241688   6.095   6.414   3.185  1.3585 -0.8249 -0.4817
13402SOL     OW41689   4.856   7.649   0.923 -0.3541  0.0824 -0.0266
13402SOL    HW141690   4.874   7.736   0.958 -2.3388  0.2844  0.5686
13402SOL    HW241691   4.841   7.662   0.830 -1.9235  0.6037  0.2769
13403SOL     OW41692   1.357   6.753   7.285  0.2275 -0.0480  0.4207
13403SOL    HW141693   1.379   6.818   7.218  2.3857 -0.2548  0.8887
13403SOL    HW241694   1.358   6.669   7.238  2.1881 -0.2438  0.7664
13404SOL     OW41695   2.933   0.956   7.908  0.3233  0.6711 -0.2989
13404SOL    HW141696   2.923   1.009   7.830 -0.1162 -0.3837 -0.9696
13404SOL    HW241697   2.843   0.939   7.938  0.4883  1.1137  0.4597
13405SOL     OW41698   2.386   1.738   0.581  0.4059  0.4088 -0.0569
13405SOL    HW141699   2.456   1.674   0.566  0.5399  0.7863 -1.1120
13405SOL    HW241700   2.332   1.733   0.502 -1.2959 -0.5348  1.1527
13406SOL     OW41701   1.102   7.869   5.294 -0.6451 -0.0573  0.4719
13406SOL    HW141702   1.043   7.852   5.368 -1.9818  0.6337 -0.4227
13406SOL    HW241703   1.153   7.788   5.286 -0.9108 -0.3700  1.7504
13407SOL     OW41704   2.358   7.201   8.106  0.0376 -0.2423 -0.1514
13407SOL    HW141705   2.333   7.162   8.190 -3.4284 -1.2663 -1.5437
13407SOL    HW241706   2.392   7.127   8.055  1.0635  0.1610 -0.0665
13408SOL     OW41707   0.967   0.130   6.515  0.0642 -0.7884 -0.1537
13408SOL    HW141708   1.018   0.090   6.586 -0.4694 -1.6715 -0.2654
13408SOL    HW241709   0.946   0.218   6.548  0.0132 -1.1069  0.6935
13409SOL     OW41710   4.455   1.696   7.996 -0.1416 -0.2051 -0.2252
13409SOL    HW141711   4.522   1.644   7.950 -0.2171 -0.6597  0.1675
13409SOL    HW241712   4.475   1.684   8.089 -0.0083  0.6852 -0.1341
13410SOL     OW41713   0.209   3.252   7.239 -0.1781 -0.2199  0.2117
13410SOL    HW141714   0.136   3.219   7.186  1.4961 -0.8062 -1.8347
13410SOL    HW241715   0.216   3.345   7.215 -0.7640  0.0512  1.0537
13411SOL     OW41716   6.376   4.525   4.305  0.1702 -0.2198 -0.1919
13411SOL    HW141717   6.436   4.600   4.300  0.4667 -0.4621 -0.2757
13411SOL    HW241718   6.378   4.486   4.218 -0.5304  0.0965 -0.3495
13412SOL     OW41719   0.743   5.462   6.538 -0.6604  0.2237 -0.1731
13412SOL    HW141720   0.741   5.520   6.462 -2.0265  1.2213  0.5966
13412SOL    HW241721   0.651   5.450   6.561 -0.2800 -0.3073  1.1321
13413SOL     OW41722   2.537   4.080   2.592  0.3826 -0.0930 -0.2747
13413SOL    HW141723   2.603   4.034   2.644  1.2093  1.9231  0.5309
13413SOL    HW241724   2.571   4.076   2.503  0.9943 -0.1021 -0.0466
13414SOL     OW41725   2.177   2.966   7.460  0.5409 -0.0487  0.1283
13414SOL    HW141726   2.235   3.040   7.441 -1.1247  1.1515 -0.3439
13414SOL    HW241727   2.186   2.953   7.555  1.2950  0.3667  0.1184
13415SOL     OW41728   1.346   0.663   0.624  0.1490  0.9125 -0.1672
13415SOL    HW141729   1.328   0.617   0.706  2.4439  0.2416  0.0049
13415SOL    HW241730   1.327   0.754   0.643 -0.6678  0.5750  0.6890
13416SOL     OW41731   7.405   5.614   4.523 -0.1115  0.5661 -0.1378
13416SOL    HW141732   7.496   5.639   4.506 -0.3040  0.9364 -0.6313
13416SOL    HW241733   7.368   5.600   4.436 -1.1272  2.5329 -0.0540
13417SOL     OW41734   2.284   2.156   6.598  0.0974 -0.1616  0.0518
13417SOL    HW141735   2.313   2.092   6.663 -0.4875 -1.1182 -0.6060
13417SOL    HW241736   2.336   2.234   6.616  2.7293 -1.6534 -0.7508
13418SOL     OW41737   7.904   1.608   0.188 -0.0270  0.1065  0.6955
13418SOL    HW141738   7.930   1.532   0.240 -0.7781  0.6721  1.9429
13418SOL    HW241739   7.809   1.596   0.175  0.2373 -0.2886 -1.0129
13419SOL     OW41740   5.983   5.273   3.491  0.0004 -0.2352  0.2405
13419SOL    HW141741   5.922   5.235   3.554 -0.9512  1.5514  0.4001
13419SOL    HW241742   5.954   5.363   3.479  0.5871 -0.3139 -2.2222
13420SOL     OW41743   1.439   6.110   3.515 -0.7484 -0.3072 -0.2356
13420SOL    HW141744   1.420   6.151   3.600  2.1844  0.7893 -0.0542
13420SOL    HW241745   1.400   6.023   3.522 -2.0630  0.3846  1.5682
13421SOL     OW41746   8.264   3.999   7.581  0.1584 -0.4204  0.5327
13421SOL    HW141747   8.182   4.048   7.578  0.7789  0.6948  1.3717
13421SOL    HW241748   8.291   3.991   7.489  0.3503  1.3458  0.4199
13422SOL     OW41749   4.891   7.897   4.006 -0.2502 -0.1922 -0.0944
13422SOL    HW141750   4.932   7.883   3.920  0.2968  0.0328  0.1262
13422SOL    HW241751   4.814   7.951   3.987  0.9346  1.5147 -0.2240
13423SOL     OW41752   0.885   7.691   5.038 -0.1107 -0.3820 -0.4342
13423SOL    HW141753   0.896   7.647   5.122 -2.1411  0.0344  0.0846
13423SOL    HW241754   0.850   7.624   4.979  0.7221 -0.5175 -0.7742
13424SOL     OW41755   5.058   5.558   3.339  0.1251  0.4690  0.0704
13424SOL    HW141756   5.026   5.605   3.262  0.6623  0.3768 -0.2127
13424SOL    HW241757   4.998   5.583   3.410  0.5896  1.8025 -0.0038
13425SOL     OW41758   7.848   3.091   4.315 -0.2690  0.1687  0.3110
13425SOL    HW141759   7.754   3.073   4.310  0.2273 -2.0624 -1.1208
13425SOL    HW241760   7.856   3.181   4.282 -1.6946 -0.2764 -1.3338
13426SOL     OW41761   1.143   3.241   4.534 -0.2874  0.3553  0.0002
13426SOL    HW141762   1.218   3.280   4.489  0.5147 -1.5545 -0.3733
13426SOL    HW241763   1.067   3.283   4.494  0.5275  0.9229 -0.9751
13427SOL     OW41764   0.916   6.990   4.717  0.1010  0.5161 -0.0281
13427SOL    HW141765   0.845   6.927   4.725 -0.1353  0.6052 -1.3058
13427SOL    HW241766   0.996   6.938   4.729 -0.1466  0.2759  0.5969
13428SOL     OW41767   0.131   0.532   7.947  0.5498  0.0713 -0.3092
13428SOL    HW141768   0.169   0.605   7.898  1.3751  0.6191  1.1211
13428SOL    HW241769   0.038   0.533   7.923  0.8954  0.4671 -1.6786
13429SOL     OW41770   7.025   3.243   7.862  0.4271 -0.8609  0.1087
13429SOL    HW141771   6.990   3.280   7.781  1.7864 -0.7244 -0.4375
13429SOL    HW241772   6.976   3.287   7.932  0.4007  0.2525 -0.5955
13430SOL     OW41773   6.590   0.280   2.769  0.1066 -0.0227 -0.4274
13430SOL    HW141774   6.505   0.252   2.734  0.5677  0.3064 -1.8286
13430SOL    HW241775   6.568   0.319   2.854 -1.0908 -0.3527 -0.5667
13431SOL     OW41776   7.799   5.323   0.555  0.0557  0.3558 -0.0292
13431SOL    HW141777   7.813   5.231   0.534  1.1374  0.6061 -0.3774
13431SOL    HW241778   7.703   5.334   0.552 -0.0608 -0.7030 -0.1696
13432SOL     OW41779   5.267   1.512   5.263  0.1564 -0.3038 -0.2069
13432SOL    HW141780   5.348   1.523   5.214  1.0382 -0.9778  1.0649
13432SOL    HW241781   5.294   1.470   5.345 -1.3804  0.1152  0.5331
13433SOL     OW41782   6.957   6.034   6.077 -0.2159 -0.4648  0.2005
13433SOL    HW141783   6.997   6.005   6.160  1.0403  1.2512  0.2164
13433SOL    HW241784   6.885   6.090   6.104  1.1681  1.3833  0.1605
13434SOL     OW41785   0.109   4.320   5.214 -0.0329  0.6479 -0.0252
13434SOL    HW141786   0.101   4.231   5.250  1.3241 -0.2379 -1.8215
13434SOL    HW241787   0.132   4.374   5.290 -0.8057 -0.5424  1.0864
13435SOL     OW41788   5.465   3.953   5.908  0.0501 -0.2735  0.5276
13435SOL    HW141789   5.394   3.968   5.845  0.1914  0.9207  0.6477
13435SOL    HW241790   5.543   3.987   5.864  0.5160 -1.4175  0.4692
13436SOL     OW41791   2.201   0.882   3.423  0.4753 -0.1551 -0.2657
13436SOL    HW141792   2.172   0.818   3.488  1.7026  1.2907  1.7509
13436SOL    HW241793   2.135   0.952   3.428  1.3192  0.6051  0.4494
13437SOL     OW41794   2.458   3.725   4.185 -0.8477  0.1767 -0.1278
13437SOL    HW141795   2.467   3.811   4.225 -1.8010 -0.5204  1.7096
13437SOL    HW241796   2.525   3.721   4.117 -0.3079  2.0698  0.2838
13438SOL     OW41797   1.879   0.811   1.988  0.0317  0.2043  0.3996
13438SOL    HW141798   1.794   0.821   2.031 -1.3132 -0.2233 -2.0993
13438SOL    HW241799   1.905   0.900   1.963 -0.0567  0.2447  0.4532
13439SOL     OW41800   1.769   0.995   1.513 -0.1144 -0.2109 -0.4821
13439SOL    HW141801   1.686   0.996   1.465  0.8218 -1.3485 -2.2113
13439SOL    HW241802   1.820   1.066   1.474 -0.3489  0.6413  0.7404
13440SOL     OW41803   0.624   3.253   3.879 -0.1044  0.3065  0.2776
13440SOL    HW141804   0.564   3.234   3.951 -0.2346  0.6566  0.2622
13440SOL    HW241805   0.693   3.308   3.918  1.1291 -1.4819  0.6897
13441SOL     OW41806   4.282   2.727   0.127 -0.8364  0.2743  0.4426
13441SOL    HW141807   4.354   2.665   0.137 -0.7116  0.4449  0.6064
13441SOL    HW241808   4.287   2.784   0.204 -1.5491 -0.1162  0.7857
13442SOL     OW41809   2.334   7.189   4.592 -0.6281 -0.3846  0.1411
13442SOL    HW141810   2.309   7.238   4.671 -2.9030 -0.0838 -0.7048
13442SOL    HW241811   2.330   7.097   4.619 -0.1506 -0.2430  0.7103
13443SOL     OW41812   1.184   2.198   2.347 -0.2013  0.4645  0.1473
13443SOL    HW141813   1.195   2.255   2.271 -0.2798 -0.2499 -0.3968
13443SOL    HW241814   1.258   2.137   2.343 -1.4915 -1.0729 -0.6675
13444SOL     OW41815   0.555   6.849   7.715 -0.2303  0.5063 -0.1277
13444SOL    HW141816   0.633   6.803   7.682  0.0121 -0.3203  1.5341
13444SOL    HW241817   0.577   6.942   7.706  0.3304  0.2868 -1.1086
13445SOL     OW41818   6.006   4.574   3.799 -0.0153 -0.0273  0.0362
13445SOL    HW141819   5.914   4.549   3.807  0.1800 -0.6204  0.4624
13445SOL    HW241820   6.009   4.631   3.722 -0.6639 -0.3539 -0.2321
13446SOL     OW41821   7.056   0.876   5.050 -0.1489 -0.2939  0.3140
13446SOL    HW141822   7.090   0.838   5.131 -0.7546  0.4133  0.8955
13446SOL    HW241823   6.999   0.947   5.078  0.0731  0.3084 -0.7513
13447SOL     OW41824   5.809   1.188   4.083  0.6635 -0.3816  0.4042
13447SOL    HW141825   5.896   1.150   4.070  0.3047 -0.9509 -0.3752
13447SOL    HW241826   5.826   1.272   4.125  1.7294  0.3608 -1.4536
13448SOL     OW41827   1.175   1.627   6.141 -0.1015 -0.0638  0.1793
13448SOL    HW141828   1.098   1.677   6.112 -0.2153 -0.5520 -0.3879
13448SOL    HW241829   1.169   1.626   6.236 -0.6226  0.1853  0.1521
13449SOL     OW41830   2.879   0.385   2.811 -0.0281  0.4159 -0.0341
13449SOL    HW141831   2.860   0.464   2.861 -1.4022  0.6889 -0.9523
13449SOL    HW241832   2.844   0.403   2.723  0.4206 -0.8694 -0.4873
13450SOL     OW41833   1.261   0.607   5.265  0.6152  0.0008 -0.2575
13450SOL    HW141834   1.203   0.598   5.340  1.7728 -2.1703  0.4409
13450SOL    HW241835   1.247   0.696   5.233 -0.3476  0.7341  2.1466
13451SOL     OW41836   1.153   1.412   8.267  0.0460  0.0848 -0.1483
13451SOL    HW141837   1.201   1.433   8.347 -0.8926  2.0262 -0.0774
13451SOL    HW241838   1.211   1.352   8.219  1.2812  0.1440  1.2578
13452SOL     OW41839   3.621   3.982   0.844 -0.4017 -0.3611  0.1198
13452SOL    HW141840   3.664   3.908   0.799 -2.0803 -1.1203 -0.2768
13452SOL    HW241841   3.620   3.956   0.936  1.3562  0.3541  0.3558
13453SOL     OW41842   2.149   3.336   7.980  0.2777  0.1767 -0.4234
13453SOL    HW141843   2.087   3.405   7.961  0.4525 -0.0632 -1.9015
13453SOL    HW241844   2.231   3.382   7.998 -0.2563  0.4824  1.3451
13454SOL     OW41845   7.775   1.499   6.859 -0.0077 -0.4330  0.1684
13454SOL    HW141846   7.690   1.527   6.825  0.2530  1.0117  0.6844
13454SOL    HW241847   7.755   1.422   6.913 -0.9848 -0.1298  0.2463
13455SOL     OW41848   4.763   4.280   1.746  0.5313 -0.7078  0.1640
13455SOL    HW141849   4.742   4.370   1.719  1.4437 -0.5253  0.0316
13455SOL    HW241850   4.729   4.226   1.674 -2.3892 -0.6980  1.4740
13456SOL     OW41851   3.379   1.547   1.355  0.0786 -0.3171 -0.6304
13456SOL    HW141852   3.322   1.474   1.380  0.9115 -0.6424  0.3731
13456SOL    HW241853   3.461   1.531   1.403  0.8245  0.4319 -1.6285
13457SOL     OW41854   7.467   6.069   4.339  0.0639  0.0378 -0.3571
13457SOL    HW141855   7.513   6.053   4.257 -0.8716 -0.9690 -0.6970
13457SOL    HW241856   7.386   6.112   4.313  0.9828  2.2229  0.2708
13458SOL     OW41857   7.202   7.361   6.427  0.1431  0.1666 -0.5214
13458SOL    HW141858   7.277   7.385   6.482  1.1706  2.0783 -2.6999
13458SOL    HW241859   7.214   7.267   6.413  1.2574  0.1366  0.4642
13459SOL     OW41860   2.384   4.463   6.492 -0.2518 -0.6349 -0.0275
13459SOL    HW141861   2.310   4.411   6.459  0.6195 -0.8725 -1.7087
13459SOL    HW241862   2.458   4.435   6.438  0.6013  1.1541  0.1763
13460SOL     OW41863   7.637   1.053   5.875 -0.2518  0.6948 -0.2668
13460SOL    HW141864   7.667   1.138   5.906  3.2004 -1.1226  1.7249
13460SOL    HW241865   7.609   1.008   5.955  0.7227 -1.0666 -0.9060
13461SOL     OW41866   2.431   4.909   7.670  0.1512 -0.0095  0.5925
13461SOL    HW141867   2.414   5.000   7.696 -0.1828 -0.1357  0.8200
13461SOL    HW241868   2.365   4.858   7.717  1.8611 -0.6237  2.3575
13462SOL     OW41869   6.523   3.052   2.448  0.6255  0.3310 -0.5318
13462SOL    HW141870   6.532   2.957   2.442  1.5397  0.3611  0.3493
13462SOL    HW241871   6.601   3.081   2.495  0.0159  1.4514 -0.1952
13463SOL     OW41872   0.084   4.153   0.996 -0.3669  0.3268 -0.0786
13463SOL    HW141873  -0.010   4.138   0.988 -0.4936  1.1203 -0.1228
13463SOL    HW241874   0.118   4.139   0.908 -0.3648 -0.4936  0.0502
13464SOL     OW41875   3.821   0.975   0.851  0.2970  0.3276  0.1792
13464SOL    HW141876   3.898   0.932   0.889 -0.4251 -0.3355  0.8978
13464SOL    HW241877   3.845   0.989   0.759  1.4015  0.4232  0.4656
13465SOL     OW41878   3.772   0.028   4.960  0.0436  0.0565  0.4597
13465SOL    HW141879   3.718  -0.049   4.943 -0.2523  0.7135 -1.8264
13465SOL    HW241880   3.853   0.011   4.913  0.6510  0.3954  1.3766
13466SOL     OW41881   5.786   0.153   3.462  0.1484 -0.1015  0.0772
13466SOL    HW141882   5.732   0.113   3.395  0.0049 -1.0925  0.7772
13466SOL    HW241883   5.766   0.247   3.455 -0.0927 -0.2298 -1.0470
13467SOL     OW41884   7.826   7.308   1.843 -0.0818 -0.5603 -0.6887
13467SOL    HW141885   7.865   7.386   1.883  0.6946 -0.2095 -2.0965
13467SOL    HW241886   7.839   7.238   1.908 -0.3728  0.3758  0.3805
13468SOL     OW41887   3.974   1.312   6.409 -0.2458 -0.7048 -1.0841
13468SOL    HW141888   4.060   1.272   6.424  0.0567 -0.5714 -2.4459
13468SOL    HW241889   3.922   1.242   6.369 -0.7302 -0.7282 -0.4322
13469SOL     OW41890   6.010   2.979   4.267 -0.1074  0.3003  0.5878
13469SOL    HW141891   5.938   2.925   4.300  1.0730 -1.5454  0.1993
13469SOL    HW241892   6.068   2.918   4.222  0.6883  2.0819 -0.8592
13470SOL     OW41893   5.231   4.664   7.674 -0.2024 -0.1242  0.4785
13470SOL    HW141894   5.286   4.705   7.608 -1.7892  0.4093 -0.5590
13470SOL    HW241895   5.281   4.589   7.705  0.7347 -0.1513 -1.0668
13471SOL     OW41896   6.309   2.243   4.524  0.2278 -0.6250  0.0949
13471SOL    HW141897   6.318   2.299   4.601  1.0251 -0.6749  0.0430
13471SOL    HW241898   6.390   2.192   4.522 -0.7672 -2.2341  0.4998
13472SOL     OW41899   4.677   6.728   1.099  0.3230 -0.2924 -0.1273
13472SOL    HW141900   4.722   6.793   1.153 -0.1015  0.3107 -0.4990
13472SOL    HW241901   4.689   6.645   1.147  0.7220  0.0799  0.4261
13473SOL     OW41902   2.490   1.516   0.093 -0.0585  1.1755  0.1816
13473SOL    HW141903   2.540   1.498   0.172 -1.3479 -0.3250  0.6857
13473SOL    HW241904   2.410   1.557   0.124 -1.7265 -1.7565 -0.0690
13474SOL     OW41905   6.610   8.153   1.676  0.4483 -0.3626 -0.3525
13474SOL    HW141906   6.575   8.219   1.735 -0.6201 -0.4076 -0.9173
13474SOL    HW241907   6.580   8.180   1.589 -0.0928 -1.6331 -0.5749
13475SOL     OW41908   4.936   5.690   1.751  0.0283 -0.4732  0.0522
13475SOL    HW141909   4.921   5.779   1.720  1.7280 -0.4621 -0.7952
13475SOL    HW241910   4.953   5.699   1.844 -1.1091 -0.0717  0.2329
13476SOL     OW41911   1.322   2.004   1.570 -0.2723 -0.1144  0.1660
13476SOL    HW141912   1.276   1.929   1.610 -1.1628 -0.0554 -0.7258
13476SOL    HW241913   1.338   1.977   1.480 -0.3202  0.6585 -0.0775
13477SOL     OW41914   4.991   2.691   6.356  0.1375 -0.0329 -0.3551
13477SOL    HW141915   5.007   2.634   6.431  0.0015 -1.6010 -1.4973
13477SOL    HW241916   5.024   2.642   6.281  1.1214  1.9119 -1.2160
13478SOL     OW41917   5.978   3.346   5.459  0.0573 -0.0252  0.1400
13478SOL    HW141918   5.936   3.261   5.475 -0.5008  0.1322 -0.4745
13478SOL    HW241919   6.071   3.328   5.468 -0.0758 -0.6195  0.4109
13479SOL     OW41920   5.028   5.285   6.783 -0.1447  0.7452  0.8828
13479SOL    HW141921   5.037   5.201   6.828 -0.3206  0.3180  0.1246
13479SOL    HW241922   4.935   5.290   6.760 -0.2148  1.3342  1.2871
13480SOL     OW41923   2.748   7.463   1.125  0.6168 -0.5700 -0.0899
13480SOL    HW141924   2.717   7.398   1.188 -0.1425 -0.3034 -0.1784
13480SOL    HW241925   2.842   7.468   1.140  0.4147 -0.3515  1.1895
13481SOL     OW41926   1.260   2.943   5.533 -1.1310 -0.1148 -0.0937
13481SOL    HW141927   1.259   2.910   5.443 -1.0059  0.3926 -0.2801
13481SOL    HW241928   1.300   3.030   5.527  1.4443 -1.1837  0.8236
13482SOL     OW41929   4.002   2.701   0.084  0.5692 -0.8029  0.3736
13482SOL    HW141930   4.096   2.707   0.102  0.4395 -0.0417  0.8268
13482SOL    HW241931   3.963   2.770   0.138 -0.0375  0.2896 -1.4303
13483SOL     OW41932   2.848   0.713   0.643 -0.2934  0.3601  0.2113
13483SOL    HW141933   2.927   0.766   0.631  2.0528 -3.4707 -2.0402
13483SOL    HW241934   2.867   0.658   0.719  0.1653 -2.0826 -1.6077
13484SOL     OW41935   1.504   4.369   2.122  0.2479 -0.2294 -0.3114
13484SOL    HW141936   1.571   4.422   2.166 -0.8206 -0.1942  1.3338
13484SOL    HW241937   1.442   4.346   2.192 -0.7129 -1.4257 -1.5283
13485SOL     OW41938   7.454   4.557   7.890  0.0760  0.6849  0.0006
13485SOL    HW141939   7.527   4.547   7.829 -0.9081  1.2916 -1.2819
13485SOL    HW241940   7.390   4.490   7.864 -0.5998  1.3261 -0.0021
13486SOL     OW41941   2.417   3.936   3.782 -0.1796 -0.1110  0.6192
13486SOL    HW141942   2.340   3.993   3.773 -0.1187 -0.3435 -1.4840
13486SOL    HW241943   2.490   3.997   3.793  0.0944  0.3553 -3.1176
13487SOL     OW41944   6.033   1.004   3.397  0.3046  0.0700 -0.7095
13487SOL    HW141945   6.094   1.000   3.471  0.6829 -0.9335 -1.0660
13487SOL    HW241946   5.948   0.983   3.435  0.2407  1.0133 -0.2983
13488SOL     OW41947   3.446   2.078   5.077  0.0804  0.4029  0.3015
13488SOL    HW141948   3.381   2.024   5.122 -1.1164  1.6882  0.1614
13488SOL    HW241949   3.492   2.017   5.019  1.8534 -1.3460  3.4116
13489SOL     OW41950   2.186   6.885   1.829  0.2141  0.6192 -0.6737
13489SOL    HW141951   2.110   6.843   1.789 -0.9023  1.3923  0.5837
13489SOL    HW241952   2.260   6.830   1.805 -0.8556 -0.5892 -1.2423
13490SOL     OW41953   3.730   0.563   5.457  0.8362  0.3208  0.0652
13490SOL    HW141954   3.745   0.654   5.484  1.7134  0.0617  0.4611
13490SOL    HW241955   3.763   0.559   5.367  2.7647 -0.1255  0.7686
13491SOL     OW41956   1.898   4.139   8.104 -0.7389  0.0713  0.4248
13491SOL    HW141957   1.809   4.141   8.140 -0.2282 -0.2767  1.7165
13491SOL    HW241958   1.903   4.217   8.048 -1.3263  0.9927  1.6277
13492SOL     OW41959   5.522   4.317   2.386  0.2343  0.2480 -0.1663
13492SOL    HW141960   5.432   4.286   2.386  0.3308 -0.0365 -1.1122
13492SOL    HW241961   5.542   4.331   2.479 -1.0229  1.0393  0.0036
13493SOL     OW41962   3.026   6.618   4.025 -0.1210 -0.0782 -0.0695
13493SOL    HW141963   3.063   6.546   3.973  1.5192  0.9819 -0.3901
13493SOL    HW241964   3.067   6.608   4.111 -1.0260 -0.3993  0.3329
13494SOL     OW41965   7.544   8.178   5.126  0.4218 -0.0168 -0.4217
13494SOL    HW141966   7.556   8.084   5.113 -2.0690 -0.3329 -0.6155
13494SOL    HW241967   7.534   8.188   5.220 -0.9971 -0.1654 -0.5519
13495SOL     OW41968   5.801   7.051   0.734 -0.0132 -0.0355  0.5189
13495SOL    HW141969   5.841   7.106   0.667 -2.4494  1.2129  0.0239
13495SOL    HW241970   5.861   6.977   0.744  1.2729  0.6693 -1.7665
13496SOL     OW41971   1.592   5.700   0.841  0.0957 -0.1753 -0.3015
13496SOL    HW141972   1.522   5.762   0.861  0.0102 -1.1008  2.4620
13496SOL    HW241973   1.631   5.679   0.925  0.9397 -2.9406 -1.3017
13497SOL     OW41974   5.396   5.463   6.388  0.1678 -0.5935  0.0670
13497SOL    HW141975   5.398   5.390   6.327 -0.5310 -0.8819  0.3884
13497SOL    HW241976   5.356   5.535   6.338 -1.3391 -1.1189  0.4910
13498SOL     OW41977   7.946   6.075   5.747  0.3706  0.3512 -0.4223
13498SOL    HW141978   8.030   6.105   5.714  0.6334  0.2215  0.1320
13498SOL    HW241979   7.885   6.146   5.726  0.9420  1.1812  0.6688
13499SOL     OW41980   6.798   8.268   4.540 -0.5037 -0.0493 -0.1489
13499SOL    HW141981   6.785   8.173   4.528  3.5349 -0.7929  0.7669
13499SOL    HW241982   6.823   8.299   4.453  0.6727 -0.2820  0.1059
13500SOL     OW41983   8.057   4.510   7.085 -0.6699 -0.4875  0.4383
13500SOL    HW141984   8.058   4.487   6.992  2.2655 -3.4642  1.1407
13500SOL    HW241985   8.114   4.587   7.091  0.5129 -1.3181 -0.0002
13501SOL     OW41986   6.566   5.039   3.051 -0.1458 -0.0546 -0.3310
13501SOL    HW141987   6.561   5.027   3.146 -0.3600  0.3881 -0.2832
13501SOL    HW241988   6.631   4.976   3.022  0.7840  0.6099  0.2656
13502SOL     OW41989   1.867   1.338   4.925  0.1434 -0.2345  0.2294
13502SOL    HW141990   1.868   1.344   4.830 -1.9900 -1.5959  0.1068
13502SOL    HW241991   1.785   1.380   4.951  0.2302 -0.7599  1.3943
13503SOL     OW41992   2.644   0.862   2.781  0.8279 -0.1614 -0.1003
13503SOL    HW141993   2.656   0.957   2.773 -0.4853 -0.0026 -0.2100
13503SOL    HW241994   2.730   0.829   2.807  1.4259  0.9988 -0.5927
13504SOL     OW41995   5.062   3.580   2.389 -0.4328 -0.3764  0.0209
13504SOL    HW141996   5.145   3.617   2.359  0.2596 -0.8876  1.2577
13504SOL    HW241997   5.051   3.501   2.336  0.2069 -0.6606  0.2968
13505SOL     OW41998   6.241   7.422   8.181 -0.0377 -0.3247 -0.0631
13505SOL    HW141999   6.158   7.400   8.223  1.5368 -2.2969  2.0817
13505SOL    HW242000   6.251   7.357   8.111  0.9299 -1.7416  1.3647
13506SOL     OW42001   0.504   2.033   6.593 -0.5772  0.1914  0.2295
13506SOL    HW142002   0.598   2.028   6.609 -0.4364  3.2399  0.5780
13506SOL    HW242003   0.486   2.126   6.582 -3.6395 -0.3014  0.5814
13507SOL     OW42004   3.145   4.009   8.117 -0.2017 -0.6159 -0.2909
13507SOL    HW142005   3.156   3.935   8.058 -0.9329 -1.5809  0.7631
13507SOL    HW242006   3.080   4.065   8.075  2.5946  1.0177 -2.5961
13508SOL     OW42007   6.678   4.034   8.236  0.2604 -0.1785  0.0107
13508SOL    HW142008   6.771   4.044   8.219  0.3884 -0.4647  0.5417
13508SOL    HW242009   6.639   4.117   8.207  0.4289 -0.7756 -1.9658
13509SOL     OW42010   7.360   6.063   1.223 -0.1625  0.1842  0.3942
13509SOL    HW142011   7.374   5.974   1.257  0.8144  0.6500  1.2023
13509SOL    HW242012   7.275   6.057   1.179 -0.8961 -0.7393  1.8683
13510SOL     OW42013   5.058   4.429   7.465 -0.1968 -0.2936  0.7104
13510SOL    HW142014   5.020   4.432   7.377 -3.8995 -1.7138  2.1362
13510SOL    HW242015   5.038   4.515   7.502 -1.9987 -0.9728  1.3920
13511SOL     OW42016   3.004   3.897   0.512 -0.2092 -0.0593 -0.1622
13511SOL    HW142017   3.007   3.985   0.475  0.3024  0.1475  0.3569
13511SOL    HW242018   2.948   3.905   0.588  1.8574  0.4053  1.3683
13512SOL     OW42019   1.359   0.150   6.789  0.4586 -0.1501  0.0631
13512SOL    HW142020   1.330   0.060   6.775  0.0949 -0.0350  0.0693
13512SOL    HW242021   1.392   0.151   6.879 -0.7789  0.0422  0.5260
13513SOL     OW42022   6.672   6.986   1.948 -0.1875  0.2372  0.4921
13513SOL    HW142023   6.642   7.059   2.002 -1.0701  0.3386 -0.1306
13513SOL    HW242024   6.693   7.026   1.864 -2.5209 -0.4872 -0.4831
13514SOL     OW42025   4.903   5.461   5.892 -0.4313 -0.1959 -0.4617
13514SOL    HW142026   4.881   5.439   5.982 -1.2602 -0.2323 -0.6742
13514SOL    HW242027   4.995   5.436   5.883 -0.8511 -1.9133 -0.1649
13515SOL     OW42028   0.718   7.828   0.990 -0.1933  0.3358 -0.3296
13515SOL    HW142029   0.723   7.908   0.937  1.0410  0.0891 -0.6248
13515SOL    HW242030   0.755   7.852   1.075 -1.4365  0.5264  0.1560
13516SOL     OW42031   6.987   0.167   0.092 -0.5431 -0.7475  0.1431
13516SOL    HW142032   6.996   0.262   0.099  1.3341 -1.0612  2.5813
13516SOL    HW242033   6.963   0.152   0.000  0.0923  1.9935 -0.5106
13517SOL     OW42034   2.211   3.250   3.211  0.2135  0.3409  0.7909
13517SOL    HW142035   2.226   3.313   3.141 -1.1619 -0.1124  0.0764
13517SOL    HW242036   2.117   3.255   3.228  0.3087 -0.5968  1.6104
13518SOL     OW42037   0.221   7.680   8.013  0.1522 -0.3288  0.4013
13518SOL    HW142038   0.246   7.659   7.923  0.2822 -0.7416  0.5311
13518SOL    HW242039   0.272   7.758   8.035 -1.1448  0.7653 -0.4544
13519SOL     OW42040   6.303   0.507   1.755 -0.2664 -0.0836  0.3208
13519SOL    HW142041   6.320   0.415   1.737 -0.1069 -0.2695  1.3490
13519SOL    HW242042   6.359   0.528   1.830 -1.3252  0.4661  0.9905
13520SOL     OW42043   6.181   0.111   0.041 -0.1315 -0.3940  0.1097
13520SOL    HW142044   6.163   0.185  -0.017  0.7423  0.3263  0.7405
13520SOL    HW242045   6.189   0.151   0.128 -0.8785 -1.3936  0.6351
13521SOL     OW42046   3.384   2.295   4.551 -1.0297  0.2242  0.6325
13521SOL    HW142047   3.433   2.242   4.614 -1.5675  1.2335  1.9258
13521SOL    HW242048   3.301   2.314   4.595 -0.4278  3.0355  0.6365
13522SOL     OW42049   2.447   0.653   4.444 -0.2554  0.4822  0.0243
13522SOL    HW142050   2.521   0.698   4.484  0.1262 -0.4412  0.3829
13522SOL    HW242051   2.420   0.710   4.372 -0.1347  1.5438  0.7971
13523SOL     OW42052   6.048   0.202   1.177  0.0801 -0.1347  0.2155
13523SOL    HW142053   6.131   0.249   1.176 -0.4918  0.8782 -0.4159
13523SOL    HW242054   6.040   0.169   1.266  0.4221  1.1088  0.7147
13524SOL     OW42055   5.072   1.554   1.728  0.0394 -0.2613  0.1787
13524SOL    HW142056   5.085   1.601   1.810  0.5877 -1.7689  0.9803
13524SOL    HW242057   4.985   1.580   1.698 -0.2573  0.1102  1.3531
13525SOL     OW42058   1.898   7.411   5.858  0.0801 -0.3737 -0.2627
13525SOL    HW142059   1.905   7.429   5.952  1.0650 -0.6720 -0.2724
13525SOL    HW242060   1.842   7.481   5.825 -0.8625 -0.6676  0.6601
13526SOL     OW42061   0.488   2.150   2.163 -0.3324  0.0128  0.0094
13526SOL    HW142062   0.558   2.129   2.101 -1.4875 -0.9957 -0.9715
13526SOL    HW242063   0.434   2.072   2.166 -1.9174  1.0921  0.0750
13527SOL     OW42064   5.267   6.354   5.073  0.5795 -0.4506 -0.1304
13527SOL    HW142065   5.173   6.341   5.086  0.6120 -0.1185  0.4268
13527SOL    HW242066   5.306   6.332   5.158  0.9260  0.2580 -0.1095
13528SOL     OW42067   2.679   5.710   2.673 -0.2981  0.2995  0.0497
13528SOL    HW142068   2.672   5.804   2.656  0.8257  0.5009  0.6453
13528SOL    HW242069   2.607   5.671   2.622 -1.1067  1.5234  0.2240
13529SOL     OW42070   0.591   7.745   2.482  0.1397  0.5251 -0.2197
13529SOL    HW142071   0.673   7.697   2.494 -0.8198 -1.1787 -0.3795
13529SOL    HW242072   0.617   7.837   2.486  1.8742  0.0177  1.0401
13530SOL     OW42073   2.169   0.295   5.538 -0.1663  0.0988 -0.0653
13530SOL    HW142074   2.094   0.346   5.509 -0.8284 -1.5601 -1.3986
13530SOL    HW242075   2.132   0.235   5.604 -0.2068 -1.1970 -1.2248
13531SOL     OW42076   1.621   7.784   8.007 -0.2329 -0.1754 -1.0253
13531SOL    HW142077   1.606   7.759   8.098  2.5613 -1.2912 -0.8348
13531SOL    HW242078   1.693   7.729   7.978 -0.1858  1.1196 -3.5187
13532SOL     OW42079   2.496   5.126   4.509 -0.2590  0.2415  0.2228
13532SOL    HW142080   2.480   5.136   4.416  1.7007 -0.4738 -0.2164
13532SOL    HW242081   2.440   5.053   4.535 -0.1235 -0.1558 -0.5868
13533SOL     OW42082   1.194   8.157   1.526 -0.1658  0.1054  0.1383
13533SOL    HW142083   1.141   8.079   1.545 -1.0949  0.4166 -1.1287
13533SOL    HW242084   1.282   8.133   1.554 -0.0973 -2.0329 -1.7514
13534SOL     OW42085   6.703   0.207   4.163 -0.0618  0.3616 -0.1642
13534SOL    HW142086   6.723   0.280   4.104 -0.4249  0.0443 -0.6904
13534SOL    HW242087   6.625   0.166   4.124  0.2713 -0.4417  0.0025
13535SOL     OW42088   0.571   2.554   4.362  0.5433  0.0813  0.0090
13535SOL    HW142089   0.528   2.513   4.287 -1.1957 -0.5669  1.3200
13535SOL    HW242090   0.617   2.629   4.325 -1.1492  0.3952 -1.5754
13536SOL     OW42091   6.071   7.026   3.063 -0.1201  0.2774 -0.5593
13536SOL    HW142092   6.098   7.041   3.154  1.6809  0.3628 -1.1019
13536SOL    HW242093   6.084   6.932   3.050  2.6351  0.7587 -1.6591
13537SOL     OW42094   6.677   7.080   5.635 -0.6684  0.0982  0.1859
13537SOL    HW142095   6.673   7.068   5.540 -1.9963  0.1023  0.2230
13537SOL    HW242096   6.702   7.172   5.646 -0.2750  0.0324 -0.1580
13538SOL     OW42097   5.101   0.839   8.165  0.1542  0.3508  0.5173
13538SOL    HW142098   5.147   0.841   8.081 -0.4077 -0.5686  0.1821
13538SOL    HW242099   5.170   0.837   8.231  0.6036 -1.5432  0.0046
13539SOL     OW42100   5.904   7.117   2.255 -0.3099  0.1584 -0.3339
13539SOL    HW142101   5.863   7.193   2.214 -0.2418 -0.2913 -1.2640
13539SOL    HW242102   5.873   7.118   2.346 -0.5153  1.1408 -0.4125
13540SOL     OW42103   4.528   8.094   3.495  0.2528  0.2132  0.1595
13540SOL    HW142104   4.464   8.085   3.566  0.8466  1.4577  0.8639
13540SOL    HW242105   4.483   8.057   3.419 -0.7786 -0.2059  0.9466
13541SOL     OW42106   6.224   1.165   7.250 -0.4555 -0.6974  0.0348
13541SOL    HW142107   6.307   1.204   7.278  0.3469 -1.6403 -1.0642
13541SOL    HW242108   6.171   1.165   7.330  0.9946 -1.1652  1.0158
13542SOL     OW42109   6.204   3.332   0.053  0.2921  0.0478 -0.0619
13542SOL    HW142110   6.202   3.339  -0.042  2.7531 -1.0749 -0.2259
13542SOL    HW242111   6.131   3.274   0.075 -0.5314  0.6348 -1.2051
13543SOL     OW42112   7.377   2.835   0.153  0.0667 -0.1941 -0.3030
13543SOL    HW142113   7.428   2.916   0.156  1.6891 -1.1403 -1.5423
13543SOL    HW242114   7.425   2.779   0.092 -0.2745 -2.5985  1.5952
13544SOL     OW42115   2.197   5.289   3.130 -0.2137  0.0971  0.3837
13544SOL    HW142116   2.166   5.314   3.217 -0.1805  1.2809  0.0553
13544SOL    HW242117   2.151   5.347   3.070  2.5567  1.8819 -0.1006
13545SOL     OW42118   7.325   1.999   3.154 -0.3721  0.1360 -0.3450
13545SOL    HW142119   7.286   1.958   3.232 -0.1402 -0.4620 -0.5353
13545SOL    HW242120   7.292   1.947   3.081  0.2291  0.0494 -0.5609
13546SOL     OW42121   0.877   4.942   1.278  0.3367 -0.5278 -0.6994
13546SOL    HW142122   0.853   4.853   1.253 -0.4796  0.0553 -2.1007
13546SOL    HW242123   0.828   4.998   1.216  2.4565  0.8162 -1.2070
13547SOL     OW42124   1.396   5.613   4.860 -0.4787  0.2259  0.3195
13547SOL    HW142125   1.489   5.617   4.838 -0.4304  2.0783  0.7304
13547SOL    HW242126   1.352   5.655   4.786 -0.5496  3.7581  2.2308
13548SOL     OW42127   5.666   5.552   6.041  0.1128  0.0549  1.2244
13548SOL    HW142128   5.652   5.589   5.953 -2.1772 -0.6264  1.2868
13548SOL    HW242129   5.688   5.628   6.095 -0.8511  0.8231  0.5627
13549SOL     OW42130   5.059   7.606   6.214 -0.3356 -0.2679  0.0253
13549SOL    HW142131   5.113   7.592   6.136 -0.1988 -0.2369  0.1142
13549SOL    HW242132   5.034   7.517   6.241 -0.9522 -0.2396 -0.4502
13550SOL     OW42133   2.575   0.854   2.423 -0.7958 -0.5757 -0.2582
13550SOL    HW142134   2.545   0.923   2.364  1.1181  1.4338  1.0363
13550SOL    HW242135   2.498   0.799   2.437 -2.7825  2.0723 -0.2526
13551SOL     OW42136   5.487   1.638   5.786  0.0245 -0.7798  0.3561
13551SOL    HW142137   5.476   1.725   5.825  0.5875 -0.9734  0.9597
13551SOL    HW242138   5.401   1.618   5.748 -0.4334 -0.4255  1.1729
13552SOL     OW42139   4.808   5.059   3.005  0.4011  0.3194  0.4906
13552SOL    HW142140   4.836   5.111   2.930 -2.6869 -0.5461 -1.3398
13552SOL    HW242141   4.873   5.078   3.072  3.3111  1.0914 -2.3806
13553SOL     OW42142   6.403   7.113   1.255  0.3667  0.0786 -0.0778
13553SOL    HW142143   6.471   7.047   1.266  1.2930  0.6141 -2.3552
13553SOL    HW242144   6.328   7.065   1.221 -0.1608 -0.3726  1.6646
13554SOL     OW42145   6.277   0.844   5.711 -0.1535 -0.0692 -0.1732
13554SOL    HW142146   6.275   0.798   5.627 -0.3699  1.6783 -1.1523
13554SOL    HW242147   6.363   0.826   5.747 -0.3051 -1.3920 -0.4346
13555SOL     OW42148   4.728   7.729   1.550  0.1479  0.4541 -0.0564
13555SOL    HW142149   4.772   7.745   1.633 -1.4062 -0.5134  0.9774
13555SOL    HW242150   4.638   7.758   1.564 -0.4637 -0.9274 -0.9637
13556SOL     OW42151   0.438   1.927   3.022 -0.5376 -0.1674 -0.7521
13556SOL    HW142152   0.464   1.834   3.024 -0.4274 -0.1418 -0.9401
13556SOL    HW242153   0.397   1.938   2.936 -0.0422  0.0908 -0.9592
13557SOL     OW42154   2.703   2.569   0.498 -0.7166 -0.0958  0.4478
13557SOL    HW142155   2.781   2.555   0.551 -0.1453 -0.2358 -0.4107
13557SOL    HW242156   2.689   2.486   0.453 -0.8410  0.1993 -0.0699
13558SOL     OW42157   7.824   4.037   6.874 -0.4981 -0.2169  0.5853
13558SOL    HW142158   7.811   4.084   6.956  1.2558  0.3782  0.5522
13558SOL    HW242159   7.863   4.101   6.815  0.3997 -1.2649  0.0131
13559SOL     OW42160   1.562   0.893   5.179  0.5036 -0.0566  0.4224
13559SOL    HW142161   1.481   0.924   5.220 -0.4173 -2.1874  0.2991
13559SOL    HW242162   1.619   0.870   5.252  0.3857 -0.0719  0.5093
13560SOL     OW42163   7.193   7.551   4.263  0.0920  0.0225 -0.2827
13560SOL    HW142164   7.109   7.509   4.283  0.1544  0.1728  0.2891
13560SOL    HW242165   7.207   7.532   4.170 -0.4670 -0.1923 -0.3260
13561SOL     OW42166   1.296   3.556   5.059 -0.6526 -0.4021 -0.3230
13561SOL    HW142167   1.302   3.630   5.119 -0.3405 -0.5380 -0.1856
13561SOL    HW242168   1.236   3.495   5.102 -1.2929 -0.0125 -0.6653
13562SOL     OW42169   3.570   4.375   3.276  0.4386  0.1739  0.1343
13562SOL    HW142170   3.484   4.417   3.279  0.6582  0.5831  0.7970
13562SOL    HW242171   3.562   4.308   3.209 -0.0776  0.9261 -0.5637
13563SOL     OW42172   4.282   6.270   5.579 -0.7453  0.0565  0.0787
13563SOL    HW142173   4.362   6.218   5.578 -0.7569  0.0203  0.8687
13563SOL    HW242174   4.311   6.359   5.600 -0.7560  0.3221 -1.0021
13564SOL     OW42175   5.139   2.221   8.194  0.1642  0.5108  0.0466
13564SOL    HW142176   5.075   2.171   8.143  0.0043  1.1029 -0.3357
13564SOL    HW242177   5.139   2.179   8.280  0.3671 -0.4314 -0.4084
13565SOL     OW42178   0.148   1.225   6.831 -0.4685 -0.1768  1.0100
13565SOL    HW142179   0.090   1.194   6.762 -0.3239  0.3966  0.6165
13565SOL    HW242180   0.236   1.202   6.800 -0.3698  0.4975  0.7715
13566SOL     OW42181   1.780   6.841   0.632 -0.2162 -0.2775  0.6079
13566SOL    HW142182   1.814   6.920   0.672 -0.6031  0.5249 -0.6107
13566SOL    HW242183   1.693   6.830   0.672  0.1238 -0.4854  1.2950
13567SOL     OW42184   1.574   6.884   1.339  0.1029  0.1247  0.3001
13567SOL    HW142185   1.669   6.877   1.328  0.0934 -1.9153  1.2742
13567SOL    HW242186   1.563   6.951   1.406  0.8312  0.7196 -0.1646
13568SOL     OW42187   5.532   2.396   7.264 -0.3457 -0.3605  0.0346
13568SOL    HW142188   5.539   2.303   7.243 -0.4229 -0.3997  0.1841
13568SOL    HW242189   5.540   2.440   7.179 -2.5175 -0.6036 -0.3359
13569SOL     OW42190   1.307   6.713   4.367  0.2269  0.1268  0.4978
13569SOL    HW142191   1.281   6.802   4.347  0.1553  0.1819  0.8285
13569SOL    HW242192   1.402   6.714   4.363  0.2062  0.0931 -0.0147
13570SOL     OW42193   5.540   0.491   3.756  0.0421  0.1937  0.4337
13570SOL    HW142194   5.512   0.581   3.767 -0.2479  0.0158  1.1453
13570SOL    HW242195   5.463   0.445   3.722  0.3302  0.3105 -0.3925
13571SOL     OW42196   2.450   1.965   0.735 -0.4025 -0.5736  0.0053
13571SOL    HW142197   2.445   1.874   0.709  0.1493 -0.3106 -1.0288
13571SOL    HW242198   2.372   2.006   0.699 -0.7454 -0.6754  0.6286
13572SOL     OW42199   2.764   1.307   6.410 -0.3575  0.4161 -0.1484
13572SOL    HW142200   2.758   1.230   6.466  0.4971  0.4766  0.0316
13572SOL    HW242201   2.699   1.368   6.445  0.1941  0.4651  0.7950
13573SOL     OW42202   0.347   1.045   0.514  0.3429 -0.1568  0.7637
13573SOL    HW142203   0.391   1.042   0.598  0.3823  1.0461  0.7832
13573SOL    HW242204   0.289   0.968   0.515  0.3725 -0.1658  1.8590
13574SOL     OW42205   3.854   4.087   6.184 -0.0323 -0.4583  0.5308
13574SOL    HW142206   3.897   4.026   6.244  0.1143 -0.3892  0.4964
13574SOL    HW242207   3.904   4.168   6.192 -0.2471 -0.3325  0.6005
13575SOL     OW42208   0.257   3.429   6.541  0.3008 -0.2710  0.2163
13575SOL    HW142209   0.331   3.482   6.510  2.3556 -2.3105  1.4094
13575SOL    HW242210   0.246   3.455   6.632 -0.7123  0.3078 -0.0729
13576SOL     OW42211   0.657   3.246   4.838  0.3700  0.6116 -0.2526
13576SOL    HW142212   0.614   3.331   4.827  0.4305  0.5782 -0.7850
13576SOL    HW242213   0.749   3.268   4.855  0.8051  0.6240 -2.4613
13577SOL     OW42214   1.680   4.771   2.055  0.9781  0.0857 -0.2679
13577SOL    HW142215   1.718   4.767   2.143  0.7269 -0.8451 -0.1997
13577SOL    HW242216   1.629   4.852   2.055  1.9815  0.7366  0.0326
13578SOL     OW42217   4.079   7.546   4.130  0.3919 -0.1088  0.2126
13578SOL    HW142218   4.110   7.510   4.213  1.8390  0.4583 -0.0717
13578SOL    HW242219   3.993   7.505   4.117  0.5297 -0.8574  1.5543
13579SOL     OW42220   7.895   0.201   1.459 -0.8497  0.0985 -0.0334
13579SOL    HW142221   7.953   0.188   1.384 -1.2500  1.4854 -0.5980
13579SOL    HW242222   7.922   0.134   1.522  0.6494  0.0298 -0.7270
13580SOL     OW42223   0.433   6.451   0.170 -0.7330 -0.4074  0.1661
13580SOL    HW142224   0.390   6.464   0.255  0.3490  0.8624  0.5341
13580SOL    HW242225   0.471   6.364   0.176  1.7169  0.7176  2.0823
13581SOL     OW42226   8.043   4.020   4.452 -0.2007 -0.3472  0.1320
13581SOL    HW142227   8.081   4.003   4.538  1.3735  0.8977 -0.2727
13581SOL    HW242228   8.018   3.934   4.419  2.4010 -1.2822  0.4200
13582SOL     OW42229   1.001   0.127   5.081 -0.1630  0.7019  0.3116
13582SOL    HW142230   1.016   0.136   4.987  1.9762  0.5712  0.6200
13582SOL    HW242231   0.958   0.209   5.106  0.3121  1.2327 -0.5720
13583SOL     OW42232   5.675   2.264   5.430  0.2093 -0.2107 -0.0552
13583SOL    HW142233   5.593   2.255   5.380  0.5924 -0.1238 -0.7048
13583SOL    HW242234   5.647   2.264   5.521 -0.6709  1.3034 -0.3008
13584SOL     OW42235   4.895   0.344   3.330  0.5542 -0.2160  0.4643
13584SOL    HW142236   4.813   0.308   3.364  0.1215 -0.5382 -0.8790
13584SOL    HW242237   4.867   0.409   3.265  1.3510 -1.3595 -1.0536
13585SOL     OW42238   8.034   7.470   3.483  0.3360 -0.5486  0.6774
13585SOL    HW142239   8.046   7.382   3.518  1.2221 -0.6522  0.1195
13585SOL    HW242240   7.978   7.513   3.547 -0.4206 -1.6359  0.7635
13586SOL     OW42241   1.332   7.069   6.275 -0.5716 -0.3664 -0.6417
13586SOL    HW142242   1.424   7.069   6.248 -0.6222  0.4349 -0.8222
13586SOL    HW242243   1.334   7.106   6.364 -0.5717 -1.6232 -0.0969
13587SOL     OW42244   7.304   1.827   5.020  0.4898 -0.2128  0.0849
13587SOL    HW142245   7.217   1.788   5.032  0.6692 -0.9705 -0.9523
13587SOL    HW242246   7.337   1.841   5.109 -0.5711 -0.1997  0.4825
13588SOL     OW42247   0.104   2.404   1.072  0.0515  0.0976  0.0205
13588SOL    HW142248   0.171   2.358   1.123  0.7726  0.2282 -0.7999
13588SOL    HW242249   0.100   2.357   0.989 -1.1707 -0.1585  0.2046
13589SOL     OW42250   1.941   5.942   7.696  0.3235  0.2698  0.3420
13589SOL    HW142251   1.949   5.890   7.775 -0.4042  0.6178  0.6448
13589SOL    HW242252   1.872   6.005   7.715  1.7667  1.9051  0.2882
13590SOL     OW42253   6.609   7.748   6.423 -0.4025  0.8335 -0.1202
13590SOL    HW142254   6.525   7.732   6.380 -0.2542 -1.1120  0.2891
13590SOL    HW242255   6.674   7.723   6.357 -0.1721 -0.9389  0.7529
13591SOL     OW42256   2.290   7.957   7.838  0.2531  0.2171  0.5078
13591SOL    HW142257   2.278   7.886   7.902  0.2477 -0.0529  0.2059
13591SOL    HW242258   2.367   7.931   7.788 -0.1562  0.0858 -0.0532
13592SOL     OW42259   0.130   0.640   1.173  0.5443 -0.1351 -0.5107
13592SOL    HW142260   0.212   0.647   1.125  1.0962 -0.2568  0.4104
13592SOL    HW242261   0.079   0.576   1.123  2.0252 -2.0210  0.3524
13593SOL     OW42262   4.579   1.331   3.435  0.3064  0.4011 -0.2299
13593SOL    HW142263   4.521   1.359   3.507  0.6335 -1.1051  0.6506
13593SOL    HW242264   4.521   1.320   3.360 -0.0955  1.6914 -0.1071
13594SOL     OW42265   3.759   1.584   8.069 -0.3849 -0.0954 -0.4143
13594SOL    HW142266   3.737   1.509   8.124  0.3136 -0.7397 -0.9856
13594SOL    HW242267   3.696   1.651   8.092 -1.5647 -1.1647 -0.5030
13595SOL     OW42268   4.416   6.752   5.911  0.4030 -0.1419  0.0645
13595SOL    HW142269   4.389   6.733   6.001  0.1839  2.5564  0.6157
13595SOL    HW242270   4.507   6.781   5.919 -0.0212  1.3552 -0.3977
13596SOL     OW42271   6.684   4.129   6.498  0.4343  0.5711 -0.4378
13596SOL    HW142272   6.603   4.163   6.538  0.4949  0.3916 -0.1656
13596SOL    HW242273   6.657   4.048   6.455  0.0551  1.4957 -2.0147
13597SOL     OW42274   4.357   4.870   1.046  0.2581 -0.2374 -0.1356
13597SOL    HW142275   4.408   4.951   1.053 -1.1061  0.4340  2.8469
13597SOL    HW242276   4.267   4.899   1.032 -0.0426 -1.2799 -0.4144
13598SOL     OW42277   2.770   1.863   7.433 -0.5006 -0.0950 -0.4689
13598SOL    HW142278   2.736   1.915   7.361 -2.0288  1.0106  0.9994
13598SOL    HW242279   2.718   1.782   7.431  1.2474 -1.2215 -2.1822
13599SOL     OW42280   5.290   0.807   4.783  0.2837 -0.0224  0.4430
13599SOL    HW142281   5.384   0.804   4.763  0.3367  0.7021  0.5645
13599SOL    HW242282   5.270   0.900   4.788 -0.8529 -0.1476 -1.4930
13600SOL     OW42283   0.922   4.780   2.438 -0.8676 -0.7506  0.0550
13600SOL    HW142284   0.976   4.819   2.506 -1.0123  0.4476 -0.5014
13600SOL    HW242285   0.969   4.798   2.356 -1.8614 -0.1093 -0.3858
13601SOL     OW42286   4.893   0.391   5.132 -0.5769 -0.4425 -0.0192
13601SOL    HW142287   4.828   0.373   5.199 -0.5780  0.1404  0.1321
13601SOL    HW242288   4.924   0.479   5.151 -0.1413 -0.5077 -0.4207
13602SOL     OW42289   7.436   6.876   1.619  0.0712  0.3475 -0.1159
13602SOL    HW142290   7.497   6.915   1.682  0.2576  1.1843 -0.8219
13602SOL    HW242291   7.361   6.850   1.673  0.7796 -0.1384  0.6630
13603SOL     OW42292   0.508   5.058   1.454  0.1591 -0.2776  0.3471
13603SOL    HW142293   0.462   5.023   1.531  0.1431  0.3777  0.6434
13603SOL    HW242294   0.438   5.091   1.398  0.1600 -0.9390 -0.0389
13604SOL     OW42295   5.333   2.324   4.609  0.2075 -0.0903  0.3282
13604SOL    HW142296   5.389   2.293   4.538 -0.1373 -0.6242  0.2922
13604SOL    HW242297   5.359   2.416   4.621  0.8443 -0.2360  0.0765
13605SOL     OW42298   7.254   1.478   6.384 -0.5180  0.1732 -0.4402
13605SOL    HW142299   7.322   1.546   6.387  0.1512 -0.5147  0.1065
13605SOL    HW242300   7.302   1.398   6.364 -0.9066 -0.6816  2.0072
13606SOL     OW42301   8.096   0.737   5.733  0.5932  0.0456 -0.1805
13606SOL    HW142302   8.149   0.681   5.676  0.2623  0.3684 -0.8082
13606SOL    HW242303   8.160   0.779   5.790  0.9799  0.0967 -0.6414
13607SOL     OW42304   7.250   0.069   6.032  0.0877 -0.3607  0.2669
13607SOL    HW142305   7.332   0.051   6.078  0.6107  0.2193 -0.4258
13607SOL    HW242306   7.268   0.148   5.981 -0.0718 -1.6591 -1.8828
13608SOL     OW42307   5.444   3.990   6.672 -1.0859 -0.2864  0.2654
13608SOL    HW142308   5.527   3.946   6.691 -0.7580 -0.6915 -1.8993
13608SOL    HW242309   5.448   4.072   6.720  1.3274  0.4607 -1.1237
13609SOL     OW42310   3.067   1.117   4.242 -0.1092 -0.5214 -0.6222
13609SOL    HW142311   3.149   1.145   4.284 -0.1635  0.7683 -1.3250
13609SOL    HW242312   3.095   1.062   4.169  0.1902  0.4672 -1.2740
13610SOL     OW42313   0.927   1.739   6.080  0.1072 -0.5342  0.0552
13610SOL    HW142314   0.925   1.795   6.158  0.1122 -2.0719  1.1841
13610SOL    HW242315   0.873   1.664   6.103  1.5573 -1.8664 -0.7611
13611SOL     OW42316   1.324   4.658   7.939  0.7097 -0.5028 -0.2542
13611SOL    HW142317   1.293   4.655   8.029  1.6791  1.3057  0.1755
13611SOL    HW242318   1.409   4.614   7.941  1.3803  0.7547  0.0382
13612SOL     OW42319   3.780   7.208   3.438 -0.2379 -0.1638  0.1671
13612SOL    HW142320   3.792   7.301   3.423 -1.2686  0.2021  1.5203
13612SOL    HW242321   3.857   7.182   3.488 -0.4391  0.1719  0.6521
13613SOL     OW42322   2.826   5.971   8.282  0.0502  0.0222 -0.5806
13613SOL    HW142323   2.755   6.021   8.242 -0.4201 -1.1782 -1.2789
13613SOL    HW242324   2.870   6.033   8.340 -2.3298  0.4714  0.7873
13614SOL     OW42325   4.142   5.698   7.317 -0.3408 -0.2593  0.6809
13614SOL    HW142326   4.148   5.711   7.411  0.3723  0.7311  0.5049
13614SOL    HW242327   4.224   5.653   7.294  0.2626  1.0343  0.2849
13615SOL     OW42328   3.555   1.804   8.140  0.1641 -0.0686  0.2862
13615SOL    HW142329   3.545   1.823   8.047  1.6000  0.7382  0.2757
13615SOL    HW242330   3.480   1.847   8.182  0.9050  1.7993 -0.2329
13616SOL     OW42331   3.979   4.436   5.923 -0.4597  0.5764  0.3505
13616SOL    HW142332   3.965   4.528   5.902 -0.2057  0.5712  0.1500
13616SOL    HW242333   4.018   4.436   6.011 -1.7280  0.5884  0.9253
13617SOL     OW42334   5.510   5.835   7.454 -0.0318  0.1535 -0.1414
13617SOL    HW142335   5.426   5.881   7.446 -0.6272 -0.3151  2.8209
13617SOL    HW242336   5.486   5.746   7.479  1.3275  0.1851  1.3923
13618SOL     OW42337   6.945   3.082   2.665  0.0114 -0.3922 -0.1772
13618SOL    HW142338   7.011   3.086   2.596  0.8077 -0.0572  0.5938
13618SOL    HW242339   6.995   3.089   2.747 -0.7578 -2.5065  0.4897
13619SOL     OW42340   4.446   0.242   7.418 -0.0247 -0.5035  0.2755
13619SOL    HW142341   4.524   0.244   7.474 -0.7201 -0.1650  1.2384
13619SOL    HW242342   4.375   0.275   7.474 -0.5894  0.5437 -1.0306
13620SOL     OW42343   1.222   7.774   2.728 -0.2530  0.0576  0.1819
13620SOL    HW142344   1.312   7.800   2.711  0.5217 -1.0004  2.4662
13620SOL    HW242345   1.228   7.712   2.800 -2.8693  0.4913  0.8356
13621SOL     OW42346   4.375   3.100   6.687  0.0991  0.0099 -0.6172
13621SOL    HW142347   4.312   3.167   6.660 -2.2459 -1.5653  0.7549
13621SOL    HW242348   4.399   3.125   6.776  1.5600  0.6873 -1.1900
13622SOL     OW42349   0.409   5.275   2.501 -0.5009 -0.3501 -0.0414
13622SOL    HW142350   0.404   5.202   2.441 -1.1287  0.0525 -0.4934
13622SOL    HW242351   0.361   5.346   2.457  1.4992  0.8574 -0.3537
13623SOL     OW42352   2.779   6.084   1.657  0.1146 -0.2130 -0.3764
13623SOL    HW142353   2.725   6.038   1.593 -0.4544  1.4449 -1.1357
13623SOL    HW242354   2.717   6.108   1.726  0.1114  0.6270 -0.6649
13624SOL     OW42355   7.495   1.660   7.392  0.0352  0.1037 -0.0154
13624SOL    HW142356   7.530   1.666   7.480  2.1080  0.3590 -0.8345
13624SOL    HW242357   7.437   1.736   7.383  1.7196  1.4436  0.3024
13625SOL     OW42358   7.167   2.841   3.779 -0.3692 -0.1024 -0.1429
13625SOL    HW142359   7.138   2.847   3.870 -1.6147  0.2246 -0.5536
13625SOL    HW242360   7.163   2.748   3.759  0.4083 -0.2347  0.2902
13626SOL     OW42361   2.592   5.828   0.379  0.5476  0.2678 -0.4353
13626SOL    HW142362   2.651   5.872   0.440  1.7363  0.3576 -1.6395
13626SOL    HW242363   2.584   5.739   0.415  1.4023  0.2556 -0.2514
13627SOL     OW42364   0.527   4.294   6.627  0.0061  0.3365  0.1504
13627SOL    HW142365   0.564   4.251   6.704  3.4842  2.4281 -0.2267
13627SOL    HW242366   0.506   4.383   6.658  0.5341  0.8887 -1.0472
13628SOL     OW42367   3.645   2.148   4.082  0.1795 -0.0972  0.0152
13628SOL    HW142368   3.669   2.056   4.089  0.7787 -0.1273 -2.0793
13628SOL    HW242369   3.690   2.179   4.003  0.2180  2.0627  0.8304
13629SOL     OW42370   4.708   5.037   1.532  0.1720 -0.0678  0.4809
13629SOL    HW142371   4.770   5.050   1.460 -1.4260 -0.9173 -1.0852
13629SOL    HW242372   4.652   5.115   1.530 -1.3280 -1.1385 -0.7127
13630SOL     OW42373   7.395   1.283   1.311  0.3242  0.0307  1.0603
13630SOL    HW142374   7.485   1.268   1.282  0.0255  0.5089 -0.1689
13630SOL    HW242375   7.347   1.206   1.280 -0.7282  2.2012 -3.1065
13631SOL     OW42376   1.785   2.777   0.564 -0.1811  0.0015  0.1807
13631SOL    HW142377   1.794   2.690   0.602 -1.7003 -0.4936 -0.5353
13631SOL    HW242378   1.741   2.762   0.480  0.7577  1.3287 -0.5744
13632SOL     OW42379   6.555   0.861   7.363 -0.3299  0.0142  0.0732
13632SOL    HW142380   6.463   0.840   7.377 -0.6955  1.3632 -0.2973
13632SOL    HW242381   6.560   0.956   7.367  0.5676  0.1523 -2.6649
13633SOL     OW42382   3.435   6.581   3.054 -0.0468  0.1021 -0.1535
13633SOL    HW142383   3.367   6.646   3.065 -0.0656  0.1245 -0.3998
13633SOL    HW242384   3.436   6.533   3.137 -0.1412  0.3095 -0.0319
13634SOL     OW42385   1.779   7.363   3.655  0.2418 -0.0493 -0.1256
13634SOL    HW142386   1.711   7.361   3.588 -0.1640  0.7598  0.2602
13634SOL    HW242387   1.844   7.300   3.625 -0.3420 -0.3055 -0.8537
13635SOL     OW42388   1.914   0.891   2.407 -0.4087 -0.4385  0.1549
13635SOL    HW142389   1.915   0.959   2.475 -0.7625 -0.9544  0.6849
13635SOL    HW242390   1.850   0.924   2.343 -1.1245 -0.6027  0.7660
13636SOL     OW42391   1.331   0.607   0.162  0.3432 -0.1395  0.2725
13636SOL    HW142392   1.297   0.650   0.083 -0.9068 -1.8057 -0.1127
13636SOL    HW242393   1.410   0.562   0.134 -0.5339 -1.3793 -0.1969
13637SOL     OW42394   1.839   7.431   5.106 -0.9640  0.1365  0.4157
13637SOL    HW142395   1.862   7.372   5.033  0.4356  0.7053  0.3959
13637SOL    HW242396   1.765   7.482   5.072  2.2708  3.3202 -2.1838
13638SOL     OW42397   0.901   2.667   1.280  0.0829 -0.0732  0.5864
13638SOL    HW142398   0.877   2.695   1.368 -0.4462  0.9890  0.1160
13638SOL    HW242399   0.858   2.730   1.222  1.2624 -0.1533 -0.4013
13639SOL     OW42400   1.472   2.397   0.866 -0.0789 -0.1745 -0.0797
13639SOL    HW142401   1.481   2.482   0.823 -1.3928  0.1598  0.2602
13639SOL    HW242402   1.476   2.334   0.795  1.1664  0.1606 -0.3058
13640SOL     OW42403   3.343   2.150   1.263  0.1394 -0.0092 -0.0700
13640SOL    HW142404   3.409   2.081   1.262 -0.6876 -0.8947  1.7222
13640SOL    HW242405   3.259   2.102   1.262 -0.4400  0.9455  1.2928
13641SOL     OW42406   6.454   0.645   4.961  0.1693 -0.2916 -0.1240
13641SOL    HW142407   6.545   0.657   4.934  0.9933 -1.5071  2.0113
13641SOL    HW242408   6.432   0.726   5.007  0.0871  0.1070 -0.8609
13642SOL     OW42409   3.043   5.079   2.083 -0.0339 -0.6183  0.1501
13642SOL    HW142410   3.051   5.044   1.994 -0.4686 -0.9709  0.2510
13642SOL    HW242411   2.959   5.125   2.083 -1.0289 -2.3914  0.9900
13643SOL     OW42412   7.448   2.837   5.168  0.7546  0.6384 -0.1913
13643SOL    HW142413   7.498   2.803   5.094  1.1333  1.5370 -0.3573
13643SOL    HW242414   7.356   2.824   5.143  0.8933 -0.5606 -0.0996
13644SOL     OW42415   4.165   1.048   3.286 -0.1299  0.2537  0.7551
13644SOL    HW142416   4.096   1.024   3.225  1.2895 -0.3658 -0.6375
13644SOL    HW242417   4.138   1.133   3.321 -1.4696  0.1229  0.0540
13645SOL     OW42418   5.860   1.825   3.111 -0.2976 -0.1176 -0.5397
13645SOL    HW142419   5.863   1.839   3.016 -0.9605  0.9870 -0.4175
13645SOL    HW242420   5.767   1.836   3.134 -0.3617 -1.7762  0.0466
13646SOL     OW42421   2.739   3.161   2.863  0.8213 -0.1185 -0.3453
13646SOL    HW142422   2.794   3.100   2.814  1.5160  0.8492 -0.7648
13646SOL    HW242423   2.775   3.247   2.844 -0.3695  0.4560 -0.0060
13647SOL     OW42424   6.055   6.111   1.212  0.2836 -0.3938 -0.3415
13647SOL    HW142425   6.140   6.106   1.169  2.0690  0.4638  2.9092
13647SOL    HW242426   6.017   6.024   1.201  3.2137 -1.9620  1.2689
13648SOL     OW42427   0.957   2.682   2.136  0.0916 -0.1224 -1.0150
13648SOL    HW142428   1.036   2.686   2.191  1.1121 -1.1802 -2.3734
13648SOL    HW242429   0.906   2.759   2.163  0.7510 -0.3777  1.1140
13649SOL     OW42430   1.551   7.753   2.125  0.1246  0.3519  0.1414
13649SOL    HW142431   1.582   7.796   2.045 -0.1056  2.4725  1.1550
13649SOL    HW242432   1.456   7.749   2.113  0.2171 -0.5641 -0.2845
13650SOL     OW42433   5.612   6.628   4.397  0.5638 -0.3888  0.5625
13650SOL    HW142434   5.542   6.576   4.435 -0.1549  0.7657  0.8645
13650SOL    HW242435   5.567   6.704   4.358  1.4336 -0.6917 -1.1088
13651SOL     OW42436   6.381   0.545   2.684 -0.3159  0.6447  0.3139
13651SOL    HW142437   6.342   0.460   2.668  0.7446  0.3965 -1.0292
13651SOL    HW242438   6.355   0.567   2.773  1.2432 -2.0930  1.4883
13652SOL     OW42439   5.938   0.914   7.485  0.2759  0.2026 -0.1142
13652SOL    HW142440   5.997   0.963   7.542  0.4819  0.7290 -0.7604
13652SOL    HW242441   5.850   0.946   7.507  0.4289  1.0854 -0.7156
13653SOL     OW42442   8.262   2.456   6.213 -0.0998 -0.5281 -0.4009
13653SOL    HW142443   8.251   2.527   6.151  0.6394 -0.3399 -0.3210
13653SOL    HW242444   8.293   2.499   6.293  0.9322 -0.9954 -0.5348
13654SOL     OW42445   1.846   6.034   7.328 -0.7833  0.8768  0.4195
13654SOL    HW142446   1.812   6.020   7.240  3.2817  4.1999 -1.8802
13654SOL    HW242447   1.895   5.954   7.347  4.1612  2.7074 -3.4439
13655SOL     OW42448   7.779   1.795   6.901  0.2457 -0.0992  0.1110
13655SOL    HW142449   7.867   1.806   6.938 -0.4224  0.0414  1.6748
13655SOL    HW242450   7.781   1.706   6.863  1.3588  0.2699 -0.7468
13656SOL     OW42451   1.661   0.663   0.231 -0.3810 -0.4827  0.4625
13656SOL    HW142452   1.635   0.576   0.201  2.1345 -1.7341  1.8170
13656SOL    HW242453   1.644   0.662   0.325 -1.4880  0.9591  0.3063
13657SOL     OW42454   6.132   3.152   3.733  0.2500 -0.0733 -0.3933
13657SOL    HW142455   6.133   3.095   3.810  0.3900  2.2487  1.4131
13657SOL    HW242456   6.200   3.117   3.676 -0.4134 -2.3250  0.1652
13658SOL     OW42457   0.210   5.357   1.046  0.4684  0.3971  0.2779
13658SOL    HW142458   0.186   5.446   1.073 -2.3407 -0.9486  2.4274
13658SOL    HW242459   0.132   5.305   1.064  1.9692 -2.4698 -1.2578
13659SOL     OW42460   1.550   7.687   3.280  0.2544 -0.0483  0.3568
13659SOL    HW142461   1.493   7.713   3.208 -0.5591 -0.5359  0.8191
13659SOL    HW242462   1.592   7.768   3.308  1.3303 -0.0091 -1.3005
13660SOL     OW42463   5.356   3.122   7.517 -0.4845  0.5169  0.0881
13660SOL    HW142464   5.311   3.189   7.567 -1.9485  0.8166 -1.6026
13660SOL    HW242465   5.384   3.058   7.583  0.0407  2.2536  1.5881
13661SOL     OW42466   3.309   2.233   1.561  0.1905  0.6194  0.3557
13661SOL    HW142467   3.312   2.206   1.470 -1.6858 -0.0467  0.4674
13661SOL    HW242468   3.385   2.192   1.601  0.0182 -0.5769 -0.5220
13662SOL     OW42469   4.418   7.634   2.414 -0.1299 -0.0509  0.3993
13662SOL    HW142470   4.456   7.546   2.422  0.5011  0.2325  0.6001
13662SOL    HW242471   4.477   7.680   2.353 -2.0348 -0.6190 -1.9402
13663SOL     OW42472   6.202   4.130   1.133 -0.1840  0.6428  0.2662
13663SOL    HW142473   6.233   4.039   1.136 -0.9711  0.3660  0.1998
13663SOL    HW242474   6.157   4.143   1.216 -0.4362  0.8362  0.1004
13664SOL     OW42475   2.685   0.057   6.722  0.5357  0.2639 -0.4153
13664SOL    HW142476   2.717   0.101   6.800 -1.1050  0.9433 -0.1121
13664SOL    HW242477   2.750  -0.012   6.705  1.1505  0.4157  1.2587
13665SOL     OW42478   4.213   8.038   4.024  0.1089 -0.0581 -0.1052
13665SOL    HW142479   4.239   7.975   4.091  1.4476  1.7631  1.1321
13665SOL    HW242480   4.160   7.987   3.963 -1.4673 -1.7056  2.5278
13666SOL     OW42481   7.047   1.604   2.562 -0.5509 -0.1336 -0.1201
13666SOL    HW142482   7.123   1.641   2.606  1.0773 -1.8795 -1.3718
13666SOL    HW242483   7.026   1.526   2.612 -1.1914  0.0569 -0.0884
13667SOL     OW42484   5.525   4.608   8.231  0.0834  0.0118 -0.2071
13667SOL    HW142485   5.532   4.526   8.280 -0.8449 -0.4528 -0.8453
13667SOL    HW242486   5.607   4.613   8.182 -0.9768 -1.8908 -2.2471
13668SOL     OW42487   1.377   2.628   2.081  0.2555 -0.0818  0.1198
13668SOL    HW142488   1.384   2.614   1.986  0.5605 -1.4305  0.3383
13668SOL    HW242489   1.468   2.638   2.110  0.3880 -2.7480  0.7233
13669SOL     OW42490   7.300   1.794   2.234  0.0163  0.1034  0.7987
13669SOL    HW142491   7.313   1.708   2.195  1.1940  0.6702 -0.1121
13669SOL    HW242492   7.354   1.794   2.312  1.8622  0.7970 -0.4388
13670SOL     OW42493   6.163   3.016   1.103 -0.0446  0.4807 -0.5627
13670SOL    HW142494   6.248   3.012   1.148 -0.2972  2.0256  0.1093
13670SOL    HW242495   6.129   2.927   1.107  1.2725 -0.0236 -0.2834
13671SOL     OW42496   4.177   6.321   0.960  0.0259 -0.2652  0.2925
13671SOL    HW142497   4.197   6.240   0.913 -0.3674 -1.0073  1.3944
13671SOL    HW242498   4.095   6.352   0.922  0.3958 -0.1362 -0.4271
13672SOL     OW42499   7.304   4.161   6.187 -0.1902  0.2394  0.5441
13672SOL    HW142500   7.357   4.128   6.114 -0.5954  1.7298 -0.4402
13672SOL    HW242501   7.238   4.217   6.145 -1.9680 -0.8421  1.8359
13673SOL     OW42502   4.477   1.953   7.915  0.4076  0.1236 -0.0784
13673SOL    HW142503   4.440   1.872   7.951  1.3135  0.1407  0.9286
13673SOL    HW242504   4.411   2.019   7.932 -0.8109 -0.5998 -1.8813
13674SOL     OW42505   0.710   6.551   2.124  0.3763  0.2426  0.3889
13674SOL    HW142506   0.706   6.518   2.214 -1.2300 -0.3652  0.1074
13674SOL    HW242507   0.713   6.473   2.069  2.2009  0.6164 -0.0733
13675SOL     OW42508   5.288   7.615   2.148 -0.3784  0.1910 -0.7140
13675SOL    HW142509   5.206   7.573   2.124 -0.5076 -0.1874  0.3521
13675SOL    HW242510   5.262   7.691   2.200 -0.0372 -0.7574  0.8992
13676SOL     OW42511   1.640   4.106   6.333 -0.0657 -0.3064  0.1925
13676SOL    HW142512   1.626   4.122   6.426 -0.0367 -0.7180  0.2658
13676SOL    HW242513   1.708   4.169   6.308  0.1578 -0.4175  0.5203
13677SOL     OW42514   5.061   5.106   6.342  0.2525  0.0400 -0.7187
13677SOL    HW142515   5.032   5.178   6.286 -0.8796  2.4061  2.7003
13677SOL    HW242516   4.981   5.057   6.361  0.5819 -0.5971 -0.9738
13678SOL     OW42517   1.796   1.516   1.339  0.8314  0.5912 -0.4129
13678SOL    HW142518   1.743   1.438   1.320  0.1637  0.7532  0.7695
13678SOL    HW242519   1.739   1.590   1.319  0.6915  0.7671  0.6305
13679SOL     OW42520   2.668   0.419   8.224 -0.2927 -0.6986 -0.1043
13679SOL    HW142521   2.663   0.365   8.303 -2.1960 -2.3540 -1.3167
13679SOL    HW242522   2.740   0.382   8.174 -1.1171 -1.7119 -0.5834
13680SOL     OW42523   5.104   4.695   1.957 -0.1141  0.5200  0.3396
13680SOL    HW142524   5.047   4.630   1.997  0.3750  0.4333  0.9032
13680SOL    HW242525   5.153   4.646   1.891 -3.2321  1.3035 -2.7085
13681SOL     OW42526   5.757   1.859   5.639 -0.0019  0.4572 -0.1043
13681SOL    HW142527   5.687   1.859   5.705 -1.6140  0.2978 -1.7665
13681SOL    HW242528   5.790   1.769   5.640 -1.0476  0.0571 -0.5480
13682SOL     OW42529   5.845   4.446   1.669  0.3648  0.8132  0.4333
13682SOL    HW142530   5.838   4.483   1.581  0.0404  1.8333  0.8900
13682SOL    HW242531   5.755   4.424   1.693  0.7415 -2.2654 -0.6619
13683SOL     OW42532   8.166   3.889   1.088 -0.0354 -0.2178 -0.2893
13683SOL    HW142533   8.142   3.971   1.045  1.5070  0.5859  0.3505
13683SOL    HW242534   8.161   3.908   1.182  1.0252 -0.6294 -0.1360
13684SOL     OW42535   7.898   2.583   0.070  0.0488  0.5972 -0.0844
13684SOL    HW142536   7.945   2.547   0.145 -1.7441 -2.4688 -0.3679
13684SOL    HW242537   7.926   2.675   0.066  0.7055  0.6615  3.9306
13685SOL     OW42538   5.342   4.856   0.406  0.2513 -0.1374 -0.9980
13685SOL    HW142539   5.421   4.842   0.458 -1.3017  0.2445  1.4898
13685SOL    HW242540   5.302   4.769   0.399  0.9663 -0.3702 -2.4400
13686SOL     OW42541   0.376   6.588   7.224 -0.3768 -0.3029  0.5875
13686SOL    HW142542   0.293   6.577   7.270 -1.4363 -0.4221 -1.2911
13686SOL    HW242543   0.401   6.680   7.240 -1.8463  0.2838 -0.3694
13687SOL     OW42544   5.139   0.407   3.344  0.4327 -0.8841 -0.5242
13687SOL    HW142545   5.062   0.353   3.358  0.8795 -1.2751  0.4808
13687SOL    HW242546   5.105   0.489   3.310 -0.4183 -1.1217 -0.2552
13688SOL     OW42547   1.320   1.230   3.073  0.2671 -0.3303 -0.2745
13688SOL    HW142548   1.280   1.312   3.043 -0.4674  0.2492  2.1983
13688SOL    HW242549   1.414   1.249   3.077 -0.0410  0.8654  1.6841
13689SOL     OW42550   7.225   1.572   5.907 -0.2411 -0.0300  0.0656
13689SOL    HW142551   7.171   1.607   5.978 -1.9374 -2.1374 -0.1469
13689SOL    HW242552   7.248   1.483   5.935 -1.1195 -0.9737 -2.1140
13690SOL     OW42553   2.032   4.494   1.219 -0.1543 -0.2420  0.0127
13690SOL    HW142554   2.063   4.405   1.199  1.2518  0.1094  0.5697
13690SOL    HW242555   2.083   4.520   1.296 -0.3255  1.1825 -0.3523
13691SOL     OW42556   2.011   2.535   7.052 -0.3794 -0.1237  0.1471
13691SOL    HW142557   2.079   2.601   7.063  0.5053 -0.6133 -2.0799
13691SOL    HW242558   1.956   2.569   6.981 -1.2337 -0.7288  0.5073
13692SOL     OW42559   3.076   0.074   7.685  0.2851 -0.5627  0.4073
13692SOL    HW142560   3.129   0.002   7.651 -0.1266 -0.2354 -0.9619
13692SOL    HW242561   2.989   0.059   7.648  0.2262  0.7078  0.0061
13693SOL     OW42562   0.809   2.785   5.197 -0.6575  0.0579  0.0483
13693SOL    HW142563   0.898   2.758   5.174  0.3453  1.9484  1.5176
13693SOL    HW242564   0.788   2.735   5.276 -1.2482 -1.0258 -0.7867
13694SOL     OW42565   1.214   2.432   3.553  0.4441  0.0193  0.2440
13694SOL    HW142566   1.241   2.473   3.471  0.1338 -0.7400 -0.2438
13694SOL    HW242567   1.293   2.389   3.585  0.1662 -1.1233 -0.5366
13695SOL     OW42568   1.879   3.351   6.512  0.3457  0.3016 -0.0423
13695SOL    HW142569   1.832   3.398   6.581 -0.4315  2.0111 -1.6809
13695SOL    HW242570   1.897   3.265   6.549 -0.6810  0.9495  2.0256
13696SOL     OW42571   5.704   0.901   4.476  0.5199  0.3420 -0.6699
13696SOL    HW142572   5.787   0.902   4.523  2.3799  2.6792 -3.7492
13696SOL    HW242573   5.713   0.831   4.412 -0.6135 -0.5638  0.1378
13697SOL     OW42574   4.281   7.176   5.698  0.6573 -0.1874 -0.1315
13697SOL    HW142575   4.366   7.218   5.684 -0.2185  1.3838 -0.8503
13697SOL    HW242576   4.285   7.143   5.788  1.8060  0.4217  0.0465
13698SOL     OW42577   5.417   5.429   5.654  0.4937  0.5312  0.1563
13698SOL    HW142578   5.337   5.477   5.632  1.1009  0.7257 -1.6646
13698SOL    HW242579   5.485   5.466   5.598  1.5724 -0.5938  0.6768
13699SOL     OW42580   0.960   0.631   6.838 -0.5768  0.4799  0.5776
13699SOL    HW142581   0.885   0.588   6.877 -0.0932 -0.6960  0.2337
13699SOL    HW242582   1.035   0.577   6.864 -0.2157 -0.1842 -1.7065
13700SOL     OW42583   5.363   6.153   7.823 -0.3132 -0.3209 -0.2609
13700SOL    HW142584   5.270   6.159   7.846  0.0661 -1.2709  1.6887
13700SOL    HW242585   5.372   6.067   7.781 -0.2879 -0.3318 -0.2344
13701SOL     OW42586   5.729   4.402   0.708  0.2510 -0.8389 -0.0624
13701SOL    HW142587   5.678   4.358   0.640  1.1762 -1.1922 -0.5383
13701SOL    HW242588   5.808   4.433   0.663  0.7255 -0.8030  0.7846
13702SOL     OW42589   1.116   3.974   4.056 -0.6261 -0.1503 -0.2795
13702SOL    HW142590   1.198   3.930   4.076 -0.1975  0.6751 -0.1761
13702SOL    HW242591   1.087   4.009   4.140 -0.5662  0.4131 -0.4909
13703SOL     OW42592   7.189   4.388   3.013 -0.5070 -0.4927  0.0207
13703SOL    HW142593   7.262   4.382   3.075 -0.8520 -0.3312  0.4467
13703SOL    HW242594   7.113   4.357   3.062 -0.5944 -1.3245 -0.6496
13704SOL     OW42595   1.843   5.258   4.201 -0.8668 -0.1778  0.1311
13704SOL    HW142596   1.794   5.196   4.255 -2.5117  1.8961  1.0814
13704SOL    HW242597   1.900   5.303   4.264 -2.1744  1.6582  0.0205
13705SOL     OW42598   2.609   0.395   1.750 -0.2308  0.2911  0.2018
13705SOL    HW142599   2.579   0.478   1.713  0.8773  0.7025  0.1811
13705SOL    HW242600   2.635   0.343   1.675 -1.1078 -0.1533  0.2040
13706SOL     OW42601   3.860   3.336   4.328 -0.1494 -0.0852  0.1685
13706SOL    HW142602   3.868   3.313   4.236 -2.0097 -3.1767  0.7055
13706SOL    HW242603   3.949   3.331   4.362  0.0171 -3.2549 -0.5645
13707SOL     OW42604   5.085   6.447   3.583  0.2804 -0.0371  0.0286
13707SOL    HW142605   5.159   6.462   3.524 -1.4992  1.7019 -1.8402
13707SOL    HW242606   5.046   6.365   3.552  1.1944 -0.7680  0.7913
13708SOL     OW42607   2.272   5.530   2.641  0.0398 -0.1457 -0.0791
13708SOL    HW142608   2.231   5.456   2.686 -0.2177  0.4340  0.6521
13708SOL    HW242609   2.366   5.511   2.644  0.0777  0.1872  1.2715
13709SOL     OW42610   3.917   0.912   2.416 -0.4323 -0.1076 -0.7855
13709SOL    HW142611   4.009   0.932   2.433 -0.0827 -2.5091  0.4104
13709SOL    HW242612   3.869   0.982   2.459  0.8185  0.6286 -0.5625
13710SOL     OW42613   3.396   5.956   2.198  0.3754  0.1331  0.2975
13710SOL    HW142614   3.412   5.969   2.105  0.1214  0.9015  0.3552
13710SOL    HW242615   3.481   5.974   2.239  0.4971 -0.2475  0.2094
13711SOL     OW42616   6.815   6.794   8.284 -0.3476 -0.3080 -0.0606
13711SOL    HW142617   6.750   6.741   8.237 -1.0337  1.2057 -0.8746
13711SOL    HW242618   6.899   6.757   8.259 -0.6869  0.6608 -2.8122
13712SOL     OW42619   1.161   3.259   0.887 -0.1168 -0.1344 -0.1567
13712SOL    HW142620   1.140   3.268   0.794  1.4053 -1.4724 -0.6339
13712SOL    HW242621   1.255   3.243   0.889 -0.5718 -2.7834  1.4471
13713SOL     OW42622   4.626   3.042   6.602  0.5456 -0.0260  0.4411
13713SOL    HW142623   4.681   3.086   6.667  0.6755  0.5814 -0.0741
13713SOL    HW242624   4.536   3.064   6.628  0.5096 -1.7345  1.7879
13714SOL     OW42625   2.544   5.782   3.725  0.1033  0.1004  0.2597
13714SOL    HW142626   2.492   5.825   3.793  1.2096 -0.5328  1.5241
13714SOL    HW242627   2.606   5.849   3.696  0.2212  0.1011  0.5119
13715SOL     OW42628   4.884   5.583   4.391  0.2508 -0.2456 -0.1038
13715SOL    HW142629   4.959   5.607   4.335 -0.7956  1.9479 -0.6241
13715SOL    HW242630   4.865   5.663   4.440 -2.3687 -0.4492 -0.7103
13716SOL     OW42631   2.686   2.329   2.875 -0.8348  0.3501  0.1928
13716SOL    HW142632   2.654   2.402   2.927 -0.5219  1.1426 -0.7114
13716SOL    HW242633   2.739   2.277   2.936 -1.1611  0.8044  0.8687
13717SOL     OW42634   6.932   0.491   7.030  0.1330  0.1808  0.3926
13717SOL    HW142635   6.900   0.459   7.114  1.1827 -2.0228 -0.0217
13717SOL    HW242636   6.859   0.478   6.970 -0.3248  0.9778  0.7641
13718SOL     OW42637   6.281   4.225   3.069 -0.2654  0.0244  0.8411
13718SOL    HW142638   6.245   4.312   3.085  0.5481  0.3808  0.7247
13718SOL    HW242639   6.373   4.240   3.047  0.3166 -0.9920  2.5026
13719SOL     OW42640   2.321   0.765   7.870  0.4228  0.0657 -0.2730
13719SOL    HW142641   2.289   0.758   7.780  1.9575  1.7883 -0.9810
13719SOL    HW242642   2.245   0.790   7.921 -0.0113  1.2324 -1.4578
13720SOL     OW42643   2.072   3.665   1.839 -0.0270  0.1542 -0.1110
13720SOL    HW142644   2.060   3.740   1.781 -1.1490 -0.1808 -0.3271
13720SOL    HW242645   2.011   3.599   1.806  1.7809 -1.2838 -0.6270
13721SOL     OW42646   6.731   3.362   8.014  0.0918  0.1174 -0.3372
13721SOL    HW142647   6.762   3.420   8.084  3.3459  0.0338 -1.6061
13721SOL    HW242648   6.688   3.420   7.951  0.1006  0.6557  0.1562
13722SOL     OW42649   5.753   1.660   3.501 -0.0731 -0.4077 -0.4860
13722SOL    HW142650   5.825   1.655   3.438 -0.3740  0.5488 -0.9107
13722SOL    HW242651   5.695   1.727   3.466  1.6860  2.9929  2.8069
13723SOL     OW42652   5.875   7.896   1.176  0.2467 -0.4628  0.6580
13723SOL    HW142653   5.895   7.987   1.153 -0.9382 -0.1227  0.9833
13723SOL    HW242654   5.846   7.900   1.267 -2.7069 -0.7307 -0.2126
13724SOL     OW42655   5.697   4.499   5.255 -1.1314 -0.1964 -0.2499
13724SOL    HW142656   5.633   4.564   5.228 -1.2479 -0.0394  0.3980
13724SOL    HW242657   5.681   4.486   5.348  0.1294  0.2500  0.0465
13725SOL     OW42658   0.117   2.902   0.005  0.6722 -0.5009 -0.4817
13725SOL    HW142659   0.135   2.856   0.087  1.0878  0.0930 -0.2335
13725SOL    HW242660   0.064   2.977   0.031  1.3302  0.0315 -0.6740
13726SOL     OW42661   0.377   1.096   8.268 -0.2707  0.0118  0.3323
13726SOL    HW142662   0.451   1.078   8.210 -0.5809 -1.8913  0.4665
13726SOL    HW242663   0.375   1.191   8.276  0.2692  0.2816 -2.1492
13727SOL     OW42664   3.059   6.250   4.749  0.5439  0.3535 -0.4215
13727SOL    HW142665   3.033   6.192   4.820 -0.4238  1.4701  0.1545
13727SOL    HW242666   3.005   6.328   4.761  1.0609  0.9400 -1.8148
13728SOL     OW42667   7.085   6.266   0.148 -0.6296  0.1568  0.0592
13728SOL    HW142668   6.995   6.297   0.162 -1.2025 -0.5167 -2.0322
13728SOL    HW242669   7.087   6.239   0.057  0.7957 -2.8929  0.9453
13729SOL     OW42670   0.703   0.306   0.050  0.1908  0.2802  0.0194
13729SOL    HW142671   0.746   0.224   0.030  0.2979  0.4511 -0.4579
13729SOL    HW242672   0.695   0.351  -0.035 -0.3665  0.5157  0.1892
13730SOL     OW42673   4.060   2.847   2.817  0.0782 -0.2099  0.3635
13730SOL    HW142674   4.023   2.762   2.841  2.6401 -1.2666  0.7290
13730SOL    HW242675   4.047   2.902   2.894  1.3216 -1.2708  1.3605
13731SOL     OW42676   2.275   2.543   8.071 -0.1016 -0.4944 -0.4198
13731SOL    HW142677   2.211   2.606   8.103  0.0174 -0.0491 -1.0663
13731SOL    HW242678   2.258   2.464   8.122 -1.9282 -0.7514 -1.4028
13732SOL     OW42679   0.018   1.034   6.226 -0.0861 -0.2215  0.5163
13732SOL    HW142680  -0.076   1.047   6.238 -0.3634 -0.7493 -0.9129
13732SOL    HW242681   0.058   1.115   6.257 -1.1691  0.8223 -0.7214
13733SOL     OW42682   1.574   2.002   5.697  0.4537  0.0431  0.1368
13733SOL    HW142683   1.572   1.909   5.717 -2.4458  0.0228  0.0397
13733SOL    HW242684   1.521   2.042   5.767  0.3936  1.4152 -0.6721
13734SOL     OW42685   3.653   4.687   3.804  0.4773 -0.1228 -0.4985
13734SOL    HW142686   3.731   4.703   3.751  1.4598 -0.7366  0.7438
13734SOL    HW242687   3.669   4.602   3.845 -0.1821  0.4204  0.9217
13735SOL     OW42688   3.058   5.047   4.606  0.5346  0.1658  0.1558
13735SOL    HW142689   2.971   5.070   4.639 -0.5811 -2.6629 -0.6221
13735SOL    HW242690   3.053   5.064   4.512  0.7141 -0.2849  0.0619
13736SOL     OW42691   7.914   0.800   0.837  0.5202  0.3507  0.1207
13736SOL    HW142692   7.980   0.748   0.883  1.1629  0.8127 -0.2591
13736SOL    HW242693   7.866   0.737   0.784 -0.2346 -0.1831  1.4354
13737SOL     OW42694   6.426   7.688   1.330  0.1477 -0.5638  0.1529
13737SOL    HW142695   6.348   7.724   1.289  1.3372 -1.1543 -2.7402
13737SOL    HW242696   6.426   7.724   1.419 -2.8223  0.2552 -0.1491
13738SOL     OW42697   3.857   1.265   3.109  0.1695 -0.1887 -0.0242
13738SOL    HW142698   3.919   1.260   3.181  1.2002  0.9197 -0.8061
13738SOL    HW242699   3.821   1.177   3.101  2.0739 -0.9821  0.0687
13739SOL     OW42700   2.266   5.348   2.325  0.3120 -0.1049 -0.7086
13739SOL    HW142701   2.265   5.420   2.262  0.7250 -0.2530 -0.8858
13739SOL    HW242702   2.294   5.388   2.407  0.8345 -0.1155 -0.8777
13740SOL     OW42703   0.263   0.731   1.600 -0.9514 -0.1863 -0.3621
13740SOL    HW142704   0.178   0.706   1.564 -2.6911  3.2193  1.1511
13740SOL    HW242705   0.276   0.821   1.572  1.9611 -0.4828 -0.1513
13741SOL     OW42706   1.994   3.945   0.720  0.0158 -0.3697 -0.8770
13741SOL    HW142707   1.989   3.932   0.815  0.6913  0.1381 -0.7681
13741SOL    HW242708   1.948   3.869   0.683 -1.0421 -0.1162 -0.1274
13742SOL     OW42709   0.122   5.036   1.119 -0.1531 -0.2612  0.2504
13742SOL    HW142710   0.089   5.110   1.068 -2.1179 -2.1489 -1.3228
13742SOL    HW242711   0.044   4.995   1.156  1.0869 -0.1446  3.1510
13743SOL     OW42712   2.497   1.523   3.273  0.0663 -0.3949  0.3781
13743SOL    HW142713   2.502   1.527   3.368 -3.1488 -1.4903  0.6311
13743SOL    HW242714   2.423   1.579   3.250  1.9200  1.3091 -1.6499
13744SOL     OW42715   2.003   1.722   7.324  0.4221 -0.3434  0.8915
13744SOL    HW142716   1.999   1.636   7.283 -0.0902 -0.2166  0.6712
13744SOL    HW242717   2.068   1.770   7.272  0.1989 -0.3721  0.5824
13745SOL     OW42718   8.125   5.692   1.315 -0.4072 -0.3459  1.0342
13745SOL    HW142719   8.100   5.655   1.399  1.0842 -0.6308  1.3687
13745SOL    HW242720   8.185   5.763   1.337 -2.1022  1.3739  0.3265
13746SOL     OW42721   3.307   3.828   2.749 -0.5011 -0.2835 -0.0506
13746SOL    HW142722   3.383   3.788   2.707 -1.1355 -1.0674 -0.4619
13746SOL    HW242723   3.343   3.901   2.800  1.0542 -2.9912  2.8969
13747SOL     OW42724   5.833   7.208   3.272 -0.3902  0.6232 -0.2672
13747SOL    HW142725   5.792   7.148   3.210 -0.6987 -0.3875  0.8809
13747SOL    HW242726   5.885   7.267   3.218  1.4444 -1.8479 -1.3281
13748SOL     OW42727   0.747   7.711   6.968  0.1591  0.3636  0.3574
13748SOL    HW142728   0.688   7.709   6.893 -0.4671  2.4017  0.7727
13748SOL    HW242729   0.828   7.671   6.936 -0.7501 -0.5805 -0.8071
13749SOL     OW42730   1.119   1.791   0.539 -0.2249  0.1618  0.1216
13749SOL    HW142731   1.040   1.831   0.504 -0.1610 -0.1366 -0.3689
13749SOL    HW242732   1.123   1.704   0.498  0.5532  0.3195 -0.1604
13750SOL     OW42733   7.335   1.581   2.068 -0.1290 -0.2168 -0.5263
13750SOL    HW142734   7.242   1.580   2.048 -0.4592 -0.4884  1.0110
13750SOL    HW242735   7.376   1.535   1.994 -1.2039 -0.1060 -1.1948
13751SOL     OW42736   2.642   4.425   4.174  0.3088 -0.6703 -0.1253
13751SOL    HW142737   2.573   4.365   4.143  1.1953 -1.4455 -0.6433
13751SOL    HW242738   2.722   4.390   4.134  0.7972  1.0320 -0.6522
13752SOL     OW42739   3.499   3.638   3.761  0.2942  0.0531  0.7147
13752SOL    HW142740   3.523   3.721   3.718  0.9884 -0.1768  0.6482
13752SOL    HW242741   3.444   3.665   3.835 -1.0611  0.4377 -0.4070
13753SOL     OW42742   1.057   4.586   5.887 -0.7813 -0.0792  0.1330
13753SOL    HW142743   1.113   4.518   5.850 -1.3219 -0.5362  0.1514
13753SOL    HW242744   1.101   4.611   5.969 -0.1507  0.1795 -0.2797
13754SOL     OW42745   2.349   0.961   3.743  0.0933 -0.1308  0.1334
13754SOL    HW142746   2.281   0.959   3.811  0.2305 -2.5339  0.2450
13754SOL    HW242747   2.301   0.979   3.662 -0.2873  1.0535  0.6067
13755SOL     OW42748   2.558   1.767   3.080  0.1376  0.5808 -0.5090
13755SOL    HW142749   2.466   1.755   3.105 -0.0976  2.3406 -0.4104
13755SOL    HW242750   2.565   1.727   2.994 -0.2913 -1.0911  0.2211
13756SOL     OW42751   6.853   5.783   0.261 -0.1972  0.5660  0.3013
13756SOL    HW142752   6.769   5.745   0.288 -0.8202  1.2632 -0.6242
13756SOL    HW242753   6.849   5.874   0.288  0.1992  0.6402  0.1172
13757SOL     OW42754   2.062   1.188   6.167 -0.0786 -0.1407  0.2935
13757SOL    HW142755   1.983   1.219   6.123 -1.3462 -2.5333  0.7549
13757SOL    HW242756   2.050   1.213   6.259 -0.1239 -0.1323  0.2853
13758SOL     OW42757   6.886   6.824   4.184  0.4417 -0.4594 -0.0089
13758SOL    HW142758   6.836   6.831   4.103  1.2480 -0.5112 -0.5111
13758SOL    HW242759   6.830   6.773   4.243 -0.7094  0.7004 -0.0780
13759SOL     OW42760   5.605   6.439   2.410  0.3432 -0.2296 -0.3193
13759SOL    HW142761   5.588   6.463   2.501 -0.1654 -0.5732 -0.3218
13759SOL    HW242762   5.657   6.512   2.375 -1.3848  1.0101 -0.3908
13760SOL     OW42763   3.501   3.184   1.469 -0.4768 -0.1746  0.1300
13760SOL    HW142764   3.559   3.253   1.437  0.6892 -1.0920  0.2518
13760SOL    HW242765   3.518   3.109   1.413 -2.1386 -0.2248 -0.3526
13761SOL     OW42766   1.590   3.838   1.582  0.4031 -0.0733 -0.1504
13761SOL    HW142767   1.521   3.849   1.516  0.4512  0.4646 -0.1126
13761SOL    HW242768   1.671   3.832   1.531  0.2847 -1.1960 -0.2231
13762SOL     OW42769   6.421   2.505   5.675 -0.1247  0.2375 -0.0112
13762SOL    HW142770   6.351   2.540   5.729 -1.4522 -0.6045 -1.1628
13762SOL    HW242771   6.401   2.534   5.586 -0.5718 -2.2998 -0.7995
13763SOL     OW42772   5.884   4.521   1.159 -0.0657  0.1293 -0.2550
13763SOL    HW142773   5.976   4.526   1.187  0.0295 -1.1394 -0.3230
13763SOL    HW242774   5.888   4.516   1.064 -0.1162 -1.7841 -0.1672
13764SOL     OW42775   2.062   1.394   0.660 -0.5034 -0.0186 -0.0576
13764SOL    HW142776   2.099   1.322   0.712 -0.3185 -1.7684 -2.5110
13764SOL    HW242777   2.125   1.466   0.671  0.4651 -0.9516  0.6724
13765SOL     OW42778   6.323   2.132   6.204  0.3748 -0.0302 -0.0173
13765SOL    HW142779   6.281   2.077   6.137  1.2456  0.0147 -0.5987
13765SOL    HW242780   6.334   2.073   6.278 -0.4352 -0.1294  0.0321
13766SOL     OW42781   3.279   2.215   2.171 -0.0663  0.0304  0.2137
13766SOL    HW142782   3.328   2.270   2.111  2.2600 -0.8729  1.2500
13766SOL    HW242783   3.242   2.146   2.115 -1.7087  1.7104 -0.8384
13767SOL     OW42784   7.689   4.647   0.355  0.0562 -0.0189  1.1212
13767SOL    HW142785   7.678   4.623   0.263  1.6537  0.0863  0.8769
13767SOL    HW242786   7.600   4.654   0.390 -0.5674  0.4335 -0.5432
13768SOL     OW42787   5.790   5.923   4.275  0.4447 -0.0502  0.4981
13768SOL    HW142788   5.768   5.864   4.204 -0.8052 -1.4618  2.0261
13768SOL    HW242789   5.882   5.947   4.259  0.5888 -1.4319 -0.8111
13769SOL     OW42790   4.516   4.925   2.256 -0.1236  0.4667  0.0851
13769SOL    HW142791   4.512   4.893   2.166  2.0480  2.0623 -0.6073
13769SOL    HW242792   4.596   4.887   2.292 -0.7194  0.2359  1.1863
13770SOL     OW42793   6.533   3.066   4.493 -0.1596 -0.2158 -0.0144
13770SOL    HW142794   6.530   3.146   4.546  0.2582 -0.4604  0.3749
13770SOL    HW242795   6.441   3.048   4.473 -0.0861  2.1682 -2.8388
13771SOL     OW42796   7.343   0.503   3.693  0.1314  0.2292  0.0160
13771SOL    HW142797   7.282   0.512   3.767  0.0992  0.9474 -0.0975
13771SOL    HW242798   7.366   0.410   3.693 -1.9696 -0.3190 -0.7563
13772SOL     OW42799   0.850   3.539   2.050  0.1878  1.0010 -0.2961
13772SOL    HW142800   0.854   3.536   1.954  0.4880 -1.3812 -0.2243
13772SOL    HW242801   0.922   3.598   2.074  0.7708  0.8029 -1.4795
13773SOL     OW42802   5.142   7.901   1.094 -0.3989  0.0582 -0.2434
13773SOL    HW142803   5.193   7.870   1.019 -0.1398  0.7439 -0.3578
13773SOL    HW242804   5.052   7.903   1.062 -0.3509 -0.1020 -0.3898
13774SOL     OW42805   1.954   5.447   0.284  0.0756 -0.0332  0.3333
13774SOL    HW142806   2.046   5.446   0.308 -0.0193  0.0696  0.7094
13774SOL    HW242807   1.929   5.539   0.290  0.3617  0.1637 -1.3645
13775SOL     OW42808   1.532   7.146   1.537 -0.6110 -0.0468 -0.0732
13775SOL    HW142809   1.510   7.114   1.624  0.6830  0.7031  0.5500
13775SOL    HW242810   1.619   7.111   1.520 -2.0102 -2.6069 -2.3204
13776SOL     OW42811   4.858   7.398   2.188  0.3321  0.1162 -0.1603
13776SOL    HW142812   4.905   7.321   2.219  1.3252  0.5403 -0.5559
13776SOL    HW242813   4.775   7.365   2.155 -0.4763 -0.4061  2.3675
13777SOL     OW42814   0.807   4.111   7.599 -0.4321  0.3497  0.1050
13777SOL    HW142815   0.870   4.046   7.630 -1.4334 -0.4593  0.4431
13777SOL    HW242816   0.796   4.091   7.506 -2.9166 -1.8174  0.8103
13778SOL     OW42817   2.339   5.116   1.069  0.2209 -0.2809 -0.2144
13778SOL    HW142818   2.289   5.062   1.009  0.2484 -0.7177  0.1535
13778SOL    HW242819   2.417   5.065   1.090  0.1676 -0.1758  0.2644
13779SOL     OW42820   4.518   2.479   5.440 -0.4651 -0.4673  0.1388
13779SOL    HW142821   4.446   2.426   5.474  1.1405 -2.7828  0.0374
13779SOL    HW242822   4.541   2.438   5.356  0.6879  0.4822 -0.0242
13780SOL     OW42823   2.807   6.111   0.335 -0.3543 -0.1345 -0.4786
13780SOL    HW142824   2.741   6.130   0.401 -0.4139  1.2918 -0.9369
13780SOL    HW242825   2.858   6.192   0.327  1.4201 -1.1821 -0.1750
13781SOL     OW42826   6.714   2.370   0.896  0.4236 -0.2322  0.5760
13781SOL    HW142827   6.675   2.324   0.971  0.7490 -1.5823 -0.0642
13781SOL    HW242828   6.649   2.363   0.826  0.7014 -0.1888  0.3118
13782SOL     OW42829   2.286   7.648   3.781  0.0345 -0.0879  0.2684
13782SOL    HW142830   2.222   7.585   3.749  1.1268 -0.7722 -0.6148
13782SOL    HW242831   2.336   7.600   3.847  0.1259  0.2052  0.4158
13783SOL     OW42832   2.776   4.888   1.998 -0.5820 -0.4346  0.3432
13783SOL    HW142833   2.770   4.864   1.906  1.3396 -1.7060  0.5313
13783SOL    HW242834   2.714   4.960   2.008 -0.6246 -0.1187 -1.9900
13784SOL     OW42835   4.819   0.647   7.019 -0.0007  0.3818  0.2463
13784SOL    HW142836   4.743   0.589   7.023 -0.5620  1.0377 -0.9310
13784SOL    HW242837   4.828   0.680   7.109 -2.4296  1.9850 -0.0463
13785SOL     OW42838   0.862   2.473   8.273  0.2085 -0.5316  0.0253
13785SOL    HW142839   0.877   2.521   8.354  0.4466 -0.1312 -0.2510
13785SOL    HW242840   0.813   2.534   8.218  0.4300 -0.6383 -0.2891
13786SOL     OW42841   7.702   3.451   4.467  0.2014  0.0378  0.1193
13786SOL    HW142842   7.620   3.447   4.418  0.4532  0.0874 -0.3021
13786SOL    HW242843   7.762   3.500   4.411  1.4378 -2.5254 -0.8843
13787SOL     OW42844   6.310   6.342   2.292 -0.7173  0.8355 -0.2222
13787SOL    HW142845   6.283   6.427   2.255 -0.6550  1.6074  1.4225
13787SOL    HW242846   6.273   6.277   2.233 -1.5878  2.0036 -0.9895
13788SOL     OW42847   7.223   4.790   3.317  0.4783 -0.1174 -0.1916
13788SOL    HW142848   7.196   4.774   3.408 -0.8578  0.6636 -0.4289
13788SOL    HW242849   7.278   4.868   3.322 -4.0773  3.3704 -0.6430
13789SOL     OW42850   2.489   5.978   4.079  0.3081  0.1556 -0.4744
13789SOL    HW142851   2.552   6.023   4.023 -0.8085  1.7486 -0.4672
13789SOL    HW242852   2.427   5.938   4.018  0.1176  0.3591 -0.4115
13790SOL     OW42853   3.550   2.989   4.104 -0.0082 -0.2239  0.1749
13790SOL    HW142854   3.514   2.919   4.049 -2.3236  1.1695 -0.1398
13790SOL    HW242855   3.612   3.036   4.047 -0.3398 -0.4658 -0.3882
13791SOL     OW42856   5.617   4.120   6.314  0.8644  0.2894 -0.4118
13791SOL    HW142857   5.656   4.067   6.383  2.2399  0.0122 -1.3747
13791SOL    HW242858   5.635   4.210   6.339  2.5172  0.1538 -1.0501
13792SOL     OW42859   5.559   4.216   1.188 -0.0013 -0.3971 -0.3583
13792SOL    HW142860   5.473   4.179   1.167 -1.2596  1.3058  1.7214
13792SOL    HW242861   5.582   4.269   1.111 -0.5121 -1.3262 -1.1651
13793SOL     OW42862   4.262   0.629   1.354 -0.1480  0.1870 -0.0138
13793SOL    HW142863   4.301   0.597   1.436 -0.1193 -0.8964 -0.4553
13793SOL    HW242864   4.295   0.719   1.346 -1.0016  0.6907  1.7187
13794SOL     OW42865   7.074   1.912   2.351 -0.0598 -0.3228 -0.0964
13794SOL    HW142866   7.118   1.896   2.434  0.2657  2.4720  0.3426
13794SOL    HW242867   7.131   1.872   2.285  0.8995 -0.4938  0.8330
13795SOL     OW42868   3.020   7.210   6.665  0.0754 -0.0390  0.5320
13795SOL    HW142869   3.085   7.175   6.726  1.9412  0.0012 -1.3664
13795SOL    HW242870   3.054   7.295   6.639  1.0797 -1.4315 -3.0707
13796SOL     OW42871   3.521   6.151   1.744 -0.5686 -0.0572 -0.4427
13796SOL    HW142872   3.523   6.247   1.741 -0.2138 -0.0931 -2.1504
13796SOL    HW242873   3.596   6.125   1.691 -2.0811 -1.2822 -2.0203
13797SOL     OW42874   2.905   1.584   3.196  0.5227 -0.8284  0.2489
13797SOL    HW142875   2.887   1.570   3.289  2.6698 -0.8482  0.6717
13797SOL    HW242876   2.917   1.679   3.189  1.0625 -0.9054  0.1236
13798SOL     OW42877   7.666   7.129   5.264  0.1364  0.1944  0.3978
13798SOL    HW142878   7.743   7.126   5.206 -0.7747  1.2964 -0.8955
13798SOL    HW242879   7.663   7.219   5.296 -0.3523  0.0282  0.8263
13799SOL     OW42880   2.678   4.576   4.772 -0.1005  0.6662 -1.0802
13799SOL    HW142881   2.651   4.592   4.862 -1.1935  0.0377 -1.2889
13799SOL    HW242882   2.734   4.651   4.750 -1.4485  1.8523 -0.5411
13800SOL     OW42883   1.264   1.709   5.882 -0.6264 -0.8889 -0.2256
13800SOL    HW142884   1.267   1.678   5.972  0.1072 -1.6206 -0.5017
13800SOL    HW242885   1.215   1.641   5.835 -0.4142 -0.8392 -0.5179
13801SOL     OW42886   6.838   0.685   5.290  0.5900 -0.1893 -0.2575
13801SOL    HW142887   6.857   0.742   5.364  0.4365 -1.7755  1.0400
13801SOL    HW242888   6.749   0.654   5.306  1.6218 -2.9396  0.5649
13802SOL     OW42889   4.495   7.954   5.812 -0.2284 -0.0648 -0.3905
13802SOL    HW142890   4.446   7.888   5.862 -0.3861 -1.0394 -1.8179
13802SOL    HW242891   4.432   8.024   5.796 -0.5036 -0.2808 -0.2593
13803SOL     OW42892   3.520   1.540   5.186  0.2395 -0.2832  0.0899
13803SOL    HW142893   3.516   1.455   5.143 -1.0058 -0.0884 -0.1779
13803SOL    HW242894   3.477   1.527   5.270  0.3962 -0.0140  0.2145
13804SOL     OW42895   7.244   7.821   7.175 -0.4722 -0.3670 -0.1535
13804SOL    HW142896   7.280   7.827   7.087  0.8240  1.0358  0.4361
13804SOL    HW242897   7.174   7.886   7.176 -0.5173 -0.4157 -0.1770
13805SOL     OW42898   6.106   7.086   7.338  0.5090 -0.0089 -0.0020
13805SOL    HW142899   6.040   7.140   7.295  0.4298 -1.0350 -1.1956
13805SOL    HW242900   6.179   7.082   7.276  0.3309 -1.6274 -0.1338
13806SOL     OW42901   3.965   2.113   2.062  0.0116  0.5054 -0.4411
13806SOL    HW142902   3.916   2.031   2.063  1.0411 -0.1009  1.8848
13806SOL    HW242903   4.054   2.087   2.039  0.3737  0.9402  0.4592
13807SOL     OW42904   1.475   4.947   1.935 -0.0604  0.2913 -0.1968
13807SOL    HW142905   1.405   5.005   1.905  0.6501  2.1048  1.5986
13807SOL    HW242906   1.498   4.895   1.857 -0.1297  2.9763 -2.0663
13808SOL     OW42907   2.594   2.591   3.001 -0.0348 -0.0871 -0.0928
13808SOL    HW142908   2.513   2.627   2.963 -0.7247  0.7882  2.1175
13808SOL    HW242909   2.647   2.668   3.020 -0.3832 -0.3921  2.1924
13809SOL     OW42910   8.163   3.714   0.870 -0.3908 -0.1914 -0.1971
13809SOL    HW142911   8.174   3.776   0.942  0.9365 -2.5530  1.7147
13809SOL    HW242912   8.075   3.677   0.884 -0.9648  0.8221 -1.0239
13810SOL     OW42913   0.771   5.889   2.041  0.7494  0.6606 -0.2804
13810SOL    HW142914   0.835   5.838   2.091 -1.5226 -1.3568  0.6614
13810SOL    HW242915   0.800   5.979   2.052  2.5246 -0.0575  1.4660
13811SOL     OW42916   6.799   1.961   2.070 -0.1593 -0.2856 -0.4390
13811SOL    HW142917   6.796   1.960   2.165 -3.2260 -1.7593 -0.5080
13811SOL    HW242918   6.809   2.054   2.048  3.0915 -0.1432  1.2882
13812SOL     OW42919   5.296   3.467   0.150 -0.5335  0.1200 -0.0502
13812SOL    HW142920   5.286   3.561   0.137 -0.1305  0.4590  1.9011
13812SOL    HW242921   5.290   3.429   0.062  1.6444  2.1692 -1.1391
13813SOL     OW42922   3.199   0.077   3.547 -0.1612  0.6303 -0.2767
13813SOL    HW142923   3.154   0.139   3.605 -0.4550 -1.1585  1.5064
13813SOL    HW242924   3.131   0.014   3.522  0.1173  1.0382 -2.0769
13814SOL     OW42925   5.492   0.468   6.131 -0.0108 -0.0572 -0.2042
13814SOL    HW142926   5.535   0.430   6.055 -1.1033 -0.9213 -0.3819
13814SOL    HW242927   5.440   0.397   6.168  1.2454  0.0676  1.9133
13815SOL     OW42928   1.972   8.300   7.336 -0.0570  0.4479 -0.2361
13815SOL    HW142929   1.992   8.239   7.407  0.5933  1.4079  0.4279
13815SOL    HW242930   2.016   8.263   7.259 -0.5342 -0.4521 -0.0830
13816SOL     OW42931   1.326   1.704   0.930 -0.5398  0.8196  0.5199
13816SOL    HW142932   1.272   1.783   0.931  0.6743  1.6721 -1.0231
13816SOL    HW242933   1.376   1.710   0.849 -2.5597 -2.9649 -1.1542
13817SOL     OW42934   0.560   2.010   8.271 -0.1728  0.2839  0.5670
13817SOL    HW142935   0.606   2.067   8.332  1.2094  1.1517 -1.2340
13817SOL    HW242936   0.579   1.921   8.301 -0.9419  0.7118  2.3828
13818SOL     OW42937   4.257   3.637   8.041 -0.4161 -0.3835 -0.4761
13818SOL    HW142938   4.317   3.605   7.974 -0.9361 -0.8500 -0.7244
13818SOL    HW242939   4.215   3.714   8.003  1.1431  0.8593  0.2795
13819SOL     OW42940   7.031   2.353   3.555  0.1712 -0.1672  0.3588
13819SOL    HW142941   7.031   2.280   3.493 -0.6962  0.5296 -0.4874
13819SOL    HW242942   6.970   2.416   3.517  0.0184  0.4909  1.6802
13820SOL     OW42943   1.901   1.850   4.018  0.5214 -0.3339 -0.2423
13820SOL    HW142944   1.965   1.909   4.058  2.2348 -0.4140 -2.6965
13820SOL    HW242945   1.846   1.907   3.964  0.9018 -0.7152 -1.0437
13821SOL     OW42946   1.986   1.870   6.782  0.3190 -0.0864  0.3314
13821SOL    HW142947   1.931   1.949   6.780  1.3002  0.6575  1.8625
13821SOL    HW242948   1.988   1.840   6.691 -3.8141 -0.9816  0.4386
13822SOL     OW42949   3.985   6.581   4.722  0.7706 -0.4030  0.3196
13822SOL    HW142950   3.920   6.511   4.717  0.5922 -0.1953 -0.2452
13822SOL    HW242951   3.937   6.660   4.699  0.5326  0.1823  2.7329
13823SOL     OW42952   3.666   0.520   7.164  0.2933 -0.1536  0.1437
13823SOL    HW142953   3.741   0.524   7.223 -0.1690 -0.9104  0.7926
13823SOL    HW242954   3.693   0.461   7.094 -0.4936 -2.2363  1.5488
13824SOL     OW42955   3.662   1.213   1.275  0.3941  0.4677 -0.2336
13824SOL    HW142956   3.728   1.145   1.263  0.4238  0.6650 -1.2658
13824SOL    HW242957   3.674   1.271   1.200 -0.5915  0.7976 -0.1421
13825SOL     OW42958   2.427   1.953   3.938  0.0353  0.3769  0.0677
13825SOL    HW142959   2.491   1.898   3.893  1.0628 -0.7171  2.7735
13825SOL    HW242960   2.478   2.027   3.970 -0.0609 -0.4218  2.1109
13826SOL     OW42961   4.624   3.174   4.459 -0.1327 -0.5775  0.0177
13826SOL    HW142962   4.616   3.093   4.408  0.6989 -1.3134  1.0156
13826SOL    HW242963   4.612   3.146   4.550  0.0681  0.4327  0.3588
13827SOL     OW42964   1.055   6.052   2.999 -0.3203  0.5770  0.1294
13827SOL    HW142965   1.124   6.118   3.010 -1.4654  1.6792  0.8356
13827SOL    HW242966   1.022   6.037   3.088  0.2095 -1.2693  0.0240
13828SOL     OW42967   0.074   4.584   4.687 -0.0197  0.1919 -0.1624
13828SOL    HW142968   0.095   4.497   4.652 -2.7084 -0.0254 -1.3637
13828SOL    HW242969   0.050   4.635   4.610  0.7065  1.7666  0.6430
13829SOL     OW42970   4.679   3.740   4.435  0.0056 -0.0116  0.4218
13829SOL    HW142971   4.634   3.787   4.365  0.7347 -0.0858 -0.1031
13829SOL    HW242972   4.748   3.690   4.391 -1.0458 -1.9569  0.9220
13830SOL     OW42973   2.368   5.573   1.740  0.7749 -0.4864 -0.0981
13830SOL    HW142974   2.325   5.498   1.699  1.9138 -0.5779 -1.1465
13830SOL    HW242975   2.455   5.541   1.764  1.1543  0.3958 -0.2666
13831SOL     OW42976   5.625   8.146   4.876  0.5356 -0.1989  0.3434
13831SOL    HW142977   5.686   8.200   4.927 -0.5824  1.0392  0.3804
13831SOL    HW242978   5.557   8.206   4.848 -0.9278 -1.6546  0.6798
13832SOL     OW42979   3.912   2.472   4.483 -0.1790 -0.0444  0.0290
13832SOL    HW142980   3.833   2.525   4.495 -0.1226 -0.2187  1.1934
13832SOL    HW242981   3.910   2.447   4.391 -1.3017  0.2426 -0.0298
13833SOL     OW42982   5.016   2.080   6.428 -0.3590 -0.3300 -0.3884
13833SOL    HW142983   4.987   2.058   6.517 -1.1609  0.6027 -0.4095
13833SOL    HW242984   5.002   2.000   6.377 -0.4152 -0.6953  0.1978
13834SOL     OW42985   5.527   5.746   5.205 -0.3537  0.4888  0.3522
13834SOL    HW142986   5.524   5.725   5.111 -0.7963  1.9200  0.0282
13834SOL    HW242987   5.619   5.741   5.228 -0.1447  0.9089 -0.3590
13835SOL     OW42988   5.997   1.404   0.709 -0.2242  0.1740  1.1043
13835SOL    HW142989   5.912   1.396   0.752 -0.4669 -1.2140  0.3921
13835SOL    HW242990   5.977   1.395   0.616  0.5266  1.3109  0.8226
13836SOL     OW42991   5.740   5.742   4.049 -0.1827 -0.1013 -0.2297
13836SOL    HW142992   5.661   5.740   3.996 -0.4391 -0.6994  0.1710
13836SOL    HW242993   5.799   5.679   4.007 -1.0669 -1.9438  1.2388
13837SOL     OW42994   6.998   2.554   4.955  0.1053 -0.6341  0.3873
13837SOL    HW142995   6.928   2.593   4.903  1.4986 -1.0063 -1.8267
13837SOL    HW242996   6.955   2.521   5.034 -1.8425  1.0715  0.0639
13838SOL     OW42997   8.253   7.208   0.237 -0.7286  0.4177 -0.0552
13838SOL    HW142998   8.216   7.291   0.265  2.4462  2.0338 -0.3604
13838SOL    HW242999   8.249   7.211   0.142 -2.3073 -0.6342 -0.0387
13839SOL     OW43000   2.884   5.439   5.111 -0.4205 -0.4517  0.3562
13839SOL    HW143001   2.858   5.354   5.076 -2.0587 -0.2175  0.9844
13839SOL    HW243002   2.940   5.417   5.186  0.2293 -0.9591 -0.2651
13840SOL     OW43003   7.985   5.986   4.464 -0.8635 -0.1548 -0.6643
13840SOL    HW143004   8.011   6.071   4.499 -0.9800 -1.0270  1.6387
13840SOL    HW243005   7.929   6.007   4.389 -0.2475  1.7904 -0.6077
13841SOL     OW43006   5.415   4.276   7.447 -0.5276  0.3290  0.2328
13841SOL    HW143007   5.373   4.197   7.482  0.7255 -0.8877 -0.9579
13841SOL    HW243008   5.373   4.289   7.362 -0.0495  0.3679  0.0003
13842SOL     OW43009   5.973   6.815   6.465  0.2030 -0.2165  0.4603
13842SOL    HW143010   5.936   6.871   6.397  1.5777  0.1674  0.0290
13842SOL    HW243011   6.001   6.875   6.534  0.9627 -0.4249  0.3407
13843SOL     OW43012   2.621   5.119   1.987 -0.2880 -0.5506  0.0467
13843SOL    HW143013   2.570   5.119   1.906 -0.3355 -0.6939  0.0759
13843SOL    HW243014   2.560   5.147   2.054 -0.0570  0.2604 -0.0848
13844SOL     OW43015   5.619   7.816   4.596  0.2683  0.2540 -0.3333
13844SOL    HW143016   5.609   7.837   4.503 -1.7278  0.6699 -0.0630
13844SOL    HW243017   5.690   7.873   4.626 -0.7646  1.9801 -1.0546
13845SOL     OW43018   2.867   1.398   4.097 -0.3251  0.0596 -0.2520
13845SOL    HW143019   2.800   1.466   4.095 -0.0267  0.3498 -0.4469
13845SOL    HW243020   2.863   1.362   4.186 -1.2700 -0.4549 -0.5024
13846SOL     OW43021   0.091   2.758   3.640 -0.2048  0.6039 -0.4012
13846SOL    HW143022   0.018   2.699   3.621 -1.3969  1.6869  0.7190
13846SOL    HW243023   0.147   2.708   3.700 -1.8582  1.0466  1.5460
13847SOL     OW43024   5.018   7.481   6.968  0.1558 -0.2405  0.3606
13847SOL    HW143025   4.951   7.514   6.908  0.0651 -0.4159  0.3644
13847SOL    HW243026   4.975   7.477   7.053 -0.1997 -1.5118  0.1305
13848SOL     OW43027   5.482   6.945   6.000 -0.6588 -0.0112 -0.2888
13848SOL    HW143028   5.515   7.027   5.965 -0.2016  0.7032  1.7478
13848SOL    HW243029   5.560   6.898   6.031 -1.1655 -0.0074  1.0305
13849SOL     OW43030   5.343   3.482   3.320 -0.3402 -0.2635 -0.5837
13849SOL    HW143031   5.368   3.531   3.242 -0.4886  0.7762  0.0191
13849SOL    HW243032   5.305   3.547   3.379 -1.9529 -1.3461 -0.3793
13850SOL     OW43033   0.279   1.005   6.543  0.1156  0.2886 -0.4095
13850SOL    HW143034   0.190   1.012   6.578  0.3155 -0.6993  0.2996
13850SOL    HW243035   0.336   1.032   6.615  0.4793 -0.8928 -0.2519
13851SOL     OW43036   5.372   1.001   3.810  0.2581 -0.0855 -0.8165
13851SOL    HW143037   5.343   1.077   3.760  1.9382 -0.2415 -2.0895
13851SOL    HW243038   5.447   1.033   3.861 -0.1688 -0.4391  0.0401
13852SOL     OW43039   8.020   2.120   3.188  0.2234  0.6534  0.0573
13852SOL    HW143040   7.959   2.119   3.261  0.3769  0.4153  0.1822
13852SOL    HW243041   7.964   2.126   3.110  0.0123 -0.2764  0.1348
13853SOL     OW43042   0.499   1.640   2.961 -0.2350  0.5132 -0.3225
13853SOL    HW143043   0.411   1.606   2.947  0.1667 -0.5189 -0.3421
13853SOL    HW243044   0.557   1.566   2.943  0.4633 -0.1435  4.0618
13854SOL     OW43045   8.270   6.909   3.655 -0.1145  0.1606  0.2650
13854SOL    HW143046   8.319   6.827   3.658  1.5858  1.1571  1.1112
13854SOL    HW243047   8.179   6.885   3.672  0.2058 -1.6476 -0.4951
13855SOL     OW43048   1.246   2.537   3.317 -0.1503  0.4143 -0.0622
13855SOL    HW143049   1.182   2.607   3.312  0.0287  0.5893  0.0897
13855SOL    HW243050   1.321   2.569   3.266  0.5347  0.9807  1.2726
13856SOL     OW43051   1.643   5.501   7.398 -0.0480 -0.2497  0.5243
13856SOL    HW143052   1.583   5.466   7.463  1.3683 -1.6854  1.0980
13856SOL    HW243053   1.718   5.442   7.400  0.1252 -0.2210 -2.2822
13857SOL     OW43054   4.129   4.782   3.452 -0.8298  0.1579 -0.2772
13857SOL    HW143055   4.166   4.842   3.387  0.0343  0.2588  0.2869
13857SOL    HW243056   4.112   4.838   3.528 -0.9603 -0.1279 -0.0950
13858SOL     OW43057   5.347   4.679   3.069  0.9134  0.0744 -0.0931
13858SOL    HW143058   5.297   4.726   3.136  0.1955 -0.4496 -0.2536
13858SOL    HW243059   5.328   4.725   2.987 -0.9154 -1.2999 -0.4912
13859SOL     OW43060   3.411   1.565   2.081  0.8076  0.3261  0.2657
13859SOL    HW143061   3.480   1.619   2.043  0.6529  0.7469  0.5710
13859SOL    HW243062   3.364   1.529   2.006  0.9069  0.6249  0.0586
13860SOL     OW43063   5.262   5.689   5.255  0.3061 -0.3657  0.0261
13860SOL    HW143064   5.357   5.701   5.244  0.4964 -0.2675  1.6835
13860SOL    HW243065   5.249   5.595   5.241  0.3080 -0.0476 -2.4012
13861SOL     OW43066   0.426   2.526   0.964  0.3960  0.6832  0.0889
13861SOL    HW143067   0.428   2.510   1.059  1.2860 -2.4343 -0.4229
13861SOL    HW243068   0.505   2.484   0.931 -0.4703  0.8096 -2.1900
13862SOL     OW43069   2.841   7.485   0.813 -0.0392 -0.2325 -0.1003
13862SOL    HW143070   2.855   7.436   0.894  0.4297 -0.3313 -0.2406
13862SOL    HW243071   2.897   7.562   0.821 -0.5472  0.1321 -0.0114
13863SOL     OW43072   5.083   1.378   6.763 -0.1237  0.2705  0.4398
13863SOL    HW143073   5.135   1.351   6.839 -0.2977 -0.7580  0.1985
13863SOL    HW243074   5.114   1.467   6.743  1.7897 -0.4510  0.0985
13864SOL     OW43075   2.930   6.463   6.885  0.1059 -0.5619 -0.0410
13864SOL    HW143076   2.987   6.393   6.915  1.6047  0.9208  0.6615
13864SOL    HW243077   2.870   6.478   6.958  0.8492 -0.0043  0.4579
13865SOL     OW43078   1.178   3.309   0.099  0.4600  0.3171  0.0973
13865SOL    HW143079   1.123   3.256   0.156  0.3151 -0.7769 -1.0348
13865SOL    HW243080   1.117   3.365   0.051  0.2920 -0.8625 -1.1232
13866SOL     OW43081   5.193   2.535   7.605 -0.2264  0.3479 -0.1538
13866SOL    HW143082   5.108   2.575   7.625 -1.1976 -2.1363  0.9475
13866SOL    HW243083   5.172   2.466   7.542  0.9447 -0.4474  0.3132
13867SOL     OW43084   1.144   4.859   2.292 -0.5960 -0.0786  0.5137
13867SOL    HW143085   1.122   4.947   2.263 -0.0645  0.0267  0.4217
13867SOL    HW243086   1.235   4.865   2.321 -0.8023 -0.4181  1.2441
13868SOL     OW43087   7.757   7.888   2.046 -0.2552 -0.2112 -0.3252
13868SOL    HW143088   7.773   7.982   2.056 -0.2076 -0.5061  2.8180
13868SOL    HW243089   7.703   7.881   1.968 -1.6711  2.6047  0.3345
13869SOL     OW43090   1.908   0.212   5.259 -0.0560  0.4731 -0.1544
13869SOL    HW143091   1.857   0.132   5.273 -0.1925  0.0185 -3.0140
13869SOL    HW243092   1.843   0.282   5.254 -0.0576  0.5307  0.5478
13870SOL     OW43093   0.948   2.392   2.102 -0.1738  0.4552 -0.0184
13870SOL    HW143094   1.039   2.388   2.134  0.1222 -1.1484 -1.0067
13870SOL    HW243095   0.932   2.485   2.089  2.3704  0.6067 -2.6380
13871SOL     OW43096   5.483   1.279   7.040 -0.2477  0.0548  0.4405
13871SOL    HW143097   5.544   1.299   7.111 -1.1738  1.4295  0.8717
13871SOL    HW243098   5.482   1.357   6.986 -1.1309 -0.2011  0.0724
13872SOL     OW43099   3.070   7.427   2.249  0.3418  0.2330 -0.0647
13872SOL    HW143100   3.002   7.453   2.311  2.3814  1.8862  1.5778
13872SOL    HW243101   3.061   7.488   2.176 -0.8655 -0.4946 -0.5218
13873SOL     OW43102   0.280   1.581   2.637  0.2309 -0.2065 -0.0552
13873SOL    HW143103   0.196   1.595   2.680 -0.1605 -1.4609 -0.3771
13873SOL    HW243104   0.261   1.592   2.544  0.5125 -0.0444 -0.0936
13874SOL     OW43105   2.128   0.144   1.205  0.3271 -0.1439  0.3242
13874SOL    HW143106   2.188   0.070   1.211 -1.4089 -1.7467 -1.4002
13874SOL    HW243107   2.157   0.204   1.274  0.7983 -3.1122  2.8152
13875SOL     OW43108   2.825   0.517   6.281  0.1205  0.5831  0.4330
13875SOL    HW143109   2.767   0.451   6.320  0.0494  0.5542  0.2791
13875SOL    HW243110   2.771   0.561   6.216  0.4375  0.1538 -0.1360
13876SOL     OW43111   4.561   3.552   5.024 -0.4830 -0.2465  0.1919
13876SOL    HW143112   4.605   3.473   5.055  1.3431  0.4473 -0.5421
13876SOL    HW243113   4.549   3.605   5.103 -1.6008 -1.1873  0.6630
13877SOL     OW43114   5.038   0.721   2.213  0.3618 -0.2709 -0.5741
13877SOL    HW143115   5.000   0.659   2.151 -0.0424  2.1509 -2.8454
13877SOL    HW243116   5.066   0.795   2.159  1.8946  1.0353  1.9060
13878SOL     OW43117   4.419   4.865   8.165  0.2827 -0.0412 -0.3516
13878SOL    HW143118   4.366   4.869   8.085  0.8143 -1.2299 -0.7843
13878SOL    HW243119   4.364   4.817   8.227 -0.7006  2.1189  0.4676
13879SOL     OW43120   5.633   0.774   7.272  0.0603 -0.6348  0.4250
13879SOL    HW143121   5.592   0.744   7.191  0.6561 -0.7114  0.1515
13879SOL    HW243122   5.614   0.705   7.335  0.3302 -0.9812  0.1276
13880SOL     OW43123   0.715   6.010   8.063  0.2940  0.3212 -0.0133
13880SOL    HW143124   0.706   6.082   8.001  1.8155  1.2345  0.7863
13880SOL    HW243125   0.807   6.011   8.087 -0.2512 -0.0176  2.2313
13881SOL     OW43126   7.036   1.372   6.277 -0.0336  0.7506 -0.1019
13881SOL    HW143127   7.024   1.287   6.321 -0.6905  1.4519  1.1003
13881SOL    HW243128   7.105   1.415   6.327  0.7993  0.6316 -1.1541
13882SOL     OW43129   0.407   2.435   7.763  0.1589 -0.0490  0.6538
13882SOL    HW143130   0.490   2.397   7.736 -0.6986 -1.6394  0.1886
13882SOL    HW243131   0.426   2.477   7.847  1.8589  1.2620 -0.3838
13883SOL     OW43132   6.023   6.058   4.188 -0.5403 -0.5001  0.4679
13883SOL    HW143133   6.022   6.129   4.124  1.3439 -1.0878 -0.2573
13883SOL    HW243134   6.061   6.097   4.266  0.0500 -0.5868  0.2242
13884SOL     OW43135   5.367   7.854   3.118  0.6667 -0.1465  0.1836
13884SOL    HW143136   5.319   7.826   3.040 -1.2198  0.0695  1.2115
13884SOL    HW243137   5.387   7.774   3.165 -1.5591 -0.0932  1.3287
13885SOL     OW43138   0.268   7.515   1.537  0.8291  0.8253 -0.0652
13885SOL    HW143139   0.278   7.590   1.595  0.4553  0.7530  0.0899
13885SOL    HW243140   0.267   7.439   1.596  0.7076  0.7335 -0.1849
13886SOL     OW43141   7.812   3.129   6.186 -0.0622  0.5638  0.4583
13886SOL    HW143142   7.782   3.217   6.164 -0.5468 -0.3576 -2.9577
13886SOL    HW243143   7.900   3.125   6.149 -1.3517 -1.4658 -2.5795
13887SOL     OW43144   6.630   2.074   0.548 -0.8246 -0.2064 -0.1300
13887SOL    HW143145   6.691   2.086   0.475  0.9469  2.3263  1.6779
13887SOL    HW243146   6.548   2.111   0.516 -1.2202 -2.8000 -2.2574
13888SOL     OW43147   6.604   2.879   1.060 -0.4064 -0.1704 -0.2463
13888SOL    HW143148   6.692   2.854   1.088 -1.3689 -1.2117  1.9295
13888SOL    HW243149   6.615   2.904   0.968  2.5454  1.8724  0.5975
13889SOL     OW43150   4.660   4.067   6.650  0.2884 -0.3227 -0.2845
13889SOL    HW143151   4.710   4.088   6.729  1.9890  0.3671 -1.5096
13889SOL    HW243152   4.677   4.141   6.592  0.1097 -1.4645 -1.7927
13890SOL     OW43153   3.408   2.708   0.080 -0.2618 -0.0854  0.3156
13890SOL    HW143154   3.325   2.743   0.114 -0.4318 -0.3213  0.1485
13890SOL    HW243155   3.386   2.674  -0.007  0.4741  1.7785 -0.6227
13891SOL     OW43156   7.114   4.354   6.198 -0.5676  0.1901  0.1681
13891SOL    HW143157   7.150   4.414   6.132 -2.3334  3.0029  1.6473
13891SOL    HW243158   7.019   4.358   6.185 -0.7273 -2.4734  0.2025
13892SOL     OW43159   1.054   3.398   7.703  0.4558  0.4828 -0.4628
13892SOL    HW143160   1.023   3.393   7.793  0.2409  2.4069 -0.4078
13892SOL    HW243161   1.000   3.335   7.655 -1.5069  1.6285  0.1984
13893SOL     OW43162   5.307   1.415   4.239  0.1461 -0.1234  0.3411
13893SOL    HW143163   5.304   1.319   4.233  1.5608 -0.2450  1.2851
13893SOL    HW243164   5.362   1.442   4.166 -1.3416  0.0854 -0.7259
13894SOL     OW43165   3.751   0.521   4.034 -0.2704  0.3483  0.0835
13894SOL    HW143166   3.685   0.590   4.041  0.7752  1.5142 -1.4068
13894SOL    HW243167   3.718   0.463   3.965 -0.5958 -0.0487  0.5657
13895SOL     OW43168   6.232   4.838   5.612 -0.2204  0.4590  0.2743
13895SOL    HW143169   6.154   4.834   5.666 -0.2796 -0.5701  0.1351
13895SOL    HW243170   6.207   4.890   5.536 -0.3897  1.1887  0.8263
13896SOL     OW43171   1.615   2.248   6.428 -0.6143 -0.5599 -0.6017
13896SOL    HW143172   1.646   2.179   6.370  2.6370  0.4249 -0.1561
13896SOL    HW243173   1.650   2.225   6.514 -2.9148 -0.4652  0.3818
13897SOL     OW43174   6.841   7.121   1.130  0.4597  0.5873 -0.2209
13897SOL    HW143175   6.860   7.098   1.038  3.6608 -2.4002  1.0508
13897SOL    HW243176   6.925   7.149   1.165  0.0733 -1.6715  2.6922
13898SOL     OW43177   1.554   1.276   7.218 -0.7638  0.0974  0.2162
13898SOL    HW143178   1.592   1.352   7.175 -3.4029  0.7732 -1.0521
13898SOL    HW243179   1.462   1.276   7.190 -1.5135 -1.9094  2.4785
13899SOL     OW43180   1.192   4.746   1.267  0.7960  0.4298  0.3171
13899SOL    HW143181   1.202   4.747   1.172  1.7905 -2.5982  0.3064
13899SOL    HW243182   1.278   4.772   1.300  0.9156  0.0162  0.3452
13900SOL     OW43183   6.532   4.387   5.337 -0.0317 -0.4939  0.2878
13900SOL    HW143184   6.445   4.361   5.305 -0.0028  1.1807 -1.2130
13900SOL    HW243185   6.593   4.345   5.277  0.0843  1.1730 -0.7565
13901SOL     OW43186   0.923   1.457   3.563 -0.3068 -0.1758 -0.2746
13901SOL    HW143187   0.999   1.470   3.620 -1.2026 -0.1286  0.9268
13901SOL    HW243188   0.853   1.507   3.604 -1.5265 -1.8530 -0.2657
13902SOL     OW43189   6.187   7.964   5.745 -0.2855  0.0551 -0.2982
13902SOL    HW143190   6.153   7.978   5.657  0.3659  1.6063 -0.3246
13902SOL    HW243191   6.261   7.905   5.733  1.3097  2.1776 -1.1194
13903SOL     OW43192   7.975   1.819   3.385 -0.3174 -0.2355 -0.5000
13903SOL    HW143193   7.884   1.796   3.370 -0.4460  0.2969 -0.5605
13903SOL    HW243194   8.011   1.746   3.435 -0.3591 -1.2103 -1.8558
13904SOL     OW43195   7.709   2.995   5.943  0.5051 -0.2721  0.0437
13904SOL    HW143196   7.739   2.961   6.027  0.1433  2.7000  1.4339
13904SOL    HW243197   7.635   3.052   5.965  0.3248  0.4412 -2.2944
13905SOL     OW43198   1.877   5.316   2.971 -0.5303  0.4035  0.2412
13905SOL    HW143199   1.880   5.305   2.876  1.5091  0.9453  0.2208
13905SOL    HW243200   1.915   5.403   2.986 -0.6977  0.2542  1.5650
13906SOL     OW43201   7.701   4.175   2.286  0.3365 -0.8479  0.0046
13906SOL    HW143202   7.623   4.213   2.326  0.1696 -0.2883 -0.8406
13906SOL    HW243203   7.759   4.250   2.271  0.7731 -1.1766  0.0331
13907SOL     OW43204   4.131   0.626   2.415 -0.3947  0.2599  0.3319
13907SOL    HW143205   4.102   0.693   2.476 -0.1471  1.5101 -0.8961
13907SOL    HW243206   4.213   0.594   2.452 -1.9161 -1.3847  2.4000
13908SOL     OW43207   4.450   4.477   1.486 -0.4088 -0.2854  0.1507
13908SOL    HW143208   4.449   4.534   1.563  1.4678  0.3441 -0.2690
13908SOL    HW243209   4.407   4.529   1.418  0.5347  0.3116 -0.0011
13909SOL     OW43210   0.800   3.629   5.745 -0.3566 -0.1791 -0.0073
13909SOL    HW143211   0.744   3.705   5.764  1.2489  0.9677  0.2303
13909SOL    HW243212   0.743   3.553   5.758 -2.2476  1.0134 -1.1860
13910SOL     OW43213   7.153   1.535   8.249  0.2094 -0.0443 -0.0769
13910SOL    HW143214   7.187   1.482   8.321  0.7349  1.3607  0.7086
13910SOL    HW243215   7.067   1.564   8.279  0.2336  0.1608 -0.2036
13911SOL     OW43216   3.280   1.883   4.170  0.1811  0.6042  0.4604
13911SOL    HW143217   3.250   1.918   4.253 -0.3609 -0.2446  0.6318
13911SOL    HW243218   3.267   1.954   4.107  0.9467  1.3791  1.1593
13912SOL     OW43219   3.230   8.289   5.313 -0.7874 -0.0322  0.7824
13912SOL    HW143220   3.266   8.220   5.370  0.0553  0.8549  1.3490
13912SOL    HW243221   3.141   8.301   5.344 -0.9806 -0.9389  0.6105
13913SOL     OW43222   2.331   0.909   4.708  0.0278 -0.3713  0.3889
13913SOL    HW143223   2.293   0.961   4.779 -2.8900 -1.0611 -0.5889
13913SOL    HW243224   2.287   0.823   4.715  0.3482 -0.7321 -1.6651
13914SOL     OW43225   0.011   3.196   7.503 -0.2740 -0.0247  0.1686
13914SOL    HW143226   0.056   3.125   7.547 -0.9322 -0.0747  0.7682
13914SOL    HW243227   0.074   3.228   7.438  0.4712 -0.3417  0.7302
13915SOL     OW43228   1.868   3.684   5.883  0.5349 -0.8999 -0.2438
13915SOL    HW143229   1.844   3.620   5.950 -0.9869 -0.4717 -0.3527
13915SOL    HW243230   1.850   3.639   5.800  0.3000 -0.6477 -0.3302
13916SOL     OW43231   7.960   4.956   5.011  0.1705  0.3305  0.0086
13916SOL    HW143232   7.903   4.988   4.941  2.2601  1.0171 -1.4238
13916SOL    HW243233   8.004   5.035   5.043  0.0957 -0.1506  1.3157
13917SOL     OW43234   4.980   5.261   1.191  0.1341 -0.0637  0.1892
13917SOL    HW143235   5.013   5.196   1.254 -0.7177 -1.9645 -1.2766
13917SOL    HW243236   4.921   5.316   1.242 -0.0501 -1.1812  1.2123
13918SOL     OW43237   3.059   2.864   6.759  0.4370  0.2531  0.2092
13918SOL    HW143238   3.031   2.862   6.667  0.2718  0.3424  0.2581
13918SOL    HW243239   3.023   2.946   6.793  0.6328  0.2975  0.3127
13919SOL     OW43240   8.274   4.470   0.116  0.3338  0.6449  0.2825
13919SOL    HW143241   8.332   4.431   0.051  0.4175  0.8715  0.2205
13919SOL    HW243242   8.233   4.544   0.070 -0.8124 -0.1641 -0.0158
13920SOL     OW43243   7.083   0.730   4.005  0.5345  0.1886  0.4483
13920SOL    HW143244   7.031   0.771   4.075  0.4157  1.1119 -0.1669
13920SOL    HW243245   7.040   0.758   3.924  0.9875 -0.4350 -0.0106
13921SOL     OW43246   4.045   5.389   1.428  0.4948  0.5924 -0.3014
13921SOL    HW143247   4.067   5.342   1.509  1.4727  0.9101 -0.3733
13921SOL    HW243248   4.082   5.477   1.441  0.2700  0.7801 -0.9101
13922SOL     OW43249   6.638   0.617   1.696  0.5070 -0.4515 -0.7651
13922SOL    HW143250   6.697   0.543   1.703  0.9680  0.1343  1.9608
13922SOL    HW243251   6.571   0.602   1.763 -0.7090  0.4399 -1.7378
13923SOL     OW43252   0.408   6.902   2.990 -0.4598  0.2564 -0.0112
13923SOL    HW143253   0.357   6.866   2.917 -2.0720  1.5345  0.4545
13923SOL    HW243254   0.358   6.878   3.068  1.5442 -1.5941  0.7608
13924SOL     OW43255   3.729   6.906   8.145 -0.0948  0.1478 -0.0906
13924SOL    HW143256   3.823   6.900   8.157  0.1131  0.8279 -1.2779
13924SOL    HW243257   3.692   6.848   8.211  1.1356  0.2576  0.7014
13925SOL     OW43258   7.764   7.227   7.056 -0.3969  0.4456  0.0478
13925SOL    HW143259   7.851   7.258   7.077 -0.3842  0.8505 -0.5743
13925SOL    HW243260   7.759   7.140   7.095  0.4755  0.2061 -0.3574
13926SOL     OW43261   4.011   2.242   5.100  0.3042  0.1566  0.3234
13926SOL    HW143262   4.080   2.188   5.139 -0.0893  1.3022  2.7698
13926SOL    HW243263   3.932   2.218   5.149 -0.4388  0.9020 -0.5042
13927SOL     OW43264   4.801   5.440   5.280  0.3642  0.1105  0.2093
13927SOL    HW143265   4.869   5.507   5.275 -0.4135  0.9654  0.7019
13927SOL    HW243266   4.732   5.480   5.334 -1.1215 -0.1832 -1.3976
13928SOL     OW43267   3.670   4.828   6.471  0.7621  0.1110 -0.3088
13928SOL    HW143268   3.752   4.861   6.436  1.1782 -0.4132  0.1626
13928SOL    HW243269   3.693   4.788   6.555 -0.3216  1.8674  0.8515
13929SOL     OW43270   1.993   3.799   0.960 -0.4312  0.0523 -0.5441
13929SOL    HW143271   1.987   3.704   0.969  1.6281 -0.2608 -2.0553
13929SOL    HW243272   2.028   3.829   1.044  0.1709 -0.6795 -0.5237
13930SOL     OW43273   1.286   6.944   3.988  0.0720  0.2799 -0.0633
13930SOL    HW143274   1.291   7.002   3.912 -0.3475  0.1584 -0.1828
13930SOL    HW243275   1.214   6.884   3.968  0.0402  0.1687  0.3762
13931SOL     OW43276   2.762   7.451   4.666  0.5296  0.0731  0.1303
13931SOL    HW143277   2.713   7.398   4.604  0.7034  1.7483 -1.4570
13931SOL    HW243278   2.695   7.499   4.716  0.4402 -0.2086  0.2820
13932SOL     OW43279   4.928   2.835   0.070  0.0654 -0.0268 -0.2433
13932SOL    HW143280   4.907   2.851   0.162  0.9515  0.1297 -0.0681
13932SOL    HW243281   4.877   2.901   0.022 -0.1242  0.1165  0.1534
13933SOL     OW43282   3.692   2.646   4.407  0.3365 -0.4070 -0.1177
13933SOL    HW143283   3.704   2.616   4.317 -0.2988  1.2189 -0.7696
13933SOL    HW243284   3.700   2.741   4.401 -2.5990 -0.0342  1.0437
13934SOL     OW43285   1.852   0.791   4.979 -0.4108  0.6920 -0.2261
13934SOL    HW143286   1.899   0.744   4.910 -0.1950  1.6677 -0.7511
13934SOL    HW243287   1.761   0.790   4.951 -0.4568  0.3263 -0.0765
13935SOL     OW43288   4.998   2.830   1.874 -0.1867  0.2965  0.0114
13935SOL    HW143289   4.989   2.735   1.870  0.2219  0.2413  0.3202
13935SOL    HW243290   4.960   2.854   1.958  2.8238  0.0097  1.5480
13936SOL     OW43291   6.396   5.198   5.507 -0.3446 -0.9402 -0.7769
13936SOL    HW143292   6.379   5.221   5.598 -1.0775 -2.1745 -0.5847
13936SOL    HW243293   6.484   5.161   5.507 -0.3288 -0.9053 -0.5621
13937SOL     OW43294   6.785   6.580   1.039  0.0765  0.7113 -0.3214
13937SOL    HW143295   6.814   6.669   1.019  1.6163  0.3655  0.2915
13937SOL    HW243296   6.811   6.528   0.963 -0.8280  0.7741 -0.6819
13938SOL     OW43297   7.323   0.724   8.080  0.0741 -0.3713  0.2743
13938SOL    HW143298   7.228   0.724   8.083  0.0412  0.2337 -0.6919
13938SOL    HW243299   7.345   0.756   7.993  1.1725  0.5115  0.8634
13939SOL     OW43300   2.539   3.578   0.000 -0.0161  0.1021  0.1880
13939SOL    HW143301   2.562   3.665   0.033  1.9800 -0.2867 -0.1365
13939SOL    HW243302   2.600   3.518   0.044 -1.3761 -1.1455  0.4256
13940SOL     OW43303   0.280   3.222   0.504 -0.4206 -0.0656  0.2909
13940SOL    HW143304   0.230   3.299   0.529 -0.2842 -0.3855  1.5861
13940SOL    HW243305   0.315   3.243   0.417 -2.5089  0.2867 -0.4765
13941SOL     OW43306   8.167   4.907   1.277 -0.0582  0.3184  0.0615
13941SOL    HW143307   8.233   4.903   1.346 -0.4582 -0.3131  0.4116
13941SOL    HW243308   8.090   4.944   1.320 -0.5646 -0.8436  0.1655
13942SOL     OW43309   0.091   5.607   0.533  0.4251 -0.4343 -0.1846
13942SOL    HW143310   0.045   5.525   0.518  1.1964 -0.8292 -0.4305
13942SOL    HW243311   0.038   5.653   0.598 -0.5418 -0.6883 -0.7824
13943SOL     OW43312   4.675   6.800   2.148  0.1740  0.1705  0.0744
13943SOL    HW143313   4.684   6.754   2.064 -1.5039  0.1855 -0.1337
13943SOL    HW243314   4.718   6.743   2.212 -1.5451 -1.5120 -0.2447
13944SOL     OW43315   4.827   4.835   6.629 -0.2137  0.0736  0.1881
13944SOL    HW143316   4.828   4.820   6.724  0.9028  2.0928  0.5254
13944SOL    HW243317   4.759   4.776   6.596  0.4553 -1.7856  2.0359
13945SOL     OW43318   7.919   7.078   1.094 -0.6040  0.0191 -0.1615
13945SOL    HW143319   7.898   7.055   1.003 -0.9488  0.2982 -0.1504
13945SOL    HW243320   7.841   7.123   1.126 -0.4941 -0.1099  0.2842
13946SOL     OW43321   3.651   0.029   1.451  0.1653  0.0782  0.3085
13946SOL    HW143322   3.570   0.004   1.495  0.3234 -0.0781  0.5077
13946SOL    HW243323   3.712   0.051   1.521  0.2582  0.3161  0.1553
13947SOL     OW43324   3.587   4.274   0.621 -0.3211  0.5644 -0.3470
13947SOL    HW143325   3.647   4.337   0.582  0.8692 -0.8808 -0.8709
13947SOL    HW243326   3.582   4.300   0.713  0.9449  0.8139 -0.3398
13948SOL     OW43327   3.825   3.620   4.722  0.3525 -0.1325 -0.2691
13948SOL    HW143328   3.843   3.619   4.628  1.1102  0.7936 -0.1345
13948SOL    HW243329   3.752   3.558   4.732 -1.5460  1.7438 -1.8468
13949SOL     OW43330   4.797   2.212   1.697 -0.3545 -0.1859 -0.8510
13949SOL    HW143331   4.866   2.151   1.724 -0.3469 -0.1712 -0.8358
13949SOL    HW243332   4.822   2.239   1.609  0.3286  0.7705 -0.3706
13950SOL     OW43333   7.603   7.864   1.811  0.4382  0.1731  0.2907
13950SOL    HW143334   7.529   7.833   1.759 -0.2308  1.3113  0.5338
13950SOL    HW243335   7.676   7.867   1.749 -0.0851  0.4493 -0.3247
13951SOL     OW43336   2.885   7.245   2.080 -0.5862 -0.4594  0.1903
13951SOL    HW143337   2.940   7.281   2.150  0.1614  1.4482 -1.3225
13951SOL    HW243338   2.799   7.285   2.093 -0.3183  0.2645 -0.2571
13952SOL     OW43339   2.979   5.741   8.156  0.3142 -0.0533  0.2886
13952SOL    HW143340   2.976   5.668   8.217  0.3168 -0.4265 -0.1563
13952SOL    HW243341   2.903   5.794   8.178 -0.1184 -0.5980  0.1072
13953SOL     OW43342   1.827   3.760   0.333  0.1904  0.6924 -0.3170
13953SOL    HW143343   1.787   3.792   0.253 -0.5452 -0.7767 -0.5672
13953SOL    HW243344   1.886   3.690   0.304 -0.2379  0.0131  0.4215
13954SOL     OW43345   7.559   6.343   1.872  0.3338  0.0810  0.4976
13954SOL    HW143346   7.473   6.313   1.840  1.3923 -0.2899 -2.1080
13954SOL    HW243347   7.547   6.437   1.888 -0.5716  0.0164  0.2634
13955SOL     OW43348   0.685   5.183   3.027  0.2210  0.2138  0.3404
13955SOL    HW143349   0.726   5.167   2.942  2.2976  1.0569  1.1392
13955SOL    HW243350   0.710   5.108   3.081  1.3862  1.0897  1.0535
13956SOL     OW43351   4.419   1.624   3.844 -0.4625 -0.0351  0.0929
13956SOL    HW143352   4.410   1.657   3.934 -1.0240  0.5413 -0.1728
13956SOL    HW243353   4.466   1.693   3.798 -0.8435  0.0024 -0.2402
13957SOL     OW43354   3.828   0.728   1.362 -0.0193  0.1015  0.4416
13957SOL    HW143355   3.765   0.693   1.425  1.6951 -3.3284  0.4076
13957SOL    HW243356   3.907   0.744   1.413  0.4658  0.0742 -0.2839
13958SOL     OW43357   4.192   0.436   2.656  0.0664 -0.5962  0.4480
13958SOL    HW143358   4.181   0.347   2.621 -0.7034 -0.3505  0.0502
13958SOL    HW243359   4.235   0.423   2.740  0.1686 -1.3357  0.2863
13959SOL     OW43360   2.880   8.109   2.654 -0.2611  0.2320 -0.3166
13959SOL    HW143361   2.947   8.050   2.619 -1.5686 -0.7692 -1.1769
13959SOL    HW243362   2.874   8.180   2.590  0.2926  0.5593 -0.0077
13960SOL     OW43363   6.853   5.035   6.807 -0.3216  0.2850 -0.1822
13960SOL    HW143364   6.916   5.030   6.880 -0.0173 -2.2479 -0.5595
13960SOL    HW243365   6.900   4.997   6.733 -1.3698  0.8840 -1.1602
13961SOL     OW43366   7.978   5.060   6.013  0.1111 -0.4054  0.3302
13961SOL    HW143367   8.050   5.032   6.069  1.3856  1.3510 -0.3396
13961SOL    HW243368   7.899   5.040   6.062  1.1358 -0.5227  1.9683
13962SOL     OW43369   0.950   6.655   0.335 -0.2922 -0.3301  0.6684
13962SOL    HW143370   0.955   6.607   0.252 -1.2122  0.5372  0.1081
13962SOL    HW243371   0.960   6.587   0.402  0.4560 -1.0379 -0.1437
13963SOL     OW43372   0.623   1.883   5.265  0.4876 -0.2209  0.3003
13963SOL    HW143373   0.635   1.867   5.172 -0.1489 -2.6420  0.6159
13963SOL    HW243374   0.670   1.811   5.308 -0.3679  0.1119  1.8222
13964SOL     OW43375   1.304   1.046   5.316 -0.4276 -0.6736 -0.1805
13964SOL    HW143376   1.378   1.055   5.377  0.2152 -0.5908 -0.9601
13964SOL    HW243377   1.254   1.127   5.327  0.2262 -0.2262 -0.4659
13965SOL     OW43378   6.112   7.918   4.815  0.0381  0.4435 -0.2982
13965SOL    HW143379   6.054   7.983   4.854  0.4153  0.1071  0.8452
13965SOL    HW243380   6.157   7.965   4.744 -0.6634  1.0565 -0.3342
13966SOL     OW43381   6.642   8.072   1.069  0.4206 -1.1753  0.2523
13966SOL    HW143382   6.558   8.112   1.050  0.9496 -0.7450 -1.2704
13966SOL    HW243383   6.700   8.145   1.090  1.4624 -1.0422 -2.8118
13967SOL     OW43384   4.146   4.299   1.505  0.0492  0.0359 -0.6712
13967SOL    HW143385   4.197   4.255   1.437  2.1280 -0.2031  0.9690
13967SOL    HW243386   4.165   4.392   1.492 -0.5306  0.0812 -1.1836
13968SOL     OW43387   1.332   2.589   2.548  0.3213 -0.1461  0.1774
13968SOL    HW143388   1.355   2.676   2.582 -1.8684  1.3269 -1.8927
13968SOL    HW243389   1.260   2.560   2.603  2.1052 -1.4048  1.8921
13969SOL     OW43390   4.944   0.047   6.966 -0.0003 -0.3361  0.0077
13969SOL    HW143391   4.969  -0.045   6.971 -1.0027 -0.6468 -0.4777
13969SOL    HW243392   4.940   0.066   6.872 -0.2636  0.0626  0.0967
13970SOL     OW43393   4.882   6.282   2.935  0.3190  0.4087 -0.3323
13970SOL    HW143394   4.911   6.370   2.911 -0.6784  0.8063 -0.1024
13970SOL    HW243395   4.868   6.237   2.851 -0.1630  0.8056 -0.4675
13971SOL     OW43396   6.989   6.179   2.701 -1.4677 -0.2458  0.3647
13971SOL    HW143397   7.038   6.191   2.620 -0.3707 -0.1619  1.0321
13971SOL    HW243398   6.946   6.094   2.691 -2.1335  0.2061 -0.7052
13972SOL     OW43399   6.446   1.585   6.133 -0.4482  0.3457  0.4120
13972SOL    HW143400   6.355   1.577   6.163 -0.9439  0.2297 -1.0710
13972SOL    HW243401   6.476   1.668   6.167 -1.3240  0.6728  0.3970
13973SOL     OW43402   4.414   0.154   2.953  0.7078 -0.1201  0.4075
13973SOL    HW143403   4.433   0.128   3.043  2.1611 -0.0221  0.1509
13973SOL    HW243404   4.433   0.075   2.901  2.7968  0.6855 -0.1122
13974SOL     OW43405   2.414   3.672   4.573  0.3442 -0.0409 -0.0872
13974SOL    HW143406   2.327   3.696   4.539  0.0949 -0.0871  0.5189
13974SOL    HW243407   2.467   3.750   4.559 -0.6283  1.1228  2.4708
13975SOL     OW43408   7.215   2.941   1.623 -0.3274  0.2290  0.0246
13975SOL    HW143409   7.295   2.890   1.635 -1.4529 -1.1051  2.1464
13975SOL    HW243410   7.175   2.905   1.544  0.8224  0.4580 -0.6734
13976SOL     OW43411   4.059   4.388   8.127 -0.1468  0.8795  0.1974
13976SOL    HW143412   4.143   4.343   8.133 -0.7634 -0.4440 -0.6753
13976SOL    HW243413   4.001   4.337   8.183 -1.1586 -0.2067 -1.7491
13977SOL     OW43414   4.193   7.552   4.920 -0.5230  0.2261 -0.0718
13977SOL    HW143415   4.243   7.588   4.847 -0.1342 -1.8916 -0.8897
13977SOL    HW243416   4.232   7.465   4.935 -1.4415  0.1215  1.7998
13978SOL     OW43417   3.284   3.300   3.788 -0.0764  0.6685 -0.5290
13978SOL    HW143418   3.351   3.273   3.851 -1.7515  2.0738  1.9702
13978SOL    HW243419   3.248   3.218   3.755  0.9297 -0.1108  0.2465
13979SOL     OW43420   0.488   3.203   8.036 -0.2746  0.1782  0.2798
13979SOL    HW143421   0.418   3.253   8.077 -0.3709  0.7239 -0.5296
13979SOL    HW243422   0.446   3.159   7.963  0.0426 -0.2053  0.3277
13980SOL     OW43423   1.859   4.427   2.514 -0.1489 -0.2101 -0.2479
13980SOL    HW143424   1.858   4.517   2.483 -0.7959  0.3466  1.3208
13980SOL    HW243425   1.910   4.430   2.595  0.0967 -1.3121 -0.3525
13981SOL     OW43426   2.301   4.890   8.255  0.2686  0.1122 -0.0823
13981SOL    HW143427   2.373   4.916   8.198  0.5189  0.5064  0.4111
13981SOL    HW243428   2.343   4.863   8.337 -0.0493 -1.0091 -0.2759
13982SOL     OW43429   2.781   1.026   6.459  0.2149  0.2561 -0.3697
13982SOL    HW143430   2.689   1.005   6.477  0.0105  0.6343 -0.9391
13982SOL    HW243431   2.790   1.014   6.364  0.8594 -0.1856 -0.2547
13983SOL     OW43432   5.463   7.663   3.285 -0.1151  0.6162 -0.0854
13983SOL    HW143433   5.433   7.606   3.356  2.1785  0.6292  0.9415
13983SOL    HW243434   5.540   7.618   3.249 -0.7764  1.0133 -2.0528
13984SOL     OW43435   5.828   6.181   3.035  0.1424  0.4938 -0.0837
13984SOL    HW143436   5.772   6.103   3.033  1.0033 -0.1271 -0.0323
13984SOL    HW243437   5.846   6.195   3.128  1.3523 -0.2360 -0.1943
13985SOL     OW43438   8.278   1.720   5.367  0.0834  0.1871  0.0916
13985SOL    HW143439   8.304   1.812   5.374 -1.1431  0.4947  0.6403
13985SOL    HW243440   8.267   1.705   5.273 -0.2627  0.7563  0.0395
13986SOL     OW43441   3.167   2.826   6.435 -0.0325 -0.3072  0.1532
13986SOL    HW143442   3.165   2.738   6.472  0.0520 -0.8915 -1.2148
13986SOL    HW243443   3.125   2.818   6.349 -1.0637  1.2205  0.4878
13987SOL     OW43444   8.192   5.923   4.724  0.4218 -0.2040 -0.0130
13987SOL    HW143445   8.115   5.957   4.770  0.2233 -0.9100  0.1828
13987SOL    HW243446   8.247   6.000   4.709 -0.3528  0.3162 -0.2163
13988SOL     OW43447   5.050   1.254   3.607 -0.1362 -0.0233  0.1817
13988SOL    HW143448   4.973   1.221   3.653 -2.0185  1.4855 -1.7653
13988SOL    HW243449   5.048   1.349   3.619 -0.8828  0.4595 -3.1791
13989SOL     OW43450   7.902   4.625   5.220 -0.2001  0.0874 -0.1470
13989SOL    HW143451   7.863   4.712   5.229  0.0637  0.0918  0.9346
13989SOL    HW243452   7.854   4.585   5.147 -0.1130  1.2500 -0.8511
13990SOL     OW43453   1.876   4.804   4.618  0.1269 -0.1780  0.0125
13990SOL    HW143454   1.849   4.858   4.692  0.5010  0.0925 -0.0496
13990SOL    HW243455   1.832   4.720   4.632  0.0388 -0.0608  0.4319
13991SOL     OW43456   1.365   2.008   2.650 -0.0042  0.3313  0.6278
13991SOL    HW143457   1.311   2.071   2.697 -0.2695  0.8293 -0.3349
13991SOL    HW243458   1.345   1.924   2.691 -1.0345  0.6063  0.6932
13992SOL     OW43459   1.777   3.493   5.666 -0.1681  0.5856  0.3637
13992SOL    HW143460   1.853   3.473   5.611  0.5584  2.0975  0.7865
13992SOL    HW243461   1.702   3.465   5.614  0.6983 -2.0989  0.4476
13993SOL     OW43462   4.207   4.557   4.996 -0.6793 -0.6097  1.1648
13993SOL    HW143463   4.204   4.528   5.087 -0.2321 -2.0842  0.7110
13993SOL    HW243464   4.161   4.489   4.947  1.5807 -1.2964 -0.0788
13994SOL     OW43465   7.915   3.048   3.013  0.2208  0.4060 -0.4588
13994SOL    HW143466   7.978   3.095   3.067  0.5265 -0.6468  0.1158
13994SOL    HW243467   7.829   3.071   3.049  0.4340 -0.4704  0.6408
13995SOL     OW43468   4.675   0.058   3.449 -0.3962  0.0886 -0.4234
13995SOL    HW143469   4.706   0.037   3.361 -1.6970 -0.4410 -0.7682
13995SOL    HW243470   4.691  -0.021   3.500 -1.5585 -0.3476 -0.7147
13996SOL     OW43471   5.348   2.310   3.843  0.4176  0.1897  0.3287
13996SOL    HW143472   5.299   2.366   3.903 -0.5983 -0.0987 -0.2055
13996SOL    HW243473   5.307   2.223   3.854 -1.2085  0.5689 -2.2971
13997SOL     OW43474   7.225   5.408   6.272 -0.2501 -0.6231  0.3624
13997SOL    HW143475   7.288   5.457   6.218 -0.2580  0.3577  1.2381
13997SOL    HW243476   7.180   5.475   6.323 -0.9555 -1.4638  0.8474
13998SOL     OW43477   8.181   7.717   3.176  0.5344 -0.4459 -0.4270
13998SOL    HW143478   8.242   7.745   3.108  0.8002 -0.1312 -0.0577
13998SOL    HW243479   8.141   7.798   3.207  1.7073 -0.4122  1.0273
13999SOL     OW43480   7.065   5.280   3.610 -0.3745  0.1714  0.1711
13999SOL    HW143481   7.143   5.334   3.599 -1.2927  1.6734  0.8320
13999SOL    HW243482   7.061   5.263   3.704 -1.7002  1.4705  0.3832
14000SOL     OW43483   7.548   6.613   1.830 -0.6959 -0.2447 -0.0248
14000SOL    HW143484   7.468   6.661   1.854  1.5260  1.7053  3.8249
14000SOL    HW243485   7.605   6.680   1.792  0.3384 -1.0037  0.1975
14001SOL     OW43486   0.923   3.534   7.152 -0.3966  0.4531 -0.7071
14001SOL    HW143487   0.866   3.458   7.136 -0.0911  0.2721 -0.9461
14001SOL    HW243488   0.983   3.504   7.220 -1.0776  0.9001  0.1026
14002SOL     OW43489   2.969   5.154   4.356  0.4485  0.3416  0.3297
14002SOL    HW143490   2.956   5.081   4.295  0.5217  0.1981  0.4870
14002SOL    HW243491   3.020   5.218   4.306  0.3274  0.3143  0.1701
14003SOL     OW43492   7.340   0.821   7.471  0.3999 -0.0661 -0.3191
14003SOL    HW143493   7.245   0.830   7.475  0.4489  0.2101  0.2634
14003SOL    HW243494   7.370   0.906   7.439  0.4884  0.0121 -0.0221
14004SOL     OW43495   5.590   4.075   2.185 -0.4570  0.1020  0.1599
14004SOL    HW143496   5.674   4.116   2.205 -0.0973 -0.7486  0.4234
14004SOL    HW243497   5.536   4.146   2.150 -0.4655  1.1914  2.3266
14005SOL     OW43498   5.628   1.260   7.837 -0.3437  0.7603  0.1290
14005SOL    HW143499   5.673   1.199   7.895 -1.8942 -0.8020 -0.2576
14005SOL    HW243500   5.619   1.340   7.888  1.7784  0.7137  0.6224
14006SOL     OW43501   3.280   5.167   7.001 -0.1016 -0.0767 -0.4354
14006SOL    HW143502   3.302   5.204   7.086 -0.1683  0.5476 -0.6873
14006SOL    HW243503   3.193   5.128   7.014 -0.2312  0.2607 -0.2926
14007SOL     OW43504   0.115   6.428   2.421 -0.4340 -0.1950  0.8619
14007SOL    HW143505   0.125   6.451   2.514 -0.8397  0.0497  0.8472
14007SOL    HW243506   0.020   6.434   2.406 -0.6370 -2.3576  0.9975
14008SOL     OW43507   0.251   6.209   4.673  0.3671 -0.4075  0.3635
14008SOL    HW143508   0.276   6.213   4.765  0.4028 -2.0369  0.4371
14008SOL    HW243509   0.235   6.300   4.649 -0.2141 -0.0162  2.1314
14009SOL     OW43510   3.740   3.625   3.190  0.1969 -0.0539  0.0019
14009SOL    HW143511   3.820   3.592   3.230  0.1444 -0.2029 -0.0180
14009SOL    HW243512   3.690   3.547   3.167 -0.8108  0.0783  1.7264
14010SOL     OW43513   5.097   3.105   3.854  0.0762  0.5154 -0.0075
14010SOL    HW143514   5.013   3.149   3.864  0.3485  1.4690 -1.7309
14010SOL    HW243515   5.100   3.043   3.927 -1.0628  2.1220  1.4592
14011SOL     OW43516   3.820   3.081   1.793 -0.1895 -0.1829  0.2062
14011SOL    HW143517   3.793   3.005   1.741  2.4609 -1.5509  0.7459
14011SOL    HW243518   3.849   3.044   1.876  0.7345  1.4772  0.6485
14012SOL     OW43519   4.619   7.586   5.843  0.8730  0.4602  0.2243
14012SOL    HW143520   4.550   7.614   5.903  2.0371  0.1452  1.7105
14012SOL    HW243521   4.617   7.651   5.773 -1.6741 -0.1626 -0.3385
14013SOL     OW43522   3.450   4.086   2.768  0.7296 -0.1058 -0.3585
14013SOL    HW143523   3.498   4.076   2.685  1.4716  1.0394 -0.0757
14013SOL    HW243524   3.377   4.144   2.746  2.8706  3.0519  0.5154
14014SOL     OW43525   7.332   7.171   8.245  0.0049 -0.0372  0.3319
14014SOL    HW143526   7.293   7.118   8.314  0.6558 -1.3534 -0.2953
14014SOL    HW243527   7.427   7.160   8.257  0.1173 -2.3738 -2.3325
14015SOL     OW43528   4.118   4.483   3.609 -0.5373  0.0034 -0.0926
14015SOL    HW143529   4.092   4.444   3.693  0.2598 -1.5563 -0.5422
14015SOL    HW243530   4.087   4.573   3.614 -1.7520 -0.4627  1.3121
14016SOL     OW43531   3.153   7.623   0.592  0.1446  0.4146  0.5301
14016SOL    HW143532   3.167   7.655   0.503  0.4826  2.1068  1.1755
14016SOL    HW243533   3.235   7.578   0.614  0.3453  0.6309  0.2409
14017SOL     OW43534   2.054   3.211   4.046  0.6449 -0.2857 -0.2794
14017SOL    HW143535   2.109   3.215   3.968  1.1233  1.7714  0.1370
14017SOL    HW243536   1.965   3.199   4.011  0.9126  0.0709 -1.1057
14018SOL     OW43537   7.345   6.648   3.466  0.1827 -0.2763 -0.1813
14018SOL    HW143538   7.283   6.628   3.536  0.5210 -2.7762 -0.5422
14018SOL    HW243539   7.405   6.712   3.504 -1.1719  0.3566  0.9450
14019SOL     OW43540   7.265   0.510   7.800 -0.3963 -0.6406 -0.2011
14019SOL    HW143541   7.192   0.507   7.739  0.5635 -0.4228 -1.3760
14019SOL    HW243542   7.337   0.466   7.755 -0.1766 -2.0968  1.4821
14020SOL     OW43543   4.900   6.281   6.846 -0.3218  0.8378  0.1590
14020SOL    HW143544   4.811   6.283   6.881 -0.8234  0.4696 -1.0819
14020SOL    HW243545   4.956   6.270   6.923 -1.5229 -1.9327  0.6840
14021SOL     OW43546   7.595   8.238   0.474  0.4059 -0.2759  0.3927
14021SOL    HW143547   7.651   8.265   0.547 -0.9681  1.3476  0.8870
14021SOL    HW243548   7.637   8.277   0.397 -0.6172  1.9483  0.8987
14022SOL     OW43549   3.737   8.238   7.486  0.6325 -0.5002 -1.2818
14022SOL    HW143550   3.646   8.267   7.488  0.2295 -1.8032 -0.5764
14022SOL    HW243551   3.787   8.317   7.505 -0.2754  0.4995 -2.8734
14023SOL     OW43552   0.562   2.464   5.234  0.0600 -0.2529  0.6017
14023SOL    HW143553   0.531   2.378   5.209  0.4902 -0.5221  0.9810
14023SOL    HW243554   0.564   2.514   5.153 -0.7731 -0.4152  0.4797
14024SOL     OW43555   3.631   4.243   0.942  0.1667 -0.2460  0.5138
14024SOL    HW143556   3.627   4.155   0.906 -1.9546  0.6680 -1.6386
14024SOL    HW243557   3.550   4.252   0.993 -0.9083  1.2847 -1.3863
14025SOL     OW43558   0.926   1.892   2.812 -0.0555  0.6597 -0.0188
14025SOL    HW143559   0.972   1.826   2.761  1.0332 -0.2374  2.0488
14025SOL    HW243560   0.974   1.973   2.797 -1.3260  0.9971 -2.4733
14026SOL     OW43561   4.598   7.361   2.118  0.4558 -0.1925  0.0207
14026SOL    HW143562   4.584   7.283   2.172  0.1658  0.0597  0.3151
14026SOL    HW243563   4.519   7.366   2.063 -0.3771  0.9116  1.2799
14027SOL     OW43564   6.100   2.410   6.206  0.7096  0.4080 -0.0237
14027SOL    HW143565   6.133   2.481   6.260  0.6033 -0.6390  1.4237
14027SOL    HW243566   6.174   2.349   6.199  0.2892 -0.1041  0.0431
14028SOL     OW43567   3.293   4.741   6.089 -0.0718 -1.3233  0.1887
14028SOL    HW143568   3.369   4.761   6.035 -1.0307 -0.4091 -0.8455
14028SOL    HW243569   3.219   4.742   6.029 -1.3104  0.8120  1.6842
14029SOL     OW43570   1.044   7.885   1.990  0.7665  0.3313 -0.5199
14029SOL    HW143571   1.045   7.956   2.055  1.2185  0.4819 -0.6946
14029SOL    HW243572   1.006   7.925   1.912 -1.7172 -0.3892  0.2707
14030SOL     OW43573   2.077   6.071   2.599 -0.2743  0.3498 -0.5403
14030SOL    HW143574   2.009   6.015   2.638  0.2878  0.4922  0.6648
14030SOL    HW243575   2.154   6.056   2.652 -0.3961  3.1006  0.5316
14031SOL     OW43576   3.176   3.289   1.799  0.7373 -0.0515 -0.2839
14031SOL    HW143577   3.216   3.376   1.791  3.4731 -1.0023  2.0161
14031SOL    HW243578   3.226   3.234   1.740  0.1822 -0.4196 -0.4072
14032SOL     OW43579   5.799   7.304   1.229  0.0915 -0.4155 -0.6704
14032SOL    HW143580   5.892   7.318   1.247 -0.3006  2.0915 -0.3826
14032SOL    HW243581   5.798   7.258   1.145  1.6178 -2.0636  0.1891
14033SOL     OW43582   1.883   1.019   6.643  0.2645 -0.1539 -0.5652
14033SOL    HW143583   1.974   1.011   6.673  0.0591  0.1844  0.1462
14033SOL    HW243584   1.886   1.085   6.574  0.1078  1.9834  1.4032
14034SOL     OW43585   2.883   0.945   0.130  0.0872  0.7063  0.4081
14034SOL    HW143586   2.794   0.931   0.161 -0.2526  0.4079 -0.6773
14034SOL    HW243587   2.939   0.913   0.201 -0.6751 -0.3359  0.5465
14035SOL     OW43588   2.748   7.143   0.984 -0.1779  0.5868  0.3160
14035SOL    HW143589   2.808   7.217   0.986  1.5681 -0.7433 -0.5933
14035SOL    HW243590   2.708   7.148   0.897  0.8595 -0.2122 -0.2203
14036SOL     OW43591   2.885   4.179   3.743 -0.0235  0.6917  0.2537
14036SOL    HW143592   2.892   4.261   3.695 -3.4290  0.8119 -0.1964
14036SOL    HW243593   2.872   4.112   3.676  0.1904  0.1458  0.7501
14037SOL     OW43594   4.434   4.673   1.238 -0.2156  0.0739 -0.8168
14037SOL    HW143595   4.475   4.736   1.297  0.9059  0.5992 -2.1216
14037SOL    HW243596   4.408   4.726   1.161 -1.0249 -0.7156 -1.0980
14038SOL     OW43597   6.899   3.741   5.615  0.3569 -0.1300 -0.1106
14038SOL    HW143598   6.804   3.742   5.630  0.1804 -0.7457 -1.0939
14038SOL    HW243599   6.911   3.792   5.535  0.8920  0.1778  0.1618
14039SOL     OW43600   3.468   8.170   4.726  0.0707 -0.4841 -0.2215
14039SOL    HW143601   3.520   8.122   4.790  1.2043  0.8659 -0.0887
14039SOL    HW243602   3.478   8.262   4.752 -1.3045 -0.0932 -0.9979
14040SOL     OW43603   0.488   4.301   5.646  0.1837 -0.0487 -0.3575
14040SOL    HW143604   0.498   4.380   5.593  1.9940 -1.0921 -1.6003
14040SOL    HW243605   0.575   4.285   5.682 -0.6239 -0.3593  1.5507
14041SOL     OW43606   8.106   1.889   0.039 -0.0912  0.0971 -0.2784
14041SOL    HW143607   8.180   1.905  -0.020 -0.2761 -0.4532 -0.6693
14041SOL    HW243608   8.139   1.822   0.100  0.2716  1.0445  0.5718
14042SOL     OW43609   4.158   8.130   1.670 -0.3346  0.4267  0.3071
14042SOL    HW143610   4.207   8.085   1.739 -0.1369  1.2110  0.6853
14042SOL    HW243611   4.080   8.164   1.715 -0.0555  1.1967  0.2041
14043SOL     OW43612   4.237   4.191   1.269  0.4452  0.0681 -0.0888
14043SOL    HW143613   4.258   4.277   1.233  1.6463 -0.3197 -0.3202
14043SOL    HW243614   4.178   4.152   1.204  1.0834  0.1314 -0.7160
14044SOL     OW43615   5.860   8.288   2.270  0.2551 -0.0534  0.0902
14044SOL    HW143616   5.869   8.350   2.198 -2.1287  0.5525  0.2742
14044SOL    HW243617   5.876   8.339   2.349 -0.3123  0.0206  0.1607
14045SOL     OW43618   6.240   5.123   1.312  0.0523 -0.3506  0.5759
14045SOL    HW143619   6.251   5.208   1.268 -0.1570 -0.1421  0.9222
14045SOL    HW243620   6.146   5.113   1.321  0.0639 -0.8262  0.1406
14046SOL     OW43621   2.344   3.996   1.142 -0.1996  0.7226  0.5051
14046SOL    HW143622   2.362   4.021   1.051  0.8342 -2.8949 -0.3941
14046SOL    HW243623   2.254   3.963   1.140  1.3024 -3.7760 -0.3920
14047SOL     OW43624   7.140   8.069   6.892  0.0599 -0.3363 -0.1287
14047SOL    HW143625   7.094   7.990   6.921 -2.2148  0.8454 -0.3640
14047SOL    HW243626   7.186   8.101   6.970  0.7591 -1.7208  0.0353
14048SOL     OW43627   6.022   4.800   1.678 -0.0245 -0.1530  0.2558
14048SOL    HW143628   6.027   4.720   1.626 -1.2792 -0.3781  0.4750
14048SOL    HW243629   6.110   4.809   1.716 -0.2527 -2.1685  1.3319
14049SOL     OW43630   3.231   2.857   5.516  0.3576  0.3364 -0.0608
14049SOL    HW143631   3.150   2.810   5.537  0.4163  0.1049 -0.3473
14049SOL    HW243632   3.261   2.818   5.433 -0.3904  1.9001 -1.0856
14050SOL     OW43633   7.344   7.881   2.148  0.0219 -0.6267  0.2169
14050SOL    HW143634   7.316   7.812   2.088  1.8464 -0.3434 -0.9955
14050SOL    HW243635   7.285   7.954   2.131 -1.1184 -1.4316  0.6262
14051SOL     OW43636   3.649   6.555   2.580  0.3291  0.0850 -0.5318
14051SOL    HW143637   3.649   6.620   2.650  0.2043 -1.7875  1.2711
14051SOL    HW243638   3.741   6.546   2.556  0.5985 -0.5386  0.6584
14052SOL     OW43639   3.374   4.872   8.177  0.1508 -0.3850  0.7485
14052SOL    HW143640   3.319   4.926   8.120  0.9813 -0.4825 -0.1512
14052SOL    HW243641   3.423   4.935   8.229  0.4858 -0.2698  0.3019
14053SOL     OW43642   5.896   1.105   0.298 -0.0221  0.1394 -0.4770
14053SOL    HW143643   5.900   1.071   0.388 -1.4628  0.8064 -0.1527
14053SOL    HW243644   5.987   1.117   0.273  0.3720  1.1938  1.3720
14054SOL     OW43645   6.669   6.387   6.797  0.0894 -0.4454  0.4898
14054SOL    HW143646   6.634   6.319   6.738 -0.1673 -0.5576  0.7691
14054SOL    HW243647   6.746   6.347   6.836  0.5256 -0.2019 -0.1220
14055SOL     OW43648   1.920   1.992   0.538 -0.6267  0.4106  0.3832
14055SOL    HW143649   1.836   1.992   0.493 -1.7211 -0.0288  2.3761
14055SOL    HW243650   1.929   1.903   0.573  0.5362  0.5384  0.4463
14056SOL     OW43651   5.613   2.471   0.514 -0.6793  0.0687  0.2786
14056SOL    HW143652   5.605   2.400   0.450  0.4762 -0.2211  0.4476
14056SOL    HW243653   5.536   2.461   0.571 -0.3816 -1.2126  0.4677
14057SOL     OW43654   8.023   2.421   8.204 -0.2798  0.6542 -0.5411
14057SOL    HW143655   8.059   2.341   8.242 -0.6916  0.9926  0.5653
14057SOL    HW243656   8.016   2.482   8.277 -0.3755  1.5704 -1.2927
14058SOL     OW43657   2.722   6.827   5.647  0.1060  0.0323  0.2422
14058SOL    HW143658   2.710   6.921   5.655 -1.2091 -0.1273  0.2321
14058SOL    HW243659   2.722   6.810   5.553  0.0928 -0.0087  0.2500
14059SOL     OW43660   5.718   4.173   5.489  0.0600 -0.0607 -0.6205
14059SOL    HW143661   5.752   4.240   5.548 -0.8814 -0.5258  0.4666
14059SOL    HW243662   5.743   4.203   5.402 -0.7398  1.9487 -0.1820
14060SOL     OW43663   2.159   2.776   7.122 -0.0237 -0.4930  0.4206
14060SOL    HW143664   2.243   2.820   7.134  0.4061 -0.9197 -0.9313
14060SOL    HW243665   2.094   2.840   7.151  0.7318  0.0666  0.8965
14061SOL     OW43666   4.900   0.633   8.106 -0.2814  0.4124 -0.1718
14061SOL    HW143667   4.891   0.609   8.198  0.7023  0.9117  0.0537
14061SOL    HW243668   4.953   0.712   8.106  0.7140 -0.2365 -1.2365
14062SOL     OW43669   2.415   6.489   0.724  0.1196 -0.4274  0.3557
14062SOL    HW143670   2.454   6.576   0.720 -1.4327  0.2860  0.6667
14062SOL    HW243671   2.401   6.473   0.817 -3.2165  0.6430  0.0951
14063SOL     OW43672   6.318   2.475   1.125 -0.0012 -0.7908  0.1797
14063SOL    HW143673   6.224   2.466   1.134  0.1958 -1.4491  1.6959
14063SOL    HW243674   6.354   2.396   1.165  1.2021 -0.4072 -0.1133
14064SOL     OW43675   0.387   6.786   2.348  0.0172  0.7205 -0.2927
14064SOL    HW143676   0.372   6.853   2.415  0.9113 -0.8304  1.5342
14064SOL    HW243677   0.300   6.761   2.319 -0.5005  0.1916  1.6110
14065SOL     OW43678   2.743   6.257   5.276  0.5313  0.1442 -0.4727
14065SOL    HW143679   2.831   6.225   5.258  0.1451 -1.8956  1.1106
14065SOL    HW243680   2.745   6.283   5.368 -0.6150 -0.2085 -0.3422
14066SOL     OW43681   7.522   5.403   3.728 -0.0096 -0.1954  0.2815
14066SOL    HW143682   7.496   5.317   3.762  0.3242 -1.1478 -1.7637
14066SOL    HW243683   7.616   5.396   3.716 -0.0488  0.2797 -0.3192
14067SOL     OW43684   2.814   5.535   1.462 -0.6267  0.0969  0.1390
14067SOL    HW143685   2.895   5.586   1.456 -1.5081  1.4012 -0.9290
14067SOL    HW243686   2.842   5.451   1.498  1.1872  0.5740 -0.0837
14068SOL     OW43687   1.461   0.648   6.900  0.3904  1.0917 -0.1125
14068SOL    HW143688   1.442   0.588   6.828 -0.2138  0.2604  0.7251
14068SOL    HW243689   1.485   0.731   6.858 -1.7091  1.1441 -1.2349
14069SOL     OW43690   5.415   1.201   4.092 -0.1553 -0.3470 -0.6477
14069SOL    HW143691   5.467   1.130   4.055 -0.8881 -0.5942 -1.1960
14069SOL    HW243692   5.465   1.280   4.071  1.1163 -0.7454  0.7239
14070SOL     OW43693   0.911   7.795   0.155 -0.0678  0.6597 -0.1975
14070SOL    HW143694   0.942   7.760   0.239 -0.4355  0.6611 -0.0619
14070SOL    HW243695   0.902   7.889   0.170 -1.5147  0.4662  0.1891
14071SOL     OW43696   7.087   0.689   4.820 -0.8102 -0.1398  0.0987
14071SOL    HW143697   7.019   0.632   4.857  0.6557 -1.4461  0.8170
14071SOL    HW243698   7.094   0.762   4.882 -0.8346 -0.5276  0.5580
14072SOL     OW43699   0.918   4.349   4.000  0.2218 -0.2213 -0.1272
14072SOL    HW143700   0.900   4.255   4.007 -1.1152  0.0676  0.4915
14072SOL    HW243701   1.005   4.354   3.961 -0.2727 -1.7037 -1.4790
14073SOL     OW43702   6.588   5.627   1.702 -0.0351  0.2563  0.0435
14073SOL    HW143703   6.617   5.687   1.634  0.1652 -0.9551 -0.9649
14073SOL    HW243704   6.666   5.608   1.753 -0.0673  0.7282  0.2705
14074SOL     OW43705   3.192   0.269   1.776 -0.0825 -0.3490  0.0302
14074SOL    HW143706   3.221   0.257   1.685  0.2917 -1.0240  0.2321
14074SOL    HW243707   3.128   0.339   1.772  0.8675  0.4963 -0.5757
14075SOL     OW43708   4.837   8.081   6.910  0.6514  0.5809 -0.3459
14075SOL    HW143709   4.755   8.053   6.948  0.9831 -1.4107 -1.0571
14075SOL    HW243710   4.904   8.054   6.972  0.8511  1.4967 -0.1446
14076SOL     OW43711   2.908   2.728   8.023 -0.4956 -0.2947  0.1963
14076SOL    HW143712   2.833   2.759   7.972 -0.1326  0.3374  0.0357
14076SOL    HW243713   2.981   2.783   7.994 -0.4312  0.5344  1.8978
14077SOL     OW43714   4.431   3.419   0.790 -0.4908 -0.2942 -0.0643
14077SOL    HW143715   4.420   3.432   0.884  2.8829 -0.2486  0.3885
14077SOL    HW243716   4.456   3.505   0.757 -0.2096 -0.6334 -0.7447
14078SOL     OW43717   6.898   1.903   0.538  0.3743  0.0920  0.1612
14078SOL    HW143718   6.986   1.875   0.512 -0.5863 -0.8113 -2.3393
14078SOL    HW243719   6.875   1.971   0.475 -1.6655 -1.4388 -0.8292
14079SOL     OW43720   1.854   0.705   7.200 -0.9330 -0.3311  0.4052
14079SOL    HW143721   1.760   0.715   7.182 -0.6210 -0.6768 -1.6061
14079SOL    HW243722   1.896   0.771   7.145 -0.0778  1.1745  2.7916
14080SOL     OW43723   6.551   6.420   7.192 -1.0491 -0.2085 -0.2145
14080SOL    HW143724   6.551   6.349   7.257  1.5564 -0.7121 -0.7221
14080SOL    HW243725   6.633   6.467   7.208 -1.4837  1.0674 -1.6500
14081SOL     OW43726   7.640   3.939   6.246  0.1930 -0.1625 -0.0664
14081SOL    HW143727   7.554   3.932   6.288  0.6610  2.5044  1.4464
14081SOL    HW243728   7.700   3.958   6.318  1.4095  2.0982 -1.6206
14082SOL     OW43729   8.120   6.987   3.291  0.1976 -0.3681 -0.0659
14082SOL    HW143730   8.113   6.984   3.196 -2.0747  0.6117  0.0337
14082SOL    HW243731   8.052   6.928   3.323  0.2879  0.0512  0.9439
14083SOL     OW43732   4.407   6.032   3.673 -0.2811  0.1945  0.0246
14083SOL    HW143733   4.357   6.009   3.751 -0.2048 -1.0136 -0.2673
14083SOL    HW243734   4.349   6.009   3.600 -0.6804  2.0885 -0.2750
14084SOL     OW43735   2.540   5.156   0.416  0.1408  0.1946  0.9079
14084SOL    HW143736   2.598   5.229   0.393  0.4001  0.1808  1.5106
14084SOL    HW243737   2.598   5.093   0.458  0.2519 -1.1214 -1.1290
14085SOL     OW43738   3.347   3.231   5.288  0.4993  0.0677  0.2255
14085SOL    HW143739   3.442   3.242   5.286  0.6099 -0.9225 -0.3859
14085SOL    HW243740   3.329   3.167   5.219 -0.8987  2.3056 -1.5666
14086SOL     OW43741   2.209   0.147   7.517 -0.5186 -0.2762 -0.4264
14086SOL    HW143742   2.261   0.113   7.590 -0.6681  1.3040  0.4216
14086SOL    HW243743   2.118   0.130   7.543 -0.5786  0.4303 -0.1616
14087SOL     OW43744   0.597   1.453   3.825 -0.1285  0.1737  0.0394
14087SOL    HW143745   0.634   1.365   3.822  0.0288  0.2563 -0.4039
14087SOL    HW243746   0.590   1.480   3.734 -0.4543  0.5076  0.1596
14088SOL     OW43747   0.954   3.598   1.324 -0.0616 -0.9134  0.4130
14088SOL    HW143748   0.970   3.629   1.235 -0.9265 -0.9903  0.2226
14088SOL    HW243749   1.030   3.627   1.374  0.7426 -1.4594 -0.4906
14089SOL     OW43750   4.545   6.991   6.121  0.4034 -0.0582 -0.4789
14089SOL    HW143751   4.589   6.978   6.205  1.1562 -0.8216 -0.9812
14089SOL    HW243752   4.463   7.034   6.143  0.7276  0.0049  0.6208
14090SOL     OW43753   3.141   2.903   8.210 -0.0607 -0.0746  0.1757
14090SOL    HW143754   3.177   2.983   8.171  0.0976 -1.6352 -3.1113
14090SOL    HW243755   3.055   2.929   8.244  1.6369  2.3520  2.7915
14091SOL     OW43756   4.311   1.256   3.866 -0.2127 -0.3262  0.2365
14091SOL    HW143757   4.316   1.215   3.953 -0.6364  0.0852  0.4529
14091SOL    HW243758   4.252   1.330   3.877 -1.5146 -1.1873 -0.7652
14092SOL     OW43759   3.715   0.498   0.136 -0.1258 -0.2540  0.1705
14092SOL    HW143760   3.745   0.443   0.208 -0.6711 -1.0552 -0.2173
14092SOL    HW243761   3.793   0.548   0.110  0.8546 -2.2121 -0.7213
14093SOL     OW43762   6.985   1.066   3.096 -0.6345 -0.0481 -0.1097
14093SOL    HW143763   6.894   1.068   3.066 -1.2969 -0.4407  1.7435
14093SOL    HW243764   6.986   0.996   3.162  0.7508  0.7122  0.6981
14094SOL     OW43765   1.556   8.196   6.265  0.1436 -0.4146 -0.1519
14094SOL    HW143766   1.635   8.166   6.309  0.3279 -0.5431 -0.5621
14094SOL    HW243767   1.582   8.278   6.223 -1.0672  1.7833  3.1744
14095SOL     OW43768   4.672   0.383   4.900  0.3360 -0.0390 -0.3354
14095SOL    HW143769   4.587   0.399   4.942 -0.1242 -0.8843 -0.9029
14095SOL    HW243770   4.650   0.371   4.807  1.0452 -0.4669 -0.4513
14096SOL     OW43771   7.759   1.640   7.172  0.2838  0.2322 -0.3848
14096SOL    HW143772   7.713   1.587   7.107  0.9593  1.4437 -1.8648
14096SOL    HW243773   7.716   1.725   7.171 -0.4643 -0.0890  1.6209
14097SOL     OW43774   8.235   3.708   0.081  0.2915  0.7248  0.3230
14097SOL    HW143775   8.300   3.735   0.016 -0.5374 -0.1717 -0.8937
14097SOL    HW243776   8.247   3.770   0.153 -0.9997  3.8443 -2.0302
14098SOL     OW43777   5.220   8.043   6.766 -0.5175  0.4836 -0.0092
14098SOL    HW143778   5.228   7.948   6.758 -2.4938  0.2333  0.6113
14098SOL    HW243779   5.275   8.065   6.841  0.8292 -0.0084 -0.8362
14099SOL     OW43780   4.646   3.731   0.242 -0.1713 -0.4174  0.1033
14099SOL    HW143781   4.708   3.724   0.314  0.8148 -1.7746 -0.8656
14099SOL    HW243782   4.560   3.728   0.284  0.3605  3.1561  1.6174
14100SOL     OW43783   1.624   5.742   1.694  0.1500 -0.3678  0.0675
14100SOL    HW143784   1.704   5.774   1.736  0.8672 -0.4474 -1.1956
14100SOL    HW243785   1.569   5.820   1.684 -0.6386 -0.5922  2.4156
14101SOL     OW43786   3.818   5.357   2.728  1.4008  0.0847  0.2545
14101SOL    HW143787   3.749   5.409   2.769 -0.1489 -1.6337 -0.1104
14101SOL    HW243788   3.881   5.340   2.798  1.0072  0.8923  0.8158
14102SOL     OW43789   1.627   1.645   8.218 -0.0287 -0.3734  0.3606
14102SOL    HW143790   1.644   1.568   8.273 -1.7310  0.3688  1.9662
14102SOL    HW243791   1.557   1.617   8.159  0.8066 -0.7106 -0.4818
14103SOL     OW43792   3.434   5.010   2.425  0.7379  0.2404 -0.1677
14103SOL    HW143793   3.460   5.096   2.459  2.7337  0.2114 -1.5121
14103SOL    HW243794   3.381   5.030   2.348  0.7839  0.2628 -0.1935
14104SOL     OW43795   2.255   0.522   8.306  0.0623  0.2193 -0.2577
14104SOL    HW143796   2.314   0.451   8.281  0.9176  0.8286  0.0239
14104SOL    HW243797   2.186   0.479   8.357 -0.5324 -0.7089 -1.8167
14105SOL     OW43798   0.795   2.246   1.557  0.4402 -0.2139 -0.4153
14105SOL    HW143799   0.759   2.157   1.548 -0.6281  0.2782 -1.1389
14105SOL    HW243800   0.852   2.241   1.633 -1.3089 -0.9984  0.8701
14106SOL     OW43801   5.297   3.642   1.067  0.1634  0.3028  0.5902
14106SOL    HW143802   5.354   3.673   0.996 -0.5265 -1.1228 -0.6254
14106SOL    HW243803   5.209   3.663   1.037 -0.1115  0.0259  1.2048
14107SOL     OW43804   3.809   1.505   5.951 -0.1839  0.4848  0.2901
14107SOL    HW143805   3.876   1.545   5.896 -0.1690  1.1628  0.7872
14107SOL    HW243806   3.728   1.512   5.900  0.0003  0.2640 -0.0346
14108SOL     OW43807   5.537   7.435   6.316  0.0647 -0.2141 -0.0140
14108SOL    HW143808   5.576   7.506   6.367 -0.9625  1.5629 -1.6474
14108SOL    HW243809   5.443   7.444   6.331 -0.2344  0.2504 -2.0835
14109SOL     OW43810   0.329   1.192   1.617 -0.1310 -0.0365  0.5269
14109SOL    HW143811   0.322   1.142   1.699 -1.2890 -2.0375 -0.7600
14109SOL    HW243812   0.371   1.132   1.556 -1.3898  0.6334 -1.0164
14110SOL     OW43813   6.746   3.025   3.000 -0.3548  0.2062 -0.1542
14110SOL    HW143814   6.673   2.968   2.976  0.6372 -1.3676  0.4066
14110SOL    HW243815   6.747   3.022   3.096  2.2476 -2.2361 -0.1867
14111SOL     OW43816   8.127   5.287   3.461 -0.4009  0.0793 -0.2343
14111SOL    HW143817   8.040   5.301   3.423 -0.3623  1.0126  0.0004
14111SOL    HW243818   8.187   5.297   3.387 -0.5123 -1.0047 -0.4837
14112SOL     OW43819   6.993   6.261   3.938 -0.1632  0.2569  0.0965
14112SOL    HW143820   6.915   6.228   3.982 -0.8988  1.6849 -0.1099
14112SOL    HW243821   6.983   6.233   3.847  0.8433 -1.7820  0.5822
14113SOL     OW43822   3.930   1.717   3.611  0.2056 -0.8433  0.0862
14113SOL    HW143823   3.938   1.695   3.519  0.6639  0.7524 -0.2854
14113SOL    HW243824   4.020   1.716   3.644  0.0506 -1.3508  0.4926
14114SOL     OW43825   4.294   2.158   7.983  0.6650  0.8188 -0.2545
14114SOL    HW143826   4.235   2.105   8.036  1.5949  0.5289  0.5042
14114SOL    HW243827   4.268   2.248   8.001  1.0173  0.7274  0.7617
14115SOL     OW43828   0.367   2.431   1.923 -0.1644  0.2489 -0.0464
14115SOL    HW143829   0.288   2.397   1.964  1.3255  1.0614  3.7387
14115SOL    HW243830   0.410   2.354   1.886 -1.1928 -0.6483  0.5993
14116SOL     OW43831   1.044   7.982   3.249  0.3034 -0.0127  0.0161
14116SOL    HW143832   1.022   7.922   3.320 -0.7260 -0.0446 -0.3208
14116SOL    HW243833   1.082   8.058   3.292  0.4715 -0.3951  0.5378
14117SOL     OW43834   1.309   2.242   3.317 -0.2381 -0.3856  0.1746
14117SOL    HW143835   1.404   2.250   3.325 -0.1808  1.8561 -1.8680
14117SOL    HW243836   1.279   2.333   3.313 -2.5018 -1.0815  1.0599
14118SOL     OW43837   4.073   4.000   6.738  0.2065 -0.1567  0.5026
14118SOL    HW143838   4.088   4.074   6.680 -1.5779 -0.6648 -0.6428
14118SOL    HW243839   4.121   3.928   6.697 -0.4229 -0.3281  0.0608
14119SOL     OW43840   0.868   6.884   1.290  0.0855  0.2245  0.3749
14119SOL    HW143841   0.951   6.918   1.323  1.0688 -0.7170 -1.0735
14119SOL    HW243842   0.891   6.842   1.207 -1.8524  0.0070 -0.0608
14120SOL     OW43843   2.719   7.512   5.457  0.2275  0.6051 -0.1658
14120SOL    HW143844   2.730   7.429   5.504  0.5204  0.5978 -0.2476
14120SOL    HW243845   2.803   7.556   5.465 -0.1030  1.1494  0.3614
14121SOL     OW43846   3.053   5.361   1.913 -0.3161  0.3798  0.2205
14121SOL    HW143847   3.016   5.332   1.996  0.4188 -0.5648  0.2268
14121SOL    HW243848   2.979   5.363   1.853 -0.3337 -1.8653  0.1299
14122SOL     OW43849   1.839   7.645   1.624 -0.1770 -0.3007  0.1605
14122SOL    HW143850   1.844   7.558   1.664  1.0384 -0.3338 -0.0407
14122SOL    HW243851   1.838   7.706   1.698  2.9526 -0.3229  0.2663
14123SOL     OW43852   1.947   1.026   4.913 -0.3047  0.1979 -0.2680
14123SOL    HW143853   1.932   0.946   4.963  1.2583  0.4018  0.5550
14123SOL    HW243854   1.899   1.013   4.831  0.1456 -1.6859 -0.2439
14124SOL     OW43855   7.276   6.119   1.498  0.3989  0.3372  0.8621
14124SOL    HW143856   7.319   6.140   1.415  0.1145 -0.8209  0.4085
14124SOL    HW243857   7.343   6.071   1.548  0.0269 -0.4557  0.6138
14125SOL     OW43858   4.000   3.644   3.324  0.3752  0.2072  0.1712
14125SOL    HW143859   4.093   3.635   3.305  0.2045  0.8969 -1.0302
14125SOL    HW243860   3.993   3.731   3.365  0.3579 -0.1577  0.9586
14126SOL     OW43861   0.252   0.616   3.750 -0.5866 -0.0848 -0.2801
14126SOL    HW143862   0.314   0.688   3.747  0.1627 -0.6620  0.9790
14126SOL    HW243863   0.296   0.544   3.705 -0.4893 -0.3906  0.3056
14127SOL     OW43864   8.284   7.771   0.197 -0.2495 -0.2411 -0.3725
14127SOL    HW143865   8.304   7.756   0.290  0.3676  1.3028 -0.2472
14127SOL    HW243866   8.362   7.815   0.162 -0.4423 -0.8951 -1.6540
14128SOL     OW43867   7.446   3.371   5.126  0.4674 -0.1170 -0.3705
14128SOL    HW143868   7.430   3.277   5.132  0.2557  0.0706  3.8840
14128SOL    HW243869   7.358   3.410   5.130  0.5051  0.2961 -2.8063
14129SOL     OW43870   5.586   4.398   2.636 -0.6866 -0.2145 -0.4323
14129SOL    HW143871   5.519   4.367   2.697  1.4372 -1.4196  1.3385
14129SOL    HW243872   5.593   4.492   2.654  1.4844 -0.9250  2.8200
14130SOL     OW43873   1.260   3.132   2.405  0.1042 -0.1053  0.4800
14130SOL    HW143874   1.239   3.072   2.476 -0.4956 -1.3575 -0.7260
14130SOL    HW243875   1.355   3.131   2.399  0.1115 -0.6821  0.6892
14131SOL     OW43876   2.436   3.098   3.228  0.1945  0.2574  0.1794
14131SOL    HW143877   2.509   3.142   3.185 -0.3057 -1.0434 -2.0371
14131SOL    HW243878   2.360   3.153   3.210 -0.3630 -1.2816 -2.2734
14132SOL     OW43879   2.853   4.467   8.274 -0.5705 -0.2626 -0.2756
14132SOL    HW143880   2.834   4.382   8.234 -0.1635 -0.2428 -0.5132
14132SOL    HW243881   2.878   4.523   8.201 -0.9160  0.0857 -0.1276
14133SOL     OW43882   5.499   8.123   2.907  0.4912  0.1680 -0.0896
14133SOL    HW143883   5.497   8.031   2.934 -0.5127 -0.1988 -1.3401
14133SOL    HW243884   5.435   8.166   2.965  0.0552 -0.1645 -0.3184
14134SOL     OW43885   2.733   0.744   7.175 -0.2907  0.2172 -0.4129
14134SOL    HW143886   2.821   0.782   7.174 -0.7500  1.2918 -0.7669
14134SOL    HW243887   2.742   0.663   7.225  1.0245  0.0228 -0.9546
14135SOL     OW43888   2.198   6.185   2.381  0.2037  0.2490  0.0539
14135SOL    HW143889   2.114   6.212   2.342  0.2239 -0.4104 -0.4687
14135SOL    HW243890   2.176   6.160   2.471 -0.1592  0.1144 -0.0693
14136SOL     OW43891   4.540   5.135   7.630 -0.0731 -0.2015 -0.1409
14136SOL    HW143892   4.459   5.170   7.592 -0.9025 -1.4318  0.4662
14136SOL    HW243893   4.557   5.192   7.705  0.6666  1.2167 -1.3639
14137SOL     OW43894   2.045   2.344   0.502  0.0670  0.2070  0.1178
14137SOL    HW143895   2.102   2.290   0.449  0.4437 -0.7577  1.4765
14137SOL    HW243896   2.018   2.287   0.574  0.1840  1.7028  1.3724
14138SOL     OW43897   1.100   6.204   4.250 -0.1767 -0.0828 -0.3157
14138SOL    HW143898   1.165   6.268   4.222  0.2053 -0.8351 -1.1907
14138SOL    HW243899   1.117   6.192   4.344  1.1455 -0.4766 -0.5857
14139SOL     OW43900   7.848   0.395   5.096 -0.0388  0.0278  0.0627
14139SOL    HW143901   7.867   0.365   5.007  0.3912 -0.6871  0.3939
14139SOL    HW243902   7.923   0.450   5.119 -0.3396  0.5382 -0.1598
14140SOL     OW43903   0.271   4.476   6.337  0.3389 -0.3018 -0.1897
14140SOL    HW143904   0.332   4.403   6.327 -4.3098 -4.3753 -0.6304
14140SOL    HW243905   0.259   4.484   6.432  1.9948  0.9763 -0.0666
14141SOL     OW43906   2.217   5.616   1.246  0.3226 -0.2226  0.6778
14141SOL    HW143907   2.264   5.535   1.222  0.4263 -0.0680  0.3463
14141SOL    HW243908   2.283   5.685   1.238  0.4589 -0.2203  1.8189
14142SOL     OW43909   5.779   4.171   4.509 -0.1702 -0.1873 -0.1491
14142SOL    HW143910   5.715   4.242   4.503 -0.6989 -0.6916 -0.4647
14142SOL    HW243911   5.775   4.127   4.424  0.0768 -0.6694  0.0878
14143SOL     OW43912   3.111   8.243   1.527  0.4323 -0.3002  0.2227
14143SOL    HW143913   3.049   8.219   1.458 -0.0245 -0.6257  0.7398
14143SOL    HW243914   3.163   8.314   1.490  1.0347 -1.3081 -0.9270
14144SOL     OW43915   2.039   4.999   6.998  0.0712  0.2406  0.3681
14144SOL    HW143916   1.978   5.033   6.933 -0.4739  0.2252  0.8641
14144SOL    HW243917   2.020   4.905   7.002  0.3805  0.1728  0.2557
14145SOL     OW43918   3.820   4.004   4.473  0.0872 -0.4139 -0.1835
14145SOL    HW143919   3.880   4.076   4.491  0.3120 -0.7740  0.5056
14145SOL    HW243920   3.799   3.968   4.559 -2.0266  0.4582 -0.3060
14146SOL     OW43921   4.149   7.629   3.482 -0.1603 -0.1509 -0.1893
14146SOL    HW143922   4.103   7.547   3.500 -0.0192 -0.4318 -1.0724
14146SOL    HW243923   4.226   7.602   3.432  2.1486  0.0781  3.0553
14147SOL     OW43924   5.376   3.329   8.240  0.8421  0.4946 -0.3258
14147SOL    HW143925   5.329   3.326   8.157 -0.7254 -0.4857  0.5620
14147SOL    HW243926   5.422   3.245   8.245  0.0880  0.1011  0.2449
14148SOL     OW43927   8.165   5.693   7.540 -0.1650 -0.6529 -0.1730
14148SOL    HW143928   8.255   5.696   7.509 -0.0126 -2.0543  0.1124
14148SOL    HW243929   8.167   5.635   7.617 -0.9128  1.0509  1.1656
14149SOL     OW43930   7.784   3.853   2.633 -0.2263 -0.1762  0.1822
14149SOL    HW143931   7.842   3.878   2.561  1.1007 -2.2744  0.5104
14149SOL    HW243932   7.700   3.892   2.609  0.4885  0.1761 -1.8921
14150SOL     OW43933   7.603   5.541   6.392 -0.0498  0.4152 -0.5300
14150SOL    HW143934   7.639   5.477   6.330 -1.6623  0.4498 -1.5412
14150SOL    HW243935   7.613   5.500   6.478  2.6768  0.5849 -0.7316
14151SOL     OW43936   6.311   4.944   0.216  0.0176  0.4055  0.0540
14151SOL    HW143937   6.339   4.988   0.136  1.3164 -0.2943  0.1231
14151SOL    HW243938   6.354   4.859   0.213 -0.6769  0.0199  1.0420
14152SOL     OW43939   2.416   3.695   2.939  0.1509 -0.0302  0.1354
14152SOL    HW143940   2.482   3.650   2.887  1.1755  0.5429  0.9146
14152SOL    HW243941   2.385   3.766   2.883  0.5868  0.0273 -0.0340
14153SOL     OW43942   1.035   4.593   0.069 -0.0866 -0.4741 -0.2074
14153SOL    HW143943   1.032   4.680   0.108 -0.8228 -0.6725  0.1773
14153SOL    HW243944   0.954   4.586   0.019 -0.6363 -1.4236  0.8073
14154SOL     OW43945   0.176   1.744   3.137  0.3821 -0.2926  0.1033
14154SOL    HW143946   0.125   1.770   3.060  2.5677  1.0452 -0.9461
14154SOL    HW243947   0.127   1.779   3.211 -0.1712  1.0851 -0.8989
14155SOL     OW43948   6.727   7.505   0.539  0.8042 -0.8918  0.1455
14155SOL    HW143949   6.743   7.436   0.475  0.6157 -0.6153 -0.1992
14155SOL    HW243950   6.785   7.576   0.513  0.2472 -0.5297 -0.1061
14156SOL     OW43951   1.188   5.534   4.181  0.0428 -0.2138 -0.2028
14156SOL    HW143952   1.166   5.448   4.217  0.2838 -0.7652 -1.3618
14156SOL    HW243953   1.236   5.578   4.251  0.6781 -1.3499  0.0753
14157SOL     OW43954   3.181   4.044   1.006 -0.7759 -0.5119 -0.0422
14157SOL    HW143955   3.207   4.005   0.922 -0.1656 -2.6613  1.1230
14157SOL    HW243956   3.112   3.986   1.039  0.6293 -1.0133  2.0508
14158SOL     OW43957   6.385   0.389   2.145  0.0946 -0.1100 -0.4657
14158SOL    HW143958   6.349   0.319   2.090  0.5095 -0.2206 -0.6021
14158SOL    HW243959   6.310   0.445   2.166 -0.2047 -0.4950 -0.5096
14159SOL     OW43960   4.754   2.189   4.104 -0.4067 -0.6902 -0.3627
14159SOL    HW143961   4.815   2.206   4.032 -0.3233  0.5761 -0.0099
14159SOL    HW243962   4.804   2.136   4.166 -0.0604 -0.7019 -0.6485
14160SOL     OW43963   4.616   1.892   3.937 -0.0901  0.9739  0.4522
14160SOL    HW143964   4.705   1.911   3.907 -0.1756  2.0765  0.8862
14160SOL    HW243965   4.621   1.895   4.032 -0.4289  0.2443  0.5004
14161SOL     OW43966   7.950   7.425   4.812  1.4402  0.5747  0.3513
14161SOL    HW143967   8.036   7.396   4.842  0.8966 -0.3969  0.9906
14161SOL    HW243968   7.889   7.362   4.849  0.6928 -0.4091 -2.4232
14162SOL     OW43969   3.474   6.521   4.824 -1.2103  0.1768 -0.1180
14162SOL    HW143970   3.542   6.454   4.836 -0.6155  0.8267  0.1492
14162SOL    HW243971   3.506   6.576   4.753 -1.5881  0.3211 -0.1749
14163SOL     OW43972   1.707   0.262   8.197  0.1166 -0.0600  0.8729
14163SOL    HW143973   1.622   0.222   8.177  0.7669 -0.6882 -0.7772
14163SOL    HW243974   1.760   0.190   8.230  0.4985 -0.0021  0.3831
14164SOL     OW43975   4.256   3.427   4.733  0.1766  0.5913 -0.2172
14164SOL    HW143976   4.301   3.503   4.696  0.8152  0.7385  0.8239
14164SOL    HW243977   4.242   3.451   4.825  0.5592 -0.6349  0.1670
14165SOL     OW43978   0.108   1.169   3.877  0.1796 -0.8895 -0.1769
14165SOL    HW143979   0.106   1.179   3.782  0.2792 -1.3750 -0.2344
14165SOL    HW243980   0.122   1.257   3.911  2.0491 -0.9661 -0.6874
14166SOL     OW43981   3.459   6.576   2.384  0.7000  0.3321 -0.1457
14166SOL    HW143982   3.375   6.611   2.414  0.6130  1.5765 -1.7920
14166SOL    HW243983   3.512   6.571   2.464 -0.6598  0.2914  0.7750
14167SOL     OW43984   2.908   2.948   2.821  0.2270  0.5872  0.1259
14167SOL    HW143985   2.999   2.970   2.843  0.3687 -1.0511  1.2793
14167SOL    HW243986   2.912   2.920   2.729  0.8365  0.8519  0.0688
14168SOL     OW43987   1.443   4.469   2.998  0.5125 -0.2447 -0.1542
14168SOL    HW143988   1.525   4.514   2.980 -0.0244  0.9199  0.2975
14168SOL    HW243989   1.386   4.490   2.924  0.1747  0.0310  0.1793
14169SOL     OW43990   6.995   2.828   7.814 -0.5465 -0.5195 -0.1415
14169SOL    HW143991   6.986   2.824   7.910 -0.3301 -0.6411 -0.1280
14169SOL    HW243992   7.059   2.761   7.793 -0.1087 -0.0459 -0.3113
14170SOL     OW43993   2.158   4.058   8.149  0.2098 -0.6432 -0.3525
14170SOL    HW143994   2.075   4.093   8.116  0.1149  1.4706  2.0300
14170SOL    HW243995   2.133   3.994   8.216  0.5177  0.2657  0.6280
14171SOL     OW43996   8.011   1.406   8.106 -0.0678 -0.1366 -0.2546
14171SOL    HW143997   8.049   1.481   8.060  1.3085  0.1559  1.3317
14171SOL    HW243998   8.069   1.333   8.085  0.1252 -0.1720  0.3937
14172SOL     OW43999   7.840   2.986   2.082  0.4396  0.4809  0.2044
14172SOL    HW144000   7.933   2.984   2.059  0.2614  0.2154 -0.4763
14172SOL    HW244001   7.834   3.056   2.148  1.4196 -0.6463  1.5320
14173SOL     OW44002   2.157   0.071   0.090  0.0848 -0.1276  0.4696
14173SOL    HW144003   2.175   0.032   0.175 -0.6691 -0.0811  0.6575
14173SOL    HW244004   2.234   0.125   0.071  0.0690  0.2055  1.3213
14174SOL     OW44005   7.685   7.347   5.547 -0.4592 -0.4103  0.4097
14174SOL    HW144006   7.705   7.370   5.456 -2.1296  3.7282  0.9687
14174SOL    HW244007   7.769   7.319   5.583  0.9817  1.3118 -1.4687
14175SOL     OW44008   8.280   0.648   0.137 -0.2756 -0.4848 -0.0351
14175SOL    HW144009   8.319   0.561   0.130 -1.0008 -0.7190 -1.4757
14175SOL    HW244010   8.353   0.707   0.155  0.6068 -1.0362 -1.7611
14176SOL     OW44011   2.088   4.819   3.123 -0.4780 -0.3739 -0.5706
14176SOL    HW144012   2.143   4.828   3.045  0.3752 -0.7738 -0.0101
14176SOL    HW244013   2.071   4.725   3.129 -0.0449 -0.4129  0.0719
14177SOL     OW44014   1.084   6.794   3.925  0.1610  0.5543 -0.3220
14177SOL    HW144015   1.038   6.818   4.005  0.5719 -1.3378  0.4981
14177SOL    HW244016   1.093   6.699   3.929  3.1275  0.7341 -0.9972
14178SOL     OW44017   2.345   2.013   7.390 -0.4561  0.1152  0.2673
14178SOL    HW144018   2.372   2.026   7.481 -0.8644  0.3072  0.3626
14178SOL    HW244019   2.427   2.001   7.342 -0.3142 -2.1239  0.9806
14179SOL     OW44020   3.572   4.955   4.693 -0.1637  0.3798 -0.5911
14179SOL    HW144021   3.594   5.046   4.673  0.4449  0.0796 -1.3089
14179SOL    HW244022   3.655   4.908   4.683  0.2617  0.2469  2.8811
14180SOL     OW44023   1.072   4.063   1.416 -0.4003 -0.0958  0.1462
14180SOL    HW144024   1.037   4.017   1.492 -0.9335 -0.4601 -0.3114
14180SOL    HW244025   1.019   4.032   1.342 -0.7540  1.2162 -0.1815
14181SOL     OW44026   0.006   6.704   4.275 -0.5701  0.0648 -1.0300
14181SOL    HW144027  -0.057   6.679   4.208 -0.2392 -0.4440 -1.1510
14181SOL    HW244028  -0.036   6.678   4.357 -0.3224 -0.6792 -1.1407
14182SOL     OW44029   6.697   0.841   2.489 -0.0559  0.1756  0.0190
14182SOL    HW144030   6.660   0.927   2.472 -2.6250 -0.7257  0.9002
14182SOL    HW244031   6.669   0.820   2.578  3.6269 -0.0322  1.2066
14183SOL     OW44032   4.707   4.469   5.264 -0.3817  0.1354 -0.3605
14183SOL    HW144033   4.640   4.467   5.196 -2.2511 -0.8861  1.4577
14183SOL    HW244034   4.663   4.506   5.340  0.7695 -1.6917  1.2367
14184SOL     OW44035   0.488   6.825   0.493  0.2574  0.3017 -0.3966
14184SOL    HW144036   0.451   6.812   0.406  0.0544 -0.8002 -0.1563
14184SOL    HW244037   0.582   6.830   0.478  0.2313  0.0082 -0.6612
14185SOL     OW44038   7.658   7.963   4.208 -0.5311 -0.2251  0.0495
14185SOL    HW144039   7.601   7.926   4.275  0.5247 -0.1360  1.0018
14185SOL    HW244040   7.666   8.055   4.232 -1.7075  0.2387 -1.2992
14186SOL     OW44041   0.053   0.381   5.282  0.3648 -0.0364 -0.0844
14186SOL    HW144042  -0.029   0.351   5.322  1.2672  0.3238  2.1090
14186SOL    HW244043   0.120   0.327   5.322  1.3278  0.4200 -1.0604
14187SOL     OW44044   7.249   2.846   2.480  0.0175  0.2286  0.2301
14187SOL    HW144045   7.297   2.791   2.417  0.3278 -0.4278  1.0285
14187SOL    HW244046   7.175   2.879   2.430  0.8361  0.5683 -0.7829
14188SOL     OW44047   3.424   0.283   4.278 -0.5228  0.7044  0.2075
14188SOL    HW144048   3.410   0.256   4.187  0.5565  1.1028 -0.0955
14188SOL    HW244049   3.449   0.202   4.323 -2.8488  0.1544  0.5742
14189SOL     OW44050   6.535   0.588   2.350 -0.0011 -0.0448  0.1220
14189SOL    HW144051   6.453   0.539   2.340 -0.9012  1.1851  1.2359
14189SOL    HW244052   6.536   0.613   2.443  2.0935 -0.8326  0.3201
14190SOL     OW44053   3.583   6.893   1.734 -0.1491 -0.2227 -0.0947
14190SOL    HW144054   3.507   6.851   1.693  1.1075 -4.1287  1.3385
14190SOL    HW244055   3.586   6.980   1.694 -5.5218  0.2009  0.0363
14191SOL     OW44056   7.017   0.360   1.857 -0.8028 -0.1333  1.1597
14191SOL    HW144057   7.099   0.398   1.889 -0.9246  0.2155  1.0630
14191SOL    HW244058   6.962   0.353   1.935 -0.3342 -1.2756  1.3952
14192SOL     OW44059   2.514   6.662   0.379 -0.1619 -0.1032 -0.5974
14192SOL    HW144060   2.431   6.618   0.397  0.3058 -0.3433  1.0615
14192SOL    HW244061   2.569   6.642   0.455  1.5059 -0.1613 -1.7860
14193SOL     OW44062   1.980   4.733   6.904 -0.6325  0.1291 -0.4745
14193SOL    HW144063   1.925   4.739   6.982  0.0321 -1.1741  0.1054
14193SOL    HW244064   2.043   4.665   6.924  0.6411  0.9825 -1.4842
14194SOL     OW44065   5.370   1.432   4.539  0.1180  0.1948 -0.3599
14194SOL    HW144066   5.440   1.373   4.566 -0.2614 -0.4406 -0.7577
14194SOL    HW244067   5.387   1.447   4.446  0.6446  1.3109 -0.0968
14195SOL     OW44068   4.122   1.695   1.574  0.0653 -0.7569 -0.4319
14195SOL    HW144069   4.028   1.678   1.566  0.2412 -1.5183 -0.9087
14195SOL    HW244070   4.127   1.787   1.598 -0.7640 -0.2705 -2.0043
14196SOL     OW44071   7.338   7.295   4.465 -0.1681  0.8862  0.2176
14196SOL    HW144072   7.304   7.231   4.403  0.2160  1.4162 -0.5479
14196SOL    HW244073   7.260   7.341   4.497 -0.2925  1.1940 -0.5232
14197SOL     OW44074   2.649   6.873   4.106  0.2786  0.2613 -0.1624
14197SOL    HW144075   2.570   6.849   4.058 -0.1549 -0.3033  0.8190
14197SOL    HW244076   2.721   6.856   4.044 -0.2989 -0.0475 -0.7532
14198SOL     OW44077   5.572   1.486   8.059  0.5394 -0.1799 -0.7695
14198SOL    HW144078   5.553   1.553   7.992  0.8025 -1.1021 -1.7761
14198SOL    HW244079   5.487   1.471   8.102 -0.0233 -0.8798 -2.1065
14199SOL     OW44080   5.697   2.868   4.732  0.5929 -0.0582 -0.2881
14199SOL    HW144081   5.745   2.949   4.750 -0.5012  0.0264  2.4114
14199SOL    HW244082   5.732   2.805   4.796  0.2562 -1.2630 -1.2686
14200SOL     OW44083   7.548   2.911   5.453 -0.1109 -0.1245  0.0829
14200SOL    HW144084   7.475   2.902   5.391  1.0044 -2.2897 -0.9863
14200SOL    HW244085   7.591   2.993   5.429 -1.2727  0.4017 -0.2507
14201SOL     OW44086   7.057   5.515   5.104  0.5683 -0.1162  0.0337
14201SOL    HW144087   6.975   5.548   5.138  0.1797  0.5161 -1.4485
14201SOL    HW244088   7.123   5.541   5.168 -0.3377 -0.3036  1.0385
14202SOL     OW44089   4.858   7.239   6.697  0.1964  0.4427  1.2277
14202SOL    HW144090   4.835   7.326   6.731  0.8457  0.5982  1.2754
14202SOL    HW244091   4.926   7.208   6.757 -1.5791 -1.0370  2.5451
14203SOL     OW44092   2.314   6.618   3.855 -0.0436 -0.1482  0.3718
14203SOL    HW144093   2.253   6.565   3.803  0.0989 -1.1011  1.1744
14203SOL    HW244094   2.359   6.555   3.911  1.1216  0.6494  0.3445
14204SOL     OW44095   0.228   2.528   0.372 -0.0184 -0.2115 -0.1593
14204SOL    HW144096   0.323   2.532   0.383 -0.1665 -0.8644  1.5402
14204SOL    HW244097   0.205   2.438   0.391 -0.9372 -0.1597 -1.0056
14205SOL     OW44098   5.642   5.948   7.211 -0.3435 -0.7423  0.0936
14205SOL    HW144099   5.587   5.999   7.271 -0.2430  0.3696 -0.7358
14205SOL    HW244100   5.731   5.979   7.227 -0.4521  0.4047 -1.4397
14206SOL     OW44101   1.404   3.110   4.127 -0.6248 -0.0996  0.3485
14206SOL    HW144102   1.394   3.043   4.059  0.0834 -1.6905  1.7875
14206SOL    HW244103   1.314   3.135   4.149 -0.8565  0.6774 -1.3958
14207SOL     OW44104   3.784   7.440   5.298 -0.2749  0.5777 -0.7491
14207SOL    HW144105   3.817   7.525   5.328 -0.0829  0.7009 -1.2937
14207SOL    HW244106   3.690   7.454   5.289 -0.7701 -0.2555  2.4163
14208SOL     OW44107   3.651   1.967   5.734  0.1500  0.0638  0.6389
14208SOL    HW144108   3.615   2.056   5.735  0.3299  0.1363  0.7066
14208SOL    HW244109   3.681   1.952   5.823  1.0929  0.3352  0.3771
14209SOL     OW44110   2.331   1.813   5.384 -0.2124  0.1124 -1.2925
14209SOL    HW144111   2.265   1.792   5.317 -0.7790 -1.3728 -0.3114
14209SOL    HW244112   2.279   1.843   5.459  0.3265  0.2900 -0.9924
14210SOL     OW44113   5.462   0.113   1.712  0.0598 -0.1421 -0.3722
14210SOL    HW144114   5.426   0.036   1.668 -1.8028  1.6473 -2.1214
14210SOL    HW244115   5.388   0.149   1.761  1.0085  0.3399  0.7317
14211SOL     OW44116   7.688   1.788   5.878  0.1207  0.0871 -0.0114
14211SOL    HW144117   7.700   1.722   5.946 -0.5211  0.5839  0.5881
14211SOL    HW244118   7.617   1.844   5.910  0.3432  0.7934 -0.7244
14212SOL     OW44119   0.433   2.766   5.400  0.3387 -0.2192 -0.1319
14212SOL    HW144120   0.450   2.857   5.375 -1.6111 -0.2025 -1.5846
14212SOL    HW244121   0.491   2.714   5.344  0.5359  0.0871 -0.2135
14213SOL     OW44122   3.451   5.686   1.193  0.0187  0.0401 -0.1936
14213SOL    HW144123   3.408   5.764   1.227  1.0749  0.0234  1.2100
14213SOL    HW244124   3.521   5.720   1.136 -2.0112  0.0658 -2.7606
14214SOL     OW44125   1.047   2.042   6.291 -0.4331 -0.3521  0.3061
14214SOL    HW144126   1.037   2.086   6.375 -0.4304  0.6042 -0.1815
14214SOL    HW244127   1.139   2.055   6.267 -0.1086 -1.7513  0.7658
14215SOL     OW44128   1.062   8.230   5.456 -0.4889  0.1708  0.7164
14215SOL    HW144129   1.128   8.291   5.422  1.9985 -1.7322  2.0457
14215SOL    HW244130   1.003   8.217   5.382  0.1333  2.5455 -0.2550
14216SOL     OW44131   0.150   6.417   0.655  0.0100 -0.1269  0.0116
14216SOL    HW144132   0.072   6.380   0.613  0.7548 -0.6886 -0.8788
14216SOL    HW244133   0.170   6.355   0.726 -1.4667  1.0191  1.4712
14217SOL     OW44134   3.473   1.731   1.724  0.4698  0.3180 -0.7447
14217SOL    HW144135   3.431   1.767   1.646 -0.1483  0.1632 -0.4823
14217SOL    HW244136   3.561   1.770   1.723  0.0849  1.1989 -0.9069
14218SOL     OW44137   7.349   0.642   0.099 -0.9764 -0.4293 -0.3803
14218SOL    HW144138   7.362   0.687   0.182  0.2836  0.7859 -1.1970
14218SOL    HW244139   7.430   0.660   0.049 -0.8726 -2.7968 -1.1084
14219SOL     OW44140   2.194   2.090   0.589 -0.1206  0.4164  0.5745
14219SOL    HW144141   2.116   2.041   0.615  1.8951 -2.8961  0.5736
14219SOL    HW244142   2.185   2.100   0.494  0.9187 -2.7134  0.0973
14220SOL     OW44143   0.165   2.842   7.065 -0.4368  0.2932 -0.3257
14220SOL    HW144144   0.203   2.773   7.009  0.5346 -0.0549  0.7525
14220SOL    HW244145   0.146   2.913   7.004  2.7117  0.8023 -0.8161
14221SOL     OW44146   6.061   0.955   2.930 -0.2503 -0.4704  0.0318
14221SOL    HW144147   6.033   0.936   3.020 -0.5553 -2.7670 -0.5026
14221SOL    HW244148   6.012   1.034   2.907 -2.0086 -1.1923  1.0841
14222SOL     OW44149   8.129   0.670   6.871 -0.1145  0.3472 -0.1630
14222SOL    HW144150   8.079   0.664   6.952  0.8216  1.1978  0.4894
14222SOL    HW244151   8.214   0.632   6.891  0.9325  2.6442 -0.0495
14223SOL     OW44152   2.715   4.538   2.701  0.3396  0.2131 -0.5538
14223SOL    HW144153   2.696   4.561   2.792 -0.2004 -1.3345 -0.2565
14223SOL    HW244154   2.630   4.541   2.657  0.0787 -2.0949 -0.2839
14224SOL     OW44155   3.006   1.166   0.728  0.0306 -0.3662 -0.1323
14224SOL    HW144156   2.958   1.092   0.764 -0.6872 -0.2069 -0.7535
14224SOL    HW244157   2.945   1.208   0.667  1.2914 -0.7882 -1.7300
14225SOL     OW44158   4.627   1.208   5.074  0.3524  0.5256  0.2512
14225SOL    HW144159   4.621   1.301   5.052 -0.0079  0.7450  1.2184
14225SOL    HW244160   4.606   1.162   4.993  0.6920  1.2873 -0.2730
14226SOL     OW44161   8.078   7.067   3.018  0.0674  0.2125 -0.2930
14226SOL    HW144162   8.001   7.055   2.961 -0.8053  0.1696  0.8704
14226SOL    HW244163   8.080   7.161   3.035 -1.6876 -0.1605  2.3088
14227SOL     OW44164   0.413   0.213   5.810  0.3357 -0.5327  0.6634
14227SOL    HW144165   0.443   0.123   5.795 -0.9129 -0.9987  0.9487
14227SOL    HW244166   0.434   0.259   5.729  0.2288 -1.2804  0.2052
14228SOL     OW44167   6.200   4.599   4.698 -0.2902 -0.3939  0.5649
14228SOL    HW144168   6.177   4.687   4.668  0.3621 -0.4440 -0.0965
14228SOL    HW244169   6.148   4.586   4.777 -0.9565  0.2951  0.2407
14229SOL     OW44170   4.381   3.756   3.727  0.2417  0.7042  0.1099
14229SOL    HW144171   4.410   3.824   3.788  0.7687 -0.1205  0.7972
14229SOL    HW244172   4.291   3.738   3.752  1.1601 -1.2832  2.2211
14230SOL     OW44173   0.196   4.955   7.364 -0.3906 -0.3181  0.4455
14230SOL    HW144174   0.158   5.042   7.359 -0.3419 -0.2712  0.8502
14230SOL    HW244175   0.125   4.896   7.339 -0.4209 -0.1605  0.1649
14231SOL     OW44176   5.535   5.029   4.639 -0.2827 -0.3989  0.1147
14231SOL    HW144177   5.453   4.990   4.667  0.1684 -1.5851 -0.1888
14231SOL    HW244178   5.541   5.008   4.546 -0.2882  0.8530 -0.1731
14232SOL     OW44179   4.937   3.005   4.140 -0.7191 -0.1529 -0.3672
14232SOL    HW144180   4.997   3.040   4.207 -1.7072  1.2061 -0.1617
14232SOL    HW244181   4.958   2.912   4.135 -0.7538 -0.3178  1.9842
14233SOL     OW44182   6.553   6.225   1.970  0.5768 -0.2962 -0.2648
14233SOL    HW144183   6.541   6.142   2.016 -0.7795  0.3606  0.5939
14233SOL    HW244184   6.639   6.255   1.997  0.1777 -0.3799  1.1260
14234SOL     OW44185   3.744   4.395   1.633 -0.2090 -0.5349 -0.3079
14234SOL    HW144186   3.788   4.311   1.634 -0.6471 -0.7608  0.5165
14234SOL    HW244187   3.724   4.413   1.725  0.3352  0.7052 -0.4166
14235SOL     OW44188   1.213   5.245   0.767 -0.0002 -0.3519 -0.1703
14235SOL    HW144189   1.228   5.224   0.675 -1.0695 -1.4268 -0.1072
14235SOL    HW244190   1.124   5.216   0.784 -0.2501  0.9851  0.8828
14236SOL     OW44191   7.961   6.526   0.423 -0.3002 -0.1827  0.2209
14236SOL    HW144192   7.954   6.440   0.463 -0.5247 -1.1963 -1.9066
14236SOL    HW244193   7.870   6.551   0.404 -0.2355  0.5074  0.8144
14237SOL     OW44194   2.765   6.893   1.482 -0.4243 -0.0050  0.3046
14237SOL    HW144195   2.814   6.951   1.423 -1.7602  0.1228 -0.6915
14237SOL    HW244196   2.708   6.951   1.531 -0.4441 -0.2840  0.6096
14238SOL     OW44197   4.291   5.238   7.822  0.1343  0.6524  0.0150
14238SOL    HW144198   4.256   5.206   7.905  0.4570 -0.7440 -0.3647
14238SOL    HW244199   4.380   5.267   7.842  0.0888  0.6406  0.2304
14239SOL     OW44200   0.452   3.239   2.153  0.1545 -0.4997  0.2839
14239SOL    HW144201   0.543   3.258   2.176  0.2645 -1.7868  0.9688
14239SOL    HW244202   0.442   3.146   2.171 -1.1039 -0.5260 -0.4688
14240SOL     OW44203   2.545   2.992   2.913 -0.6773  0.7360 -0.1575
14240SOL    HW144204   2.617   3.056   2.917  1.9729 -1.9460 -2.6579
14240SOL    HW244205   2.558   2.937   2.990 -1.2403  1.4239  0.4374
14241SOL     OW44206   8.298   6.684   5.175  0.2431 -0.1375 -0.4724
14241SOL    HW144207   8.386   6.697   5.140  0.5750 -0.1289  0.3566
14241SOL    HW244208   8.300   6.725   5.262 -0.3205 -0.8897 -0.0944
14242SOL     OW44209   4.057   3.753   3.824  0.3807  0.1308 -0.3731
14242SOL    HW144210   4.045   3.790   3.911  0.2624  1.0244 -0.7549
14242SOL    HW244211   4.085   3.828   3.770 -0.8687 -0.1106 -1.3838
14243SOL     OW44212   3.965   5.147   6.438 -0.1513  0.4994 -0.2503
14243SOL    HW144213   3.965   5.052   6.432 -0.6452  0.5000 -0.2692
14243SOL    HW244214   4.011   5.166   6.520  0.7581  0.2788 -0.6985
14244SOL     OW44215   7.898   2.633   4.266 -0.0787 -0.7633  0.6301
14244SOL    HW144216   7.832   2.564   4.263  0.1083 -0.8594 -1.3742
14244SOL    HW244217   7.965   2.600   4.325  0.3211 -2.5672 -0.8293
14245SOL     OW44218   7.709   1.124   2.448  0.1117  0.5133  0.3276
14245SOL    HW144219   7.621   1.093   2.428  0.5383 -0.9250  0.5997
14245SOL    HW244220   7.751   1.050   2.493  1.1503  1.5107  1.0351
14246SOL     OW44221   5.969   0.588   5.805 -0.0456  0.2216 -0.1474
14246SOL    HW144222   5.914   0.596   5.883 -0.0017  1.4141 -0.2285
14246SOL    HW244223   6.021   0.668   5.804  1.0283 -0.4644 -0.5883
14247SOL     OW44224   0.701   5.997   3.261 -0.1234  0.0334  0.3855
14247SOL    HW144225   0.664   6.019   3.175 -0.9931 -0.7347  0.5535
14247SOL    HW244226   0.717   6.081   3.303 -0.4121  0.3987 -0.2285
14248SOL     OW44227   6.423   3.493   7.566  0.7420 -0.2808 -0.1584
14248SOL    HW144228   6.447   3.532   7.482  2.4855  0.1049  0.5058
14248SOL    HW244229   6.444   3.560   7.631 -1.8429 -0.0563  0.5044
14249SOL     OW44230   2.656   6.672   3.746  0.3960 -0.7712  0.4733
14249SOL    HW144231   2.590   6.678   3.815 -0.2698  1.3437 -0.3121
14249SOL    HW244232   2.731   6.721   3.781  0.7341 -1.2886  0.4678
14250SOL     OW44233   6.913   7.546   4.365 -0.4382 -0.0981 -0.1527
14250SOL    HW144234   6.839   7.509   4.317 -0.6235  1.1527 -0.8280
14250SOL    HW244235   6.894   7.639   4.373  1.1832  0.2996 -0.5684
14251SOL     OW44236   1.156   7.765   7.873  0.0488 -0.2455  0.2518
14251SOL    HW144237   1.244   7.749   7.841 -0.5295 -1.8268 -0.6110
14251SOL    HW244238   1.101   7.763   7.794 -0.8398  0.1683  0.8443
14252SOL     OW44239   1.551   2.468   7.696 -0.5352 -0.1374  0.0479
14252SOL    HW144240   1.599   2.513   7.765  0.5589  1.1561 -1.5222
14252SOL    HW244241   1.580   2.377   7.702  0.3697  0.1858  0.5908
14253SOL     OW44242   4.054   5.807   3.011  0.3641  0.1083  0.6491
14253SOL    HW144243   3.978   5.865   3.021 -0.5877 -0.9597 -0.1470
14253SOL    HW244244   4.015   5.722   2.990  1.8318 -0.1866 -0.9298
14254SOL     OW44245   5.821   1.456   1.476  0.2263  0.0469 -0.6632
14254SOL    HW144246   5.878   1.480   1.403  1.9804  3.0520  1.5963
14254SOL    HW244247   5.739   1.502   1.458  0.5780  0.6172 -0.8081
14255SOL     OW44248   5.658   2.094   7.827 -0.3148  0.1712 -0.6368
14255SOL    HW144249   5.748   2.064   7.841 -0.5421 -0.7787 -1.2034
14255SOL    HW244250   5.604   2.028   7.869 -0.7069  1.7099  1.3713
14256SOL     OW44251   6.748   8.199   4.844 -0.4056 -0.0910 -0.2361
14256SOL    HW144252   6.658   8.218   4.816 -0.3286  0.0649 -0.3808
14256SOL    HW244253   6.768   8.268   4.907 -0.6571 -0.5734  0.3670
14257SOL     OW44254   6.502   2.993   1.675  0.3013 -0.5636  0.4107
14257SOL    HW144255   6.495   3.069   1.733  0.3270 -0.3005  0.0677
14257SOL    HW244256   6.436   2.932   1.707 -2.0414  0.9546 -1.3622
14258SOL     OW44257   0.557   1.692   6.594 -0.1696  0.2382 -0.0488
14258SOL    HW144258   0.483   1.662   6.646  1.2422 -1.7881  0.8733
14258SOL    HW244259   0.520   1.711   6.507 -1.4978 -2.3397 -0.0858
14259SOL     OW44260   0.665   1.967   3.227 -0.2978  0.1072 -0.7485
14259SOL    HW144261   0.731   1.901   3.204 -1.1286 -0.7434 -0.7582
14259SOL    HW244262   0.603   1.965   3.155 -0.3708  0.8589 -0.7100
14260SOL     OW44263   5.933   3.540   3.162  0.2608 -0.3728  0.0380
14260SOL    HW144264   5.971   3.510   3.079  0.2070  0.0732 -0.1476
14260SOL    HW244265   5.861   3.479   3.179 -0.1228 -0.0911 -0.5622
14261SOL     OW44266   8.276   2.305   4.622  0.6880  0.3522  0.4327
14261SOL    HW144267   8.218   2.229   4.615  1.2046  0.1125 -1.3207
14261SOL    HW244268   8.281   2.340   4.534  1.4051  1.7383  1.0139
14262SOL     OW44269   0.707   3.669   0.622  0.5464 -0.1969  0.1083
14262SOL    HW144270   0.669   3.593   0.578  0.4242  0.6652 -1.2942
14262SOL    HW244271   0.651   3.683   0.698 -1.0708  0.1432 -1.1189
14263SOL     OW44272   2.159   2.118   2.062 -0.2592  0.5569 -0.7335
14263SOL    HW144273   2.086   2.099   2.003 -2.9870  3.4903  1.5590
14263SOL    HW244274   2.210   2.185   2.017 -0.4615  0.4136 -1.1796
14264SOL     OW44275   0.627   0.678   0.036  0.2313 -0.0728  0.0789
14264SOL    HW144276   0.666   0.703   0.120  1.1102 -0.2719 -0.2645
14264SOL    HW244277   0.555   0.740   0.023  0.3141  0.1765  0.8111
14265SOL     OW44278   1.105   4.995   1.707  0.3617  0.4166  0.4247
14265SOL    HW144279   1.180   5.050   1.727  0.3378  0.3431  0.7227
14265SOL    HW244280   1.090   5.008   1.613  1.8802 -0.9518 -0.0406
14266SOL     OW44281   5.480   4.010   5.203 -0.1009  0.5452  0.1539
14266SOL    HW144282   5.423   4.070   5.252 -1.9046 -1.1834  0.2147
14266SOL    HW244283   5.424   3.975   5.134  0.4519 -2.3399  1.1298
14267SOL     OW44284   4.237   6.017   4.536 -0.0449  0.2578  0.0567
14267SOL    HW144285   4.231   6.112   4.524 -1.4393  0.0873 -0.7290
14267SOL    HW244286   4.328   6.002   4.564 -0.0949  1.9170  1.2261
14268SOL     OW44287   4.752   0.720   1.593 -0.1563  0.2747  0.2635
14268SOL    HW144288   4.681   0.783   1.581 -2.0553 -1.6324  1.0227
14268SOL    HW244289   4.754   0.670   1.511  1.2337  1.2059 -0.2791
14269SOL     OW44290   7.602   8.085   5.415 -0.0580 -0.2432  0.0260
14269SOL    HW144291   7.588   7.991   5.425  0.9497 -0.4827 -0.7221
14269SOL    HW244292   7.605   8.119   5.505 -1.4061 -0.7770  0.2693
14270SOL     OW44293   2.962   6.365   0.346 -0.0857  0.0819 -0.2700
14270SOL    HW144294   2.929   6.437   0.292 -2.0156  0.7118  1.7034
14270SOL    HW244295   3.024   6.406   0.405 -1.0344  0.1053  0.7209
14271SOL     OW44296   2.678   6.585   0.566  0.1752 -0.5076  0.1439
14271SOL    HW144297   2.665   6.491   0.550  1.6855 -0.8533  0.8693
14271SOL    HW244298   2.692   6.592   0.660  2.6294  0.1074 -0.2267
14272SOL     OW44299   7.870   3.205   2.263 -0.2088  0.0453 -0.1280
14272SOL    HW144300   7.834   3.272   2.321 -1.5604 -0.9597  0.2118
14272SOL    HW244301   7.957   3.238   2.239 -0.5212  1.5049  0.7123
14273SOL     OW44302   2.271   7.894   0.443  0.1506  0.0774 -0.7634
14273SOL    HW144303   2.202   7.959   0.430  0.1301  0.2897  0.3360
14273SOL    HW244304   2.337   7.940   0.496  0.5013 -0.5504 -0.6477
14274SOL     OW44305   0.260   2.028   5.153 -0.1286  0.0231 -0.9175
14274SOL    HW144306   0.228   2.116   5.134  1.3201  0.6427 -0.5881
14274SOL    HW244307   0.343   2.042   5.198  1.0186 -1.5237 -2.4784
14275SOL     OW44308   2.378   1.547   5.519  0.1281 -0.5908 -0.2984
14275SOL    HW144309   2.442   1.527   5.587  1.8771  2.1609 -1.0544
14275SOL    HW244310   2.344   1.634   5.542 -2.2922 -1.3870 -0.7015
14276SOL     OW44311   6.176   2.413   3.791 -0.4906 -0.5558  0.0976
14276SOL    HW144312   6.200   2.378   3.877 -0.9292  1.1320  0.9426
14276SOL    HW244313   6.247   2.386   3.733  2.4939  2.5591  2.0764
14277SOL     OW44314   5.623   1.616   1.783  0.0274  0.0696  0.0011
14277SOL    HW144315   5.676   1.562   1.724  0.9064  0.8508  0.0579
14277SOL    HW244316   5.687   1.674   1.825 -0.6085 -0.3459  1.5783
14278SOL     OW44317   6.959   4.581   0.305 -0.1451 -0.1282  0.3856
14278SOL    HW144318   7.021   4.607   0.237  0.6541 -0.6885  0.8928
14278SOL    HW244319   6.941   4.661   0.353 -0.5915  0.2399 -0.3765
14279SOL     OW44320   1.846   2.401   2.298  0.4174 -0.4177 -0.1816
14279SOL    HW144321   1.827   2.417   2.206  0.4648  1.4753  0.1259
14279SOL    HW244322   1.785   2.457   2.346  0.5589 -1.1907  0.9408
14280SOL     OW44323   5.406   3.010   3.014 -0.5526  0.0802  0.4270
14280SOL    HW144324   5.482   2.952   3.019 -0.0617  0.7185  0.4831
14280SOL    HW244325   5.385   3.013   2.920  0.3919  1.0342  0.2282
14281SOL     OW44326   8.153   7.864   7.464 -0.4573 -0.4995  0.8304
14281SOL    HW144327   8.130   7.916   7.541 -1.1991 -0.4847  0.6052
14281SOL    HW244328   8.220   7.916   7.419 -1.3753  0.3961  0.4750
14282SOL     OW44329   7.632   1.594   0.167 -0.2058  0.0270 -0.1535
14282SOL    HW144330   7.599   1.617   0.080  0.7032  1.2133 -0.1860
14282SOL    HW244331   7.556   1.601   0.225 -0.3499  1.2833 -0.4896
14283SOL     OW44332   0.916   6.889   7.692 -0.9415  0.6463  0.3387
14283SOL    HW144333   0.855   6.930   7.631  0.4028 -0.8572 -2.1106
14283SOL    HW244334   0.881   6.801   7.706 -1.2418  0.9819  1.7802
14284SOL     OW44335   2.974   0.490   0.105  0.1987  0.0578  0.7239
14284SOL    HW144336   2.983   0.555   0.034 -1.9564 -1.4575 -1.0021
14284SOL    HW244337   2.892   0.513   0.148 -0.9145 -1.8410 -0.3026
14285SOL     OW44338   2.650   6.186   5.671  0.4291 -0.0157  0.1904
14285SOL    HW144339   2.707   6.196   5.595 -0.9580 -1.8022 -1.1389
14285SOL    HW244340   2.642   6.274   5.707  1.3721  0.8075 -1.5622
14286SOL     OW44341   4.236   4.377   5.790 -0.2804 -0.6174  0.0044
14286SOL    HW144342   4.160   4.425   5.824 -0.6656 -1.5720  0.5080
14286SOL    HW244343   4.240   4.400   5.697 -1.3457 -0.7826 -0.0851
14287SOL     OW44344   6.998   2.923   5.085  0.1597  0.0684 -0.0871
14287SOL    HW144345   6.906   2.915   5.109  0.4288 -0.1191  0.8793
14287SOL    HW244346   6.997   2.982   5.009 -0.7652 -0.0469 -0.1779
14288SOL     OW44347   4.146   0.150   3.054  0.2604 -0.4053 -0.7930
14288SOL    HW144348   4.153   0.154   3.149  0.1587  1.4396 -0.8496
14288SOL    HW244349   4.237   0.145   3.024  0.2471 -2.5835 -0.5658
14289SOL     OW44350   3.178   2.311   5.083  0.4505  0.1084 -0.2976
14289SOL    HW144351   3.246   2.368   5.048  0.3231 -0.0372 -0.7878
14289SOL    HW244352   3.193   2.310   5.177  0.7796  0.5243 -0.3471
14290SOL     OW44353   4.737   3.696   3.923  0.1698 -0.2314 -0.1108
14290SOL    HW144354   4.779   3.736   3.999 -0.9208  0.0467  0.3580
14290SOL    HW244355   4.713   3.608   3.951 -0.0707 -0.1932 -0.1923
14291SOL     OW44356   2.224   5.535   0.962  0.1350  0.7434 -0.2816
14291SOL    HW144357   2.208   5.521   1.055  0.0054  0.7480 -0.3022
14291SOL    HW244358   2.136   5.546   0.925  0.1607  0.2528 -0.4836
14292SOL     OW44359   5.492   8.230   4.568 -0.2291  0.4733  0.7723
14292SOL    HW144360   5.576   8.206   4.528 -1.3474 -0.3310 -1.1865
14292SOL    HW244361   5.514   8.294   4.635  2.1187 -0.8665  1.3401
14293SOL     OW44362   7.334   4.364   3.797  0.0490  0.6208  0.2280
14293SOL    HW144363   7.428   4.385   3.794  0.6910 -1.9794  0.3938
14293SOL    HW244364   7.303   4.403   3.878  1.2368  0.6403  0.6813
14294SOL     OW44365   6.139   1.244   4.671 -0.4496 -0.6803  0.8501
14294SOL    HW144366   6.058   1.200   4.644 -0.0048 -1.3178  0.5457
14294SOL    HW244367   6.113   1.297   4.746 -1.4323  0.1572 -0.0664
14295SOL     OW44368   3.230   5.099   4.997  0.1879  0.0118  0.1035
14295SOL    HW144369   3.255   5.165   5.061  1.0556  0.7156 -0.9509
14295SOL    HW244370   3.209   5.022   5.050 -1.4729  1.2976  1.3892
14296SOL     OW44371   6.364   0.990   3.298  0.0191 -0.0665 -0.1225
14296SOL    HW144372   6.458   0.975   3.300  0.0443  0.0657 -0.3125
14296SOL    HW244373   6.348   1.055   3.367 -0.1949 -1.5399  1.2647
14297SOL     OW44374   0.331   4.073   3.014 -0.3666 -0.8125  0.3651
14297SOL    HW144375   0.297   4.010   2.951 -1.1531  1.7296 -1.8435
14297SOL    HW244376   0.425   4.076   2.998 -0.5560 -0.2267 -0.6453
14298SOL     OW44377   0.368   7.966   6.044 -0.4747 -0.1421  0.2133
14298SOL    HW144378   0.278   7.958   6.011 -0.6906  1.7493  0.2530
14298SOL    HW244379   0.423   7.938   5.971 -1.0506  0.6987 -0.5574
14299SOL     OW44380   4.458   7.049   1.570 -0.1929  0.3367  0.7784
14299SOL    HW144381   4.546   7.037   1.605  0.2738 -0.6380 -0.6765
14299SOL    HW244382   4.442   6.971   1.517 -1.7303  0.7460  0.6144
14300SOL     OW44383   0.728   4.338   1.774  0.4406 -0.3305 -0.8202
14300SOL    HW144384   0.660   4.270   1.773  1.7009 -1.6200 -0.4487
14300SOL    HW244385   0.734   4.363   1.866 -1.1000  1.4055 -1.1728
14301SOL     OW44386   1.505   6.914   3.622 -0.4507 -0.2048 -0.1801
14301SOL    HW144387   1.468   7.003   3.620 -1.8017 -0.7686 -1.4544
14301SOL    HW244388   1.550   6.909   3.706  1.4245  2.3810 -0.9750
14302SOL     OW44389   3.995   7.454   7.472 -0.2690  0.1641  0.1277
14302SOL    HW144390   3.919   7.438   7.416  0.6760 -0.9323 -0.8414
14302SOL    HW244391   3.957   7.470   7.559 -1.6122 -0.2627 -0.3695
14303SOL     OW44392   6.738   5.856   6.248  0.2449  0.9269 -0.4331
14303SOL    HW144393   6.732   5.830   6.340 -0.4299  1.6029 -0.2728
14303SOL    HW244394   6.806   5.800   6.210  2.8574  2.8626  1.2402
14304SOL     OW44395   3.422   2.528   4.766 -0.1143  0.2248  0.1123
14304SOL    HW144396   3.347   2.492   4.814 -1.3099 -0.3884 -2.1523
14304SOL    HW244397   3.495   2.472   4.791 -1.1290 -1.2923 -0.2451
14305SOL     OW44398   4.489   3.706   4.048  0.0889 -0.1584 -0.6952
14305SOL    HW144399   4.518   3.626   4.004  0.1330 -0.7594  0.4122
14305SOL    HW244400   4.528   3.776   3.997  2.8893 -0.9257  0.2865
14306SOL     OW44401   0.268   3.313   2.711 -0.2899 -0.6089 -0.0812
14306SOL    HW144402   0.285   3.308   2.617 -1.5323  0.6308 -0.3942
14306SOL    HW244403   0.324   3.385   2.742 -0.1438 -0.7835  0.0625
14307SOL     OW44404   3.652   6.666   2.845 -0.1383 -0.0248 -0.2148
14307SOL    HW144405   3.571   6.627   2.878  0.4659 -0.4150  0.8397
14307SOL    HW244406   3.721   6.622   2.894  0.7614 -0.3034 -1.7226
14308SOL     OW44407   1.023   5.924   6.062  0.0329  0.4409 -0.1982
14308SOL    HW144408   1.094   5.980   6.091 -0.4264  1.3155 -0.7393
14308SOL    HW244409   1.060   5.836   6.060  1.6726  1.1464 -2.3239
14309SOL     OW44410   5.114   1.196   5.308  0.5713  0.5340 -0.2277
14309SOL    HW144411   5.055   1.234   5.373  0.4786  0.2709 -0.1563
14309SOL    HW244412   5.199   1.193   5.352  0.3928 -0.1573  0.0795
14310SOL     OW44413   6.006   1.515   4.633  0.3581 -0.6778  0.4517
14310SOL    HW144414   6.001   1.480   4.722 -0.2676 -1.7255  0.0171
14310SOL    HW244415   5.953   1.455   4.580  0.7737 -0.1066 -0.6432
14311SOL     OW44416   5.927   2.460   8.186  0.8204 -0.1048 -0.4364
14311SOL    HW144417   5.835   2.466   8.159  0.8230  2.6236  0.0793
14311SOL    HW244418   5.928   2.391   8.252 -0.2955 -2.3323 -2.6493
14312SOL     OW44419   4.619   7.655   5.052  0.1695 -0.0960 -0.2176
14312SOL    HW144420   4.581   7.578   5.094  1.0898  0.1354  1.0768
14312SOL    HW244421   4.546   7.715   5.039 -0.7551 -1.5928 -2.2269
14313SOL     OW44422   6.756   1.143   2.492  0.2760 -0.0821 -0.0495
14313SOL    HW144423   6.784   1.225   2.450  2.3237 -0.6558  0.1519
14313SOL    HW244424   6.667   1.161   2.523  0.4091  1.8087 -0.7162
14314SOL     OW44425   3.737   3.757   7.782 -0.7522  0.5582 -0.1002
14314SOL    HW144426   3.809   3.699   7.807 -1.4037 -0.7471 -1.1289
14314SOL    HW244427   3.704   3.792   7.864 -1.1494 -1.5435  0.6628
14315SOL     OW44428   4.893   2.510   4.828 -0.5357  0.1764  0.0011
14315SOL    HW144429   4.937   2.558   4.897 -1.0903 -1.0361  1.2264
14315SOL    HW244430   4.943   2.429   4.819  0.1767  0.7908 -1.7878
14316SOL     OW44431   0.183   0.432   2.036  0.7613  0.4304  0.3639
14316SOL    HW144432   0.124   0.395   2.101  0.1628 -0.8706 -0.8927
14316SOL    HW244433   0.125   0.470   1.970  1.3194 -0.2533 -0.5371
14317SOL     OW44434   6.090   2.931   7.445  0.5643 -0.1128  0.6245
14317SOL    HW144435   6.029   2.859   7.463 -0.4497  0.0901 -1.8529
14317SOL    HW244436   6.175   2.888   7.438  0.1631 -0.8927  0.4775
14318SOL     OW44437   4.956   6.538   4.618  0.5217 -0.0919  0.3672
14318SOL    HW144438   4.940   6.532   4.524 -1.9376 -0.0130  0.7465
14318SOL    HW244439   4.965   6.632   4.635  2.3932 -0.1921  0.0123
14319SOL     OW44440   7.013   5.999   4.315  0.8539  0.5877  0.2559
14319SOL    HW144441   7.050   5.968   4.398  1.9215  3.5652  0.9295
14319SOL    HW244442   7.050   5.939   4.249  0.4533 -1.4418  1.8271
14320SOL     OW44443   1.738   5.692   4.942  0.0072 -0.6169  0.2212
14320SOL    HW144444   1.707   5.775   4.978 -0.9613 -0.2676 -1.4082
14320SOL    HW244445   1.751   5.637   5.020 -0.0332  0.8103  1.2650
14321SOL     OW44446   4.271   2.649   3.587  0.1566 -0.3060  0.2991
14321SOL    HW144447   4.363   2.625   3.578 -0.0797 -0.9317 -0.6308
14321SOL    HW244448   4.264   2.735   3.546  0.3703 -0.1761  0.5408
14322SOL     OW44449   5.230   3.268   1.736  0.4459  0.0064 -0.0253
14322SOL    HW144450   5.313   3.229   1.711  0.7802 -0.5170  1.7990
14322SOL    HW244451   5.247   3.309   1.821 -1.1033  0.0639  0.2831
14323SOL     OW44452   7.523   7.909   5.091  0.0094 -0.2722  0.4908
14323SOL    HW144453   7.488   7.907   5.002  2.3795 -2.6678 -0.4511
14323SOL    HW244454   7.469   7.848   5.140  0.2397 -0.8183  0.0690
14324SOL     OW44455   2.551   1.243   1.059  0.2770 -0.3174 -0.6130
14324SOL    HW144456   2.561   1.331   1.096 -0.8480  0.4545 -2.0684
14324SOL    HW244457   2.456   1.227   1.061  0.4577 -1.4294 -0.5172
14325SOL     OW44458   1.929   5.195   1.890 -0.0311 -0.1410 -0.1785
14325SOL    HW144459   1.946   5.276   1.940 -1.4093  0.7232 -1.0745
14325SOL    HW244460   1.834   5.194   1.878 -0.0495 -2.0218 -0.0049
14326SOL     OW44461   5.326   7.164   2.313 -0.1778 -0.0018  0.0559
14326SOL    HW144462   5.358   7.165   2.403 -1.0867 -0.3756  0.3868
14326SOL    HW244463   5.369   7.240   2.271 -0.3725  0.6422  1.0123
14327SOL     OW44464   8.258   1.180   7.035 -0.0351 -0.0547 -0.0428
14327SOL    HW144465   8.326   1.194   6.968 -1.2990 -0.8606 -1.5339
14327SOL    HW244466   8.252   1.084   7.042 -0.0539  0.0278  1.0934
14328SOL     OW44467   4.655   2.627   7.839 -0.2228  0.0259  0.2387
14328SOL    HW144468   4.728   2.590   7.788 -0.2411 -0.0194  0.2443
14328SOL    HW244469   4.590   2.652   7.773  0.2154  0.9919  0.1641
14329SOL     OW44470   1.065   6.936   7.005 -0.2072  0.2322 -0.0549
14329SOL    HW144471   1.110   7.014   7.037  0.4858 -0.0789 -0.2630
14329SOL    HW244472   1.132   6.888   6.956 -0.9621  0.1673 -1.0466
14330SOL     OW44473   7.093   3.275   5.144 -1.1499 -0.5114 -0.7066
14330SOL    HW144474   7.089   3.233   5.058 -2.7757 -2.3798  0.2447
14330SOL    HW244475   7.017   3.241   5.191  0.5327 -0.6903  1.9986
14331SOL     OW44476   3.650   0.261   5.881 -0.9704 -0.1901  0.2128
14331SOL    HW144477   3.657   0.198   5.953  0.3294  3.1589  3.1970
14331SOL    HW244478   3.740   0.276   5.854 -1.1605  1.2470  0.3619
14332SOL     OW44479   5.897   4.612   1.886  0.5052  0.4240  0.0172
14332SOL    HW144480   5.881   4.561   1.806 -0.4668 -2.0587  1.7312
14332SOL    HW244481   5.813   4.655   1.904 -0.7970 -2.7777  2.2024
14333SOL     OW44482   4.326   4.503   4.556  0.4216 -0.3223  0.1860
14333SOL    HW144483   4.406   4.479   4.602  1.3758  1.3791 -0.5415
14333SOL    HW244484   4.296   4.583   4.600  0.4405  0.3928 -1.0931
14334SOL     OW44485   3.582   2.264   2.038  0.5697  0.1872  0.4370
14334SOL    HW144486   3.622   2.321   1.973  0.4273  0.8810  0.9493
14334SOL    HW244487   3.639   2.272   2.115 -1.0657  1.9148  1.4849
14335SOL     OW44488   4.786   6.626   2.352  0.1764  0.2376 -0.0714
14335SOL    HW144489   4.737   6.546   2.365  0.1613  0.2744  0.1045
14335SOL    HW244490   4.751   6.687   2.417  0.8605  0.0738  0.4541
14336SOL     OW44491   0.458   2.549   4.619 -0.1498 -0.4227  0.1166
14336SOL    HW144492   0.370   2.546   4.582  0.6644 -1.1449 -1.8473
14336SOL    HW244493   0.516   2.533   4.544  1.6875  0.8892  1.2171
14337SOL     OW44494   2.238   0.230   6.577  0.0327 -0.7277 -0.1873
14337SOL    HW144495   2.151   0.212   6.613 -0.3402  0.6459 -0.3874
14337SOL    HW244496   2.236   0.190   6.490 -0.4823 -0.4736 -0.2932
14338SOL     OW44497   7.687   5.920   0.901  0.2473  0.2196 -0.4852
14338SOL    HW144498   7.712   5.932   0.810  0.4130  1.5209 -0.2767
14338SOL    HW244499   7.666   6.008   0.932 -3.2568 -0.6042 -0.2544
14339SOL     OW44500   6.676   4.223   1.956 -0.1152 -0.5807  0.0811
14339SOL    HW144501   6.711   4.279   2.025  1.5883  0.8441 -1.8565
14339SOL    HW244502   6.582   4.220   1.973  0.0287  1.2963  1.3455
14340SOL     OW44503   4.524   3.334   0.251  0.4013  0.1315 -0.1531
14340SOL    HW144504   4.501   3.344   0.159 -0.6393 -1.1867 -0.0435
14340SOL    HW244505   4.606   3.382   0.260 -0.1884  1.4137 -1.4568
14341SOL     OW44506   4.210   4.952   6.841  0.0380  0.0072 -0.6404
14341SOL    HW144507   4.270   4.997   6.781 -0.4662  2.8545  0.9409
14341SOL    HW244508   4.129   4.943   6.791  0.5415 -0.3651 -1.4092
14342SOL     OW44509   0.510   3.335   1.846  0.7319  0.0391  0.3988
14342SOL    HW144510   0.461   3.388   1.909  1.0334  0.6799  0.1011
14342SOL    HW244511   0.496   3.379   1.762 -1.4024 -1.9927 -0.3637
14343SOL     OW44512   0.841   3.029   1.648 -0.1419  0.2151 -0.0418
14343SOL    HW144513   0.773   2.982   1.696  0.9299  0.1286  1.4160
14343SOL    HW244514   0.923   2.999   1.686  0.7587 -0.1371 -2.1967
14344SOL     OW44515   4.619   2.810   6.434 -0.3449 -0.2560  0.7449
14344SOL    HW144516   4.611   2.863   6.354  2.0590  1.0584  1.3110
14344SOL    HW244517   4.572   2.860   6.501 -0.6863 -0.3708  0.5904
14345SOL     OW44518   4.625   6.370   2.431  0.4863  0.5352 -0.1148
14345SOL    HW144519   4.573   6.417   2.496  0.4806  2.6277 -1.5936
14345SOL    HW244520   4.560   6.333   2.370  0.5476 -0.3970  0.3781
14346SOL     OW44521   4.413   7.840   4.588 -0.1994 -0.3689  0.1217
14346SOL    HW144522   4.325   7.846   4.552  0.0316  0.2381 -0.3399
14346SOL    HW244523   4.456   7.921   4.562  1.2377 -1.6497 -1.6261
14347SOL     OW44524   4.398   3.976   1.566 -0.3227 -0.2578  0.4357
14347SOL    HW144525   4.359   4.033   1.632  0.8825 -1.0867  1.8989
14347SOL    HW244526   4.343   3.897   1.567 -0.6096 -0.0632  0.0765
14348SOL     OW44527   0.414   6.762   5.815 -0.2716 -0.4055 -0.0400
14348SOL    HW144528   0.347   6.828   5.797  1.2130  1.2944  0.4704
14348SOL    HW244529   0.368   6.695   5.866 -1.2993  1.3884  1.4653
14349SOL     OW44530   5.086   4.154   5.827  0.3652  0.0761  0.4327
14349SOL    HW144531   5.008   4.125   5.781 -0.1366  2.3526 -0.2448
14349SOL    HW244532   5.060   4.157   5.919 -0.1552  0.2313  0.2791
14350SOL     OW44533   4.317   2.679   1.888  0.3702  0.3961 -0.3907
14350SOL    HW144534   4.225   2.670   1.915  0.5567  0.4683  0.2694
14350SOL    HW244535   4.323   2.768   1.854 -0.5751 -0.6447 -3.4642
14351SOL     OW44536   5.555   4.962   3.036 -0.4682  0.2172 -0.3279
14351SOL    HW144537   5.490   5.012   2.986 -0.6780  0.8242  0.5310
14351SOL    HW244538   5.566   5.012   3.117  1.1261  0.1607 -0.4940
14352SOL     OW44539   5.925   2.837   3.247  0.0017  0.1497 -0.0307
14352SOL    HW144540   6.019   2.848   3.239  0.1417 -2.1445 -2.2569
14352SOL    HW244541   5.914   2.771   3.316  0.1705 -1.2377 -1.2989
14353SOL     OW44542   2.338   2.835   3.561  0.2528 -1.0974 -0.0881
14353SOL    HW144543   2.289   2.767   3.516  1.2144 -0.3720 -2.2929
14353SOL    HW244544   2.343   2.805   3.652  0.0509 -3.6198 -0.8817
14354SOL     OW44545   3.203   7.313   4.410  0.2967 -0.2283  0.0193
14354SOL    HW144546   3.236   7.275   4.328 -1.9680 -1.6770 -0.2604
14354SOL    HW244547   3.213   7.243   4.474  2.1967  0.9536  1.0474
14355SOL     OW44548   2.449   0.681   3.721  0.0746 -0.2793  0.1321
14355SOL    HW144549   2.418   0.771   3.729 -0.1595 -0.5221  2.3708
14355SOL    HW244550   2.451   0.664   3.627  2.3477  2.8156 -0.4447
14356SOL     OW44551   7.647   7.565   1.700  0.0729 -0.1303  0.2179
14356SOL    HW144552   7.707   7.500   1.738  0.8847  0.2069 -0.4662
14356SOL    HW244553   7.695   7.599   1.624 -0.9616  0.1979 -0.2899
14357SOL     OW44554   4.416   0.423   5.832 -0.4625  0.2297 -0.6978
14357SOL    HW144555   4.370   0.505   5.851  1.0044  0.9445 -0.1876
14357SOL    HW244556   4.410   0.373   5.914 -1.4831 -0.2436 -1.0551
14358SOL     OW44557   5.415   3.871   2.141  0.2117 -0.0587  0.1471
14358SOL    HW144558   5.488   3.931   2.149  1.6530 -1.5916 -0.9897
14358SOL    HW244559   5.379   3.888   2.054 -1.1639  1.0918  0.9309
14359SOL     OW44560   5.267   3.621   6.255 -0.2282 -0.5029 -0.2198
14359SOL    HW144561   5.193   3.563   6.237 -0.0125 -0.5980 -0.8304
14359SOL    HW244562   5.228   3.708   6.260 -0.7029 -0.8168  1.7333
14360SOL     OW44563   5.352   2.446   4.193  0.4179  0.0151  0.0892
14360SOL    HW144564   5.300   2.383   4.244 -1.0049  0.5223 -0.6884
14360SOL    HW244565   5.443   2.420   4.209 -0.1332 -2.2922 -0.2707
14361SOL     OW44566   4.071   5.300   7.665  0.1818 -0.1684 -0.1174
14361SOL    HW144567   4.143   5.283   7.725  0.9088 -2.1722 -1.4943
14361SOL    HW244568   4.097   5.379   7.618  0.4694  0.3381  0.8811
14362SOL     OW44569   7.185   2.803   5.387  0.1333  0.2821  0.0920
14362SOL    HW144570   7.109   2.776   5.336  0.5841  1.2559 -1.1438
14362SOL    HW244571   7.165   2.893   5.414  0.0961 -0.0690  1.2668
14363SOL     OW44572   6.242   3.121   0.845 -0.2391  0.1026 -0.7106
14363SOL    HW144573   6.268   3.038   0.806 -0.2621  0.1317 -0.7880
14363SOL    HW244574   6.216   3.099   0.935  1.6147  0.2994 -0.0940
14364SOL     OW44575   5.942   4.986   5.439 -0.2378 -0.1339 -0.5276
14364SOL    HW144576   5.878   4.949   5.500 -1.3903  1.5956 -0.6436
14364SOL    HW244577   5.902   4.976   5.353 -1.1039  2.3498 -0.4597
14365SOL     OW44578   5.065   4.841   2.226 -0.3545 -0.4146 -0.6352
14365SOL    HW144579   5.092   4.761   2.272  1.2779  0.2441 -0.4183
14365SOL    HW244580   5.066   4.816   2.133 -1.4393 -1.0989 -0.4703
14366SOL     OW44581   7.702   3.048   1.143  0.0842 -0.4597 -0.1939
14366SOL    HW144582   7.687   3.010   1.057  1.4317  0.6357 -0.9074
14366SOL    HW244583   7.795   3.032   1.161  0.5708  2.1321 -0.3295
14367SOL     OW44584   5.216   2.290   0.267  0.0432 -0.1130  0.4826
14367SOL    HW144585   5.176   2.339   0.339 -1.8037 -1.1419  0.1988
14367SOL    HW244586   5.142   2.259   0.215  1.4308  2.8565 -3.4386
14368SOL     OW44587   5.033   1.099   4.229  0.1336  0.1992 -0.0585
14368SOL    HW144588   5.012   1.181   4.274  1.9068  0.6566 -0.0179
14368SOL    HW244589   5.060   1.126   4.141 -3.0703 -0.6753 -1.3820
14369SOL     OW44590   7.206   2.730   2.728 -0.3363  0.0939  0.1844
14369SOL    HW144591   7.134   2.789   2.754 -1.6206 -0.7312 -1.4066
14369SOL    HW244592   7.244   2.772   2.651 -0.4596 -0.5415 -0.2186
14370SOL     OW44593   8.093   3.285   0.531 -0.1907  0.5265  0.1350
14370SOL    HW144594   8.026   3.321   0.473 -0.9296  1.0563  1.3052
14370SOL    HW244595   8.050   3.278   0.616  0.2079 -2.3455  0.1293
14371SOL     OW44596   1.026   7.601   7.669 -0.0404  0.1344  0.4981
14371SOL    HW144597   0.995   7.667   7.606  0.1166  1.6588  1.9768
14371SOL    HW244598   0.948   7.551   7.690 -0.7447  1.5666  1.3735
14372SOL     OW44599   1.747   7.283   7.627  0.5536  0.8111  0.6025
14372SOL    HW144600   1.744   7.276   7.722  1.4812 -0.1358  0.5784
14372SOL    HW244601   1.801   7.208   7.599  0.9052  1.4906 -0.6015
14373SOL     OW44602   1.617   3.260   6.901 -0.1456 -0.0744 -0.2378
14373SOL    HW144603   1.660   3.178   6.875  0.8993  0.3538  0.0972
14373SOL    HW244604   1.607   3.252   6.996  0.5474  0.4512 -0.1163
14374SOL     OW44605   2.598   2.764   0.342  0.7208 -0.6449 -0.0478
14374SOL    HW144606   2.636   2.685   0.380  0.0021 -1.2310 -0.5287
14374SOL    HW244607   2.510   2.737   0.313  0.8921  0.0332 -1.2271
14375SOL     OW44608   3.712   3.194   2.152 -0.0498  0.1699  0.2295
14375SOL    HW144609   3.773   3.121   2.139  1.9155  1.2596  2.9149
14375SOL    HW244610   3.726   3.250   2.075 -1.0930 -1.8677 -1.5186
14376SOL     OW44611   3.558   6.763   2.180  0.1199  0.5903  0.9732
14376SOL    HW144612   3.581   6.831   2.243 -0.1601  0.9464  0.6892
14376SOL    HW244613   3.523   6.691   2.233 -1.4171  1.4239  1.1177
14377SOL     OW44614   7.483   2.493   1.593  0.2619  0.2545  0.1876
14377SOL    HW144615   7.477   2.437   1.516  0.0559 -0.4071  0.6859
14377SOL    HW244616   7.426   2.452   1.658 -0.5999  1.5177  0.2598
14378SOL     OW44617   3.616   7.404   1.581 -0.2527  0.0933 -0.6569
14378SOL    HW144618   3.660   7.464   1.642  0.5003 -0.2079 -0.9029
14378SOL    HW244619   3.647   7.430   1.495 -1.6372  0.7844 -0.9744
14379SOL     OW44620   4.633   0.963   5.460  0.3861 -0.0879  0.1978
14379SOL    HW144621   4.645   0.891   5.399 -0.6005  0.4880 -0.6977
14379SOL    HW244622   4.540   0.960   5.483  0.4969  0.4248  0.7367
14380SOL     OW44623   3.777   3.915   4.714 -0.2276  0.0613  0.1454
14380SOL    HW144624   3.757   3.824   4.735  0.7892  0.2859  2.1538
14380SOL    HW244625   3.728   3.966   4.779 -0.0153  0.9225 -0.3566
14381SOL     OW44626   4.965   3.072   5.137  0.3027 -0.0065 -0.4668
14381SOL    HW144627   4.879   3.063   5.178  0.7839 -1.4248  0.2799
14381SOL    HW244628   4.946   3.076   5.043 -0.4963 -2.2201 -0.4396
14382SOL     OW44629   1.765   2.500   8.015 -0.4913 -0.8616 -0.1485
14382SOL    HW144630   1.801   2.473   8.100  1.0753  0.8095 -0.2518
14382SOL    HW244631   1.671   2.514   8.033 -0.2599 -0.9343  1.2068
14383SOL     OW44632   6.305   4.479   8.076 -0.7697 -0.0021 -0.2521
14383SOL    HW144633   6.361   4.412   8.115 -0.1561  1.6261  1.7382
14383SOL    HW244634   6.312   4.463   7.981  2.4749 -0.3031 -0.0177
14384SOL     OW44635   0.328   7.931   3.478  0.1900 -0.0338 -0.4569
14384SOL    HW144636   0.417   7.965   3.481  0.5986 -1.2105  1.5746
14384SOL    HW244637   0.277   7.992   3.532 -0.5390  1.3950 -2.6881
14385SOL     OW44638   8.185   2.903   2.900  0.7162  0.1179  0.3240
14385SOL    HW144639   8.092   2.910   2.879  1.2311  1.6197 -1.7327
14385SOL    HW244640   8.207   2.813   2.880  0.1994  0.3837 -1.5740
14386SOL     OW44641   0.178   7.583   3.142 -0.3350  0.3148 -0.1042
14386SOL    HW144642   0.189   7.604   3.235  0.4739  0.3035 -0.1928
14386SOL    HW244643   0.157   7.489   3.141 -2.1365  0.7008  0.1749
14387SOL     OW44644   0.717   3.672   7.944  0.0952 -1.0157 -0.4720
14387SOL    HW144645   0.807   3.639   7.946  1.7243  3.0494 -0.1713
14387SOL    HW244646   0.699   3.687   7.851  1.1869  1.5431 -0.3354
14388SOL     OW44647   1.847   3.217   5.392  0.2677  0.3836  0.0413
14388SOL    HW144648   1.873   3.133   5.430  1.2393  0.1874 -1.0366
14388SOL    HW244649   1.904   3.228   5.315 -0.6027  1.5028 -0.4654
14389SOL     OW44650   0.816   7.342   2.716 -0.0597 -0.8350  0.1472
14389SOL    HW144651   0.748   7.341   2.784  0.3048 -1.3712  0.5040
14389SOL    HW244652   0.781   7.401   2.650 -0.2961 -0.0876  0.9264
14390SOL     OW44653   2.487   2.208   0.302  0.1371  0.4102 -0.3196
14390SOL    HW144654   2.494   2.119   0.336 -3.2800  0.0976 -0.2905
14390SOL    HW244655   2.487   2.198   0.207 -0.6039  0.3266 -0.3147
14391SOL     OW44656   0.789   5.727   7.286 -0.0981  0.1199  0.2282
14391SOL    HW144657   0.851   5.701   7.354  0.1129 -1.5473 -0.5886
14391SOL    HW244658   0.709   5.748   7.333  0.7508  1.2942  1.1970
14392SOL     OW44659   5.534   7.369   4.345 -0.1329 -0.0230  0.3515
14392SOL    HW144660   5.578   7.369   4.259 -0.9468 -1.9913 -0.0927
14392SOL    HW244661   5.606   7.373   4.408  0.6228 -1.0702 -0.4073
14393SOL     OW44662   4.596   0.675   0.270 -0.6698 -0.6445  0.2847
14393SOL    HW144663   4.518   0.651   0.321 -1.2998  0.4750 -0.1088
14393SOL    HW244664   4.605   0.769   0.286  0.5975 -0.7691  0.2992
14394SOL     OW44665   4.867   7.725   7.033 -0.4394 -0.8057 -0.6062
14394SOL    HW144666   4.823   7.776   6.965  0.7943  2.0097  0.6485
14394SOL    HW244667   4.960   7.744   7.021 -0.1687 -0.6318  1.5700
14395SOL     OW44668   5.090   6.084   5.981 -0.0673 -0.1931 -0.3331
14395SOL    HW144669   5.075   5.989   5.979 -0.5733 -0.1489  1.0076
14395SOL    HW244670   5.003   6.123   5.974  0.1414  0.1849 -0.8964
14396SOL     OW44671   5.551   4.589   6.225  0.0502 -0.0149  0.6139
14396SOL    HW144672   5.471   4.601   6.276 -0.5098 -2.7963  0.4562
14396SOL    HW244673   5.592   4.512   6.263  0.9092 -0.6300 -1.5227
14397SOL     OW44674   2.218   4.155   7.577 -0.2609 -0.3823  0.2274
14397SOL    HW144675   2.245   4.246   7.570  0.6482 -0.6704 -0.1822
14397SOL    HW244676   2.177   4.135   7.493 -1.5988  0.0026  0.7814
14398SOL     OW44677   5.080   4.534   6.609  0.1144 -0.6221 -0.1293
14398SOL    HW144678   5.022   4.572   6.676  0.8074 -1.3133  0.8654
14398SOL    HW244679   5.165   4.528   6.652  0.8106 -0.1145 -1.4189
14399SOL     OW44680   1.762   6.927   3.521 -0.4422 -0.4389 -0.4533
14399SOL    HW144681   1.782   6.872   3.446 -0.3198 -0.1699 -0.6174
14399SOL    HW244682   1.682   6.888   3.559  0.6680 -1.8467  0.5208
14400SOL     OW44683   5.445   7.087   7.288  0.1923 -0.3106 -0.0723
14400SOL    HW144684   5.471   7.019   7.351  0.2905 -0.2741 -0.0736
14400SOL    HW244685   5.471   7.169   7.330 -1.2856 -0.1750  0.6023
14401SOL     OW44686   7.941   5.402   5.624  0.7066  0.0220  0.0439
14401SOL    HW144687   7.992   5.387   5.545  2.5515  1.9446  0.8036
14401SOL    HW244688   7.956   5.324   5.678  1.0762 -0.3924 -0.6533
14402SOL     OW44689   5.952   4.833   7.813  0.2979  0.0624 -0.2929
14402SOL    HW144690   5.867   4.857   7.777  0.1480  0.3455  0.2456
14402SOL    HW244691   6.013   4.844   7.740  0.0522  0.9678 -0.3707
14403SOL     OW44692   1.664   1.827   2.466  0.2448 -0.1385  0.2620
14403SOL    HW144693   1.572   1.825   2.489  0.0542  0.8279 -0.3636
14403SOL    HW244694   1.676   1.913   2.424  0.9761 -1.0981 -1.5341
14404SOL     OW44695   6.765   1.321   0.232  0.4205  0.4495 -0.7595
14404SOL    HW144696   6.828   1.343   0.164  1.0634  0.4849 -0.1673
14404SOL    HW244697   6.685   1.297   0.185  0.1857  2.5136 -1.4581
14405SOL     OW44698   7.591   3.389   3.178  0.4370 -0.0342 -0.3559
14405SOL    HW144699   7.642   3.309   3.190  2.6181  1.2202 -0.9012
14405SOL    HW244700   7.594   3.406   3.084  0.1315  0.7583 -0.2297
14406SOL     OW44701   3.380   1.987   0.832 -0.3401  0.0672  0.3366
14406SOL    HW144702   3.378   2.048   0.759  2.4407 -1.2970 -0.9312
14406SOL    HW244703   3.288   1.962   0.845 -1.0225  1.3830 -1.7469
14407SOL     OW44704   7.364   5.274   5.613  0.1807 -0.2103  0.3196
14407SOL    HW144705   7.291   5.213   5.604 -0.2025  0.3564 -0.4581
14407SOL    HW244706   7.363   5.300   5.705 -1.8326  1.3000 -0.0923
14408SOL     OW44707   0.804   2.340   2.344 -0.4189  0.0051  0.0811
14408SOL    HW144708   0.834   2.340   2.254 -0.0962 -0.3012  0.1895
14408SOL    HW244709   0.884   2.335   2.397 -0.6963 -1.6841  0.3588
14409SOL     OW44710   4.741   1.241   4.757  0.5103 -0.1424 -0.3769
14409SOL    HW144711   4.683   1.167   4.777  0.3039  0.8156  2.8978
14409SOL    HW244712   4.681   1.311   4.730  0.2483  0.3466  1.4218
14410SOL     OW44713   1.931   5.274   7.650  0.3024  0.8880  0.0821
14410SOL    HW144714   1.983   5.295   7.728  0.5132 -0.4456  0.3107
14410SOL    HW244715   1.860   5.218   7.683  0.3642  0.3603 -0.6766
14411SOL     OW44716   5.695   5.145   1.286  0.0033  0.1500  0.0989
14411SOL    HW144717   5.620   5.159   1.228  1.0018  0.5727 -1.1224
14411SOL    HW244718   5.661   5.089   1.356 -1.5948  0.8401 -0.1021
14412SOL     OW44719   4.056   1.924   5.494 -0.2097  0.0306 -0.4134
14412SOL    HW144720   4.123   1.967   5.547 -0.9489 -0.4632  0.9581
14412SOL    HW244721   4.088   1.835   5.483 -1.0039 -0.4531  0.9664
14413SOL     OW44722   0.436   1.311   1.075 -0.3433 -0.1380 -0.8077
14413SOL    HW144723   0.371   1.376   1.102  1.9575  1.6804  0.6265
14413SOL    HW244724   0.479   1.351   0.999 -0.8792 -1.3073 -1.7283
14414SOL     OW44725   2.481   4.311   5.965  0.1691  0.5516 -0.4489
14414SOL    HW144726   2.525   4.326   5.881 -1.7013  1.2951 -1.3229
14414SOL    HW244727   2.471   4.216   5.969  1.3688  0.4109 -0.4731
14415SOL     OW44728   6.352   5.895   6.582 -0.0209  0.0727 -0.3384
14415SOL    HW144729   6.319   5.844   6.509 -0.7217  0.0046  0.0170
14415SOL    HW244730   6.275   5.911   6.637  0.7002 -0.8552  0.9736
14416SOL     OW44731   3.415   4.589   3.660 -0.3291  0.6450  0.4639
14416SOL    HW144732   3.391   4.661   3.602 -1.5708 -0.4959 -0.4804
14416SOL    HW244733   3.511   4.590   3.660 -0.3125  1.1297 -1.0353
14417SOL     OW44734   0.610   3.822   2.887  0.1997  0.2550  0.2601
14417SOL    HW144735   0.697   3.834   2.926  0.2517  1.8060 -0.2830
14417SOL    HW244736   0.577   3.741   2.926  2.0075 -0.5194  0.2401
14418SOL     OW44737   6.962   6.501   5.340 -0.2481  0.1398 -0.4261
14418SOL    HW144738   6.940   6.409   5.326  0.8900 -0.1204 -0.5937
14418SOL    HW244739   6.985   6.506   5.433  0.9708 -0.0280 -0.7118
14419SOL     OW44740   0.165   2.134   0.191  0.0704  0.2399 -0.9015
14419SOL    HW144741   0.203   2.211   0.148  0.6784 -0.6004 -1.8856
14419SOL    HW244742   0.192   2.060   0.136 -0.1826 -0.7198  0.2524
14420SOL     OW44743   7.366   5.417   2.227  0.3265  0.2972  0.2341
14420SOL    HW144744   7.453   5.379   2.241  0.5064  0.7212  0.2555
14420SOL    HW244745   7.324   5.412   2.314  0.2553 -0.0868  0.1801
14421SOL     OW44746   8.307   8.188   2.440  0.1602  0.8656  0.3918
14421SOL    HW144747   8.336   8.184   2.531  0.2182 -0.5111  0.3181
14421SOL    HW244748   8.381   8.156   2.390 -0.5470 -0.1826  0.0045
14422SOL     OW44749   0.316   7.844   4.343 -0.3495 -0.5809 -0.3934
14422SOL    HW144750   0.366   7.853   4.261 -2.3373 -0.4190 -1.6189
14422SOL    HW244751   0.311   7.933   4.378  1.1757 -0.7637  0.3391
14423SOL     OW44752   0.595   5.758   6.880  0.1296 -0.0257 -0.0006
14423SOL    HW144753   0.567   5.667   6.879  0.3274 -0.0970 -2.6396
14423SOL    HW244754   0.525   5.806   6.836 -0.1892  1.1758  1.7825
14424SOL     OW44755   2.456   4.325   8.309  0.6030  0.4333 -0.1430
14424SOL    HW144756   2.430   4.233   8.301  1.7238  0.2789 -2.4758
14424SOL    HW244757   2.378   4.369   8.343 -0.7453 -1.0085 -1.2352
14425SOL     OW44758   0.620   7.650   5.458  0.4815  0.1987  0.3617
14425SOL    HW144759   0.575   7.716   5.406  0.2768 -0.0380  0.2363
14425SOL    HW244760   0.641   7.694   5.540  0.6072  0.5066  0.1624
14426SOL     OW44761   0.216   6.514   7.848 -0.7019  0.0230  0.3491
14426SOL    HW144762   0.125   6.544   7.852 -0.6989 -0.1559  2.2303
14426SOL    HW244763   0.267   6.592   7.870 -0.3983  0.1330 -0.7487
14427SOL     OW44764   2.946   5.762   0.584  0.2564  0.1000  0.3464
14427SOL    HW144765   2.985   5.793   0.503  0.3274 -0.0131  0.3373
14427SOL    HW244766   2.971   5.670   0.589 -2.4339 -0.7435 -1.1038
14428SOL     OW44767   8.132   0.881   2.102  0.4621 -0.5879 -0.5691
14428SOL    HW144768   8.163   0.824   2.172 -1.1724 -2.1150 -1.0447
14428SOL    HW244769   8.039   0.895   2.123  0.3132  0.0726 -1.6664
14429SOL     OW44770   3.856   6.857   2.748  0.3154  0.0627 -0.1260
14429SOL    HW144771   3.804   6.792   2.795 -1.3616  0.9616 -0.7336
14429SOL    HW244772   3.935   6.867   2.802  0.2372 -1.8771  0.3778
14430SOL     OW44773   6.825   6.652   7.437 -0.1700  0.2060  0.6105
14430SOL    HW144774   6.891   6.717   7.412  1.3759 -0.8541  1.7914
14430SOL    HW244775   6.813   6.599   7.359 -1.1169  1.6337 -0.2264
14431SOL     OW44776   2.426   3.354   2.712  0.0663  0.2843 -0.0788
14431SOL    HW144777   2.345   3.339   2.663 -1.7960 -1.6257  3.4009
14431SOL    HW244778   2.430   3.281   2.774  3.2051  1.6853  1.4460
14432SOL     OW44779   0.001   0.828   5.379  0.0464  0.0292  0.0534
14432SOL    HW144780  -0.033   0.883   5.450  1.2608  0.3371  0.4025
14432SOL    HW244781  -0.057   0.751   5.380 -1.0103  0.8094  0.2433
14433SOL     OW44782   6.161   4.027   1.920  0.0998 -0.3515 -0.1984
14433SOL    HW144783   6.139   3.950   1.867 -1.4360  2.3186 -3.5845
14433SOL    HW244784   6.257   4.026   1.923  0.1340 -1.9347 -0.9185
14434SOL     OW44785   2.153   2.938   3.961  0.0190 -0.4793 -0.3103
14434SOL    HW144786   2.097   2.989   4.020  1.3163  1.1160 -0.4215
14434SOL    HW244787   2.212   2.890   4.020 -0.8042 -1.3810 -0.2207
14435SOL     OW44788   2.864   3.067   8.043 -0.2318  0.7330  0.0621
14435SOL    HW144789   2.936   3.030   7.991 -0.7147  0.7463 -0.6195
14435SOL    HW244790   2.786   3.021   8.013 -0.3545 -0.1083  1.6359
14436SOL     OW44791   8.144   7.274   6.091  0.7035  0.2808 -0.5155
14436SOL    HW144792   8.087   7.283   6.015  1.1472  0.3446 -0.8408
14436SOL    HW244793   8.197   7.196   6.073  1.1261  0.5568 -0.4806
14437SOL     OW44794   3.140   1.105   7.118 -0.0648 -0.4254  0.5532
14437SOL    HW144795   3.083   1.108   7.195 -0.1571  0.5850  0.4541
14437SOL    HW244796   3.227   1.127   7.151 -0.7330  3.8553 -0.1739
14438SOL     OW44797   6.587   3.070   5.092 -0.6594  0.1567  0.2088
14438SOL    HW144798   6.640   3.001   5.132  0.4919  0.8278 -0.1276
14438SOL    HW244799   6.511   3.024   5.057  0.3663 -1.0392 -0.5103
14439SOL     OW44800   7.705   5.941   0.631 -0.1970  0.3441  0.1081
14439SOL    HW144801   7.673   5.854   0.609 -0.0536  0.2909  0.1081
14439SOL    HW244802   7.660   5.999   0.569 -0.2601  0.2654  0.0790
14440SOL     OW44803   2.561   4.954   1.394 -0.2764 -0.5800 -0.8062
14440SOL    HW144804   2.585   4.958   1.301  0.8694 -0.2839 -0.4993
14440SOL    HW244805   2.614   4.883   1.429  2.5313  2.1111  0.5643
14441SOL     OW44806   5.235   2.953   6.574  0.3062  0.3465  0.4116
14441SOL    HW144807   5.311   3.011   6.583  0.4603  0.1122  0.5914
14441SOL    HW244808   5.270   2.865   6.582  0.1742  0.1968 -0.5259
14442SOL     OW44809   3.789   4.100   6.461  0.1552 -0.4185 -0.4595
14442SOL    HW144810   3.851   4.171   6.477  0.7218 -0.8447 -0.7152
14442SOL    HW244811   3.840   4.020   6.480 -1.2847 -0.6905  2.5810
14443SOL     OW44812   3.063   8.007   1.112  0.0207  0.5197 -0.1128
14443SOL    HW144813   3.091   7.926   1.154 -0.0006  0.4682 -0.1989
14443SOL    HW244814   3.030   8.062   1.183  0.4022  0.6066 -0.0040
14444SOL     OW44815   6.754   5.221   0.894  0.5872 -0.4352 -0.1259
14444SOL    HW144816   6.734   5.129   0.883 -3.6324  0.4517 -0.5702
14444SOL    HW244817   6.763   5.254   0.804  0.1284 -0.0206 -0.0207
14445SOL     OW44818   0.186   4.986   4.015 -0.2474  0.2021 -0.1667
14445SOL    HW144819   0.180   5.078   3.989 -2.1898  0.5573  1.4613
14445SOL    HW244820   0.102   4.948   3.990 -0.7404 -0.3256  2.1389
14446SOL     OW44821   1.534   1.558   7.955  0.0448  0.1217  0.0687
14446SOL    HW144822   1.450   1.603   7.952 -0.2604 -0.4345  0.3042
14446SOL    HW244823   1.563   1.555   7.863  0.4928  1.5793  0.1322
14447SOL     OW44824   5.734   3.091   1.368 -0.2684 -0.0957  0.0483
14447SOL    HW144825   5.828   3.074   1.380 -0.6164 -0.6253  2.2169
14447SOL    HW244826   5.702   3.016   1.317  0.1492 -0.8043  0.8247
14448SOL     OW44827   6.921   6.799   4.739 -0.1772 -0.1037  0.0883
14448SOL    HW144828   6.982   6.729   4.761  0.5871  0.9475  1.4486
14448SOL    HW244829   6.974   6.879   4.742 -1.0970  0.5703 -1.1463
14449SOL     OW44830   2.873   0.537   5.420 -0.5890  0.0925  0.4668
14449SOL    HW144831   2.817   0.469   5.381  0.6532 -1.1066  0.7446
14449SOL    HW244832   2.879   0.604   5.352  1.5436 -1.9767 -1.4532
14450SOL     OW44833   3.040   4.386   2.414  1.1220  0.3981  0.1905
14450SOL    HW144834   2.947   4.389   2.392  0.8965  0.2643  1.0908
14450SOL    HW244835   3.077   4.322   2.353  0.7585  0.9625 -0.6326
14451SOL     OW44836   5.212   6.369   2.021  0.5286  0.0589  0.6734
14451SOL    HW144837   5.147   6.338   2.085  0.2155 -0.4867  0.0948
14451SOL    HW244838   5.285   6.400   2.074  0.7924 -1.5503  1.2667
14452SOL     OW44839   0.330   1.397   4.368 -0.1080  0.2639  0.1505
14452SOL    HW144840   0.313   1.371   4.278  0.0678 -2.7396  0.9382
14452SOL    HW244841   0.412   1.447   4.363  0.4414 -0.7355 -1.2298
14453SOL     OW44842   3.086   5.021   6.337 -0.2152  0.4566  0.6893
14453SOL    HW144843   3.111   5.070   6.416  0.0219  2.3316 -0.5215
14453SOL    HW244844   3.150   4.950   6.332 -0.3868  0.1653  2.3230
14454SOL     OW44845   6.459   3.898   3.881 -0.2403  0.0223 -0.4600
14454SOL    HW144846   6.422   3.810   3.893 -0.3506  0.1590  0.2490
14454SOL    HW244847   6.383   3.956   3.877 -0.1270  0.4898  2.5215
14455SOL     OW44848   6.160   2.673   8.091 -0.6838  0.0474  0.7041
14455SOL    HW144849   6.127   2.625   8.167  0.2042  1.7568  2.2067
14455SOL    HW244850   6.145   2.765   8.113  1.0453  0.6328 -0.5130
14456SOL     OW44851   2.998   7.371   5.620 -0.0502  0.1593 -0.1763
14456SOL    HW144852   3.032   7.338   5.703 -1.3060  0.1957  0.3493
14456SOL    HW244853   2.903   7.362   5.627 -0.1627  0.0711 -1.6447
14457SOL     OW44854   3.988   3.447   3.535  0.4356  0.9391  0.0677
14457SOL    HW144855   3.996   3.499   3.455  1.4229  0.8950  0.1339
14457SOL    HW244856   4.036   3.497   3.602  0.1526  0.6634  0.4843
14458SOL     OW44857   1.029   2.165   6.535  0.2000 -0.0112 -0.3794
14458SOL    HW144858   1.076   2.239   6.498 -0.0873  0.1443 -0.4303
14458SOL    HW244859   0.945   2.201   6.563  0.8422  0.1095  1.4319
14459SOL     OW44860   2.138   7.979   2.537 -0.5585  0.0290  0.3275
14459SOL    HW144861   2.119   7.975   2.630 -0.9724 -0.8121  0.2123
14459SOL    HW244862   2.190   8.059   2.526  2.4056 -1.6215  1.7623
14460SOL     OW44863   8.306   4.598   3.907 -0.0838  0.0245  0.6126
14460SOL    HW144864   8.299   4.581   3.813  0.6275  0.5052  0.4739
14460SOL    HW244865   8.223   4.565   3.943 -0.2749 -0.3499 -0.1482
14461SOL     OW44866   0.639   2.069   6.989 -0.1742 -0.5487 -0.0853
14461SOL    HW144867   0.574   1.999   6.986  0.6890 -1.2603 -2.8080
14461SOL    HW244868   0.723   2.025   6.986  0.4613  0.4886  1.2948
14462SOL     OW44869   1.525   7.104   2.409 -0.1666  0.3755 -0.3389
14462SOL    HW144870   1.545   7.197   2.413 -2.8519  0.9705 -0.1025
14462SOL    HW244871   1.600   7.062   2.452  1.6962  2.2861 -1.6335
14463SOL     OW44872   7.177   0.120   6.855  0.4941 -0.2553 -0.4251
14463SOL    HW144873   7.177   0.203   6.902  0.8921 -1.6574  2.1818
14463SOL    HW244874   7.086   0.092   6.854  0.1850  0.7494 -2.3604
14464SOL     OW44875   1.880   4.652   1.595 -0.1774 -0.0451 -0.1949
14464SOL    HW144876   1.868   4.712   1.669  1.4597 -0.4985  0.4549
14464SOL    HW244877   1.798   4.660   1.545 -1.1162  0.6364  1.3858
14465SOL     OW44878   1.164   2.168   5.493  0.0104 -0.1752  0.7851
14465SOL    HW144879   1.249   2.126   5.490  1.0020  1.7715  0.7816
14465SOL    HW244880   1.180   2.258   5.464 -1.9577  0.3419  1.1822
14466SOL     OW44881   6.843   6.316   5.780  0.0249  0.3821  0.0494
14466SOL    HW144882   6.776   6.247   5.776  0.0222  0.3059  1.1752
14466SOL    HW244883   6.910   6.288   5.718  0.8141 -1.5216  1.6958
14467SOL     OW44884   7.015   5.639   0.083 -0.2645 -0.1297  0.0677
14467SOL    HW144885   6.946   5.606   0.026 -1.7100 -0.2404  1.8226
14467SOL    HW244886   6.971   5.702   0.140  1.7233  2.1502 -0.8375
14468SOL     OW44887   4.954   2.087   2.128 -0.2753  0.4947 -0.2591
14468SOL    HW144888   4.943   1.993   2.113  1.7526  0.2795 -0.5301
14468SOL    HW244889   4.978   2.094   2.220 -1.3052  0.8464 -0.0042
14469SOL     OW44890   7.151   1.588   4.110 -0.5738 -0.1316 -0.0952
14469SOL    HW144891   7.181   1.511   4.159 -0.7185  0.6166  1.1907
14469SOL    HW244892   7.200   1.584   4.027  0.5638 -0.7763  0.5919
14470SOL     OW44893   5.479   1.408   3.413 -0.2172 -0.2773 -0.0371
14470SOL    HW144894   5.406   1.442   3.465 -0.5273 -0.8396 -0.0992
14470SOL    HW244895   5.545   1.383   3.478  0.4699  1.4789 -0.0446
14471SOL     OW44896   6.155   1.569   0.310 -0.6345  0.2181  0.2169
14471SOL    HW144897   6.214   1.506   0.350  0.1894 -0.0146 -1.3340
14471SOL    HW244898   6.212   1.630   0.264 -1.6124 -0.3963 -1.8653
14472SOL     OW44899   4.212   4.434   6.119 -0.0186 -0.5798  0.2270
14472SOL    HW144900   4.250   4.423   6.032 -1.0344  0.0285 -0.3144
14472SOL    HW244901   4.255   4.511   6.154  1.3601 -1.6110  0.8059
14473SOL     OW44902   3.954   1.696   3.359 -0.6221 -0.5447 -0.6679
14473SOL    HW144903   4.036   1.653   3.339 -1.0145 -1.9825  0.6857
14473SOL    HW244904   3.905   1.697   3.277  0.0623 -1.1867 -1.0795
14474SOL     OW44905   0.131   4.803   2.777  0.8908 -0.4051 -0.5504
14474SOL    HW144906   0.045   4.834   2.807 -0.0627 -2.3706 -1.1365
14474SOL    HW244907   0.155   4.864   2.707  0.4744  0.7939  0.3246
14475SOL     OW44908   3.468   6.415   1.731 -0.2256  0.2617 -0.0974
14475SOL    HW144909   3.526   6.465   1.674  1.5095 -0.9948  0.5180
14475SOL    HW244910   3.449   6.474   1.804  0.1101  0.7569 -0.4081
14476SOL     OW44911   4.516   0.572   7.008 -0.3639  0.6015  0.0570
14476SOL    HW144912   4.488   0.515   6.936  3.6235 -0.2817 -0.9218
14476SOL    HW244913   4.543   0.512   7.077  1.3932  1.3093  0.0099
14477SOL     OW44914   4.485   3.243   3.554 -0.4157  0.3251 -0.0922
14477SOL    HW144915   4.535   3.183   3.610  0.2310  0.7935 -0.1696
14477SOL    HW244916   4.394   3.227   3.579 -0.2097 -0.2680  0.3082
14478SOL     OW44917   6.142   2.711   2.912  0.5044  0.8270  0.3447
14478SOL    HW144918   6.055   2.696   2.950 -0.0588 -0.9880 -1.5093
14478SOL    HW244919   6.171   2.624   2.886  2.1027  1.6623 -0.7176
14479SOL     OW44920   4.830   5.820   3.980  0.0576  0.2883  0.3279
14479SOL    HW144921   4.841   5.884   3.911 -1.8241 -0.2680 -0.5149
14479SOL    HW244922   4.770   5.861   4.042 -0.7068 -0.4127  0.0647
14480SOL     OW44923   6.289   5.769   6.927 -0.0638  0.0825  0.0871
14480SOL    HW144924   6.300   5.679   6.957  1.0211 -0.1178 -0.8665
14480SOL    HW244925   6.362   5.816   6.966  1.1047 -0.0878 -1.8416
14481SOL     OW44926   7.332   4.818   0.634 -0.0353  0.1334  0.0820
14481SOL    HW144927   7.260   4.880   0.638 -0.7812 -0.7378  0.4929
14481SOL    HW244928   7.410   4.872   0.624 -0.5349  1.2090  1.6952
14482SOL     OW44929   7.810   3.792   5.050  0.1609  0.5913 -0.1498
14482SOL    HW144930   7.777   3.822   5.135  0.9269 -2.3698  1.2885
14482SOL    HW244931   7.759   3.713   5.031  1.6166 -0.0999 -1.2880
14483SOL     OW44932   3.473   4.817   0.473  0.4245  0.0325  0.6720
14483SOL    HW144933   3.476   4.819   0.568  3.5981 -0.7695  0.6465
14483SOL    HW244934   3.564   4.802   0.446 -0.3746  0.4280 -2.4820
14484SOL     OW44935   0.312   4.953   3.117 -0.0571  0.5401 -0.3247
14484SOL    HW144936   0.393   4.903   3.132  0.7005  1.3875 -1.4280
14484SOL    HW244937   0.252   4.890   3.077  0.7068  0.3628 -1.2137
14485SOL     OW44938   5.422   6.339   5.755  0.3523 -0.4830 -0.3384
14485SOL    HW144939   5.348   6.344   5.816  0.1377  2.7410 -0.7519
14485SOL    HW244940   5.496   6.310   5.808 -0.3731 -0.0862  0.9003
14486SOL     OW44941   2.358   2.734   2.310  0.4678  0.5277 -0.5425
14486SOL    HW144942   2.359   2.827   2.335  1.9322  0.1282  0.9476
14486SOL    HW244943   2.429   2.726   2.246  1.1284  0.2146  0.2179
14487SOL     OW44944   5.260   6.093   2.473  0.2598 -0.0938  0.7097
14487SOL    HW144945   5.316   6.038   2.419 -0.0172  0.7733 -0.4758
14487SOL    HW244946   5.293   6.079   2.562  3.0278  1.1107 -0.0552
14488SOL     OW44947   6.257   4.164   0.110  0.1126 -0.0424  0.1503
14488SOL    HW144948   6.252   4.138   0.202  0.0475 -0.2527  0.0884
14488SOL    HW244949   6.221   4.089   0.062 -0.6051  0.3887  0.0039
14489SOL     OW44950   8.092   0.026   3.595  0.2631  0.1356  0.1633
14489SOL    HW144951   8.165  -0.002   3.651  1.2183  0.3606 -0.9369
14489SOL    HW244952   8.081   0.119   3.614  1.0232  0.3678 -0.4720
14490SOL     OW44953   2.926   6.093   5.513  0.3239 -0.0326  0.1172
14490SOL    HW144954   2.980   6.016   5.531  0.2008 -0.4710 -1.3526
14490SOL    HW244955   2.977   6.144   5.450 -0.7868 -0.2500 -0.9728
14491SOL     OW44956   1.124   6.506   3.972 -0.3541  0.4396  0.7875
14491SOL    HW144957   1.219   6.515   3.979 -0.2806  0.7916 -0.5962
14491SOL    HW244958   1.111   6.429   3.918 -0.8295  1.4831 -0.5987
14492SOL     OW44959   2.824   2.839   1.382 -0.7445 -0.0358 -0.4604
14492SOL    HW144960   2.784   2.833   1.295 -0.2240 -0.8793 -0.6421
14492SOL    HW244961   2.875   2.759   1.391 -0.6399  0.1392  0.5509
14493SOL     OW44962   4.726   4.503   0.719  0.2234 -0.0775 -0.0140
14493SOL    HW144963   4.777   4.583   0.735  0.1845 -0.2364  0.9481
14493SOL    HW244964   4.643   4.535   0.683  0.0533  0.3527  0.7413
14494SOL     OW44965   6.007   6.545   4.579  0.0991 -0.1030 -0.3499
14494SOL    HW144966   5.988   6.638   4.591  1.6551  0.1932 -0.0252
14494SOL    HW244967   5.935   6.500   4.624 -0.1661  0.9484  0.3046
14495SOL     OW44968   5.894   7.938   5.204  0.2616  0.1078 -0.0521
14495SOL    HW144969   5.869   7.847   5.187  0.9652 -0.0867 -0.0740
14495SOL    HW244970   5.811   7.986   5.207 -0.0221 -0.2737 -1.5746
14496SOL     OW44971   5.509   1.903   4.582 -0.2915  0.4332 -0.1519
14496SOL    HW144972   5.419   1.894   4.613 -0.3160 -1.0593 -0.6592
14496SOL    HW244973   5.563   1.872   4.655 -0.2662 -0.7821 -0.6858
14497SOL     OW44974   6.176   1.791   8.200  0.3893 -0.0260 -0.3277
14497SOL    HW144975   6.194   1.782   8.106 -2.6895  0.8822 -1.0382
14497SOL    HW244976   6.127   1.712   8.223  1.0235 -0.1816  0.5036
14498SOL     OW44977   5.318   4.906   4.735  0.1258 -0.0967 -0.5327
14498SOL    HW144978   5.276   4.905   4.821 -0.7373 -0.7969 -0.9583
14498SOL    HW244979   5.256   4.953   4.679  0.1539 -0.6533 -1.0329
14499SOL     OW44980   7.350   0.411   6.486  0.3214  0.2024  0.0638
14499SOL    HW144981   7.435   0.397   6.444 -0.0398  0.1185 -0.6517
14499SOL    HW244982   7.370   0.413   6.579  0.6225 -3.7742  0.1884
14500SOL     OW44983   0.675   1.122   7.773 -0.3810 -0.0890 -0.1011
14500SOL    HW144984   0.736   1.121   7.700  0.3368 -1.4178  0.5008
14500SOL    HW244985   0.631   1.207   7.766 -1.0079 -0.5767 -2.6199
14501SOL     OW44986   3.391   4.344   1.724 -0.0559 -0.0303  0.8075
14501SOL    HW144987   3.430   4.289   1.792  0.1401 -0.6383  0.2190
14501SOL    HW244988   3.372   4.283   1.653 -0.5906  0.5370  0.4580
14502SOL     OW44989   0.730   5.797   4.106 -0.4846  0.1255  0.4470
14502SOL    HW144990   0.750   5.709   4.138  0.4351  0.3748  0.5762
14502SOL    HW244991   0.812   5.828   4.070 -0.1207  1.9200  2.7365
14503SOL     OW44992   0.180   0.040   7.239 -0.4289  0.5656  0.5536
14503SOL    HW144993   0.114   0.021   7.172  0.0267  0.1686  0.2127
14503SOL    HW244994   0.261   0.005   7.203  0.3361  2.6685  0.1552
14504SOL     OW44995   1.273   4.195   5.466  0.3076  0.4178 -0.1851
14504SOL    HW144996   1.209   4.168   5.531  1.2223  1.4835  1.1700
14504SOL    HW244997   1.340   4.125   5.468  0.8230  0.9312  0.7153
14505SOL     OW44998   0.930   1.090   7.605  0.1460  0.2038 -0.0692
14505SOL    HW144999   0.990   1.032   7.557  1.9057  0.5772  1.6139
14505SOL    HW245000   0.938   1.174   7.562  0.5858  0.1650 -0.0683
14506SOL     OW45001   5.519   4.255   6.764  0.3680  0.6831 -0.2262
14506SOL    HW145002   5.598   4.260   6.710 -0.4297  1.2418 -1.3501
14506SOL    HW245003   5.485   4.344   6.766 -1.0891  0.1570 -1.0326
14507SOL     OW45004   3.539   7.850   3.228 -0.1322 -0.2277  0.0377
14507SOL    HW145005   3.611   7.904   3.260  0.9575 -1.4073 -0.3926
14507SOL    HW245006   3.577   7.763   3.217 -1.6679 -0.9048 -0.0311
14508SOL     OW45007   5.365   3.636   3.102  0.5112  0.2989  0.1069
14508SOL    HW145008   5.331   3.663   3.017 -0.1373 -0.5997  0.0792
14508SOL    HW245009   5.392   3.718   3.144 -1.0220  0.9516 -0.1447
14509SOL     OW45010   3.129   5.992   6.930  0.0678 -0.7893  0.0599
14509SOL    HW145011   3.055   5.983   6.871 -0.0661  0.9832 -0.0753
14509SOL    HW245012   3.090   6.002   7.017  0.1056  0.7433 -0.0853
14510SOL     OW45013   5.998   4.462   2.214 -0.7315 -0.3225 -0.5286
14510SOL    HW145014   5.918   4.456   2.267  0.9868 -1.3701  2.0607
14510SOL    HW245015   6.022   4.371   2.197  1.1345 -0.1022  0.7200
14511SOL     OW45016   7.164   4.559   5.139 -0.3746 -0.2337  0.1322
14511SOL    HW145017   7.205   4.534   5.056  0.8362 -1.4732  1.0735
14511SOL    HW245018   7.167   4.655   5.140 -0.1863 -0.2163 -1.1356
14512SOL     OW45019   5.373   4.666   8.022  0.2203 -0.3993 -0.3877
14512SOL    HW145020   5.408   4.633   8.105  1.7379  0.0158 -0.8511
14512SOL    HW245021   5.328   4.590   7.983 -0.6156 -0.5653  0.8531
14513SOL     OW45022   1.346   5.611   1.059  0.4284 -0.1026 -0.1973
14513SOL    HW145023   1.389   5.532   1.090 -0.0471 -0.7345 -1.1346
14513SOL    HW245024   1.369   5.616   0.967  0.0827  0.6085 -0.2451
14514SOL     OW45025   6.943   1.725   4.353 -0.1256  0.2222 -0.1302
14514SOL    HW145026   7.031   1.705   4.385 -0.2672 -1.0814 -0.5383
14514SOL    HW245027   6.958   1.774   4.272  0.2769 -3.0228 -2.1136
14515SOL     OW45028   5.272   0.352   1.291 -1.0182 -0.1808  0.2408
14515SOL    HW145029   5.328   0.427   1.309  0.3461 -1.0006 -0.4938
14515SOL    HW245030   5.196   0.389   1.245 -1.3578  1.0095  1.7297
14516SOL     OW45031   5.295   1.589   6.782 -0.1302  0.0401 -0.1224
14516SOL    HW145032   5.355   1.521   6.752 -0.0588  0.6288 -1.3219
14516SOL    HW245033   5.308   1.591   6.877  1.3791 -0.1921 -0.3003
14517SOL     OW45034   2.140   1.327   1.701 -1.0651 -0.1239 -0.1450
14517SOL    HW145035   2.055   1.295   1.730 -1.1598 -0.4589 -0.7814
14517SOL    HW245036   2.202   1.296   1.767 -1.4833  0.4132  0.5021
14518SOL     OW45037   5.309   2.558   1.193 -0.1698  0.0366 -0.1943
14518SOL    HW145038   5.309   2.569   1.097 -0.4262 -0.8546 -0.3035
14518SOL    HW245039   5.377   2.492   1.209 -0.0984  0.2195  0.2430
14519SOL     OW45040   7.117   1.965   7.277  0.4799  0.2919 -0.1962
14519SOL    HW145041   7.070   1.884   7.258 -0.5144  0.7119  0.4212
14519SOL    HW245042   7.049   2.027   7.303  1.2595  1.2526 -0.4139
14520SOL     OW45043   1.947   6.717   0.170  0.3874  0.0660 -0.6249
14520SOL    HW145044   2.012   6.758   0.226 -0.2567  0.8899 -0.4885
14520SOL    HW245045   1.940   6.627   0.203  1.3091  0.0269 -0.5204
14521SOL     OW45046   7.047   1.337   7.263  0.0211  0.3198  0.0986
14521SOL    HW145047   6.952   1.345   7.271 -0.0945 -0.9692  0.1859
14521SOL    HW245048   7.082   1.396   7.329 -0.7217  0.8940 -0.0177
14522SOL     OW45049   1.447   4.971   3.769 -0.2255 -0.3741  0.2772
14522SOL    HW145050   1.399   4.920   3.704 -0.2383 -0.5746  0.4422
14522SOL    HW245051   1.535   4.980   3.734 -0.2922 -0.2970  0.1308
14523SOL     OW45052   1.840   4.677   7.870 -0.1033 -0.2157 -0.6615
14523SOL    HW145053   1.847   4.626   7.951  1.5039  2.0558  0.7050
14523SOL    HW245054   1.749   4.668   7.843 -0.7349 -0.7995  1.5884
14524SOL     OW45055   0.027   3.994   4.329 -0.2023  0.5150 -0.8668
14524SOL    HW145056   0.086   4.065   4.304 -0.1840  0.6332 -0.5040
14524SOL    HW245057  -0.003   4.019   4.417  0.6710 -0.4876 -0.2710
14525SOL     OW45058   5.775   7.282   2.518 -0.1753  0.2220 -0.2600
14525SOL    HW145059   5.722   7.216   2.563 -0.7112  0.5370 -0.4150
14525SOL    HW245060   5.863   7.246   2.517 -0.6628 -0.9657 -1.2571
14526SOL     OW45061   7.565   4.009   1.922 -0.1482 -0.5301 -0.2523
14526SOL    HW145062   7.553   3.930   1.975  0.8002  0.9313  2.2001
14526SOL    HW245063   7.632   4.059   1.968  1.8412  0.1234 -3.6293
14527SOL     OW45064   6.020   6.357   1.018  0.5368  0.5666  0.2525
14527SOL    HW145065   6.094   6.414   1.039  0.8716  0.4779 -0.6916
14527SOL    HW245066   6.044   6.273   1.059  2.2439 -0.2631 -2.3288
14528SOL     OW45067   2.485   4.197   1.370 -0.6585 -0.2376 -0.0947
14528SOL    HW145068   2.471   4.265   1.304 -0.3502 -0.4091 -0.3389
14528SOL    HW245069   2.452   4.236   1.451  0.6827  0.7074  0.0173
14529SOL     OW45070   3.871   1.975   3.982  0.3911  0.3957  0.1136
14529SOL    HW145071   3.904   2.065   3.973  0.3331  0.3781 -0.2583
14529SOL    HW245072   3.826   1.957   3.900 -1.1362  0.6536  0.8759
14530SOL     OW45073   0.688   5.937   6.666 -0.1226  0.2021 -0.0320
14530SOL    HW145074   0.729   6.023   6.662  0.2464  0.0900  1.0539
14530SOL    HW245075   0.701   5.909   6.757 -3.5481  0.5929  0.6436
14531SOL     OW45076   1.187   5.080   8.113 -0.4346  0.1630 -0.3109
14531SOL    HW145077   1.119   5.148   8.114 -0.3747  0.2320 -0.6523
14531SOL    HW245078   1.269   5.129   8.109 -0.3796  0.0738 -0.2754
14532SOL     OW45079   6.405   6.663   4.896  0.0451  0.0964  0.0303
14532SOL    HW145080   6.460   6.678   4.973  1.2284 -1.3687 -0.4925
14532SOL    HW245081   6.373   6.573   4.908  1.4840 -0.7061 -1.9126
14533SOL     OW45082   6.842   3.698   4.790 -0.3651  0.1336  0.0533
14533SOL    HW145083   6.933   3.725   4.804  0.0187 -0.6131 -0.9444
14533SOL    HW245084   6.843   3.603   4.804 -0.7639 -0.0418 -1.0594
14534SOL     OW45085   7.935   7.127   7.278  0.2361  0.1104 -0.7301
14534SOL    HW145086   7.999   7.165   7.339  0.3216 -0.0178 -0.7391
14534SOL    HW245087   7.850   7.140   7.321  0.3159 -0.1641 -0.4882
14535SOL     OW45088   0.320   5.910   5.297  1.0899 -0.4125  0.5312
14535SOL    HW145089   0.298   5.915   5.204  0.8676  1.8323  0.6739
14535SOL    HW245090   0.235   5.915   5.342  1.1336 -2.2943  0.8420
14536SOL     OW45091   8.226   1.630   8.114  0.2490 -0.1035  0.3025
14536SOL    HW145092   8.144   1.663   8.079 -0.0453  0.7827  1.8146
14536SOL    HW245093   8.279   1.708   8.130  0.7357 -0.5548  0.9455
14537SOL     OW45094   7.349   2.384   7.181  0.0006  0.2043 -0.1039
14537SOL    HW145095   7.363   2.380   7.086 -0.3380  1.1280 -0.1956
14537SOL    HW245096   7.270   2.332   7.195  0.8728 -1.1577 -0.1425
14538SOL     OW45097   7.729   1.916   7.234 -0.4390 -0.0669  0.2202
14538SOL    HW145098   7.804   1.975   7.223  0.0978  0.0694  4.0363
14538SOL    HW245099   7.654   1.967   7.203  0.7139  0.6024 -1.5646
14539SOL     OW45100   4.223   0.335   1.243  0.3972 -0.2510 -0.0383
14539SOL    HW145101   4.312   0.363   1.265  0.1181  1.8185 -1.3711
14539SOL    HW245102   4.167   0.405   1.277 -0.5076 -0.2889 -1.3866
14540SOL     OW45103   0.062   2.103   5.547 -0.4610  0.2092  0.5322
14540SOL    HW145104  -0.026   2.134   5.566 -0.7020  0.3198 -0.7106
14540SOL    HW245105   0.116   2.182   5.546 -0.8442  0.4872 -1.3458
14541SOL     OW45106   1.196   2.383   5.331  0.0920 -0.1724 -0.0675
14541SOL    HW145107   1.236   2.425   5.254  0.2790  0.2894  0.2853
14541SOL    HW245108   1.159   2.455   5.381 -0.5354 -0.5383 -0.0143
14542SOL     OW45109   7.292   3.329   0.133  0.0140 -0.1825  0.3779
14542SOL    HW145110   7.254   3.242   0.149  0.8623 -0.4043  1.1855
14542SOL    HW245111   7.216   3.386   0.123 -0.5483 -0.9649  0.1284
14543SOL     OW45112   4.350   5.290   1.648 -0.0898  0.5502 -0.3328
14543SOL    HW145113   4.255   5.295   1.661 -0.4101 -2.7496 -0.9241
14543SOL    HW245114   4.381   5.237   1.721  0.9873 -0.0592 -1.2186
14544SOL     OW45115   8.146   7.948   5.342  0.1340 -0.1454  0.2803
14544SOL    HW145116   8.128   7.887   5.270  0.6455 -0.6303  0.5576
14544SOL    HW245117   8.060   7.970   5.377 -0.1821  0.6608 -0.9419
14545SOL     OW45118   3.054   0.928   5.176  0.1430  0.5514 -0.2146
14545SOL    HW145119   3.090   0.949   5.090 -0.3021  0.5654 -0.3998
14545SOL    HW245120   3.008   0.845   5.163 -1.6550  1.5571 -0.4862
14546SOL     OW45121   3.593   5.462   6.407 -0.2894  0.1414  0.3971
14546SOL    HW145122   3.528   5.420   6.463  0.3084  1.1159  1.8411
14546SOL    HW245123   3.649   5.391   6.377  0.1054 -0.2362  2.0087
14547SOL     OW45124   2.014   6.722   1.009 -0.7828 -0.4459  0.0015
14547SOL    HW145125   2.012   6.702   0.915 -1.2060  0.3875 -0.1724
14547SOL    HW245126   2.064   6.650   1.047  0.3427 -0.2252 -1.0092
14548SOL     OW45127   5.043   0.325   7.026 -0.2911 -0.2073 -0.0864
14548SOL    HW145128   4.975   0.344   7.091  1.3327 -1.0758  1.9336
14548SOL    HW245129   5.051   0.229   7.028 -0.2476 -0.2378 -1.6077
14549SOL     OW45130   2.736   2.687   2.442  0.6215 -0.0519 -0.0652
14549SOL    HW145131   2.723   2.736   2.523 -1.5178  0.1955 -0.5523
14549SOL    HW245132   2.724   2.595   2.467  0.7266 -0.0342  0.0498
14550SOL     OW45133   6.170   2.128   1.769  0.3717  0.6337 -0.2385
14550SOL    HW145134   6.091   2.098   1.723  0.0450  2.0726 -0.6507
14550SOL    HW245135   6.204   2.050   1.812 -1.5445  0.0765  0.3178
14551SOL     OW45136   4.255   2.666   5.187 -0.1670  0.4564 -0.2114
14551SOL    HW145137   4.253   2.749   5.236 -1.2746 -0.2995  1.0730
14551SOL    HW245138   4.348   2.648   5.175  0.1597  0.4072  2.1019
14552SOL     OW45139   2.785   3.640   4.856  0.6215  0.1598  0.1971
14552SOL    HW145140   2.753   3.601   4.938 -2.8778 -0.2092 -1.2855
14552SOL    HW245141   2.806   3.565   4.801  0.6409  0.4170 -0.1448
14553SOL     OW45142   3.947   6.440   1.473  0.5248  0.1016 -0.1621
14553SOL    HW145143   3.974   6.372   1.411  2.2496  2.1787 -1.7876
14553SOL    HW245144   4.027   6.461   1.522  0.5300  2.2600 -1.0266
14554SOL     OW45145   0.710   6.709   6.291  0.2477  0.7544  0.0984
14554SOL    HW145146   0.615   6.699   6.286  0.6492 -3.6187 -0.5453
14554SOL    HW245147   0.741   6.698   6.201  1.4190  1.5148  0.3915
14555SOL     OW45148   6.576   8.262   1.407 -0.0630  0.4869 -0.2208
14555SOL    HW145149   6.480   8.261   1.409 -0.0460  0.0513  2.8428
14555SOL    HW245150   6.600   8.170   1.401  0.1282  0.4139  1.2923
14556SOL     OW45151   1.799   1.734   0.596 -0.4291 -0.1520 -0.5107
14556SOL    HW145152   1.789   1.706   0.505  2.4483  1.8686 -1.5321
14556SOL    HW245153   1.722   1.787   0.613 -1.6428 -1.6217 -1.3455
14557SOL     OW45154   3.768   3.128   5.442  0.0933  0.5241 -0.2674
14557SOL    HW145155   3.849   3.170   5.471 -0.0022  1.0559 -0.7688
14557SOL    HW245156   3.722   3.107   5.523  0.5733  0.5317  0.0091
14558SOL     OW45157   1.242   0.769   0.369  0.1475 -0.5604 -0.2877
14558SOL    HW145158   1.258   0.716   0.448 -0.1402 -0.5317 -0.2074
14558SOL    HW245159   1.289   0.724   0.300  1.6274  0.2156  0.1834
14559SOL     OW45160   1.474   4.770   0.218  0.0847  0.4045 -0.5598
14559SOL    HW145161   1.524   4.823   0.280  0.5705  0.0919 -0.6874
14559SOL    HW245162   1.387   4.762   0.258  0.0741  1.1182 -0.4389
14560SOL     OW45163   7.305   0.886   4.639 -0.3743 -0.0969  0.7371
14560SOL    HW145164   7.335   0.866   4.550  0.1209 -0.9461  1.0930
14560SOL    HW245165   7.317   0.804   4.687  1.0762  0.8782  2.0628
14561SOL     OW45166   0.237   5.058   4.289  0.1512  0.5039  0.0255
14561SOL    HW145167   0.229   5.152   4.277  0.4313  0.4803 -0.3742
14561SOL    HW245168   0.214   5.020   4.204 -2.6960  0.0509  0.9655
14562SOL     OW45169   0.609   0.027   7.671 -0.0171 -0.4650  0.3987
14562SOL    HW145170   0.624  -0.038   7.739 -0.5962 -1.0625 -0.0526
14562SOL    HW245171   0.544  -0.012   7.613  0.7319 -0.1108 -0.7080
14563SOL     OW45172   7.388   2.070   0.715 -0.1110 -0.4351  0.0244
14563SOL    HW145173   7.402   2.030   0.800 -1.3082 -0.8431  0.0297
14563SOL    HW245174   7.293   2.078   0.706  0.0545  1.0259 -0.6137
14564SOL     OW45175   0.715   3.440   4.056 -0.1955 -0.0014 -0.3352
14564SOL    HW145176   0.682   3.445   4.145 -1.2473  2.7712 -0.8199
14564SOL    HW245177   0.806   3.470   4.062  1.0499 -3.6152  0.3438
14565SOL     OW45178   7.251   3.281   2.049  0.4893  0.2757  0.1038
14565SOL    HW145179   7.316   3.333   2.003 -0.2340  0.5260 -0.6474
14565SOL    HW245180   7.243   3.322   2.135 -1.4586  2.5818 -1.1353
14566SOL     OW45181   8.215   0.172   7.749  0.9550  0.1008 -0.0195
14566SOL    HW145182   8.287   0.233   7.733  1.7129 -0.6750  0.4122
14566SOL    HW245183   8.194   0.137   7.662 -0.3355  1.8814 -0.4747
14567SOL     OW45184   5.936   0.671   4.665  0.5904  0.0808 -0.2070
14567SOL    HW145185   5.947   0.763   4.638 -1.8542  0.0170 -1.5323
14567SOL    HW245186   5.965   0.621   4.589 -4.1627 -0.1188 -2.0636
14568SOL     OW45187   1.703   3.516   2.760  0.1415 -0.0501  0.1929
14568SOL    HW145188   1.641   3.445   2.745 -0.7944 -0.4748  5.2815
14568SOL    HW245189   1.653   3.580   2.811  2.9054  1.1632  1.4552
14569SOL     OW45190   7.526   0.528   2.425  0.8665  0.0412 -0.5094
14569SOL    HW145191   7.578   0.449   2.412 -0.6366 -1.0520 -0.1092
14569SOL    HW245192   7.474   0.535   2.344  0.1233 -0.0677 -0.0439
14570SOL     OW45193   0.660   5.141   1.252 -0.1987 -0.1195 -0.5775
14570SOL    HW145194   0.587   5.186   1.209  0.4611  2.2568  0.7044
14570SOL    HW245195   0.620   5.100   1.328 -0.2551  1.0168  0.0186
14571SOL     OW45196   2.776   7.613   3.115 -0.1947  0.1139  0.1360
14571SOL    HW145197   2.861   7.639   3.150  0.5401 -0.2173 -1.3726
14571SOL    HW245198   2.731   7.571   3.188  1.2196 -0.3454  0.7492
14572SOL     OW45199   8.055   3.180   6.081  0.6578 -0.1416 -0.5717
14572SOL    HW145200   8.146   3.206   6.096  1.0498 -0.5543 -2.1592
14572SOL    HW245201   8.036   3.207   5.992 -1.2156  1.1042  0.1628
14573SOL     OW45202   7.325   1.689   3.823 -0.1818 -0.1865  0.0406
14573SOL    HW145203   7.297   1.764   3.877  0.8622  1.4781 -1.6512
14573SOL    HW245204   7.413   1.669   3.855 -0.3688 -0.5540  0.3326
14574SOL     OW45205   0.333   0.344   7.929 -0.0067  0.2376 -0.1596
14574SOL    HW145206   0.268   0.415   7.927  1.6561  1.8629  1.8507
14574SOL    HW245207   0.347   0.323   7.836  1.4005  4.3903 -0.9823
14575SOL     OW45208   1.899   7.144   5.763  0.1101  0.4753  0.1047
14575SOL    HW145209   1.984   7.144   5.719 -0.3721  1.2273 -0.8621
14575SOL    HW245210   1.876   7.236   5.772 -1.5421  0.2573 -1.5636
14576SOL     OW45211   3.168   2.981   7.052 -0.3897  0.1568  0.1096
14576SOL    HW145212   3.217   2.988   6.970 -1.0476  0.4843 -0.2659
14576SOL    HW245213   3.234   2.974   7.120  0.1671  0.2045 -0.4282
14577SOL     OW45214   6.902   6.056   3.170  0.9694  0.3061  0.1466
14577SOL    HW145215   6.822   6.055   3.222  1.1614  1.2483  0.4671
14577SOL    HW245216   6.885   5.993   3.099 -0.9708  2.2444 -1.1566
14578SOL     OW45217   4.785   7.497   5.333  0.3828  0.5155 -0.4006
14578SOL    HW145218   4.826   7.434   5.274  1.4899  2.1143 -1.3835
14578SOL    HW245219   4.813   7.582   5.300 -0.5139  1.5046  1.3252
14579SOL     OW45220   7.564   4.710   3.992 -0.0512 -0.2960 -1.0373
14579SOL    HW145221   7.493   4.650   4.014 -0.2029  0.0607 -0.5339
14579SOL    HW245222   7.545   4.789   4.044  0.4347 -0.0130 -1.2882
14580SOL     OW45223   6.184   2.089   7.887  0.0873  0.5044 -0.1283
14580SOL    HW145224   6.188   2.128   7.800 -2.0453  1.4658  0.1674
14580SOL    HW245225   6.193   2.163   7.947 -0.0512  0.0558  0.4568
14581SOL     OW45226   4.122   2.886   1.326  0.3171 -0.6349 -0.0366
14581SOL    HW145227   4.034   2.924   1.329 -0.0113 -1.5136  1.5157
14581SOL    HW245228   4.159   2.920   1.244 -1.6114 -0.5998 -0.9283
14582SOL     OW45229   3.248   0.725   5.673  0.6461  0.1841 -0.1241
14582SOL    HW145230   3.296   0.670   5.611  0.3649 -0.8751  0.5811
14582SOL    HW245231   3.158   0.694   5.668  0.3575  1.0030 -0.1585
14583SOL     OW45232   5.943   7.661   2.695  0.3971  0.3385  0.2932
14583SOL    HW145233   6.027   7.703   2.715 -0.2830  2.1759 -0.5989
14583SOL    HW245234   5.878   7.711   2.744 -0.0326 -2.1888  2.4229
14584SOL     OW45235   7.206   0.634   1.885 -0.2425 -0.3448  0.4075
14584SOL    HW145236   7.239   0.723   1.894 -1.2519  0.0454  0.3276
14584SOL    HW245237   7.127   0.643   1.831 -0.3071 -1.2903  0.3324
14585SOL     OW45238   6.342   6.376   1.886  0.5715  0.6923  0.3047
14585SOL    HW145239   6.405   6.316   1.927  1.0788  0.4348 -0.8354
14585SOL    HW245240   6.353   6.362   1.792 -3.6726 -1.9362  0.0564
14586SOL     OW45241   8.304   2.170   3.532  0.3609 -0.6601 -0.0382
14586SOL    HW145242   8.302   2.144   3.440 -0.0995 -1.4347  0.1825
14586SOL    HW245243   8.380   2.124   3.568  0.8403  0.0463 -0.1476
14587SOL     OW45244   4.619   0.302   2.844 -0.3619 -0.1645 -0.8864
14587SOL    HW145245   4.623   0.326   2.936 -0.5407 -0.2618 -0.8521
14587SOL    HW245246   4.565   0.222   2.843  0.2695 -0.5915 -0.9908
14588SOL     OW45247   2.691   6.743   5.898  0.2656 -0.2169 -0.0487
14588SOL    HW145248   2.713   6.752   5.805  2.1900 -0.6426  0.3446
14588SOL    HW245249   2.716   6.653   5.920 -3.7111 -1.4062 -0.0160
14589SOL     OW45250   3.247   2.285   5.363 -0.4406 -0.0747  0.2753
14589SOL    HW145251   3.264   2.201   5.406 -0.9060 -0.9950 -1.3163
14589SOL    HW245252   3.155   2.304   5.385 -1.1979 -1.3710 -1.6550
14590SOL     OW45253   3.003   5.877   1.244 -0.0611 -0.1821 -0.3834
14590SOL    HW145254   2.923   5.919   1.276  1.0490  0.9507  0.9671
14590SOL    HW245255   3.050   5.948   1.200  0.6171 -0.6279 -0.3710
14591SOL     OW45256   5.266   5.002   2.197  0.2629  0.0273 -0.2172
14591SOL    HW145257   5.344   4.946   2.201  0.7756  0.7597  0.0687
14591SOL    HW245258   5.193   4.941   2.205  0.7848 -0.7359 -1.1208
14592SOL     OW45259   0.611   7.477   3.187  0.2789  0.4881 -0.0860
14592SOL    HW145260   0.605   7.540   3.259  0.4918 -0.4779  0.7912
14592SOL    HW245261   0.690   7.426   3.207  0.9118  0.8786 -1.5562
14593SOL     OW45262   1.161   6.824   6.219  0.2842  0.1341  0.0599
14593SOL    HW145263   1.152   6.904   6.270 -1.4514 -0.3078  0.4697
14593SOL    HW245264   1.110   6.840   6.140  1.8283  0.2883 -0.9366
14594SOL     OW45265   5.732   2.664   4.930 -0.7183  0.1804 -1.0196
14594SOL    HW145266   5.642   2.634   4.941 -0.9527  1.3703  0.4636
14594SOL    HW245267   5.782   2.584   4.912 -1.6934 -0.8116  0.5368
14595SOL     OW45268   2.260   7.821   2.914  0.0780  0.2426  0.3230
14595SOL    HW145269   2.298   7.868   2.987  1.8555 -1.1876  0.3608
14595SOL    HW245270   2.314   7.844   2.839 -1.9305  1.9631 -0.6715
14596SOL     OW45271   4.419   3.172   2.710  0.0866  0.3334 -0.0921
14596SOL    HW145272   4.465   3.089   2.696 -0.6044 -0.4556  2.0783
14596SOL    HW245273   4.487   3.238   2.704  1.0260 -0.5797  0.3252
14597SOL     OW45274   8.148   6.628   4.951  0.7654  0.5171 -0.3032
14597SOL    HW145275   8.215   6.658   5.013 -0.0026  1.0256  0.2811
14597SOL    HW245276   8.089   6.574   5.003  0.8460 -0.1237 -0.8710
14598SOL     OW45277   3.469   0.838   5.736 -0.7170 -0.2848 -0.2966
14598SOL    HW145278   3.537   0.771   5.742 -0.8315 -0.3449  0.3713
14598SOL    HW245279   3.391   0.791   5.705 -1.0521 -0.6490  1.0754
14599SOL     OW45280   4.458   4.931   5.735  0.7352  0.0122 -0.2672
14599SOL    HW145281   4.391   4.999   5.725 -0.5752 -1.2567 -0.1906
14599SOL    HW245282   4.501   4.928   5.649 -1.8264 -1.7703 -1.5571
14600SOL     OW45283   1.605   0.599   5.110 -1.1582  0.2273 -0.5271
14600SOL    HW145284   1.620   0.610   5.016 -1.2778 -1.3865 -0.7500
14600SOL    HW245285   1.550   0.673   5.135  0.3782  1.6933 -1.3535
14601SOL     OW45286   0.085   0.986   3.623 -0.8093  0.0641  0.9062
14601SOL    HW145287   0.099   0.912   3.564 -1.2584  0.1071  0.7456
14601SOL    HW245288   0.146   1.053   3.591 -1.2590  0.1957  0.2934
14602SOL     OW45289   2.251   1.800   7.214  0.3501  0.1796  0.4525
14602SOL    HW145290   2.249   1.846   7.129  2.1501  1.6221  1.1577
14602SOL    HW245291   2.279   1.867   7.276 -1.2478 -0.7937  2.2562
14603SOL     OW45292   2.798   4.963   6.627  0.5771 -0.0764 -0.1054
14603SOL    HW145293   2.736   5.028   6.595 -1.2038 -2.3138 -1.4129
14603SOL    HW245294   2.829   4.917   6.549  1.7350 -0.8443  0.7769
14604SOL     OW45295   0.236   0.107   4.975 -0.4702  0.0949  0.0574
14604SOL    HW145296   0.153   0.063   4.954 -0.3341  0.0736 -0.4503
14604SOL    HW245297   0.233   0.119   5.070 -0.9238 -0.1728  0.0820
14605SOL     OW45298   6.481   1.247   0.728  0.3453 -0.4319  0.1991
14605SOL    HW145299   6.501   1.245   0.821  0.5709 -1.8036  0.1359
14605SOL    HW245300   6.505   1.160   0.696 -0.0333 -0.0889 -1.0731
14606SOL     OW45301   2.552   2.909   4.126  0.3488 -0.2342 -0.4292
14606SOL    HW145302   2.481   2.914   4.190 -2.1433 -1.3732 -3.0207
14606SOL    HW245303   2.591   2.996   4.127 -0.9662  0.3637  1.1697
14607SOL     OW45304   7.028   5.631   4.663  0.1109 -0.6682 -0.8284
14607SOL    HW145305   6.941   5.611   4.697  0.1102  1.0703  0.2454
14607SOL    HW245306   7.086   5.619   4.737  0.2714  1.9075 -0.4934
14608SOL     OW45307   0.356   0.840   0.009 -0.2066  0.6953  0.8668
14608SOL    HW145308   0.374   0.934   0.009  0.2536  0.6281 -0.4465
14608SOL    HW245309   0.307   0.826  -0.072  1.5447 -0.5121  0.0034
14609SOL     OW45310   4.153   2.461   2.810  0.2336 -0.2432  0.2821
14609SOL    HW145311   4.095   2.527   2.848  0.2547 -0.1874  0.2184
14609SOL    HW245312   4.107   2.378   2.821 -0.6436  0.0064 -1.3222
14610SOL     OW45313   6.953   1.070   5.418  0.1594  0.1154  0.4459
14610SOL    HW145314   6.924   1.103   5.333 -1.3379  0.7078  1.1775
14610SOL    HW245315   7.001   1.143   5.457 -1.1433  0.6687  1.0679
14611SOL     OW45316   5.232   5.728   1.066  0.0448 -0.1904  0.5951
14611SOL    HW145317   5.218   5.633   1.074  1.5123 -0.4704  0.0816
14611SOL    HW245318   5.151   5.767   1.097 -0.6262 -1.6272  0.6994
14612SOL     OW45319   4.346   6.465   3.366  0.0217  0.5912  0.1766
14612SOL    HW145320   4.415   6.523   3.398  0.4839  0.6896 -0.9850
14612SOL    HW245321   4.293   6.446   3.444  1.6316  0.1223  1.1804
14613SOL     OW45322   7.340   5.088   4.210  0.2683 -0.3967 -0.2691
14613SOL    HW145323   7.292   5.027   4.267  0.9249 -0.4227  0.2586
14613SOL    HW245324   7.304   5.072   4.123  0.0018 -1.1025 -0.0332
14614SOL     OW45325   7.003   2.050   5.588 -0.4213  0.0594 -0.0909
14614SOL    HW145326   6.931   1.990   5.565 -1.8948  1.7168  0.0773
14614SOL    HW245327   7.057   2.053   5.509 -0.6879 -0.9803 -0.3283
14615SOL     OW45328   4.944   2.995   7.843  0.3597  0.5288 -0.3870
14615SOL    HW145329   4.977   3.062   7.903  3.0974 -0.8982 -0.2338
14615SOL    HW245330   5.017   2.976   7.785 -0.5572 -1.8749 -0.8259
14616SOL     OW45331   6.585   0.126   2.083  0.0924  0.6081 -0.3441
14616SOL    HW145332   6.566   0.220   2.086  0.0140  0.6269 -1.3791
14616SOL    HW245333   6.623   0.107   2.169 -1.3814  1.2649  0.4868
14617SOL     OW45334   2.368   4.557   2.842  0.7747 -0.3247 -0.0386
14617SOL    HW145335   2.404   4.538   2.755  0.7201  0.6137 -0.2762
14617SOL    HW245336   2.333   4.473   2.872  0.7849 -0.6626 -0.9311
14618SOL     OW45337   0.789   6.122   4.950 -0.6799  0.0594  0.2720
14618SOL    HW145338   0.761   6.192   5.010 -1.5457 -0.0038 -0.0591
14618SOL    HW245339   0.719   6.057   4.954 -0.8166  0.1200 -0.9288
14619SOL     OW45340   5.435   4.761   7.172 -0.1450 -0.3043 -0.2204
14619SOL    HW145341   5.452   4.701   7.100  2.6385 -1.4492  1.2996
14619SOL    HW245342   5.392   4.707   7.238  1.3066 -0.3786  0.6859
14620SOL     OW45343   0.831   2.661   0.835 -0.1730  0.1806  0.0476
14620SOL    HW145344   0.827   2.712   0.754  1.3077  1.0805  0.5171
14620SOL    HW245345   0.922   2.633   0.841 -0.4217 -0.4448  1.0671
14621SOL     OW45346   6.998   2.580   7.317 -0.1592 -0.1898  0.0328
14621SOL    HW145347   6.903   2.568   7.321 -0.1218 -1.1366 -1.5927
14621SOL    HW245348   7.032   2.497   7.284  0.8625  1.4339 -3.1824
14622SOL     OW45349   6.045   0.444   6.558  0.1005  0.2036  0.4359
14622SOL    HW145350   6.051   0.453   6.653  0.9092  0.7201  0.3468
14622SOL    HW245351   6.121   0.492   6.525 -0.6995  0.8342 -0.5164
14623SOL     OW45352   6.982   7.062   6.114 -0.2985 -0.2936 -0.4739
14623SOL    HW145353   6.957   7.050   6.205  0.5650  3.0681  0.2597
14623SOL    HW245354   7.077   7.070   6.116 -0.3755  1.0304 -1.5060
14624SOL     OW45355   2.980   5.196   2.341  0.0183 -0.9054 -0.0837
14624SOL    HW145356   3.006   5.287   2.358  0.2760 -0.9974  0.0210
14624SOL    HW245357   2.923   5.201   2.265 -1.4297 -0.4405  1.0065
14625SOL     OW45358   5.876   3.081   3.445 -0.2762 -0.0073  0.6030
14625SOL    HW145359   5.847   3.136   3.518 -0.0562  0.0310  0.6628
14625SOL    HW245360   5.966   3.110   3.427  0.2779 -1.1588  1.4303
14626SOL     OW45361   4.001   4.849   0.198  0.0109 -0.0842  0.1324
14626SOL    HW145362   3.924   4.791   0.200 -0.7436  0.9220  1.1297
14626SOL    HW245363   4.034   4.849   0.287 -0.4314  1.5514  0.3307
14627SOL     OW45364   6.308   5.452   2.770  0.1015  0.0485  0.0989
14627SOL    HW145365   6.389   5.495   2.744  1.0834 -1.4208  0.6692
14627SOL    HW245366   6.260   5.440   2.688  1.3512 -0.8418 -0.5285
14628SOL     OW45367   5.510   3.054   6.788  0.2285 -0.1388 -0.2384
14628SOL    HW145368   5.575   3.124   6.799  1.1019 -0.9555 -0.1076
14628SOL    HW245369   5.484   3.060   6.696 -1.1758  1.6204  0.2637
14629SOL     OW45370   0.226   7.600   6.978 -0.0683  0.4311 -0.0487
14629SOL    HW145371   0.211   7.606   6.884 -0.4642 -1.5376 -0.1488
14629SOL    HW245372   0.138   7.588   7.015 -0.0806  2.7969  0.7450
14630SOL     OW45373   6.359   5.860   3.184  0.3075  0.0312  0.4355
14630SOL    HW145374   6.265   5.878   3.180  0.4750  0.9042  0.3388
14630SOL    HW245375   6.373   5.790   3.121 -0.6217 -1.6111  1.9936
14631SOL     OW45376   4.591   7.068   2.142  0.2641  0.1430  0.1291
14631SOL    HW145377   4.611   6.975   2.139  0.5295  0.2393 -0.9656
14631SOL    HW245378   4.592   7.096   2.051  2.0216  1.6140  0.5837
14632SOL     OW45379   7.566   5.060   7.612  0.2055  0.5681 -0.7651
14632SOL    HW145380   7.518   5.005   7.549  0.3301  2.3152 -2.4432
14632SOL    HW245381   7.498   5.100   7.665 -0.0528  0.9418 -1.3680
14633SOL     OW45382   3.450   3.413   4.922 -0.2378  0.0958 -0.3711
14633SOL    HW145383   3.371   3.358   4.914  0.9307 -1.4827 -1.3649
14633SOL    HW245384   3.418   3.503   4.910 -2.1705 -0.3638  1.1796
14634SOL     OW45385   5.528   3.398   2.970  0.3030 -0.4392 -0.3079
14634SOL    HW145386   5.546   3.457   2.897 -0.6046  0.6617  0.3398
14634SOL    HW245387   5.468   3.447   3.027 -0.0061 -1.7585  0.5374
14635SOL     OW45388   5.954   1.281   5.488  0.1621 -0.1845 -0.1706
14635SOL    HW145389   5.860   1.294   5.494  0.0162 -0.3101 -1.8824
14635SOL    HW245390   5.986   1.296   5.577 -1.6074 -1.3407  0.6880
14636SOL     OW45391   6.229   4.433   3.822  0.8532  0.0335 -0.2946
14636SOL    HW145392   6.278   4.506   3.860  1.4262 -0.8290  0.6591
14636SOL    HW245393   6.138   4.464   3.817  1.0831  0.7772  0.1553
14637SOL     OW45394   1.599   2.022   8.134  0.4505 -0.5178  0.4625
14637SOL    HW145395   1.552   2.023   8.050 -2.3651 -1.5795  1.9695
14637SOL    HW245396   1.684   1.985   8.112  0.9572  2.1303 -2.4857
14638SOL     OW45397   4.794   0.722   2.888  0.4776  0.1567 -0.5391
14638SOL    HW145398   4.750   0.805   2.869 -1.0092 -0.3677  0.6088
14638SOL    HW245399   4.868   0.721   2.827 -0.6996  1.3416 -2.0307
14639SOL     OW45400   7.563   6.266   8.134 -0.1834 -0.1668 -0.0832
14639SOL    HW145401   7.648   6.223   8.142 -0.5935 -0.7261  1.3521
14639SOL    HW245402   7.499   6.194   8.128 -0.6388  0.2447 -0.2316
14640SOL     OW45403   3.902   1.217   0.205  0.1858 -0.3034  0.0032
14640SOL    HW145404   3.986   1.255   0.181  0.4330 -0.2989  0.8513
14640SOL    HW245405   3.837   1.282   0.177  0.5936  0.6684  1.2641
14641SOL     OW45406   8.187   6.522   4.437 -0.4802  0.5373  0.4107
14641SOL    HW145407   8.157   6.460   4.504  0.4255  1.5916  1.7942
14641SOL    HW245408   8.247   6.471   4.383  1.3510  0.5520  2.3860
14642SOL     OW45409   4.436   1.658   1.457 -0.4027 -0.0920 -0.0294
14642SOL    HW145410   4.400   1.730   1.508  0.8823 -0.7825  1.8941
14642SOL    HW245411   4.531   1.662   1.472 -0.4498 -3.1743  1.4561
14643SOL     OW45412   4.217   5.378   6.747  0.1268  0.1867 -0.4153
14643SOL    HW145413   4.230   5.437   6.821 -2.4775  1.8808 -1.2304
14643SOL    HW245414   4.284   5.404   6.684  0.4144  0.7854  0.1239
14644SOL     OW45415   6.117   4.515   5.343 -0.5663  0.3927 -0.3255
14644SOL    HW145416   6.102   4.428   5.306  0.1044  0.3519 -0.5083
14644SOL    HW245417   6.195   4.547   5.298 -0.1070  0.5951  0.6031
14645SOL     OW45418   7.246   7.320   6.784 -0.0905 -0.2317 -0.0179
14645SOL    HW145419   7.154   7.306   6.764 -0.0869 -1.2102  0.6189
14645SOL    HW245420   7.273   7.242   6.832  0.9502  0.2492  0.2106
14646SOL     OW45421   4.556   4.915   0.631  0.2360 -0.0209 -0.3361
14646SOL    HW145422   4.470   4.926   0.671  0.8989  0.2985  1.0747
14646SOL    HW245423   4.539   4.884   0.542 -1.3106 -0.3553  0.0689
14647SOL     OW45424   7.461   0.300   0.299  0.2674 -0.0638  0.2902
14647SOL    HW145425   7.464   0.205   0.285 -0.5699 -0.0948  0.3159
14647SOL    HW245426   7.408   0.310   0.378  0.1568  0.4419  0.1485
14648SOL     OW45427   0.518   4.688   2.672 -0.5496 -0.1345 -0.2972
14648SOL    HW145428   0.539   4.767   2.721  0.0450  0.5067 -1.5690
14648SOL    HW245429   0.545   4.616   2.730 -1.1368  0.5707  0.8845
14649SOL     OW45430   1.877   6.059   2.944  0.2345 -0.2509 -0.3854
14649SOL    HW145431   1.847   6.060   2.853 -0.4489  2.8195 -0.1837
14649SOL    HW245432   1.955   6.114   2.943  0.0401  0.0500  0.9527
14650SOL     OW45433   4.458   1.110   1.982 -0.5570 -0.0415 -0.0379
14650SOL    HW145434   4.502   1.048   1.924 -1.3680 -0.3904 -0.2953
14650SOL    HW245435   4.396   1.056   2.032 -1.0826  0.5125 -0.0817
14651SOL     OW45436   1.154   2.805   6.455  0.3627  0.0661  0.0662
14651SOL    HW145437   1.117   2.741   6.394 -1.4145 -0.1207  1.3008
14651SOL    HW245438   1.093   2.878   6.453  0.0449 -0.1300  1.9236
14652SOL     OW45439   8.087   4.949   6.259  0.4969  0.4019  0.1842
14652SOL    HW145440   8.099   4.855   6.271 -0.8980  0.1389 -0.3903
14652SOL    HW245441   8.050   4.980   6.342  2.0689  0.6668  0.8068
14653SOL     OW45442   7.712   4.833   7.398  0.3285 -0.1055 -0.1706
14653SOL    HW145443   7.728   4.927   7.390 -0.7405  0.1505  0.5243
14653SOL    HW245444   7.741   4.796   7.315  0.8432  0.8203 -0.4144
14654SOL     OW45445   3.139   2.196   3.085  0.7582 -0.2310  0.0455
14654SOL    HW145446   3.167   2.105   3.081  0.1212 -0.4369  0.2094
14654SOL    HW245447   3.114   2.210   3.177  0.5671  0.0215 -0.0441
14655SOL     OW45448   6.353   6.371   3.043 -0.2567 -0.5556 -0.1720
14655SOL    HW145449   6.433   6.342   3.086 -0.3304 -0.5570 -0.0341
14655SOL    HW245450   6.379   6.447   2.991 -0.3423 -0.0004  0.5752
14656SOL     OW45451   5.090   0.963   5.191  0.5047 -0.2762  0.4779
14656SOL    HW145452   5.107   1.049   5.228 -1.1421  0.0620  0.5225
14656SOL    HW245453   5.009   0.934   5.234 -0.1440 -0.8923 -1.1082
14657SOL     OW45454   1.349   8.238   7.978  0.5591  0.1495  0.0649
14657SOL    HW145455   1.408   8.163   7.983  0.5912  0.0953 -0.9541
14657SOL    HW245456   1.261   8.200   7.987  0.3848 -0.3995 -3.1284
14658SOL     OW45457   5.746   7.141   3.523 -0.0328 -0.3698 -0.0796
14658SOL    HW145458   5.658   7.176   3.540 -0.8960 -1.8995 -1.2996
14658SOL    HW245459   5.769   7.176   3.437  0.7686  0.3861  0.4228
14659SOL     OW45460   4.640   1.324   2.788  0.1686 -0.5158 -0.0422
14659SOL    HW145461   4.611   1.414   2.802  2.3187 -0.0762  1.6917
14659SOL    HW245462   4.711   1.331   2.725 -0.5094 -1.1611 -0.8991
14660SOL     OW45463   4.493   7.349   3.974  0.0350 -0.3042  0.3040
14660SOL    HW145464   4.398   7.356   3.962  0.2998  1.1916 -1.0137
14660SOL    HW245465   4.512   7.412   4.044  0.3212  0.9644 -0.8905
14661SOL     OW45466   1.677   5.576   6.168 -0.1024  0.3753 -0.0124
14661SOL    HW145467   1.700   5.635   6.240  0.3261  0.0757  0.0968
14661SOL    HW245468   1.749   5.514   6.164 -0.9693 -0.6853  0.4437
14662SOL     OW45469   8.225   4.749   6.031  0.2710 -0.4675  0.2204
14662SOL    HW145470   8.169   4.706   6.095  0.7656  0.6361  1.4129
14662SOL    HW245471   8.308   4.700   6.034 -0.4565 -1.8590 -1.2688
14663SOL     OW45472   4.310   7.318   2.191 -0.1764 -0.4706 -0.0510
14663SOL    HW145473   4.300   7.362   2.107 -1.4717 -0.7012 -0.0360
14663SOL    HW245474   4.226   7.274   2.205 -1.4595  2.6920  3.1223
14664SOL     OW45475   8.297   7.854   2.132 -0.6150  0.2872 -0.4421
14664SOL    HW145476   8.225   7.916   2.144  0.8826  1.9435  0.2808
14664SOL    HW245477   8.342   7.854   2.216  0.0875 -0.8932 -0.8154
14665SOL     OW45478   0.765   0.541   5.278 -0.0198  0.4730  0.2433
14665SOL    HW145479   0.723   0.625   5.258  1.2884  0.9398 -0.5854
14665SOL    HW245480   0.764   0.536   5.373 -1.0686  0.9287  0.2673
14666SOL     OW45481   5.696   4.120   4.983  0.7782 -0.1392  0.2108
14666SOL    HW145482   5.780   4.082   4.957  0.8239 -0.4594  0.8067
14666SOL    HW245483   5.631   4.072   4.932  0.8696 -0.7197  0.6391
14667SOL     OW45484   0.555   0.981   3.513 -0.5356  0.5785 -0.1473
14667SOL    HW145485   0.632   1.004   3.566  0.3013 -2.0840 -0.1186
14667SOL    HW245486   0.593   0.948   3.431 -1.6160 -1.3465  0.1104
14668SOL     OW45487   6.114   8.264   5.531 -0.2909  0.1823  0.3307
14668SOL    HW145488   6.092   8.172   5.522 -1.8843  0.7157 -1.6054
14668SOL    HW245489   6.207   8.269   5.509 -0.2952 -0.9055  0.0316
14669SOL     OW45490   6.483   5.437   0.410  0.3272 -0.0361 -0.1040
14669SOL    HW145491   6.427   5.427   0.333  2.0064 -5.7609 -0.8460
14669SOL    HW245492   6.424   5.425   0.484 -0.3125 -0.5525 -0.6925
14670SOL     OW45493   3.390   3.539   2.703 -0.2275  0.0947  0.5852
14670SOL    HW145494   3.326   3.490   2.755 -0.6849  0.9864  0.8679
14670SOL    HW245495   3.454   3.473   2.676  1.1232 -0.0694  3.9366
14671SOL     OW45496   8.093   1.611   3.018  0.2356  0.8250 -0.2282
14671SOL    HW145497   8.127   1.558   3.090 -1.6495 -0.7073 -0.4175
14671SOL    HW245498   8.065   1.693   3.061 -1.5503 -0.3613  0.9453
14672SOL     OW45499   1.987   6.858   2.776  0.3345 -0.0106 -0.0704
14672SOL    HW145500   2.035   6.940   2.763 -0.3406  0.1147 -1.9960
14672SOL    HW245501   2.021   6.800   2.708 -1.3659 -0.3147 -0.6763
14673SOL     OW45502   3.693   0.130   0.608 -0.3023 -0.0393  0.3113
14673SOL    HW145503   3.758   0.091   0.550 -0.5868  0.6245 -0.4636
14673SOL    HW245504   3.696   0.077   0.688 -0.3215 -1.3063 -0.5264
14674SOL     OW45505   0.360   7.635   2.394 -0.3985  0.9568  0.0572
14674SOL    HW145506   0.394   7.550   2.365  1.0610  2.1149 -1.7233
14674SOL    HW245507   0.429   7.670   2.450 -1.6840  0.3112  2.1147
14675SOL     OW45508   5.625   6.216   5.601  0.0197  0.0671 -0.1310
14675SOL    HW145509   5.672   6.269   5.538 -0.2669  0.5247  0.0385
14675SOL    HW245510   5.543   6.264   5.618 -0.1718 -0.3434  0.1363
14676SOL     OW45511   3.592   3.188   7.598  0.5441 -0.0080  0.2506
14676SOL    HW145512   3.546   3.265   7.566  0.0388 -0.4217 -0.0271
14676SOL    HW245513   3.633   3.216   7.680 -3.0559 -0.5719  2.3210
14677SOL     OW45514   5.832   3.654   0.173 -0.3239 -0.1932 -0.2262
14677SOL    HW145515   5.773   3.727   0.155 -2.2890 -1.5137  0.7233
14677SOL    HW245516   5.828   3.600   0.094  0.1308  0.0411 -0.4141
14678SOL     OW45517   0.091   4.427   1.057 -0.0379 -0.2467  0.2519
14678SOL    HW145518   0.041   4.460   0.983 -1.0082 -0.5409  0.7624
14678SOL    HW245519   0.059   4.337   1.069  0.9061 -0.5725  0.3219
14679SOL     OW45520   7.613   7.396   4.026  0.2989  0.0257  0.0475
14679SOL    HW145521   7.572   7.345   3.957  2.4266 -0.7912 -0.6182
14679SOL    HW245522   7.662   7.333   4.078  1.0092  1.0464  0.6432
14680SOL     OW45523   8.175   0.080   2.067 -0.0877 -0.6276 -0.0396
14680SOL    HW145524   8.137   0.137   2.133  0.0098 -0.1897 -0.3616
14680SOL    HW245525   8.114   0.006   2.061 -0.5802 -0.2147 -0.1291
14681SOL     OW45526   4.251   0.539   6.288 -0.0432 -0.4713  0.2549
14681SOL    HW145527   4.347   0.540   6.283 -0.1106 -0.1370 -1.2764
14681SOL    HW245528   4.226   0.631   6.282 -0.4321 -0.5022  1.3939
14682SOL     OW45529   2.967   1.474   4.504 -0.4355  0.1228 -0.4982
14682SOL    HW145530   3.006   1.523   4.432  2.0017 -0.2604  0.5388
14682SOL    HW245531   2.935   1.393   4.464  0.9532 -0.1166 -1.1317
14683SOL     OW45532   0.608   0.327   1.244 -0.0284  0.1634 -0.2495
14683SOL    HW145533   0.616   0.253   1.304  1.7919  0.0077 -0.6483
14683SOL    HW245534   0.642   0.402   1.293 -2.5705  0.9216  0.4243
14684SOL     OW45535   2.258   7.708   7.925 -0.0436  0.2922 -0.2088
14684SOL    HW145536   2.350   7.685   7.937  0.1783  0.9377 -0.6585
14684SOL    HW245537   2.210   7.628   7.945  0.6805 -0.3523 -1.0282
14685SOL     OW45538   2.515   1.576   0.874 -0.3369 -0.1527 -0.2732
14685SOL    HW145539   2.546   1.661   0.905  0.6050 -0.4061 -0.4974
14685SOL    HW245540   2.593   1.519   0.878 -1.2332 -1.3192  1.0197
14686SOL     OW45541   3.023   5.458   3.707 -0.3054 -0.2205 -0.2596
14686SOL    HW145542   3.096   5.499   3.659  1.3214  0.4951  2.7022
14686SOL    HW245543   3.041   5.364   3.700  0.9465 -0.0529  0.4610
14687SOL     OW45544   6.350   2.855   5.154  0.1912 -0.0198 -0.1373
14687SOL    HW145545   6.349   2.812   5.239  1.1439 -1.7509 -0.9562
14687SOL    HW245546   6.330   2.784   5.092  0.3917  1.0240 -1.4089
14688SOL     OW45547   1.000   6.857   5.650 -0.0605  0.2738  0.3331
14688SOL    HW145548   0.969   6.943   5.621  0.6091  0.8125  1.1658
14688SOL    HW245549   1.083   6.876   5.695  0.3322 -0.8690  0.0899
14689SOL     OW45550   8.305   6.950   4.792 -0.1856  0.3070  0.2590
14689SOL    HW145551   8.371   7.009   4.830  0.9552 -1.2977  0.8116
14689SOL    HW245552   8.311   6.965   4.698 -0.5346  1.7223  0.4486
14690SOL     OW45553   7.567   3.120   0.167  0.1524  0.1669 -0.1557
14690SOL    HW145554   7.561   3.170   0.249  0.7502  0.9455 -0.5803
14690SOL    HW245555   7.638   3.162   0.119 -0.2024 -0.2856 -1.0821
14691SOL     OW45556   4.388   6.111   6.275  0.4079 -0.0788  0.0534
14691SOL    HW145557   4.446   6.075   6.342  0.1449 -0.8487 -0.1302
14691SOL    HW245558   4.402   6.055   6.198 -0.8025 -0.4737  0.1079
14692SOL     OW45559   6.109   1.441   7.092 -0.4353  0.2499 -0.0244
14692SOL    HW145560   6.067   1.381   7.153 -0.9750 -0.3648 -0.9866
14692SOL    HW245561   6.043   1.456   7.024  0.2986  0.6232 -0.6581
14693SOL     OW45562   0.861   8.238   5.260 -0.0575  0.0113  0.3561
14693SOL    HW145563   0.814   8.200   5.186  0.9732 -0.3940 -0.1069
14693SOL    HW245564   0.908   8.313   5.223 -0.6576  0.6603  0.8954
14694SOL     OW45565   7.822   4.478   1.191  0.4658  0.3180  0.1428
14694SOL    HW145566   7.846   4.386   1.188  0.1494  0.2098  0.9603
14694SOL    HW245567   7.861   4.516   1.112  0.4983 -0.5363 -0.2493
14695SOL     OW45568   6.645   4.036   5.471 -0.2790  0.2592  0.3449
14695SOL    HW145569   6.597   4.022   5.390 -1.6339  0.4792  1.0809
14695SOL    HW245570   6.583   4.010   5.540  0.9032 -0.0858  1.2915
14696SOL     OW45571   1.356   4.950   0.578  1.2421  0.5601  0.3278
14696SOL    HW145572   1.442   4.963   0.619  1.4889  1.4560 -0.4635
14696SOL    HW245573   1.324   5.038   0.561  0.0889  0.2308  0.7563
14697SOL     OW45574   7.797   0.239   1.014 -0.2036  0.5743 -0.1669
14697SOL    HW145575   7.767   0.242   0.923  0.6733 -0.8300 -0.5273
14697SOL    HW245576   7.815   0.146   1.030  0.3338  0.8983  1.2196
14698SOL     OW45577   0.319   5.684   7.611 -0.2258 -0.2457 -0.5050
14698SOL    HW145578   0.406   5.660   7.578 -0.0980  1.0850 -1.1977
14698SOL    HW245579   0.328   5.682   7.707  1.0824  1.5640 -0.5592
14699SOL     OW45580   1.830   6.314   7.352  0.0849  0.4555  0.1867
14699SOL    HW145581   1.838   6.364   7.432 -2.0398  0.4263  0.4539
14699SOL    HW245582   1.855   6.225   7.377  0.3737  0.6445  0.5760
14700SOL     OW45583   3.232   1.020   6.852 -0.2529 -0.0398  0.3439
14700SOL    HW145584   3.278   0.963   6.913 -1.9487 -1.2378  0.5326
14700SOL    HW245585   3.155   1.050   6.900  0.5928  2.4464  0.2577
14701SOL     OW45586   4.579   4.915   5.505 -0.0446  0.1733 -0.2288
14701SOL    HW145587   4.643   4.986   5.501 -0.3472  0.6386  2.3498
14701SOL    HW245588   4.539   4.914   5.418  1.2477  1.9499 -0.8734
14702SOL     OW45589   0.344   2.857   0.428  0.2133  0.0245  0.3375
14702SOL    HW145590   0.279   2.790   0.447  0.8854 -0.7540 -0.0596
14702SOL    HW245591   0.328   2.926   0.492 -0.3847 -0.5867  0.8458
14703SOL     OW45592   6.847   8.245   2.255  0.3351  0.1622 -0.0938
14703SOL    HW145593   6.827   8.233   2.348 -1.7895  0.3518 -0.5002
14703SOL    HW245594   6.879   8.335   2.249 -0.0345  0.3256  0.3582
14704SOL     OW45595   1.015   0.567   0.113  0.2519 -0.3032 -0.3622
14704SOL    HW145596   0.932   0.542   0.155  0.7686 -1.0445  0.2439
14704SOL    HW245597   1.075   0.496   0.136  0.6758 -0.4875 -1.9913
14705SOL     OW45598   4.628   6.106   4.912 -0.3749  0.0713  0.2428
14705SOL    HW145599   4.595   6.083   4.998  1.4168 -1.8509  0.4536
14705SOL    HW245600   4.675   6.189   4.925  1.0487 -0.9006  1.4075
14706SOL     OW45601   0.547   7.174   8.039  0.0217  0.2754  0.3850
14706SOL    HW145602   0.612   7.105   8.048  0.5670  0.2315 -3.2397
14706SOL    HW245603   0.572   7.220   7.959 -3.3046  1.4300 -0.0613
14707SOL     OW45604   0.269   5.073   4.632  0.3390 -0.1204  0.1917
14707SOL    HW145605   0.177   5.083   4.607  0.7801  0.8419 -1.0917
14707SOL    HW245606   0.293   4.986   4.601  0.6275  0.7166 -1.9928
14708SOL     OW45607   3.593   0.499   6.247 -0.1485  0.1917  0.3192
14708SOL    HW145608   3.688   0.502   6.255 -0.0024  1.1932 -1.4460
14708SOL    HW245609   3.575   0.542   6.163 -2.2327  1.1423  1.2131
14709SOL     OW45610   5.360   7.776   4.578 -0.1904 -0.0608 -0.2021
14709SOL    HW145611   5.451   7.779   4.609  0.1532  1.1355 -1.2762
14709SOL    HW245612   5.365   7.803   4.486 -1.8462  1.9830  0.2489
14710SOL     OW45613   6.720   7.778   7.499  0.6869 -0.0688  0.3039
14710SOL    HW145614   6.631   7.812   7.496 -0.2529 -2.4192  0.1418
14710SOL    HW245615   6.719   7.715   7.572  1.8693 -0.9692 -0.4306
14711SOL     OW45616   5.709   5.295   0.405 -0.8612  0.2486 -0.5442
14711SOL    HW145617   5.727   5.253   0.320  2.2231  2.0270 -0.8094
14711SOL    HW245618   5.727   5.388   0.391 -1.8326  0.8072  1.6674
14712SOL     OW45619   0.230   3.793   6.096  0.2839  0.3586 -0.6312
14712SOL    HW145620   0.285   3.824   6.024 -0.1030 -1.1064 -1.5761
14712SOL    HW245621   0.142   3.793   6.060  0.2784 -1.7825 -0.6269
14713SOL     OW45622   6.326   2.566   0.842 -0.0685 -0.2085 -0.1360
14713SOL    HW145623   6.349   2.561   0.935  0.3586 -2.0963 -0.3066
14713SOL    HW245624   6.277   2.485   0.826  0.1594 -0.0647 -1.6219
14714SOL     OW45625   5.604   7.255   6.586 -0.3001 -0.4139 -0.2608
14714SOL    HW145626   5.659   7.320   6.542 -2.5667  2.5446  1.1076
14714SOL    HW245627   5.642   7.246   6.673 -1.0619  0.4703  0.1662
14715SOL     OW45628   4.679   6.142   3.494 -0.4171 -0.1602  0.1891
14715SOL    HW145629   4.602   6.122   3.546 -0.5116 -0.8680 -0.2097
14715SOL    HW245630   4.648   6.140   3.403 -0.2132  0.8689  0.0862
14716SOL     OW45631   3.388   2.754   1.537  0.0837  0.1943 -0.1769
14716SOL    HW145632   3.424   2.826   1.486 -0.7726  0.5547 -0.2745
14716SOL    HW245633   3.448   2.681   1.520  0.9444  0.8738 -0.0807
14717SOL     OW45634   7.328   2.928   1.253  0.0884  0.1020 -0.5479
14717SOL    HW145635   7.322   2.833   1.239  1.0032  0.1537 -1.4170
14717SOL    HW245636   7.238   2.959   1.251 -0.1848 -0.6962 -0.7041
14718SOL     OW45637   4.267   7.136   5.420 -0.4957 -0.4863 -0.3420
14718SOL    HW145638   4.240   7.154   5.509  3.0649  1.3599  0.4686
14718SOL    HW245639   4.355   7.099   5.428 -1.6244 -4.0407 -2.9128
14719SOL     OW45640   8.282   3.002   6.653  0.0093  0.5582  0.2124
14719SOL    HW145641   8.191   3.029   6.645  0.2788  1.4036  0.0437
14719SOL    HW245642   8.333   3.072   6.613  0.8218  0.7417  1.5224
14720SOL     OW45643   0.977   2.300   6.008  0.4706 -0.8560 -0.3299
14720SOL    HW145644   1.039   2.247   5.959  2.0348  0.2579  0.4120
14720SOL    HW245645   0.990   2.389   5.976 -0.5490 -0.5653  0.0386
14721SOL     OW45646   7.692   2.272   7.265 -0.3330  0.4164 -0.1949
14721SOL    HW145647   7.691   2.223   7.348 -2.0721 -0.5697 -0.7788
14721SOL    HW245648   7.631   2.225   7.209  2.2872 -0.0475 -2.7294
14722SOL     OW45649   5.913   4.790   2.446  0.3241 -0.4493 -0.1118
14722SOL    HW145650   5.956   4.875   2.437 -0.1860 -0.2523 -0.7604
14722SOL    HW245651   5.984   4.729   2.466  0.7026  0.1141  0.2719
14723SOL     OW45652   5.425   4.341   5.130  0.1181  0.1474  0.0734
14723SOL    HW145653   5.504   4.384   5.099  1.0603 -2.1181 -0.8184
14723SOL    HW245654   5.456   4.281   5.198 -0.6296 -1.6214 -1.1042
14724SOL     OW45655   4.257   0.318   3.727  0.1775 -0.1835  0.8191
14724SOL    HW145656   4.327   0.365   3.682 -0.7305  1.7092  1.3281
14724SOL    HW245657   4.178   0.369   3.709 -1.4409 -3.2793 -1.2508
14725SOL     OW45658   8.132   1.350   4.803 -0.1130  0.3376 -0.7744
14725SOL    HW145659   8.202   1.404   4.838  0.4433 -0.1769 -1.0858
14725SOL    HW245660   8.135   1.269   4.854  0.2493 -0.1323 -1.5392
14726SOL     OW45661   5.807   5.271   5.480 -0.6477  0.0175 -0.5910
14726SOL    HW145662   5.812   5.294   5.388  0.9458  0.7159 -0.3354
14726SOL    HW245663   5.826   5.177   5.482  0.8509  0.2978 -0.8380
14727SOL     OW45664   2.818   4.107   2.232 -0.3427  0.5345 -0.1219
14727SOL    HW145665   2.746   4.063   2.277 -0.0941  0.3816  0.1318
14727SOL    HW245666   2.889   4.043   2.233 -0.7610  0.0217 -1.9401
14728SOL     OW45667   4.143   4.609   3.235  0.0817  0.1190 -0.1226
14728SOL    HW145668   4.145   4.683   3.174 -0.3781 -0.4752 -0.8606
14728SOL    HW245669   4.116   4.648   3.319  1.4360  1.0576 -0.1111
14729SOL     OW45670   3.913   6.026   0.411  0.1018 -0.2498 -0.0648
14729SOL    HW145671   3.850   6.059   0.347  0.2945  0.3703  0.0648
14729SOL    HW245672   3.898   5.932   0.413  1.1869 -0.4919 -2.1958
14730SOL     OW45673   0.499   2.511   3.246  0.9367 -0.2478 -0.3021
14730SOL    HW145674   0.594   2.500   3.256  1.1313  2.1282  0.7552
14730SOL    HW245675   0.489   2.589   3.191 -0.3965  0.8904  1.4899
14731SOL     OW45676   1.511   3.203   1.262  0.1123  0.1807 -0.6807
14731SOL    HW145677   1.547   3.126   1.306  0.5540  1.2312  0.8383
14731SOL    HW245678   1.417   3.184   1.255  0.1947 -0.4270 -0.1787
14732SOL     OW45679   5.433   1.966   4.888 -0.4269  0.3289 -0.0708
14732SOL    HW145680   5.407   1.876   4.870  0.1622  0.0885  0.2711
14732SOL    HW245681   5.489   1.960   4.965 -2.4812  1.2877  1.5465
14733SOL     OW45682   4.302   2.315   7.382 -0.0702  0.2157  0.3645
14733SOL    HW145683   4.312   2.354   7.295 -2.1235  1.7523  0.7668
14733SOL    HW245684   4.271   2.226   7.364  1.5503 -0.1972 -0.4994
14734SOL     OW45685   7.386   0.602   2.903 -0.6477 -0.1906 -0.2319
14734SOL    HW145686   7.324   0.539   2.939  0.9553 -1.5394  0.2078
14734SOL    HW245687   7.397   0.576   2.811  2.0443 -2.2504  0.6154
14735SOL     OW45688   4.326   6.312   3.732  0.1266 -0.0578 -0.1856
14735SOL    HW145689   4.381   6.234   3.728 -1.2240 -1.1606  1.9914
14735SOL    HW245690   4.237   6.281   3.713 -0.5112  0.8386  1.2656
14736SOL     OW45691   7.905   6.104   2.478 -0.4809 -0.1325 -1.0759
14736SOL    HW145692   7.981   6.161   2.465  0.4200  0.1077  4.0784
14736SOL    HW245693   7.935   6.018   2.447  1.7098  0.0946  0.2829
14737SOL     OW45694   6.905   4.397   2.826  0.0009 -0.0672  0.4756
14737SOL    HW145695   6.923   4.319   2.879 -1.8704  0.4713  1.9415
14737SOL    HW245696   6.871   4.362   2.744 -0.8881 -0.8294  1.1460
14738SOL     OW45697   6.672   6.784   5.024 -0.3201  0.0073  0.6522
14738SOL    HW145698   6.630   6.853   4.973  0.3980 -1.6514 -2.2572
14738SOL    HW245699   6.711   6.830   5.098  1.0922  2.9305 -1.7959
14739SOL     OW45700   3.082   7.904   0.388  0.0627 -0.1591  0.4217
14739SOL    HW145701   3.016   7.963   0.350  0.8778  0.6831  0.3045
14739SOL    HW245702   3.073   7.824   0.337  0.4340  0.6129 -0.9058
14740SOL     OW45703   5.621   7.500   0.176 -0.3921  0.8842  0.0173
14740SOL    HW145704   5.702   7.488   0.224 -0.9602  0.2332  0.8306
14740SOL    HW245705   5.640   7.469   0.087  0.0709  0.1880  0.3635
14741SOL     OW45706   2.147   7.283   0.045  0.0158 -0.0145  0.2281
14741SOL    HW145707   2.207   7.216   0.013  0.0052  1.1211 -2.2460
14741SOL    HW245708   2.178   7.365   0.007 -1.5325  0.9940  1.0514
14742SOL     OW45709   3.377   6.651   3.639  0.0821  0.4010 -0.1300
14742SOL    HW145710   3.286   6.621   3.636  0.3165 -0.2484 -1.4509
14742SOL    HW245711   3.404   6.652   3.547  2.3503 -2.4131  0.4218
14743SOL     OW45712   2.256   7.237   1.197 -0.5013  0.0300  0.1362
14743SOL    HW145713   2.171   7.278   1.185 -1.0363 -1.6761 -2.2162
14743SOL    HW245714   2.278   7.200   1.111  2.3514 -0.0409  0.8297
14744SOL     OW45715   4.648   3.914   7.239 -0.3000  0.6483 -0.7501
14744SOL    HW145716   4.640   3.819   7.230  1.8787  0.3008  0.7515
14744SOL    HW245717   4.613   3.933   7.326  0.1530  1.1172 -0.6687
14745SOL     OW45718   7.505   2.168   5.083  0.3123 -0.2197 -0.1986
14745SOL    HW145719   7.477   2.132   5.167 -0.6951 -0.0934 -0.4750
14745SOL    HW245720   7.447   2.242   5.068  1.2423  0.4744 -0.4607
14746SOL     OW45721   1.622   3.676   2.246  0.2452  0.0415  0.3325
14746SOL    HW145722   1.701   3.637   2.209  0.0622 -1.2788  1.3069
14746SOL    HW245723   1.566   3.691   2.170  1.5761  1.3496 -0.4050
14747SOL     OW45724   1.520   0.321   5.013  0.5420 -0.6043  0.2146
14747SOL    HW145725   1.438   0.295   4.970 -0.1149 -2.0946  2.3000
14747SOL    HW245726   1.494   0.391   5.072  1.2585  0.7159 -1.0139
14748SOL     OW45727   2.470   1.785   2.562  0.3311  0.4595  0.1074
14748SOL    HW145728   2.380   1.791   2.529 -0.0225  0.0104  0.9435
14748SOL    HW245729   2.470   1.839   2.641  0.6075 -0.0698  0.4799
14749SOL     OW45730   2.548   3.783   4.890 -0.1803  0.2444 -0.5169
14749SOL    HW145731   2.485   3.723   4.849  0.4546  0.5448 -1.9618
14749SOL    HW245732   2.631   3.736   4.888 -0.0843  0.3838  0.1722
14750SOL     OW45733   5.705   1.879   1.237 -0.6404  0.5749  0.0003
14750SOL    HW145734   5.624   1.929   1.249  0.3286  2.1687 -0.0617
14750SOL    HW245735   5.739   1.907   1.153  1.4239  2.0007  1.2714
14751SOL     OW45736   6.092   6.979   6.670  0.4501  0.6248  0.5567
14751SOL    HW145737   6.131   7.003   6.754  1.2113 -0.8385  0.6293
14751SOL    HW245738   6.160   7.000   6.605  0.6834 -0.2466  0.5146
14752SOL     OW45739   2.211   2.421   6.382  0.0548  0.0223  0.2355
14752SOL    HW145740   2.158   2.497   6.408 -0.9363 -1.0512  1.4110
14752SOL    HW245741   2.173   2.393   6.298  0.0180  0.4314  0.1127
14753SOL     OW45742   5.712   4.072   8.220  0.2303  0.2991 -0.0292
14753SOL    HW145743   5.631   4.075   8.170  0.8812  1.9147 -1.0409
14753SOL    HW245744   5.780   4.095   8.156  1.3899 -0.3149  0.9686
14754SOL     OW45745   7.464   5.392   2.954 -0.0798 -0.1562  0.1145
14754SOL    HW145746   7.504   5.338   2.886  0.1408  1.3802 -1.0241
14754SOL    HW245747   7.512   5.371   3.034 -0.6067 -2.2822 -0.1107
14755SOL     OW45748   2.166   0.615   6.670 -0.3009  0.3477  0.0227
14755SOL    HW145749   2.203   0.570   6.594  2.5586  4.3474 -1.1074
14755SOL    HW245750   2.190   0.559   6.744  3.2065 -0.0085 -1.2922
14756SOL     OW45751   2.928   1.950   0.609 -0.2930  0.2794 -0.5678
14756SOL    HW145752   2.866   2.022   0.618 -0.5282 -0.1044  1.0416
14756SOL    HW245753   2.897   1.884   0.671  0.7697 -0.6034 -0.9565
14757SOL     OW45754   3.434   0.150   0.882  0.0998  0.7189  0.0731
14757SOL    HW145755   3.457   0.203   0.959 -3.2176  0.5401  1.2438
14757SOL    HW245756   3.454   0.060   0.909 -0.5484  0.7125  0.5495
14758SOL     OW45757   5.572   4.339   1.676 -0.1573 -0.0016  0.0536
14758SOL    HW145758   5.479   4.336   1.699 -0.1808  0.0779 -0.0295
14758SOL    HW245759   5.578   4.289   1.594 -0.3902  1.2974 -0.7813
14759SOL     OW45760   0.219   1.952   4.872 -0.2080  0.3552  0.0730
14759SOL    HW145761   0.271   1.876   4.847  0.6427  0.5329  1.2771
14759SOL    HW245762   0.261   1.985   4.951 -1.6903  0.9585  0.6273
14760SOL     OW45763   2.510   8.271   1.869  0.8046  0.1404 -0.3782
14760SOL    HW145764   2.513   8.210   1.942  1.0668  0.4684 -0.1097
14760SOL    HW245765   2.601   8.280   1.841  0.6215 -0.5099 -1.1909
14761SOL     OW45766   4.813   6.336   1.564  0.0936  0.4266 -0.0516
14761SOL    HW145767   4.782   6.414   1.518 -1.2352  0.7381  1.3591
14761SOL    HW245768   4.892   6.366   1.610  0.7978  0.3923 -1.2246
14762SOL     OW45769   7.294   4.936   8.016 -0.2599 -0.6426 -0.1268
14762SOL    HW145770   7.238   4.956   8.091 -0.2257  0.2089 -0.3173
14762SOL    HW245771   7.260   4.992   7.945 -0.4128 -1.5752 -0.8013
14763SOL     OW45772   3.410   7.581   1.774 -0.2719 -0.0149 -0.0358
14763SOL    HW145773   3.484   7.575   1.834 -1.0492  0.7338  1.0210
14763SOL    HW245774   3.366   7.663   1.797 -1.8831 -0.8289 -0.1096
14764SOL     OW45775   7.276   7.199   2.864  0.0818 -0.6257 -0.2687
14764SOL    HW145776   7.300   7.166   2.776  0.4842  0.0737 -0.4232
14764SOL    HW245777   7.219   7.131   2.900  1.4861 -1.8606 -0.3035
14765SOL     OW45778   8.246   4.840   6.867 -0.1539  0.1972  0.1236
14765SOL    HW145779   8.154   4.845   6.838  0.2641  1.9066 -0.9926
14765SOL    HW245780   8.295   4.878   6.794  1.3456  0.3007  1.1830
14766SOL     OW45781   8.058   7.717   1.836  0.4012  0.5057 -0.5898
14766SOL    HW145782   8.086   7.764   1.758  0.2279  1.6523  0.0145
14766SOL    HW245783   8.057   7.784   1.905  1.4213 -0.6626  0.6019
14767SOL     OW45784   8.055   4.296   5.399  0.9552  0.2388  0.3587
14767SOL    HW145785   8.067   4.328   5.489  0.5449  2.5542 -0.3939
14767SOL    HW245786   8.021   4.371   5.351  1.0268 -1.0323 -1.7220
14768SOL     OW45787   4.864   0.990   2.390  0.1058 -0.6399 -0.1571
14768SOL    HW145788   4.938   0.932   2.405 -1.7336 -3.2020 -0.6963
14768SOL    HW245789   4.840   0.976   2.298 -1.1812  0.0057  0.0590
14769SOL     OW45790   2.093   7.723   4.231  0.4319 -0.2196  0.2822
14769SOL    HW145791   2.055   7.782   4.166  1.0249  0.7841  0.8442
14769SOL    HW245792   2.036   7.646   4.229  0.7800 -0.4388 -1.8446
14770SOL     OW45793   2.943   7.885   6.510 -0.7178  0.4552 -0.0619
14770SOL    HW145794   2.989   7.964   6.541 -0.0779  0.4167 -0.9065
14770SOL    HW245795   3.012   7.820   6.499 -1.0375  0.2499 -0.8755
14771SOL     OW45796   0.041   1.695   2.196 -0.1746 -0.1552 -0.1426
14771SOL    HW145797  -0.035   1.699   2.255  0.8986  0.8906  1.2288
14771SOL    HW245798   0.014   1.637   2.126 -1.5840 -1.2904  1.2905
14772SOL     OW45799   8.081   7.994   1.923  0.2251  0.1561 -0.3665
14772SOL    HW145800   8.048   8.065   1.978 -1.7828  0.1425 -1.4986
14772SOL    HW245801   8.175   8.012   1.915  0.0514  1.6970  0.7890
14773SOL     OW45802   3.543   6.393   2.176 -0.9181  0.6320  0.0728
14773SOL    HW145803   3.479   6.366   2.110 -0.5119  0.2850 -0.1813
14773SOL    HW245804   3.491   6.411   2.254 -1.0332 -2.5310  0.7629
14774SOL     OW45805   3.161   6.372   3.831 -0.0486 -0.1819  0.3358
14774SOL    HW145806   3.192   6.314   3.901  0.3081 -0.2550  0.1197
14774SOL    HW245807   3.169   6.320   3.751  0.3855  0.1976  0.1243
14775SOL     OW45808   6.904   4.296   5.477 -0.2428  0.5535 -0.3355
14775SOL    HW145809   6.893   4.265   5.387  0.5786 -0.0777 -0.2327
14775SOL    HW245810   6.919   4.390   5.468 -1.2379  0.6770 -0.7738
14776SOL     OW45811   6.707   5.285   8.120 -0.0883  0.3231  0.2929
14776SOL    HW145812   6.700   5.190   8.135 -0.3273  0.4233  0.8327
14776SOL    HW245813   6.650   5.302   8.046  0.4179 -0.0494 -0.1870
14777SOL     OW45814   5.194   7.786   8.247  0.1625 -0.9701  0.1201
14777SOL    HW145815   5.193   7.881   8.246  0.9238 -0.9548  0.3280
14777SOL    HW245816   5.255   7.763   8.318 -0.0923 -1.6086  0.1401
14778SOL     OW45817   0.296   1.153   5.669 -0.4509  0.4209  0.1095
14778SOL    HW145818   0.349   1.209   5.725 -0.2674  0.8298 -0.4675
14778SOL    HW245819   0.306   1.190   5.581 -1.5774  0.4184 -0.0300
14779SOL     OW45820   5.679   1.703   3.764  0.2946  0.5161 -0.5862
14779SOL    HW145821   5.636   1.789   3.769  1.0531  0.8422  0.4289
14779SOL    HW245822   5.680   1.683   3.670  0.1603  1.6483 -0.8424
14780SOL     OW45823   0.586   0.262   5.192 -0.6448 -0.1293  0.3026
14780SOL    HW145824   0.604   0.212   5.112  1.3181 -0.6067  1.0134
14780SOL    HW245825   0.559   0.196   5.255  0.3394 -0.0898  0.7705
14781SOL     OW45826   4.296   1.184   0.135  0.1373 -0.1783  0.2290
14781SOL    HW145827   4.332   1.108   0.179  0.3861  0.2400  0.7565
14781SOL    HW245828   4.371   1.242   0.122  0.3209 -0.8607 -1.9600
14782SOL     OW45829   3.739   0.162   6.749  0.2021 -0.0487 -0.0322
14782SOL    HW145830   3.671   0.170   6.682  0.0238 -3.3835 -0.3075
14782SOL    HW245831   3.821   0.154   6.700  0.3565 -0.0623  0.2229
14783SOL     OW45832   1.533   6.263   5.589  0.0873 -0.1945  0.1956
14783SOL    HW145833   1.455   6.305   5.552  0.0803 -0.7611 -0.4441
14783SOL    HW245834   1.530   6.174   5.556  1.7000  0.1237 -0.9016
14784SOL     OW45835   4.086   8.112   4.744 -0.1142 -0.3346  0.2125
14784SOL    HW145836   4.118   8.131   4.655  1.6365 -0.3263  0.8097
14784SOL    HW245837   4.002   8.069   4.731  0.5374 -1.1514 -1.4983
14785SOL     OW45838   6.109   7.319   4.736  0.1359  0.2669 -0.6812
14785SOL    HW145839   6.076   7.383   4.800  1.6757 -0.6819  1.1117
14785SOL    HW245840   6.046   7.246   4.742  0.4741  0.0222  0.0630
14786SOL     OW45841   0.725   4.393   3.065  0.3486 -0.5992  0.0397
14786SOL    HW145842   0.814   4.411   3.095 -0.1868  0.6049  0.9370
14786SOL    HW245843   0.730   4.400   2.970  0.8735  1.0488  0.1712
14787SOL     OW45844   6.430   3.477   2.993  0.9421 -0.1623  0.0566
14787SOL    HW145845   6.466   3.449   2.909  1.0536  2.4000 -0.8185
14787SOL    HW245846   6.360   3.415   3.012  2.4416 -2.1465 -0.7703
14788SOL     OW45847   7.065   1.093   4.074  0.0665 -0.0847 -0.1136
14788SOL    HW145848   6.994   1.037   4.043 -0.1636  0.5112 -0.6784
14788SOL    HW245849   7.116   1.037   4.132 -1.1256 -0.3844  0.6517
14789SOL     OW45850   2.980   1.577   4.874  0.5143  0.3900  0.2585
14789SOL    HW145851   2.895   1.603   4.837  1.0978  1.2479 -0.4908
14789SOL    HW245852   2.975   1.482   4.878 -0.7188  0.4654  0.7764
14790SOL     OW45853   6.645   0.512   4.669 -0.0703  0.5514  0.0028
14790SOL    HW145854   6.670   0.570   4.596 -1.0135  0.6685 -0.2374
14790SOL    HW245855   6.594   0.569   4.728  0.7699  0.4801  0.7978
14791SOL     OW45856   0.089   7.001   6.674 -0.2674 -0.2611  0.4747
14791SOL    HW145857   0.116   6.970   6.587 -1.2526 -0.3254  0.1900
14791SOL    HW245858   0.115   7.093   6.676  1.6758 -0.7951  0.9094
14792SOL     OW45859   1.489   6.085   5.042 -0.5449  0.1637 -0.0755
14792SOL    HW145860   1.581   6.076   5.019 -0.3995 -0.2932  0.6805
14792SOL    HW245861   1.477   6.030   5.120 -1.8761 -1.3120 -1.2812
14793SOL     OW45862   0.335   1.672   4.434 -0.4485  0.3923 -0.0792
14793SOL    HW145863   0.305   1.593   4.390  0.1139  0.0138  0.2101
14793SOL    HW245864   0.367   1.728   4.363 -0.7230  0.3031 -0.2716
14794SOL     OW45865   0.349   3.033   7.854  0.3412  0.8758 -0.4376
14794SOL    HW145866   0.301   2.958   7.889 -0.3025  2.0574  1.3266
14794SOL    HW245867   0.414   2.996   7.795 -0.5113 -0.9991 -0.2034
14795SOL     OW45868   0.623   7.125   5.919  0.5252 -0.2573 -0.3000
14795SOL    HW145869   0.590   7.069   5.989  1.0371  0.7126  0.7323
14795SOL    HW245870   0.718   7.121   5.929  0.5802  0.2997 -0.6109
14796SOL     OW45871   6.383   5.940   3.457 -0.2662 -0.2398 -0.2015
14796SOL    HW145872   6.383   5.889   3.376  1.1987 -0.3589 -0.1315
14796SOL    HW245873   6.334   6.019   3.435  1.0759  0.2365 -1.5300
14797SOL     OW45874   4.781   7.016   4.654  0.3239  0.3944 -0.0543
14797SOL    HW145875   4.777   6.962   4.575 -0.0635 -0.7702  0.7388
14797SOL    HW245876   4.719   7.087   4.639  0.5230  0.3855 -0.9393
14798SOL     OW45877   1.398   2.746   7.327 -0.5148 -0.1704  0.5466
14798SOL    HW145878   1.478   2.700   7.352  0.6298  1.6065  0.2015
14798SOL    HW245879   1.371   2.791   7.407 -0.0391  0.8653  0.1288
14799SOL     OW45880   0.532   2.506   0.172  0.1575 -0.0846 -0.2299
14799SOL    HW145881   0.487   2.438   0.123 -0.6285  0.6192 -0.4888
14799SOL    HW245882   0.471   2.580   0.173 -0.4370 -0.5166  2.9188
14800SOL     OW45883   5.947   5.066   4.562 -0.1879  0.1687 -0.6166
14800SOL    HW145884   5.890   5.102   4.494 -1.5028  0.3475  0.5427
14800SOL    HW245885   6.019   5.128   4.568  0.4972 -0.4067 -2.5669
14801SOL     OW45886   3.239   4.329   7.895  0.5054  0.1826 -0.0459
14801SOL    HW145887   3.248   4.413   7.851 -0.8996  0.0931 -0.5264
14801SOL    HW245888   3.311   4.276   7.862 -0.1135  0.3560 -1.6837
14802SOL     OW45889   4.566   2.508   0.970  0.1965  0.2572  0.0880
14802SOL    HW145890   4.487   2.557   0.948  0.0121  0.5211  1.2985
14802SOL    HW245891   4.609   2.493   0.886 -0.5809  1.0709 -0.4670
14803SOL     OW45892   1.846   1.649   2.278 -0.4446  0.1520 -0.3643
14803SOL    HW145893   1.852   1.633   2.183 -0.6868  1.8973 -0.6918
14803SOL    HW245894   1.821   1.741   2.285  0.5679  0.3120  1.4184
14804SOL     OW45895   4.807   0.485   3.113 -0.2767  0.0680  0.0524
14804SOL    HW145896   4.882   0.456   3.061 -1.3897  0.1310 -1.6025
14804SOL    HW245897   4.784   0.571   3.078 -0.1358  0.7642  1.6159
14805SOL     OW45898   4.051   4.231   7.667 -0.1181  0.6864 -0.0004
14805SOL    HW145899   3.996   4.275   7.732  1.0718  2.9652 -0.4948
14805SOL    HW245900   4.136   4.274   7.674  0.7971 -0.8656 -1.2291
14806SOL     OW45901   0.701   2.882   1.846  0.0861  0.1084  0.2096
14806SOL    HW145902   0.757   2.859   1.920 -0.9253 -2.1262  0.3268
14806SOL    HW245903   0.616   2.843   1.868 -0.3191 -0.3019 -1.9904
14807SOL     OW45904   3.311   4.519   1.131  0.3704 -0.3769  0.3305
14807SOL    HW145905   3.262   4.567   1.064 -0.4328 -2.0887 -0.3638
14807SOL    HW245906   3.249   4.510   1.204  0.0793 -1.4021 -0.0302
14808SOL     OW45907   3.887   0.535   0.388 -0.4391 -0.2209  0.6838
14808SOL    HW145908   3.831   0.457   0.387 -0.2535 -0.3375 -0.3268
14808SOL    HW245909   3.840   0.597   0.444  0.4178 -1.7940  3.2777
14809SOL     OW45910   4.436   6.827   8.101  0.0834  0.3153 -0.1961
14809SOL    HW145911   4.433   6.900   8.162  1.4171 -0.5084  0.8568
14809SOL    HW245912   4.505   6.770   8.133 -1.8255 -2.1296 -0.2041
14810SOL     OW45913   8.104   0.268   4.284  0.3984  0.1003 -0.2107
14810SOL    HW145914   8.081   0.209   4.356 -0.1885 -0.4488 -0.8437
14810SOL    HW245915   8.029   0.263   4.224  0.8042  0.6919 -0.7727
14811SOL     OW45916   1.630   7.544   4.128 -0.0032  0.6302  0.3382
14811SOL    HW145917   1.716   7.505   4.139 -0.3665 -0.0782  0.6485
14811SOL    HW245918   1.594   7.502   4.050 -0.0517  0.9645  0.1769
14812SOL     OW45919   6.191   6.656   5.892  0.1347 -0.5856  0.3821
14812SOL    HW145920   6.213   6.643   5.984  0.1078 -0.5773  0.3898
14812SOL    HW245921   6.142   6.578   5.868 -1.5737  0.3079  0.9060
14813SOL     OW45922   7.632   0.420   0.081  0.2510 -0.1452 -0.0270
14813SOL    HW145923   7.575   0.425   0.004  0.1288  1.7667  0.1741
14813SOL    HW245924   7.572   0.413   0.155  0.2689  1.0372  0.1162
14814SOL     OW45925   0.371   3.968   2.079 -0.1496 -0.3856 -0.6192
14814SOL    HW145926   0.458   3.946   2.111 -0.5908 -2.1847 -0.5596
14814SOL    HW245927   0.317   3.977   2.158 -0.0469  0.6432 -0.6581
14815SOL     OW45928   3.769   6.771   4.691  0.0989  0.3058  0.2114
14815SOL    HW145929   3.763   6.734   4.779  0.1610 -0.1288  0.0344
14815SOL    HW245930   3.719   6.711   4.636  1.1728 -0.1686 -0.2719
14816SOL     OW45931   7.486   1.669   4.821 -0.1493 -0.2749  0.3398
14816SOL    HW145932   7.509   1.721   4.744 -0.7916 -0.9498 -0.3137
14816SOL    HW245933   7.420   1.723   4.866  0.8002  0.4784  0.8483
14817SOL     OW45934   8.166   0.484   4.806 -0.2142 -0.0831 -0.2239
14817SOL    HW145935   8.229   0.485   4.734  0.5381  0.4990  0.4351
14817SOL    HW245936   8.191   0.558   4.861 -0.6088 -0.6886  0.7894
14818SOL     OW45937   7.549   7.841   6.375  0.9177 -0.2741 -0.7186
14818SOL    HW145938   7.566   7.933   6.354  1.0257 -0.0019  0.4961
14818SOL    HW245939   7.530   7.800   6.291 -0.3527  1.1160 -1.1463
14819SOL     OW45940   7.123   0.022   7.728 -0.5198  0.0592 -1.0659
14819SOL    HW145941   7.089  -0.031   7.656 -2.0857 -2.3364  1.3715
14819SOL    HW245942   7.046   0.063   7.767  0.3423  1.5135 -0.8460
14820SOL     OW45943   3.020   0.909   6.291 -0.2235  0.3702  0.1271
14820SOL    HW145944   2.929   0.922   6.265 -0.1419 -0.3572 -0.5484
14820SOL    HW245945   3.018   0.831   6.347 -0.0400  0.4364  0.2259
14821SOL     OW45946   5.865   0.140   1.448  0.2809 -0.2261 -0.2760
14821SOL    HW145947   5.906   0.179   1.525  2.1668 -0.5507 -1.0925
14821SOL    HW245948   5.860   0.212   1.385 -1.2863  0.0474  0.1356
14822SOL     OW45949   6.867   4.777   2.189 -0.5512  0.0765 -0.8230
14822SOL    HW145950   6.790   4.722   2.203  0.0794 -0.3365  1.2104
14822SOL    HW245951   6.861   4.804   2.097 -2.6481 -0.6474 -0.9250
14823SOL     OW45952   4.058   6.721   5.185 -0.4571 -0.2940 -0.2232
14823SOL    HW145953   4.096   6.797   5.230  0.9671 -1.6993  1.0090
14823SOL    HW245954   3.965   6.741   5.180 -0.2590  1.0799  1.0455
14824SOL     OW45955   1.120   1.135   2.093 -0.7112  0.3503 -0.0347
14824SOL    HW145956   1.146   1.226   2.081 -0.6357  0.1873 -1.2050
14824SOL    HW245957   1.172   1.087   2.027 -0.6463 -0.5497  0.6609
14825SOL     OW45958   1.491   1.131   5.526 -0.1261  1.1997 -0.2366
14825SOL    HW145959   1.488   1.166   5.615  1.9735 -0.8567  0.7012
14825SOL    HW245960   1.554   1.186   5.480  0.5657  0.8185  0.2454
14826SOL     OW45961   3.556   2.123   4.718  0.2454  0.4824  0.2661
14826SOL    HW145962   3.639   2.086   4.689  0.6480 -0.2204  2.2423
14826SOL    HW245963   3.494   2.050   4.716  0.2741  0.4294  1.1445
14827SOL     OW45964   3.952   3.579   1.321  0.0511 -0.7710 -0.2508
14827SOL    HW145965   4.013   3.567   1.248  0.7781  0.2069  0.1825
14827SOL    HW245966   3.883   3.635   1.285  0.0674 -0.8380 -0.3876
14828SOL     OW45967   0.729   2.727   4.592  0.1159  0.2159  0.6084
14828SOL    HW145968   0.782   2.648   4.603  1.3522  0.7757 -1.0840
14828SOL    HW245969   0.731   2.744   4.498 -0.1449  2.2442  0.9427
14829SOL     OW45970   6.514   6.231   2.770  0.4940 -0.1414 -0.6418
14829SOL    HW145971   6.507   6.142   2.805  1.1086  0.0830  0.0650
14829SOL    HW245972   6.424   6.263   2.771  0.4395 -0.2870  0.3821
14830SOL     OW45973   0.683   5.192   1.652  0.2782 -0.1585 -0.7703
14830SOL    HW145974   0.626   5.179   1.576  0.1177  1.0785 -0.8714
14830SOL    HW245975   0.721   5.106   1.668 -2.4677 -1.2948 -0.0165
14831SOL     OW45976   7.351   4.833   6.762 -0.0094  0.2324  0.4888
14831SOL    HW145977   7.328   4.924   6.745 -0.6525 -0.2393 -1.2721
14831SOL    HW245978   7.278   4.782   6.726  0.6661 -1.0042  0.8315
14832SOL     OW45979   1.697   6.294   0.847 -0.2707 -0.1357  0.4211
14832SOL    HW145980   1.708   6.205   0.881  1.4822  0.1032  0.5376
14832SOL    HW245981   1.643   6.338   0.912 -0.6424 -0.9433  0.6706
14833SOL     OW45982   3.507   0.345   1.076 -0.0107  0.3903  0.1003
14833SOL    HW145983   3.551   0.411   1.023 -0.5427 -0.4002 -1.3561
14833SOL    HW245984   3.457   0.396   1.141  0.5839  1.3697 -0.2053
14834SOL     OW45985   4.492   5.464   7.572 -0.5555  0.2698 -0.2716
14834SOL    HW145986   4.546   5.531   7.529  0.4547 -0.1918  0.2382
14834SOL    HW245987   4.556   5.409   7.618 -1.4837 -0.2015  0.4713
14835SOL     OW45988   7.072   7.840   5.128 -0.4066  0.3081  0.2429
14835SOL    HW145989   6.985   7.873   5.103 -0.5539  0.3090  0.7653
14835SOL    HW245990   7.132   7.909   5.098 -0.7097  1.0445  1.2943
14836SOL     OW45991   0.702   6.565   1.499 -0.6424 -0.1154 -0.7533
14836SOL    HW145992   0.780   6.518   1.469 -0.3450  1.9440 -3.4348
14836SOL    HW245993   0.689   6.634   1.433 -4.2553  0.1024  0.0998
14837SOL     OW45994   4.149   0.156   5.820 -0.3696  0.1975 -0.2235
14837SOL    HW145995   4.241   0.146   5.845 -0.9122 -0.5905  1.5461
14837SOL    HW245996   4.151   0.168   5.725  1.4847 -0.8195 -0.3309
14838SOL     OW45997   6.610   0.192   1.616 -0.3475 -0.3829 -0.0408
14838SOL    HW145998   6.675   0.121   1.618 -1.5452 -1.4828  1.1193
14838SOL    HW245999   6.585   0.198   1.524  0.5148 -0.7812 -0.3076
14839SOL     OW46000   1.878   7.282   3.135 -0.5815 -0.4460  0.4208
14839SOL    HW146001   1.797   7.230   3.134 -1.1715  0.4025  1.7580
14839SOL    HW246002   1.848   7.373   3.133  0.4697 -0.0917 -3.2180
14840SOL     OW46003   1.586   7.509   4.984 -0.3091 -0.3667  0.1129
14840SOL    HW146004   1.519   7.565   4.944  1.0551  0.4155 -1.1095
14840SOL    HW246005   1.585   7.429   4.931  0.2579 -0.0468 -0.3799
14841SOL     OW46006   0.556   3.983   6.633 -0.0410 -0.0786 -0.9531
14841SOL    HW146007   0.594   3.934   6.559  0.9683 -2.7025  1.2281
14841SOL    HW246008   0.630   4.029   6.672 -0.6846  1.8088 -1.9204
14842SOL     OW46009   1.472   3.467   6.785  0.8514  0.1962  0.2877
14842SOL    HW146010   1.532   3.393   6.801 -1.4978 -1.6696  0.7975
14842SOL    HW246011   1.466   3.474   6.690  3.7732  2.0308  0.1872
14843SOL     OW46012   0.047   4.054   4.608 -0.1104  0.0674 -0.0600
14843SOL    HW146013  -0.039   4.014   4.624 -0.8018  1.4273 -0.3383
14843SOL    HW246014   0.052   4.126   4.670  1.0034 -0.2381  0.2146
14844SOL     OW46015   1.875   1.251   4.198  0.0640  0.2410  0.0130
14844SOL    HW146016   1.888   1.333   4.151  0.6594  0.7632  1.0657
14844SOL    HW246017   1.805   1.269   4.261 -0.4986 -0.3557 -0.4325
14845SOL     OW46018   0.915   3.045   3.626 -0.0334 -0.0224  0.2662
14845SOL    HW146019   0.983   3.005   3.680 -0.1572  1.0538  1.2470
14845SOL    HW246020   0.834   3.003   3.653  0.2646 -1.5134 -1.1068
14846SOL     OW46021   4.096   2.930   3.092 -0.1713  0.0011  0.5795
14846SOL    HW146022   4.162   2.989   3.054 -2.1072  1.3245 -0.8514
14846SOL    HW246023   4.017   2.984   3.099 -0.3210 -0.6032  5.2562
14847SOL     OW46024   6.413   4.683   6.424 -0.0876 -0.2071  0.4786
14847SOL    HW146025   6.405   4.645   6.337  1.0816  0.5820  0.0125
14847SOL    HW246026   6.439   4.610   6.481  1.0458 -0.3296 -0.1960
14848SOL     OW46027   6.133   7.134   7.808 -0.5488  0.3061  0.2224
14848SOL    HW146028   6.041   7.130   7.833 -1.1729  2.4550 -1.5049
14848SOL    HW246029   6.134   7.192   7.731  2.0996 -0.5916 -0.4611
14849SOL     OW46030   4.221   2.591   7.810 -0.0556  0.0488  0.0549
14849SOL    HW146031   4.150   2.566   7.751 -0.0897 -1.0033  0.5300
14849SOL    HW246032   4.232   2.515   7.867  1.5035  0.1791 -0.0666
14850SOL     OW46033   4.205   7.179   3.707 -0.5689 -0.2326 -0.0931
14850SOL    HW146034   4.257   7.259   3.698  0.8968 -0.5760  4.1443
14850SOL    HW246035   4.266   7.108   3.685 -0.3197 -0.4479  1.2829
14851SOL     OW46036   7.234   0.649   3.502 -0.2634  0.0439 -0.1162
14851SOL    HW146037   7.302   0.663   3.437 -0.2013  0.9188  0.1207
14851SOL    HW246038   7.278   0.603   3.574 -0.2636 -0.6539 -0.5619
14852SOL     OW46039   3.712   2.837   7.895  0.3606 -0.3951 -0.5908
14852SOL    HW146040   3.799   2.824   7.933  0.2444  0.0568 -0.1598
14852SOL    HW246041   3.686   2.924   7.924  0.5060  0.1947 -2.1999
14853SOL     OW46042   0.178   2.097   4.447 -0.2136  0.4128  0.3702
14853SOL    HW146043   0.179   2.050   4.530 -0.0519  0.5540  0.4504
14853SOL    HW246044   0.263   2.076   4.406 -0.9075 -0.8698 -0.4536
14854SOL     OW46045   5.049   4.947   0.222  0.0553 -0.3094  0.4583
14854SOL    HW146046   5.077   5.028   0.265  1.9493 -1.3033  1.1367
14854SOL    HW246047   4.974   4.918   0.273 -0.7211  1.0625  0.1383
14855SOL     OW46048   0.609   8.295   7.057  0.2872 -0.1847  0.9095
14855SOL    HW146049   0.651   8.292   7.143  0.9263 -1.1606  0.5718
14855SOL    HW246050   0.538   8.232   7.063 -1.3721  1.6898  1.5835
14856SOL     OW46051   6.436   1.508   0.671  0.7260  0.3742  0.0867
14856SOL    HW146052   6.469   1.569   0.737  1.4984  0.9291 -0.8049
14856SOL    HW246053   6.445   1.422   0.711 -0.8925  0.8680  1.5873
14857SOL     OW46054   7.530   2.839   7.983 -0.0537 -0.3649  0.0768
14857SOL    HW146055   7.448   2.843   8.032  0.1439  0.6628  0.3215
14857SOL    HW246056   7.597   2.822   8.050 -0.1034 -1.6589 -0.1727
14858SOL     OW46057   5.071   7.231   2.759  0.2963  0.5548  0.2876
14858SOL    HW146058   5.109   7.269   2.837 -0.5139  0.9913  0.4839
14858SOL    HW246059   5.011   7.299   2.726 -0.7053 -0.3095  0.2934
14859SOL     OW46060   1.464   5.593   3.917  0.6512 -0.2138 -0.5215
14859SOL    HW146061   1.491   5.524   3.978 -0.2169  0.3021  0.4726
14859SOL    HW246062   1.447   5.668   3.974 -1.6807 -0.1777 -1.2462
14860SOL     OW46063   0.090   2.405   5.268 -0.3863  0.3769  0.4933
14860SOL    HW146064   0.119   2.323   5.308 -1.8399 -1.0935 -1.3916
14860SOL    HW246065   0.151   2.418   5.195 -1.5156 -0.1847 -0.5485
14861SOL     OW46066   6.294   0.700   6.906  0.0452  0.5323  0.1607
14861SOL    HW146067   6.360   0.756   6.865 -1.1399  1.6015 -0.3127
14861SOL    HW246068   6.278   0.741   6.991  0.6009 -0.2189  0.6399
14862SOL     OW46069   5.003   1.050   2.778 -0.0859  0.3606  0.0358
14862SOL    HW146070   5.000   1.097   2.695 -1.1410 -0.0142 -0.1388
14862SOL    HW246071   5.031   1.116   2.842 -0.0587  0.8414 -0.4670
14863SOL     OW46072   3.454   2.095   0.188  0.1458  0.2008  0.2533
14863SOL    HW146073   3.374   2.045   0.172 -0.0322 -0.0147  1.8064
14863SOL    HW246074   3.496   2.100   0.102 -0.7947 -0.9556 -0.2872
14864SOL     OW46075   0.454   0.805   3.699  0.3258  0.2231  0.4029
14864SOL    HW146076   0.530   0.773   3.749  1.5683 -0.0302 -1.5968
14864SOL    HW246077   0.490   0.873   3.642 -1.1856  0.9001  0.2343
14865SOL     OW46078   5.512   6.122   6.699 -0.2760  0.6197  0.3032
14865SOL    HW146079   5.588   6.122   6.757  0.8491 -3.0048 -1.0002
14865SOL    HW246080   5.538   6.177   6.625  0.7459  0.1599  0.3073
14866SOL     OW46081   3.372   5.198   5.225 -0.6285 -0.2558 -0.4415
14866SOL    HW146082   3.418   5.120   5.194  1.8061  1.0714 -0.2807
14866SOL    HW246083   3.354   5.180   5.317  0.1079 -0.5411 -0.3483
14867SOL     OW46084   4.570   0.138   5.622  0.3900 -0.0741  0.7919
14867SOL    HW146085   4.570   0.225   5.583  0.8465 -0.8315 -0.9586
14867SOL    HW246086   4.647   0.095   5.586 -0.8508 -1.8377  0.1238
14868SOL     OW46087   5.437   1.690   4.830 -0.1056  0.8008  0.5235
14868SOL    HW146088   5.383   1.668   4.755  0.7613 -1.3402  0.4914
14868SOL    HW246089   5.520   1.720   4.793  0.0453  0.4916  0.6055
14869SOL     OW46090   7.482   3.600   6.982 -0.2242 -0.8618 -0.2957
14869SOL    HW146091   7.514   3.603   6.892 -0.6164 -2.8234 -0.5091
14869SOL    HW246092   7.456   3.690   7.001  3.0117  0.2808 -0.9858
14870SOL     OW46093   4.958   4.906   7.793 -0.0262  0.1371 -0.8062
14870SOL    HW146094   4.929   4.993   7.764  0.4315  1.1127  1.5996
14870SOL    HW246095   4.886   4.873   7.847  0.0234 -0.7765 -1.2847
14871SOL     OW46096   7.814   3.488   1.575  0.1281  0.4292  0.0979
14871SOL    HW146097   7.832   3.578   1.602  0.6758 -0.0671  1.4089
14871SOL    HW246098   7.806   3.492   1.479  1.1777  1.6797  0.0652
14872SOL     OW46099   7.994   4.896   4.393  0.2756  0.2802  0.0079
14872SOL    HW146100   8.055   4.968   4.405  1.2712 -0.3252 -1.2348
14872SOL    HW246101   8.048   4.825   4.356 -0.7929 -0.8970  0.6573
14873SOL     OW46102   4.512   2.906   7.228 -0.0927 -0.2237 -0.2692
14873SOL    HW146103   4.493   2.813   7.242  2.3576 -0.7800 -0.3819
14873SOL    HW246104   4.494   2.947   7.312  1.6381 -1.3259  0.6774
14874SOL     OW46105   7.034   7.972   2.495  0.5009  0.5419 -0.3396
14874SOL    HW146106   7.041   7.919   2.415  0.4635 -1.8077  1.1601
14874SOL    HW246107   7.123   7.973   2.531  0.5193  1.5943 -0.4087
14875SOL     OW46108   3.099   7.134   7.145  0.5798 -0.2645 -0.9207
14875SOL    HW146109   3.013   7.132   7.186  0.8942 -1.5546 -0.3177
14875SOL    HW246110   3.095   7.210   7.086 -0.9522 -0.3009 -0.8930
14876SOL     OW46111   2.673   1.449   3.544 -0.5119  0.0223 -0.2244
14876SOL    HW146112   2.746   1.433   3.484 -0.2610  0.9511 -0.1661
14876SOL    HW246113   2.695   1.400   3.623 -0.3739 -0.4013 -0.5234
14877SOL     OW46114   2.434   4.267   4.023  0.0133  0.7236 -0.3280
14877SOL    HW146115   2.345   4.302   4.030 -0.2907 -0.0231 -0.3494
14877SOL    HW246116   2.462   4.291   3.934  0.1967  1.7767  0.0084
14878SOL     OW46117   3.900   7.796   2.360  0.0128 -0.8839  0.5271
14878SOL    HW146118   3.873   7.728   2.299 -1.6643 -0.0829  0.3428
14878SOL    HW246119   3.930   7.749   2.438 -0.3059 -1.8501  0.0670
14879SOL     OW46120   2.953   2.809   5.572 -0.1064 -0.2508  0.3723
14879SOL    HW146121   2.939   2.854   5.489  2.0922 -2.0622 -1.0809
14879SOL    HW246122   2.866   2.782   5.601 -0.9615  1.0266 -0.9950
14880SOL     OW46123   6.232   5.081   0.736  0.1075 -0.0018  0.4848
14880SOL    HW146124   6.201   5.087   0.646 -0.9114 -1.9588  0.6843
14880SOL    HW246125   6.310   5.135   0.738 -0.4031  0.8291 -1.3374
14881SOL     OW46126   6.056   3.023   0.084  0.3448  0.2006  0.3755
14881SOL    HW146127   6.014   2.949   0.039  1.1205  0.0571 -0.1266
14881SOL    HW246128   6.143   3.028   0.044  1.4044 -0.5155  2.5134
14882SOL     OW46129   2.445   2.116   7.869 -0.3848  0.1968  0.1310
14882SOL    HW146130   2.485   2.114   7.956 -1.0757 -1.4995  0.4360
14882SOL    HW246131   2.444   2.209   7.845 -1.0463  0.8015  2.3380
14883SOL     OW46132   7.696   5.942   2.142 -0.0006 -0.1762  0.0385
14883SOL    HW146133   7.700   6.031   2.105 -1.0168 -0.3887 -0.6191
14883SOL    HW246134   7.681   5.956   2.236 -0.7401  0.3557 -0.1487
14884SOL     OW46135   1.874   2.981   4.167  0.0841  0.0719 -0.6740
14884SOL    HW146136   1.865   2.971   4.072  0.2536 -0.1181 -0.6684
14884SOL    HW246137   1.802   2.929   4.203 -0.4281  0.7420 -0.7223
14885SOL     OW46138   7.858   1.405   7.629  0.4514  0.3314 -0.2486
14885SOL    HW146139   7.912   1.474   7.666  0.7527 -0.5673  1.0112
14885SOL    HW246140   7.840   1.434   7.539  2.1534  1.1275 -0.3499
14886SOL     OW46141   2.848   6.887   1.095  0.0903 -0.2578 -0.4033
14886SOL    HW146142   2.848   6.951   1.166 -1.3078  0.4807 -1.0534
14886SOL    HW246143   2.785   6.921   1.032  1.9971 -0.4212 -2.4536
14887SOL     OW46144   7.451   0.663   0.840 -0.2540 -0.5171  0.3557
14887SOL    HW146145   7.379   0.603   0.864  0.0602 -0.5425  1.2531
14887SOL    HW246146   7.517   0.649   0.908 -0.1024  0.7262  0.4667
14888SOL     OW46147   7.818   4.181   5.183  0.4875  0.0843 -0.4283
14888SOL    HW146148   7.815   4.275   5.165 -0.3495  0.0566 -0.4945
14888SOL    HW246149   7.783   4.173   5.272 -0.8462 -0.2900 -0.9725
14889SOL     OW46150   5.563   0.016   3.337  0.5001 -0.1483 -0.0150
14889SOL    HW146151   5.505   0.090   3.322 -1.3237 -0.8803  2.9997
14889SOL    HW246152   5.536  -0.050   3.273 -0.0996  0.5573 -0.4867
14890SOL     OW46153   2.434   1.736   4.606  0.6066 -0.7694  0.2339
14890SOL    HW146154   2.465   1.717   4.517  3.5151 -2.8160  1.6008
14890SOL    HW246155   2.510   1.772   4.651 -0.7733  0.0622  1.9785
14891SOL     OW46156   5.361   1.139   0.336 -0.1221  0.4231 -0.0668
14891SOL    HW146157   5.455   1.154   0.345 -0.0860  0.4507 -0.4791
14891SOL    HW246158   5.354   1.055   0.290 -0.3103 -0.0192  0.7576
14892SOL     OW46159   3.779   0.559   3.260 -0.1209 -0.1802  0.3751
14892SOL    HW146160   3.816   0.640   3.226 -0.2033 -0.3081 -0.0173
14892SOL    HW246161   3.845   0.492   3.241 -0.3594 -0.3302  0.0690
14893SOL     OW46162   0.971   0.349   1.169 -0.0902 -0.1993 -0.0810
14893SOL    HW146163   0.906   0.337   1.101  0.7550  1.0441 -1.1264
14893SOL    HW246164   0.969   0.267   1.219 -1.8393 -0.4899 -0.6068
14894SOL     OW46165   7.900   6.637   8.091 -0.5724  0.0259  0.0952
14894SOL    HW146166   7.882   6.595   8.176 -1.6776 -0.7027 -0.4874
14894SOL    HW246167   7.882   6.569   8.026 -0.3312  0.7739 -0.7656
14895SOL     OW46168   8.019   4.464   0.985  0.6693 -0.2379  0.0484
14895SOL    HW146169   8.044   4.556   0.994  1.7080 -0.6393  1.2885
14895SOL    HW246170   8.096   4.421   0.948  0.1900 -0.6173 -0.5221
14896SOL     OW46171   7.312   4.334   7.471  0.0926 -0.2821 -0.0010
14896SOL    HW146172   7.319   4.244   7.503  1.4282  0.2799  1.3406
14896SOL    HW246173   7.293   4.386   7.550 -0.3501  0.6400 -0.7110
14897SOL     OW46174   0.634   1.392   6.894  0.5615  0.0361  0.6917
14897SOL    HW146175   0.684   1.373   6.974  1.4975 -1.8266 -0.2902
14897SOL    HW246176   0.545   1.410   6.925  0.7926 -1.1527  2.1439
14898SOL     OW46177   5.295   4.108   8.173  0.1274 -0.7618 -0.0848
14898SOL    HW146178   5.233   4.179   8.188 -0.1705 -1.4331  2.1400
14898SOL    HW246179   5.325   4.084   8.261  2.6057 -1.2808 -1.0261
14899SOL     OW46180   3.428   1.502   7.999 -0.2679 -0.5572  0.3489
14899SOL    HW146181   3.342   1.533   7.969 -0.5792 -0.1821  1.5599
14899SOL    HW246182   3.443   1.551   8.080  1.9996  0.8303 -0.8651
14900SOL     OW46183   8.056   3.085   6.564 -0.2212  0.0155 -0.1121
14900SOL    HW146184   8.000   3.031   6.509  0.1039  1.0032 -1.4262
14900SOL    HW246185   7.997   3.152   6.599 -0.6825 -1.3111  1.7312
14901SOL     OW46186   0.652   5.174   5.142 -0.3108  0.0674 -0.3123
14901SOL    HW146187   0.742   5.151   5.121 -0.8107 -0.4690 -1.8868
14901SOL    HW246188   0.646   5.267   5.122  0.1907  0.3692  0.8738
14902SOL     OW46189   5.617   1.625   1.301  0.2719  0.1431 -0.2797
14902SOL    HW146190   5.618   1.718   1.322 -0.4153  0.3509 -1.0891
14902SOL    HW246191   5.645   1.621   1.209  2.9394 -0.6960  0.5511
14903SOL     OW46192   7.508   0.847   2.467  0.0844 -0.7891  0.2597
14903SOL    HW146193   7.465   0.887   2.391  2.3329 -2.4609 -1.9657
14903SOL    HW246194   7.441   0.848   2.536 -2.8516 -1.5454 -2.4863
14904SOL     OW46195   3.738   8.180   4.559 -0.2616 -0.1316 -0.3851
14904SOL    HW146196   3.776   8.241   4.621 -0.6584 -0.6937  0.4185
14904SOL    HW246197   3.644   8.193   4.566 -0.3410 -0.6951 -0.3500
14905SOL     OW46198   7.083   3.454   1.201  0.1780  0.3642 -0.0681
14905SOL    HW146199   7.090   3.527   1.262  1.2114 -0.7651  1.1845
14905SOL    HW246200   7.108   3.377   1.252 -1.6284 -0.9869 -1.1438
14906SOL     OW46201   1.462   5.337   6.319 -0.1360 -0.4868 -0.0432
14906SOL    HW146202   1.370   5.347   6.346  0.2862  0.2009  1.1885
14906SOL    HW246203   1.506   5.413   6.357  0.4989  0.5593 -2.7457
14907SOL     OW46204   6.183   3.406   0.532  0.5422  0.6614  0.0520
14907SOL    HW146205   6.106   3.444   0.490 -0.1636 -1.6050 -0.7360
14907SOL    HW246206   6.252   3.411   0.465  0.6937  1.3364  0.2532
14908SOL     OW46207   6.068   0.541   4.423 -0.2210  0.0181  0.3903
14908SOL    HW146208   6.032   0.579   4.344 -0.8587  1.2960  1.2743
14908SOL    HW246209   6.138   0.483   4.393 -2.2218 -1.5763 -1.2536
14909SOL     OW46210   2.367   5.407   4.079 -0.5801 -0.0597  0.0966
14909SOL    HW146211   2.437   5.409   4.014 -1.0720 -1.5396 -0.5078
14909SOL    HW246212   2.320   5.490   4.067  0.1305  0.2490 -0.5537
14910SOL     OW46213   7.844   3.529   7.049 -0.3608 -0.1280 -0.5161
14910SOL    HW146214   7.848   3.491   6.962 -0.0991 -0.6586 -0.2697
14910SOL    HW246215   7.811   3.618   7.034  0.2304 -0.0240 -1.2122
14911SOL     OW46216   5.318   7.937   0.625  0.0021 -0.1592  0.0917
14911SOL    HW146217   5.406   7.903   0.614  0.1699 -0.4551  2.1101
14911SOL    HW246218   5.324   8.029   0.599  1.1614  0.0858  1.1817
14912SOL     OW46219   4.738   6.859   4.435  0.0807 -0.1793 -0.3776
14912SOL    HW146220   4.652   6.825   4.457  0.1274  1.3543  2.2833
14912SOL    HW246221   4.726   6.903   4.351 -2.4399  2.7145  1.4331
14913SOL     OW46222   7.676   3.153   5.227  0.0028 -0.5283 -0.4325
14913SOL    HW146223   7.642   3.216   5.290  1.2379  2.3412 -2.4721
14913SOL    HW246224   7.600   3.123   5.179 -0.5106  0.1579 -0.0597
14914SOL     OW46225   1.603   1.902   3.866  0.1621  0.3595 -0.2003
14914SOL    HW146226   1.661   1.909   3.790 -1.1679  0.0258 -1.2548
14914SOL    HW246227   1.522   1.864   3.831 -0.9095  1.3729  1.1502
14915SOL     OW46228   2.339   5.395   7.038  0.3011 -0.5159  0.5119
14915SOL    HW146229   2.264   5.402   7.097  0.4019 -0.2894  0.6128
14915SOL    HW246230   2.416   5.394   7.095  0.4539  0.6624  0.3525
14916SOL     OW46231   7.660   4.225   6.579  0.3919  0.0987 -0.1003
14916SOL    HW146232   7.589   4.259   6.524 -0.5508 -0.6706  0.6233
14916SOL    HW246233   7.734   4.217   6.519  0.0663  1.5503 -0.7108
14917SOL     OW46234   1.781   0.094   6.408  0.0839  0.1994 -0.1254
14917SOL    HW146235   1.762   0.002   6.430  3.2152 -0.1497  1.4080
14917SOL    HW246236   1.820   0.090   6.321  0.7295 -0.0029  0.1686
14918SOL     OW46237   6.197   1.689   0.691 -0.4081  0.0385  0.6572
14918SOL    HW146238   6.124   1.649   0.645  0.1848  0.6997 -0.8628
14918SOL    HW246239   6.262   1.619   0.697 -0.9144 -0.3747  1.4944
14919SOL     OW46240   8.291   5.450   5.616 -0.7498  0.2716 -0.3380
14919SOL    HW146241   8.240   5.484   5.543 -1.6020  0.7691  0.4774
14919SOL    HW246242   8.295   5.523   5.678  1.0087  0.2503 -0.4228
14920SOL     OW46243   1.307   8.196   0.344  0.2318  0.9176  0.1961
14920SOL    HW146244   1.390   8.219   0.385  0.3862  1.1005 -0.2128
14920SOL    HW246245   1.255   8.275   0.349 -0.5198  0.3425  1.8986
14921SOL     OW46246   4.946   2.132   8.015 -0.0358 -0.2233  0.0449
14921SOL    HW146247   4.928   2.226   8.023 -0.7256 -0.2928 -0.6135
14921SOL    HW246248   4.879   2.100   7.954 -0.8109 -1.4372  1.4780
14922SOL     OW46249   0.776   6.707   2.774  0.6198 -0.0527  0.1690
14922SOL    HW146250   0.831   6.632   2.748 -1.3457 -1.2378 -0.7067
14922SOL    HW246251   0.789   6.771   2.704  1.3245 -0.0942  0.2563
14923SOL     OW46252   7.834   3.697   5.457 -0.4439 -0.4955  0.1171
14923SOL    HW146253   7.779   3.764   5.417  0.0256  0.5038  1.1118
14923SOL    HW246254   7.773   3.635   5.498 -0.8544 -0.2148 -0.0771
14924SOL     OW46255   0.137   7.922   5.906  0.4188  0.4332 -0.0227
14924SOL    HW146256   0.068   7.987   5.890  0.9598  0.9189 -0.4148
14924SOL    HW246257   0.156   7.886   5.819  0.3958  0.0319  0.1389
14925SOL     OW46258   1.138   1.521   4.655  0.1395  0.0869 -0.4055
14925SOL    HW146259   1.079   1.480   4.592  1.5413  0.0351 -1.6978
14925SOL    HW246260   1.190   1.448   4.690 -1.8798 -0.1806  2.2369
14926SOL     OW46261   0.544   1.752   0.828 -0.5958 -0.0188 -0.5367
14926SOL    HW146262   0.552   1.832   0.777  0.3446  0.3168  0.1169
14926SOL    HW246263   0.536   1.682   0.763  1.4970  0.2965 -1.1883
14927SOL     OW46264   4.541   4.058   2.613  0.5636 -0.0247  0.4482
14927SOL    HW146265   4.482   4.006   2.559 -0.7593  0.2833  1.5591
14927SOL    HW246266   4.621   4.005   2.620  0.9550  0.1578 -2.1739
14928SOL     OW46267   2.053   8.211   0.674  0.2750  0.4046  0.5560
14928SOL    HW146268   2.122   8.155   0.712 -0.1430  0.4479  1.3964
14928SOL    HW246269   2.079   8.300   0.698 -0.8954  0.3149  2.2767
14929SOL     OW46270   4.831   6.770   6.671  0.6740  0.3100  0.4307
14929SOL    HW146271   4.898   6.708   6.642  0.8577  0.9578 -0.5300
14929SOL    HW246272   4.748   6.726   6.651  0.7978  0.8664 -1.3187
14930SOL     OW46273   3.934   1.639   3.880 -0.0644  0.2390 -0.6067
14930SOL    HW146274   3.933   1.668   3.789 -0.7389 -1.9286 -1.3392
14930SOL    HW246275   3.844   1.610   3.898 -0.6284  3.1624  1.6462
14931SOL     OW46276   6.167   5.744   2.461 -0.4939  0.4673 -0.1039
14931SOL    HW146277   6.231   5.693   2.511 -0.9230  1.1175  1.1364
14931SOL    HW246278   6.213   5.824   2.438  0.0531 -0.2903 -1.7116
14932SOL     OW46279   7.366   0.734   4.430  0.1475 -0.1961  0.1805
14932SOL    HW146280   7.339   0.694   4.348  3.1388  2.4997 -2.2396
14932SOL    HW246281   7.429   0.673   4.468 -2.1925 -2.0541  1.2012
14933SOL     OW46282   1.569   2.445   0.420 -0.5290  0.5751  0.0176
14933SOL    HW146283   1.521   2.431   0.338 -1.6393 -1.1904  0.9261
14933SOL    HW246284   1.656   2.471   0.392 -0.1334 -2.4278 -1.8413
14934SOL     OW46285   0.261   0.152   5.242  0.2151  0.0765  0.1244
14934SOL    HW146286   0.332   0.088   5.252 -0.6937 -1.1297 -0.9208
14934SOL    HW246287   0.289   0.228   5.293  1.4141 -1.0873  1.2328
14935SOL     OW46288   1.963   1.497   3.979 -0.5203  0.3759  0.0776
14935SOL    HW146289   2.034   1.470   3.922 -0.5335  2.8266 -1.1553
14935SOL    HW246290   1.912   1.558   3.927 -2.2983  0.3263  1.6896
14936SOL     OW46291   7.686   5.180   3.813 -0.4722 -0.5321 -0.4235
14936SOL    HW146292   7.728   5.140   3.737  0.2485 -1.2273  0.3290
14936SOL    HW246293   7.747   5.248   3.842  0.0860 -1.4595  0.5982
14937SOL     OW46294   5.208   6.628   5.345  0.2641  0.0690 -0.7158
14937SOL    HW146295   5.212   6.627   5.440 -0.6604  0.3280 -0.6692
14937SOL    HW246296   5.262   6.553   5.318  0.7956  0.1922 -0.0076
14938SOL     OW46297   1.142   1.928   0.895 -0.5650  0.3971  0.0871
14938SOL    HW146298   1.160   1.969   0.979  2.6348 -0.8855  0.1085
14938SOL    HW246299   1.047   1.914   0.894 -0.8304  1.7184  2.8266
14939SOL     OW46300   4.711   6.936   1.625  0.1209  0.2713 -0.0485
14939SOL    HW146301   4.740   6.852   1.662 -1.3701 -0.1627  0.1889
14939SOL    HW246302   4.755   6.941   1.540  1.6980  0.1439  0.7342
14940SOL     OW46303   6.689   2.740   2.234  0.3636  0.3419  0.1692
14940SOL    HW146304   6.683   2.653   2.193  0.5424 -0.7442  2.4132
14940SOL    HW246305   6.598   2.766   2.249  0.3777 -1.1603  3.0056
14941SOL     OW46306   7.738   7.728   6.539 -0.4595 -0.1908  0.1478
14941SOL    HW146307   7.702   7.789   6.475  1.6382  1.1224  0.1671
14941SOL    HW246308   7.684   7.740   6.617  0.3316  2.1560  0.3725
14942SOL     OW46309   2.664   4.376   5.401  0.3437  0.2543 -0.2278
14942SOL    HW146310   2.699   4.346   5.485  0.8966  0.3835 -0.4141
14942SOL    HW246311   2.702   4.462   5.388  0.4898  0.1108 -0.7541
14943SOL     OW46312   3.596   3.762   3.412  0.3251  0.5806  0.8169
14943SOL    HW146313   3.643   3.777   3.330  0.3761 -1.5197  0.4327
14943SOL    HW246314   3.664   3.740   3.476  0.1327  0.4910  0.9922
14944SOL     OW46315   0.313   5.118   6.074  0.3718  0.7148 -0.2317
14944SOL    HW146316   0.289   5.177   6.146  2.5080  0.0320  1.0875
14944SOL    HW246317   0.408   5.112   6.078  0.2582 -2.4369 -0.6255
14945SOL     OW46318   7.692   8.238   6.731  0.2904 -0.0588  0.4001
14945SOL    HW146319   7.707   8.167   6.668 -0.1686  0.5927 -0.4545
14945SOL    HW246320   7.776   8.284   6.735  0.4724 -0.4112  0.6572
14946SOL     OW46321   8.259   2.483   2.558 -0.4767 -0.4812  0.0897
14946SOL    HW146322   8.280   2.573   2.585  0.3106 -0.9257  0.9830
14946SOL    HW246323   8.292   2.476   2.469 -1.5197  0.4547 -0.3877
14947SOL     OW46324   8.039   6.749   3.613 -0.4041 -0.1554 -0.0478
14947SOL    HW146325   8.012   6.676   3.558  1.2458 -0.8343  0.0266
14947SOL    HW246326   8.031   6.716   3.702  0.4138 -0.2882 -0.0163
14948SOL     OW46327   4.505   7.083   0.544  0.0372  0.4912  0.0210
14948SOL    HW146328   4.467   7.168   0.522 -1.3228  0.2544  1.3525
14948SOL    HW246329   4.535   7.093   0.634  0.9663 -0.0796 -0.2243
14949SOL     OW46330   0.426   6.165   4.405 -0.1300  0.3813  0.0708
14949SOL    HW146331   0.373   6.165   4.485  0.3113 -3.0027  0.4172
14949SOL    HW246332   0.514   6.187   4.435 -0.0179 -0.6164  0.4952
14950SOL     OW46333   3.128   1.919   0.905 -0.3002  0.1090  0.4082
14950SOL    HW146334   3.131   1.827   0.930  0.6996 -0.6654 -2.4160
14950SOL    HW246335   3.046   1.928   0.856 -0.4843  0.7505  0.8332
14951SOL     OW46336   1.897   0.917   3.713  0.0764 -0.0988  0.5155
14951SOL    HW146337   1.957   0.928   3.787 -0.3601 -0.2673  0.8968
14951SOL    HW246338   1.829   0.859   3.746  1.1909 -2.1943 -0.7877
14952SOL     OW46339   7.941   0.304   3.444 -0.9009  0.3182 -0.7814
14952SOL    HW146340   7.938   0.310   3.540 -0.9884 -0.2747 -0.7465
14952SOL    HW246341   8.034   0.294   3.424 -1.1454 -3.0912 -0.5296
14953SOL     OW46342   1.725   1.138   6.831  0.5395  0.2312 -0.1798
14953SOL    HW146343   1.734   1.102   6.919 -1.5747 -0.0833 -0.0769
14953SOL    HW246344   1.780   1.082   6.776  1.3948  0.0700  0.8213
14954SOL     OW46345   5.248   4.191   2.459 -0.2787  0.2433 -0.0048
14954SOL    HW146346   5.188   4.261   2.433  0.8258  1.1301 -0.1945
14954SOL    HW246347   5.215   4.113   2.413  0.2450  1.2691 -2.1840
14955SOL     OW46348   0.850   6.344   7.341 -0.5153  0.0795 -0.5872
14955SOL    HW146349   0.930   6.298   7.365 -0.8061 -0.8703 -1.3885
14955SOL    HW246350   0.779   6.288   7.375 -0.8362  1.0117  0.2992
14956SOL     OW46351   6.395   4.425   4.550  0.2651  0.4670  0.4839
14956SOL    HW146352   6.330   4.463   4.610  0.5384  1.9286 -0.1178
14956SOL    HW246353   6.390   4.481   4.472  0.8109 -0.6498 -0.3659
14957SOL     OW46354   0.533   4.084   7.646 -0.0195 -0.4260 -0.1797
14957SOL    HW146355   0.628   4.094   7.646 -0.1563  0.9361 -0.1834
14957SOL    HW246356   0.502   4.146   7.580 -0.9647 -0.2301  0.4417
14958SOL     OW46357   6.587   7.608   0.090 -0.6027 -0.0257 -0.1385
14958SOL    HW146358   6.581   7.679   0.027  0.3837  0.0881 -0.1112
14958SOL    HW246359   6.541   7.535   0.048 -0.7626  0.3285 -0.5826
14959SOL     OW46360   3.876   3.686   0.774 -0.1520 -0.1230  0.1832
14959SOL    HW146361   3.890   3.615   0.711 -1.6605  0.4634 -0.8318
14959SOL    HW246362   3.851   3.761   0.721  0.1189  0.8187  1.3638
14960SOL     OW46363   3.767   5.974   1.716 -0.6630  0.1395  0.1126
14960SOL    HW146364   3.772   5.891   1.669  0.8375  0.9265 -1.1535
14960SOL    HW246365   3.770   5.949   1.809 -1.0743 -1.2705 -0.2505
14961SOL     OW46366   5.884   3.462   0.377 -0.0050 -0.0119 -0.1108
14961SOL    HW146367   5.868   3.481   0.285 -0.6762  0.2710  0.0569
14961SOL    HW246368   5.930   3.377   0.377  0.2097  0.1056 -0.7103
14962SOL     OW46369   2.270   5.075   6.046 -0.1985 -0.6908  0.2281
14962SOL    HW146370   2.260   5.005   6.109 -0.5101  0.4711  1.4889
14962SOL    HW246371   2.346   5.049   5.993 -0.6635 -2.2337  0.2924
14963SOL     OW46372   4.167   3.155   4.303  0.2094  0.2885  0.7584
14963SOL    HW146373   4.099   3.092   4.328  1.6875 -1.9007 -0.6024
14963SOL    HW246374   4.221   3.165   4.381  0.3169 -0.6126  0.8044
14964SOL     OW46375   7.857   8.207   1.455 -0.7747 -0.0888  0.0499
14964SOL    HW146376   7.801   8.216   1.378  0.2384  0.4485 -0.6207
14964SOL    HW246377   7.945   8.228   1.425 -0.4099  0.4386  1.4135
14965SOL     OW46378   2.093   4.982   3.354  0.1823 -0.0043 -0.1612
14965SOL    HW146379   2.184   5.001   3.378 -0.1731  2.4274 -0.5956
14965SOL    HW246380   2.100   4.928   3.276  1.2795  0.4086 -0.3672
14966SOL     OW46381   5.239   7.329   5.976 -0.7812  0.8376  0.2040
14966SOL    HW146382   5.205   7.250   5.935 -0.1554  0.6506  0.0389
14966SOL    HW246383   5.264   7.301   6.064 -1.1255  0.9917  0.3516
14967SOL     OW46384   6.788   6.744   5.296  0.6176  0.5388  0.1691
14967SOL    HW146385   6.829   6.662   5.324  0.6847  0.9933  1.4357
14967SOL    HW246386   6.860   6.795   5.259  0.8679  0.6011  0.7248
14968SOL     OW46387   6.387   4.605   5.683 -0.1775  0.3412  0.2998
14968SOL    HW146388   6.345   4.590   5.768 -0.2629  0.6687  0.3188
14968SOL    HW246389   6.360   4.694   5.660 -2.0301 -0.5545 -1.1512
14969SOL     OW46390   5.936   2.703   5.247  1.0135 -0.4270 -0.3820
14969SOL    HW146391   5.938   2.772   5.181  0.7058 -0.8693 -0.8621
14969SOL    HW246392   5.864   2.727   5.305 -0.4488 -1.3973 -1.7272
14970SOL     OW46393   2.249   6.280   6.333 -0.6036  0.0352  0.0439
14970SOL    HW146394   2.305   6.206   6.357 -2.8551 -1.6810  0.1238
14970SOL    HW246395   2.164   6.241   6.315 -2.3053  2.8315  1.7701
14971SOL     OW46396   2.075   2.716   8.143  0.5702  0.4589 -0.0316
14971SOL    HW146397   2.026   2.645   8.184  1.1917 -0.6224 -1.1404
14971SOL    HW246398   2.029   2.796   8.170 -0.5956 -0.4072  0.5778
14972SOL     OW46399   8.055   7.737   4.249  0.0031  0.2469  0.1894
14972SOL    HW146400   8.018   7.800   4.186  0.3519  1.2131  0.9336
14972SOL    HW246401   7.981   7.715   4.306 -0.4329 -0.9995 -0.8413
14973SOL     OW46402   5.047   3.322   2.263  0.2978 -0.3772 -0.0375
14973SOL    HW146403   4.952   3.338   2.261  0.6855  1.9263 -2.1487
14973SOL    HW246404   5.063   3.263   2.189  0.9248  2.0297 -1.8896
14974SOL     OW46405   2.396   4.075   0.001  0.0722 -0.2392  0.1038
14974SOL    HW146406   2.353   4.088   0.086  0.4868 -1.5978  0.5216
14974SOL    HW246407   2.324   4.058  -0.059 -0.2260  0.7384  0.1741
14975SOL     OW46408   6.326   1.851   7.953 -0.0854 -0.3380  0.2292
14975SOL    HW146409   6.292   1.940   7.942  2.0601  0.6491  1.2362
14975SOL    HW246410   6.385   1.839   7.879  0.8167 -0.3121  0.9268
14976SOL     OW46411   2.643   6.437   1.135  0.7732  0.1330 -0.2944
14976SOL    HW146412   2.712   6.427   1.070 -1.5718  0.0483 -2.8833
14976SOL    HW246413   2.621   6.530   1.133  0.4091  0.0544  0.0411
14977SOL     OW46414   6.821   7.085   6.799 -0.2562 -0.5485 -0.3275
14977SOL    HW146415   6.757   7.127   6.742  0.6666  0.2661 -0.7664
14977SOL    HW246416   6.768   7.030   6.857 -1.2583 -0.8202 -1.4749
14978SOL     OW46417   2.338   3.239   4.816 -0.5723  0.3714 -0.1970
14978SOL    HW146418   2.314   3.179   4.887 -1.0048 -0.4128 -0.9939
14978SOL    HW246419   2.433   3.232   4.809 -0.7246 -1.0005 -0.9638
14979SOL     OW46420   4.105   4.656   7.939  0.7825  0.1746 -0.1133
14979SOL    HW146421   4.071   4.656   8.029  0.1110 -0.5427 -0.3659
14979SOL    HW246422   4.114   4.564   7.916  1.8770  0.3584 -0.4466
14980SOL     OW46423   2.097   7.625   8.190  0.1672 -0.2296  0.1974
14980SOL    HW146424   2.123   7.536   8.167 -1.9966 -0.4751 -1.5342
14980SOL    HW246425   2.033   7.615   8.260  2.4383  0.1930  2.3809
14981SOL     OW46426   4.641   5.627   1.796  0.3331 -0.3908  0.2748
14981SOL    HW146427   4.656   5.593   1.708 -2.6163  0.8370 -0.7581
14981SOL    HW246428   4.680   5.714   1.795 -1.6857  0.5357 -0.5915
14982SOL     OW46429   2.290   1.143   5.826  0.3675 -0.1526 -0.1871
14982SOL    HW146430   2.361   1.082   5.807 -0.9163 -1.0485 -2.3829
14982SOL    HW246431   2.215   1.087   5.845 -0.5236  0.7375 -1.0238
14983SOL     OW46432   7.801   5.364   2.985 -0.0871 -0.3938 -0.4371
14983SOL    HW146433   7.830   5.333   2.899  2.3228 -0.2463  0.2732
14983SOL    HW246434   7.815   5.459   2.982 -1.3383 -0.2113 -0.3778
14984SOL     OW46435   3.543   0.057   4.431 -0.2992  0.2491 -0.0998
14984SOL    HW146436   3.489   0.090   4.503  2.4845 -0.5528  2.4832
14984SOL    HW246437   3.516  -0.034   4.420  0.2154 -0.0375  0.9226
14985SOL     OW46438   4.497   2.502   7.446  0.0451  0.3520  0.4894
14985SOL    HW146439   4.463   2.572   7.502 -1.6324 -0.0576  0.0045
14985SOL    HW246440   4.430   2.434   7.449  0.6358 -0.3055 -0.8167
14986SOL     OW46441   5.091   3.913   3.545 -0.2021  0.6472 -0.1364
14986SOL    HW146442   5.059   3.903   3.635  1.0406 -1.2086  0.1225
14986SOL    HW246443   5.031   3.977   3.506 -0.8474  1.3755  1.9515
14987SOL     OW46444   4.519   3.497   3.774 -0.2655 -0.1696 -0.9599
14987SOL    HW146445   4.474   3.578   3.751 -0.6761 -1.2760 -4.2790
14987SOL    HW246446   4.471   3.429   3.727  0.6330 -2.2385  1.0406
14988SOL     OW46447   5.156   6.439   7.724 -0.4021  0.0363  0.4505
14988SOL    HW146448   5.126   6.506   7.785  1.4085  0.3450  1.0278
14988SOL    HW246449   5.245   6.464   7.702 -0.4416 -1.0171 -1.0062
14989SOL     OW46450   7.420   8.059   4.787  0.7652  0.3688  0.1559
14989SOL    HW146451   7.328   8.043   4.810  0.9161  1.2850  1.4144
14989SOL    HW246452   7.428   8.154   4.784  1.9790  0.3150  1.3033
14990SOL     OW46453   2.603   3.965   2.328  0.3358  0.1171  0.2958
14990SOL    HW146454   2.612   3.876   2.361 -1.2113  0.1953  0.9658
14990SOL    HW246455   2.518   3.967   2.285  0.1092  1.4031  0.7726
14991SOL     OW46456   0.874   5.322   7.495 -0.4749 -0.0563 -0.7704
14991SOL    HW146457   0.804   5.262   7.521 -4.0815  3.3820 -2.0978
14991SOL    HW246458   0.893   5.298   7.404 -0.1587 -0.7810 -0.5170
14992SOL     OW46459   2.510   1.455   7.104 -0.4342 -0.2352 -0.1235
14992SOL    HW146460   2.428   1.495   7.075  0.1765  0.2791 -1.1088
14992SOL    HW246461   2.559   1.526   7.145 -0.0638 -0.3334 -0.3946
14993SOL     OW46462   5.641   8.149   2.541  0.2479  0.2526 -0.3873
14993SOL    HW146463   5.632   8.059   2.573 -0.4621  0.9641  1.4708
14993SOL    HW246464   5.735   8.160   2.526  0.4523 -0.5096  0.2885
14994SOL     OW46465   4.018   2.713   3.591 -0.1561  0.2921 -0.2039
14994SOL    HW146466   4.107   2.680   3.585 -0.3773 -1.3163  3.9335
14994SOL    HW246467   3.963   2.641   3.560 -0.1398  0.2696 -0.1798
14995SOL     OW46468   4.879   0.050   4.580  0.0795  0.1269 -0.4616
14995SOL    HW146469   4.821   0.052   4.505  0.2177  0.6621 -0.5528
14995SOL    HW246470   4.908   0.140   4.592 -0.8371  0.2517  0.9290
14996SOL     OW46471   3.186   7.167   5.506 -0.1238  0.3298 -0.4311
14996SOL    HW146472   3.264   7.177   5.561 -0.4971 -0.9057  0.3420
14996SOL    HW246473   3.120   7.222   5.549 -0.4187 -0.6417  0.3881
14997SOL     OW46474   4.298   3.381   3.315 -0.2244  0.3885 -0.3722
14997SOL    HW146475   4.317   3.332   3.395  0.7681 -0.7285 -1.2661
14997SOL    HW246476   4.295   3.472   3.343 -1.3116 -0.0857  1.1846
14998SOL     OW46477   2.691   2.414   2.433 -0.0646  0.1159 -0.4396
14998SOL    HW146478   2.743   2.355   2.488  1.3045 -0.1950 -2.0091
14998SOL    HW246479   2.679   2.365   2.352 -1.8658  0.6509 -0.5121
14999SOL     OW46480   2.598   1.750   0.300  0.2687 -0.1994 -0.3106
14999SOL    HW146481   2.608   1.659   0.327  1.7143  0.3670  1.1323
14999SOL    HW246482   2.651   1.758   0.220  1.8360 -0.1262  0.7181
15000SOL     OW46483   0.695   0.268   0.671 -0.1354 -0.4041 -0.4653
15000SOL    HW146484   0.619   0.236   0.719 -0.2716 -0.1597 -0.5171
15000SOL    HW246485   0.659   0.336   0.613  0.3584  0.7604  0.5725
15001SOL     OW46486   6.470   5.078   7.339  0.2535  0.6415 -0.2238
15001SOL    HW146487   6.548   5.107   7.291  1.2755 -1.9296 -0.1837
15001SOL    HW246488   6.478   4.983   7.343 -1.9875  0.4788  1.3763
15002SOL     OW46489   5.322   2.842   6.158  0.1478  0.6973 -0.7133
15002SOL    HW146490   5.280   2.762   6.128  1.8100 -0.6348  0.4441
15002SOL    HW246491   5.251   2.891   6.201 -0.8259 -0.2144 -1.2483
15003SOL     OW46492   2.718   1.239   0.287 -0.2596 -0.8395  0.3730
15003SOL    HW146493   2.697   1.146   0.284  1.1103 -1.1120 -1.2211
15003SOL    HW246494   2.742   1.261   0.197 -1.5844  1.3007  0.5170
15004SOL     OW46495   2.537   1.026   4.578 -0.1574  0.0401 -0.7694
15004SOL    HW146496   2.483   1.102   4.557 -0.2679  0.1130 -0.2222
15004SOL    HW246497   2.480   0.969   4.630 -0.1560 -0.5346 -1.3837
15005SOL     OW46498   0.772   1.355   3.129 -0.5460  0.1513 -0.2848
15005SOL    HW146499   0.680   1.373   3.109 -0.8806 -1.9475 -0.7342
15005SOL    HW246500   0.771   1.313   3.215  0.1955  1.9723  0.6362
15006SOL     OW46501   5.052   6.454   1.620 -0.3669  0.3320  0.1103
15006SOL    HW146502   5.129   6.462   1.677 -0.3361  2.0714 -0.1703
15006SOL    HW246503   5.003   6.534   1.634 -1.7929 -0.4660 -0.2463
15007SOL     OW46504   3.881   2.451   3.878 -0.1468 -0.4998  0.0588
15007SOL    HW146505   3.880   2.526   3.818 -0.1989 -1.0319 -0.6182
15007SOL    HW246506   3.877   2.490   3.965 -0.7411  0.2708 -0.2977
15008SOL     OW46507   6.464   0.511   5.831 -0.3157 -0.3337  0.3250
15008SOL    HW146508   6.555   0.482   5.836 -0.4960 -0.5944  2.0517
15008SOL    HW246509   6.466   0.601   5.864 -0.5498  0.0019 -0.5376
15009SOL     OW46510   2.025   3.669   3.555 -0.3539  0.2390 -0.0921
15009SOL    HW146511   2.016   3.665   3.460  0.3422  0.0947 -0.1560
15009SOL    HW246512   2.009   3.761   3.577 -0.3895  0.2981 -0.3671
15010SOL     OW46513   6.094   3.049   8.017  0.0910  0.0376  0.0549
15010SOL    HW146514   6.158   3.064   8.086 -1.3471  1.5658  1.0741
15010SOL    HW246515   6.141   3.067   7.936  0.6741  2.2152  0.8486
15011SOL     OW46516   8.144   8.214   5.393 -0.8082 -0.1132  0.6077
15011SOL    HW146517   8.160   8.121   5.381 -2.5556 -0.3773  0.1990
15011SOL    HW246518   8.229   8.250   5.419  0.4616 -1.3760 -1.6906
15012SOL     OW46519   8.193   1.544   0.359  0.9714 -0.0680 -0.1196
15012SOL    HW146520   8.218   1.616   0.416  0.3714 -0.2725  0.4144
15012SOL    HW246521   8.230   1.566   0.274 -1.5641  2.2542 -0.6724
15013SOL     OW46522   7.091   6.205   2.276 -0.0886  0.3609  0.0211
15013SOL    HW146523   7.116   6.247   2.358 -0.2630 -0.6155  0.5811
15013SOL    HW246524   7.148   6.246   2.210  1.4852 -0.2828  0.9382
15014SOL     OW46525   6.982   8.200   0.500  0.2538 -0.3844  0.1454
15014SOL    HW146526   6.977   8.270   0.565 -0.7571  0.3055 -0.6698
15014SOL    HW246527   6.970   8.245   0.416 -0.7720 -1.5864 -0.3541
15015SOL     OW46528   4.139   5.403   4.685 -0.1912  0.4589 -0.1544
15015SOL    HW146529   4.191   5.480   4.660 -0.0315  0.2161 -0.5726
15015SOL    HW246530   4.104   5.425   4.772 -0.2870  1.0748 -0.3469
15016SOL     OW46531   3.797   6.225   1.652  0.1602  0.1211  0.1441
15016SOL    HW146532   3.885   6.262   1.659  0.3352  0.1052 -1.6808
15016SOL    HW246533   3.805   6.137   1.689  1.1118 -0.1553 -0.6750
15017SOL     OW46534   1.063   2.363   2.500 -0.2620 -0.5752  0.1855
15017SOL    HW146535   1.105   2.299   2.443 -1.6601 -0.3877 -1.0790
15017SOL    HW246536   1.057   2.319   2.585  0.9559 -1.2125 -0.0416
15018SOL     OW46537   2.298   6.524   7.781  0.3909  0.2343 -0.0556
15018SOL    HW146538   2.383   6.496   7.748  0.0534 -1.4268  0.4457
15018SOL    HW246539   2.235   6.469   7.734 -0.2982  0.2405  0.8603
15019SOL     OW46540   0.500   5.936   6.357 -0.0183 -0.1941 -0.2901
15019SOL    HW146541   0.483   6.012   6.413  1.4257  0.0935 -0.2192
15019SOL    HW246542   0.532   5.869   6.418  0.6630 -0.1863 -0.6389
15020SOL     OW46543   4.060   5.484   1.045 -0.5222 -0.0754  0.3000
15020SOL    HW146544   4.061   5.557   1.106 -0.2373  0.1879 -0.0168
15020SOL    HW246545   4.064   5.406   1.101 -0.4390  0.1591  0.6237
15021SOL     OW46546   4.275   3.974   7.290  0.2996 -1.2465 -0.2341
15021SOL    HW146547   4.324   3.993   7.370  0.1459 -2.0323  0.0529
15021SOL    HW246548   4.340   3.980   7.220  0.2129  0.5346 -0.1922
15022SOL     OW46549   7.224   2.674   1.188  0.3184  0.0411 -0.3650
15022SOL    HW146550   7.161   2.607   1.161 -0.6636  1.2469 -1.1455
15022SOL    HW246551   7.271   2.696   1.108  0.3454  0.5894 -0.1987
15023SOL     OW46552   5.637   5.445   0.939  0.0920 -0.0945 -0.7133
15023SOL    HW146553   5.578   5.376   0.910  0.3763 -0.7183  0.1484
15023SOL    HW246554   5.595   5.482   1.017  1.4469 -1.4365  0.6935
15024SOL     OW46555   2.292   6.194   7.884 -0.1695  0.4002  0.5786
15024SOL    HW146556   2.349   6.271   7.881 -0.3094  0.4650 -0.8609
15024SOL    HW246557   2.260   6.191   7.973  1.3489  0.9096  1.1584
15025SOL     OW46558   2.869   5.190   0.054  0.7951  0.2542 -0.0230
15025SOL    HW146559   2.809   5.199  -0.021 -0.3009  0.1013  0.8173
15025SOL    HW246560   2.920   5.111   0.035 -0.7150 -0.8054  0.2389
15026SOL     OW46561   0.819   6.165   6.589  0.1373  0.2017  0.4997
15026SOL    HW146562   0.854   6.093   6.536 -1.5887 -0.1455 -0.2035
15026SOL    HW246563   0.893   6.225   6.599  0.9873 -0.5868 -0.7972
15027SOL     OW46564   2.909   5.046   1.471  0.4237 -0.3154  0.1610
15027SOL    HW146565   2.857   4.970   1.495  1.4116 -1.4057 -1.0360
15027SOL    HW246566   2.993   5.032   1.515  0.3246  0.5128  0.6188
15028SOL     OW46567   7.891   3.772   7.434 -0.3615 -0.3144  0.1942
15028SOL    HW146568   7.916   3.839   7.498  0.2671  0.7652 -1.1564
15028SOL    HW246569   7.938   3.693   7.462  1.2877  0.6016  0.0735
15029SOL     OW46570   2.931   5.866   5.683 -0.6427 -0.2712 -0.3097
15029SOL    HW146571   2.982   5.911   5.750 -1.2802  1.0191 -0.6650
15029SOL    HW246572   2.860   5.927   5.662 -0.0147 -0.2961 -2.7223
15030SOL     OW46573   6.086   6.668   3.523  0.3672  0.4752 -0.7577
15030SOL    HW146574   6.029   6.745   3.523  1.0270  1.0517  2.4188
15030SOL    HW246575   6.030   6.597   3.555  1.4060  1.1122  2.6793
15031SOL     OW46576   4.047   1.131   1.861 -0.0949  0.1278 -0.5329
15031SOL    HW146577   4.122   1.177   1.824 -0.1927 -0.8691 -1.9826
15031SOL    HW246578   4.067   1.124   1.955  0.5415  1.8951 -0.5191
15032SOL     OW46579   1.878   3.998   5.268  0.6567  0.1729  0.1501
15032SOL    HW146580   1.948   4.008   5.333  2.0780 -2.3834 -0.9387
15032SOL    HW246581   1.862   4.087   5.237  2.1209  1.0262  1.7536
15033SOL     OW46582   2.772   3.418   2.288 -0.6636 -0.1368  0.0648
15033SOL    HW146583   2.789   3.445   2.378 -0.5683 -0.5188  0.1619
15033SOL    HW246584   2.824   3.338   2.277 -0.0474  0.3560 -0.5844
15034SOL     OW46585   3.414   2.073   6.454  0.2059  0.2510 -0.1300
15034SOL    HW146586   3.372   2.154   6.483  1.3291  0.8445 -0.1454
15034SOL    HW246587   3.439   2.090   6.364 -0.8339 -0.6316 -0.6011
15035SOL     OW46588   7.370   6.856   0.633  0.5085 -0.2220 -0.4599
15035SOL    HW146589   7.307   6.918   0.668 -1.2818 -1.6496 -1.1248
15035SOL    HW246590   7.366   6.869   0.538  2.3450  0.7426 -0.4345
15036SOL     OW46591   3.365   3.326   5.915 -0.0390  0.4818 -0.1340
15036SOL    HW146592   3.285   3.349   5.868  0.1189  0.6151 -0.3336
15036SOL    HW246593   3.435   3.338   5.852  0.0800 -0.2173 -0.1325
15037SOL     OW46594   7.229   0.191   5.285  0.3862 -0.4375 -0.4024
15037SOL    HW146595   7.176   0.248   5.228  1.4680 -0.0275 -1.0095
15037SOL    HW246596   7.165   0.136   5.330 -0.4533 -1.1831 -2.4733
15038SOL     OW46597   5.620   1.177   0.671 -0.4248  0.0605  0.6330
15038SOL    HW146598   5.636   1.102   0.729 -2.3230 -0.2998  0.7193
15038SOL    HW246599   5.626   1.141   0.583 -2.0338 -0.3729  0.6807
15039SOL     OW46600   2.104   6.316   7.547  0.1158 -0.0311 -0.4119
15039SOL    HW146601   2.100   6.410   7.561  0.9837  0.0784 -0.8229
15039SOL    HW246602   2.124   6.306   7.454 -2.4894 -0.6817 -0.9309
15040SOL     OW46603   2.035   4.181   4.082  0.6401 -0.1312 -0.2421
15040SOL    HW146604   2.036   4.088   4.103  1.4933  0.2228  1.3981
15040SOL    HW246605   2.008   4.223   4.164 -0.5122  1.0033 -1.1973
15041SOL     OW46606   4.468   3.484   2.204 -0.3364  0.2152 -0.1025
15041SOL    HW146607   4.552   3.495   2.159 -1.0722 -0.2721 -1.6279
15041SOL    HW246608   4.487   3.507   2.295  0.9856  2.0686 -0.8104
15042SOL     OW46609   3.359   5.721   2.806  0.1832  0.3902  0.0562
15042SOL    HW146610   3.310   5.679   2.877 -0.4597 -0.3110 -0.8080
15042SOL    HW246611   3.291   5.759   2.750  0.6710  0.2936 -0.5934
15043SOL     OW46612   4.125   6.258   4.258  0.2391 -0.8171  0.3313
15043SOL    HW146613   4.063   6.253   4.331  0.5522 -1.3341  0.5682
15043SOL    HW246614   4.130   6.351   4.237 -0.3596 -0.7382  0.5352
15044SOL     OW46615   1.600   6.566   7.193 -0.2846 -0.0829 -0.5466
15044SOL    HW146616   1.643   6.509   7.130 -1.0757 -0.2835 -0.9132
15044SOL    HW246617   1.615   6.654   7.159 -0.1631 -0.1504 -0.6697
15045SOL     OW46618   8.171   4.063   7.847  0.4895  0.3389 -0.0603
15045SOL    HW146619   8.194   4.030   7.760 -0.4110 -0.0731 -0.1546
15045SOL    HW246620   8.079   4.088   7.839  0.1502 -0.5305  1.0173
15046SOL     OW46621   2.533   0.564   5.220  0.3037 -0.0091  0.0312
15046SOL    HW146622   2.567   0.651   5.238 -0.1367  0.3719 -0.9253
15046SOL    HW246623   2.447   0.579   5.182 -0.6813 -0.9357  1.8015
15047SOL     OW46624   2.444   5.979   7.997 -0.3747  0.2547 -0.1532
15047SOL    HW146625   2.367   6.010   7.947 -4.1292 -1.1846  4.3834
15047SOL    HW246626   2.487   6.060   8.025 -0.9204  1.1109 -1.6646
15048SOL     OW46627   5.832   7.536   0.947 -0.0789 -0.2867  0.0514
15048SOL    HW146628   5.903   7.577   0.996  1.6156 -1.0058 -1.7812
15048SOL    HW246629   5.774   7.609   0.924 -1.2182  0.0001  3.5710
15049SOL     OW46630   6.528   3.415   1.144 -0.3984 -0.1297  0.2627
15049SOL    HW146631   6.536   3.408   1.049  1.1779 -1.8907  0.4777
15049SOL    HW246632   6.448   3.465   1.159 -1.9101 -1.8112 -1.9639
15050SOL     OW46633   3.122   7.859   3.026 -0.0792  0.0997 -0.3448
15050SOL    HW146634   3.169   7.787   2.984  0.5394  0.0494  0.4166
15050SOL    HW246635   3.071   7.818   3.096  2.3105  0.6732  1.8133
15051SOL     OW46636   8.138   3.628   5.025  0.1088  0.3903 -0.4465
15051SOL    HW146637   8.081   3.594   4.956  0.4810  0.4835 -0.8022
15051SOL    HW246638   8.172   3.550   5.069  0.2918  0.3149 -0.7159
15052SOL     OW46639   6.958   3.523   7.780  0.1984  0.7501 -0.3917
15052SOL    HW146640   7.053   3.512   7.777  0.1979  0.5560  0.3588
15052SOL    HW246641   6.940   3.567   7.863 -0.4665 -0.3097  0.0396
15053SOL     OW46642   6.548   6.943   3.467  0.7821  0.5309  0.5402
15053SOL    HW146643   6.517   6.900   3.387  1.0119  0.7925  0.3095
15053SOL    HW246644   6.474   6.997   3.495  0.6850  0.4045  0.5268
15054SOL     OW46645   0.398   7.310   8.241  0.6270 -0.4165 -0.0129
15054SOL    HW146646   0.482   7.313   8.196  0.9601  1.5221  0.6772
15054SOL    HW246647   0.419   7.283   8.330  0.5488  0.2733  0.2155
15055SOL     OW46648   6.534   2.551   2.876  0.5561 -0.0939  0.0854
15055SOL    HW146649   6.544   2.642   2.905  2.1232 -0.8347  1.9262
15055SOL    HW246650   6.592   2.543   2.801  1.4626  0.0445  0.7747
15056SOL     OW46651   1.130   2.776   7.833  0.1507  0.6136 -0.5373
15056SOL    HW146652   1.183   2.717   7.779  2.1114  1.0567  0.8914
15056SOL    HW246653   1.191   2.814   7.896 -2.0282  0.3900  1.7970
15057SOL     OW46654   3.987   2.801   4.536  0.1676  0.1232  0.1429
15057SOL    HW146655   3.905   2.834   4.572 -0.0215  0.6862 -0.7782
15057SOL    HW246656   4.009   2.725   4.590 -1.0417 -0.1198  0.2926
15058SOL     OW46657   6.673   1.679   6.560  0.1367 -0.2422 -0.2488
15058SOL    HW146658   6.698   1.606   6.616 -2.4557 -1.4595 -0.5767
15058SOL    HW246659   6.694   1.757   6.611  0.7366 -1.2780  1.1092
15059SOL     OW46660   6.872   1.995   3.942  0.0391 -0.7151 -0.8939
15059SOL    HW146661   6.783   1.972   3.969  0.0566  1.3017  1.1008
15059SOL    HW246662   6.861   2.066   3.879  0.2090 -0.8180 -1.0407
15060SOL     OW46663   0.571   5.748   2.159 -0.2829  0.3343 -0.7622
15060SOL    HW146664   0.565   5.800   2.239 -0.3363 -0.8957  0.0531
15060SOL    HW246665   0.615   5.805   2.096  0.8413  0.9054  0.5110
15061SOL     OW46666   7.494   0.808   1.441 -0.5693  0.4469 -0.1144
15061SOL    HW146667   7.407   0.811   1.402 -0.7669 -0.6246  0.2160
15061SOL    HW246668   7.488   0.861   1.520  0.2086  3.8284 -2.2067
15062SOL     OW46669   2.747   7.118   5.817  0.6806 -0.4607 -0.1279
15062SOL    HW146670   2.812   7.059   5.857  0.9809  1.2769  2.0047
15062SOL    HW246671   2.670   7.110   5.873 -0.9520 -2.3483 -2.5330
15063SOL     OW46672   3.892   2.238   3.122  0.1245 -0.4211  0.1668
15063SOL    HW146673   3.966   2.212   3.067 -0.6574 -1.6457 -0.3325
15063SOL    HW246674   3.822   2.176   3.100 -0.5115 -0.3496  1.8498
15064SOL     OW46675   1.376   7.403   6.743  0.3169 -0.1970 -0.2017
15064SOL    HW146676   1.436   7.382   6.815 -2.1251 -0.9861  1.6889
15064SOL    HW246677   1.337   7.487   6.768 -0.5217 -0.4623 -0.6122
15065SOL     OW46678   7.891   2.431   6.648  0.2447  0.1809  0.7847
15065SOL    HW146679   7.830   2.404   6.717 -1.2318 -1.3853 -1.0804
15065SOL    HW246680   7.854   2.512   6.613 -0.6870 -0.6665 -0.2170
15066SOL     OW46681   4.173   1.830   5.887 -0.1786  0.3292 -0.1503
15066SOL    HW146682   4.140   1.916   5.916  0.2825 -0.2013  2.0998
15066SOL    HW246683   4.268   1.840   5.888 -0.1668  0.4549 -2.0847
15067SOL     OW46684   7.288   4.372   7.741 -0.2816 -0.4230  0.2369
15067SOL    HW146685   7.308   4.286   7.777  1.1904 -0.3089 -0.2770
15067SOL    HW246686   7.193   4.379   7.746 -0.5566 -2.6999 -1.1259
15068SOL     OW46687   3.751   5.899   7.008  0.1553  0.1159 -0.1689
15068SOL    HW146688   3.810   5.878   7.080 -1.3300  1.7496  1.5632
15068SOL    HW246689   3.746   5.995   7.008 -1.9863  0.0273 -0.7204
15069SOL     OW46690   8.157   2.197   6.927 -0.4312 -0.0481  0.1420
15069SOL    HW146691   8.134   2.289   6.940 -0.4418  0.0238 -0.3915
15069SOL    HW246692   8.184   2.191   6.836  1.3987 -0.1835  0.6650
15070SOL     OW46693   2.871   0.811   3.990  0.2656 -0.1782 -0.2668
15070SOL    HW146694   2.779   0.796   4.013  0.0832  1.8375  0.4186
15070SOL    HW246695   2.915   0.729   4.014 -1.3479 -1.1746 -0.6343
15071SOL     OW46696   6.982   7.851   8.140  0.4071  0.1339  0.1089
15071SOL    HW146697   6.954   7.759   8.136  1.7644 -0.2975  0.0167
15071SOL    HW246698   7.025   7.867   8.056  1.5968  0.3645  0.7533
15072SOL     OW46699   8.068   6.426   2.439  0.3682  0.3291 -0.1848
15072SOL    HW146700   8.097   6.335   2.449  0.3756  0.2543 -0.8760
15072SOL    HW246701   8.084   6.446   2.347  1.1214  1.2875  0.1426
15073SOL     OW46702   8.057   4.693   4.728  0.7419  0.1828 -0.3642
15073SOL    HW146703   8.061   4.612   4.677  0.1626  0.3066 -0.6182
15073SOL    HW246704   8.006   4.753   4.673  1.3848  0.8007 -0.2867
15074SOL     OW46705   3.140   7.444   5.236  0.8681  0.5901 -0.5030
15074SOL    HW146706   3.224   7.478   5.207 -0.1474  3.7749  0.1308
15074SOL    HW246707   3.127   7.481   5.323 -0.2128 -1.6671  0.3628
15075SOL     OW46708   6.424   7.962   3.499 -0.4336  0.2083 -0.5772
15075SOL    HW146709   6.375   7.902   3.554 -0.9485  0.2141 -1.0233
15075SOL    HW246710   6.514   7.931   3.502 -0.8432 -1.1022 -1.4953
15076SOL     OW46711   4.114   4.843   3.036 -0.0403  0.5064 -0.2109
15076SOL    HW146712   4.024   4.833   3.004 -0.5758  3.8727  0.0612
15076SOL    HW246713   4.160   4.884   2.963  1.2695 -1.1516 -0.3242
15077SOL     OW46714   5.794   8.100   5.920  0.2335  0.3985 -0.0467
15077SOL    HW146715   5.702   8.102   5.896  0.4936  0.9592 -0.9896
15077SOL    HW246716   5.839   8.147   5.851  1.4449 -1.3619 -0.5108
15078SOL     OW46717   5.753   2.045   4.123  0.1375  0.6482 -0.0202
15078SOL    HW146718   5.674   2.035   4.175 -0.6179  4.4964 -0.2721
15078SOL    HW246719   5.825   2.032   4.186 -0.7362  0.8135  1.0268
15079SOL     OW46720   6.092   7.175   0.268  1.2358 -0.3006  0.1031
15079SOL    HW146721   6.134   7.124   0.338 -0.1265  0.7416  1.7397
15079SOL    HW246722   6.084   7.263   0.305 -1.3645 -0.2209 -0.5629
15080SOL     OW46723   6.207   7.709   2.761 -0.3121  0.5072 -0.1713
15080SOL    HW146724   6.237   7.767   2.691 -0.0731  2.1808  1.2820
15080SOL    HW246725   6.254   7.739   2.839 -2.7693  0.5927  1.3241
15081SOL     OW46726   6.238   7.182   5.347  0.0811  0.2974 -0.5045
15081SOL    HW146727   6.159   7.236   5.344 -0.5445 -0.5927 -0.2299
15081SOL    HW246728   6.234   7.138   5.432  1.1012  0.5856 -0.2982
15082SOL     OW46729   5.281   4.000   3.736 -0.2982  0.2448 -0.0982
15082SOL    HW146730   5.256   3.966   3.651 -0.3710  0.0330  0.0077
15082SOL    HW246731   5.375   3.986   3.742 -0.4392 -0.5662  0.2292
15083SOL     OW46732   5.249   4.611   1.337 -0.5214  0.3076  0.0109
15083SOL    HW146733   5.316   4.542   1.344  0.0796  1.0347  1.7311
15083SOL    HW246734   5.264   4.650   1.251  0.2691 -0.5453 -0.2514
15084SOL     OW46735   1.996   4.759   3.938 -0.1314  0.2684  0.6430
15084SOL    HW146736   2.040   4.675   3.930 -0.2873 -0.0597  2.9665
15084SOL    HW246737   1.903   4.739   3.930 -0.1459  0.2631  0.8165
15085SOL     OW46738   1.273   3.587   2.109  0.3534  0.3465  0.0462
15085SOL    HW146739   1.289   3.559   2.199  1.4571 -0.5542 -0.4192
15085SOL    HW246740   1.262   3.506   2.060 -0.2383  0.8310 -0.6357
15086SOL     OW46741   7.644   7.016   2.461  0.2165  0.6634 -0.0994
15086SOL    HW146742   7.723   7.057   2.429  0.8571 -0.6123 -0.1888
15086SOL    HW246743   7.598   6.986   2.382  0.1540  0.4868  0.0024
15087SOL     OW46744   4.366   0.934   8.104  0.6602  0.9797  0.4080
15087SOL    HW146745   4.360   0.925   8.199  0.5673  0.7371  0.3791
15087SOL    HW246746   4.351   1.027   8.088 -2.6679  0.4840  0.3535
15088SOL     OW46747   4.336   7.459   5.784  0.0946  0.5059  0.1844
15088SOL    HW146748   4.387   7.385   5.752  1.2305  1.7446 -0.9169
15088SOL    HW246749   4.396   7.509   5.839 -1.2548 -0.4762  2.6286
15089SOL     OW46750   5.880   7.435   6.215  0.0251 -0.0122 -0.2991
15089SOL    HW146751   5.930   7.377   6.158  0.2125  0.6566 -0.8273
15089SOL    HW246752   5.929   7.517   6.214  0.2062 -0.1076  1.1074
15090SOL     OW46753   3.944   4.863   6.407 -0.0964 -0.0336  0.3572
15090SOL    HW146754   3.948   4.892   6.316 -0.4150  0.0680  0.3747
15090SOL    HW246755   3.944   4.767   6.402  2.0625 -0.0555  0.3443
15091SOL     OW46756   4.666   0.638   2.089 -0.6396  0.2691  0.3515
15091SOL    HW146757   4.759   0.618   2.076 -0.7139 -0.3191  0.6724
15091SOL    HW246758   4.620   0.577   2.030 -0.8515 -0.1229  0.9148
15092SOL     OW46759   4.919   7.205   0.775 -0.3971  0.0207  0.1434
15092SOL    HW146760   4.953   7.286   0.735  0.1735 -0.4475 -0.3340
15092SOL    HW246761   4.825   7.219   0.783 -0.3066  0.7110  0.0086
15093SOL     OW46762   6.898   2.637   8.288 -0.1537 -0.0228 -0.6304
15093SOL    HW146763   6.832   2.624   8.220 -1.0188 -0.4784  0.2976
15093SOL    HW246764   6.851   2.626   8.370  0.7127  1.3526  0.0716
15094SOL     OW46765   6.061   4.600   1.500 -0.0752  0.2684 -0.2603
15094SOL    HW146766   6.125   4.596   1.429 -1.0055 -0.2748 -1.0774
15094SOL    HW246767   6.078   4.521   1.552 -0.8447 -0.4849 -1.1444
15095SOL     OW46768   3.145   4.718   6.740  0.0777  0.3912 -0.4305
15095SOL    HW146769   3.218   4.709   6.679  0.3721  1.3673 -0.2303
15095SOL    HW246770   3.123   4.811   6.738 -1.3497  0.0551 -0.6976
15096SOL     OW46771   1.867   2.538   0.685  0.5504 -0.1906 -0.0498
15096SOL    HW146772   1.889   2.551   0.778 -1.3626 -3.2339  0.9022
15096SOL    HW246773   1.906   2.454   0.662 -0.5192 -0.3078 -1.5017
15097SOL     OW46774   1.346   6.998   4.576  0.2069 -0.5103  0.3443
15097SOL    HW146775   1.309   7.085   4.567  2.3731  0.3933 -0.2642
15097SOL    HW246776   1.280   6.948   4.624 -0.4210  1.9070  2.1161
15098SOL     OW46777   2.679   5.932   0.615  0.5244 -0.1002  0.1662
15098SOL    HW146778   2.758   5.984   0.632  1.3096 -0.6969 -1.5204
15098SOL    HW246779   2.684   5.860   0.678  1.9440 -0.7727 -0.6805
15099SOL     OW46780   0.007   4.958   5.207  0.0034 -0.4819 -0.2987
15099SOL    HW146781  -0.042   4.875   5.205  0.7779 -0.9995  1.2667
15099SOL    HW246782  -0.048   5.016   5.260  0.8640 -0.9336  1.1071
15100SOL     OW46783   1.221   2.551   7.174 -0.2465  0.1792  0.1378
15100SOL    HW146784   1.247   2.624   7.230 -0.7531 -0.2588  0.9566
15100SOL    HW246785   1.298   2.534   7.120  0.1887  0.7295  0.5730
15101SOL     OW46786   2.246   1.607   0.770  0.1143 -0.6619 -0.0193
15101SOL    HW146787   2.326   1.593   0.820  0.8070 -1.4238 -1.3206
15101SOL    HW246788   2.273   1.664   0.698 -0.6197 -0.5183 -0.1810
15102SOL     OW46789   4.012   0.104   6.667  0.2170 -0.2584 -0.1109
15102SOL    HW146790   4.006   0.133   6.576  1.2363 -0.8457 -0.3788
15102SOL    HW246791   4.031   0.184   6.717  2.2255 -0.3075 -0.7457
15103SOL     OW46792   3.515   1.005   2.790 -0.3170  0.2475  0.5676
15103SOL    HW146793   3.567   0.963   2.722 -0.6066 -0.1598  0.6005
15103SOL    HW246794   3.532   1.099   2.778 -0.2343  0.1658  0.0469
15104SOL     OW46795   1.751   5.396   6.902 -0.7612  0.3449  0.0979
15104SOL    HW146796   1.839   5.379   6.936 -0.8825  1.9623  1.2879
15104SOL    HW246797   1.762   5.473   6.846 -1.2913  0.1054 -0.3358
15105SOL     OW46798   1.914   7.963   0.166 -0.1900 -0.3140  0.0227
15105SOL    HW146799   1.862   7.883   0.164 -2.0264  0.8531 -0.0689
15105SOL    HW246800   1.914   7.989   0.258 -0.5944  0.1945 -0.1149
15106SOL     OW46801   7.396   7.861   4.595 -0.2567 -1.1735  0.1791
15106SOL    HW146802   7.435   7.896   4.675 -0.0709 -2.8043  0.8259
15106SOL    HW246803   7.309   7.901   4.591 -0.1178 -0.7765  1.0052
15107SOL     OW46804   5.457   2.906   4.856  0.3306 -0.7154 -0.5593
15107SOL    HW146805   5.537   2.909   4.804 -0.2813  0.5775 -1.4590
15107SOL    HW246806   5.441   2.997   4.881 -0.4707 -1.0577  0.2108
15108SOL     OW46807   1.804   1.611   1.630  0.0055  0.5344 -0.4380
15108SOL    HW146808   1.797   1.603   1.535  0.3281 -0.9693 -0.3363
15108SOL    HW246809   1.737   1.553   1.664  0.2949  0.6114  0.2629
15109SOL     OW46810   7.289   7.426   0.879 -0.4993  0.2941  0.0526
15109SOL    HW146811   7.196   7.440   0.899 -1.0598 -1.4768 -1.2008
15109SOL    HW246812   7.299   7.455   0.789 -0.3960 -1.7438 -0.6233
15110SOL     OW46813   6.960   5.005   1.192  0.4995  0.5567 -0.2396
15110SOL    HW146814   6.964   5.096   1.164  1.8315  1.1625  1.7488
15110SOL    HW246815   6.968   4.954   1.112  2.6880  2.2135 -1.1160
15111SOL     OW46816   1.855   5.126   6.808 -0.0043 -0.1919  0.1053
15111SOL    HW146817   1.819   5.049   6.766 -0.7963  0.4490 -0.4113
15111SOL    HW246818   1.779   5.172   6.845  0.7746 -1.3976  3.3936
15112SOL     OW46819   4.308   4.958   0.753 -0.1774  0.5116  0.6802
15112SOL    HW146820   4.232   4.960   0.695  1.5425  2.5520 -1.6368
15112SOL    HW246821   4.318   5.049   0.782  1.6301  0.3871  0.5410
15113SOL     OW46822   2.021   2.103   2.390  0.2875  0.2394  0.4307
15113SOL    HW146823   2.064   2.173   2.340  1.8598 -0.2701  1.0466
15113SOL    HW246824   1.964   2.149   2.451 -1.3556  0.8870 -1.5137
15114SOL     OW46825   1.467   7.075   1.862  0.6208  0.1485 -0.4819
15114SOL    HW146826   1.408   7.000   1.850  0.5859  0.4853 -2.5767
15114SOL    HW246827   1.426   7.125   1.932 -0.7635 -0.4493 -0.8227
15115SOL     OW46828   6.863   7.491   2.521  0.1371 -0.0121 -1.0283
15115SOL    HW146829   6.843   7.579   2.554  1.1623  0.4695 -1.6897
15115SOL    HW246830   6.934   7.460   2.577 -0.5675 -0.6354 -0.4620
15116SOL     OW46831   2.485   0.982   7.839  0.0604  0.7192  0.1006
15116SOL    HW146832   2.437   0.903   7.865 -1.5464  1.6062 -0.1007
15116SOL    HW246833   2.554   0.990   7.905 -0.9338  0.1975  1.2385
15117SOL     OW46834   7.054   5.866   4.539  0.1682 -0.1608 -0.5912
15117SOL    HW146835   7.049   5.779   4.579 -1.3722  0.4240  0.5497
15117SOL    HW246836   7.145   5.893   4.551  0.4036 -1.1935 -0.0299
15118SOL     OW46837   0.761   8.273   7.280  0.2119  0.0983  0.2991
15118SOL    HW146838   0.727   8.190   7.313 -0.4264 -0.0651 -0.7335
15118SOL    HW246839   0.833   8.295   7.339 -0.8833 -0.1849  1.7682
15119SOL     OW46840   4.354   5.200   1.247  0.3182  0.1497  0.2148
15119SOL    HW146841   4.387   5.158   1.167 -0.5877 -1.2178  0.5392
15119SOL    HW246842   4.266   5.231   1.224 -0.5297 -1.5579  1.0926
15120SOL     OW46843   0.615   8.120   8.061 -0.0543  0.1453  0.4738
15120SOL    HW146844   0.554   8.193   8.055 -0.4217 -0.1981  0.0571
15120SOL    HW246845   0.628   8.092   7.970  0.3487 -0.0882  0.6040
15121SOL     OW46846   1.343   5.689   7.278 -0.1673 -0.5032 -0.4358
15121SOL    HW146847   1.437   5.672   7.279 -0.5626 -3.1237 -1.7727
15121SOL    HW246848   1.334   5.781   7.303  2.5066 -1.0857  3.0329
15122SOL     OW46849   2.778   5.295   0.291  0.3409  0.0053 -0.4950
15122SOL    HW146850   2.810   5.231   0.227  0.9477  0.7971 -0.9872
15122SOL    HW246851   2.690   5.318   0.260  0.3780 -0.1003 -0.6770
15123SOL     OW46852   4.503   5.121   8.293 -0.1635  0.3403  0.1805
15123SOL    HW146853   4.494   5.096   8.385 -0.6965  1.7785  0.5380
15123SOL    HW246854   4.480   5.041   8.244 -1.7651  0.0896  1.2776
15124SOL     OW46855   2.912   7.142   6.420  0.2346 -0.6634  0.0307
15124SOL    HW146856   2.933   7.151   6.513 -1.8822 -1.1319  0.5857
15124SOL    HW246857   2.964   7.209   6.376  0.5761  0.1404  1.6627
15125SOL     OW46858   1.676   2.563   2.458 -0.0670 -0.2386  0.2828
15125SOL    HW146859   1.674   2.655   2.434 -0.7632 -0.1051  0.8338
15125SOL    HW246860   1.588   2.531   2.438  0.1340 -0.7542  0.2112
15126SOL     OW46861   7.021   4.380   7.815  0.9628 -0.4689 -0.3362
15126SOL    HW146862   6.990   4.296   7.851  1.4210 -0.6779 -0.4220
15126SOL    HW246863   6.958   4.444   7.846 -0.8500 -1.2040 -2.4028
15127SOL     OW46864   3.018   6.032   7.990  0.3479 -1.0298  0.2092
15127SOL    HW146865   3.018   6.113   8.041 -1.2862 -0.4697 -0.6170
15127SOL    HW246866   3.055   5.966   8.049  1.3081  0.2237  1.0341
15128SOL     OW46867   1.040   7.920   5.001 -0.0005  0.1525 -0.4319
15128SOL    HW146868   1.057   7.920   5.095  0.6811  1.6595 -0.5532
15128SOL    HW246869   0.975   7.850   4.989 -0.2983  0.1334  1.1820
15129SOL     OW46870   7.651   1.153   5.616  0.1363  0.2003 -0.6541
15129SOL    HW146871   7.679   1.216   5.682  0.2064 -0.2082 -0.2965
15129SOL    HW246872   7.682   1.190   5.533 -0.3038  0.9116 -0.5052
15130SOL     OW46873   3.670   4.106   4.019 -0.5422 -0.4398 -0.0701
15130SOL    HW146874   3.634   4.155   3.945  0.9599  0.1076 -0.4444
15130SOL    HW246875   3.715   4.172   4.072  0.4730 -1.2168  0.0458
15131SOL     OW46876   1.542   1.042   3.446  0.1102  0.2515  0.4514
15131SOL    HW146877   1.562   1.128   3.484 -0.1330  1.3247 -1.7577
15131SOL    HW246878   1.627   0.997   3.444  0.3312  0.6285  1.1593
15132SOL     OW46879   2.650   4.199   1.978 -0.2057 -0.4550 -0.6453
15132SOL    HW146880   2.737   4.217   2.012 -0.7159  1.2099 -0.1783
15132SOL    HW246881   2.654   4.108   1.947  1.5965 -0.4724 -0.3770
15133SOL     OW46882   4.161   5.249   7.222  0.3078 -0.0472  0.2988
15133SOL    HW146883   4.189   5.181   7.160  0.1294 -0.6442  0.8573
15133SOL    HW246884   4.105   5.202   7.284 -2.1559  1.1931 -0.9537
15134SOL     OW46885   1.565   0.912   7.537  0.0854 -0.2886  0.4249
15134SOL    HW146886   1.476   0.879   7.549  0.1304 -1.8730 -2.9641
15134SOL    HW246887   1.553   1.001   7.503 -0.2887 -0.9502 -1.2528
15135SOL     OW46888   2.223   4.225   0.145  0.2241 -0.2172 -0.5747
15135SOL    HW146889   2.222   4.316   0.114 -0.1227  0.4118  1.1998
15135SOL    HW246890   2.132   4.197   0.140  0.5208 -0.9677 -2.4307
15136SOL     OW46891   5.941   3.005   2.214  0.3716  0.3525 -0.1152
15136SOL    HW146892   6.013   2.997   2.276 -0.1394 -1.7791  0.2211
15136SOL    HW246893   5.872   2.949   2.249 -0.5003  0.3342 -1.8020
15137SOL     OW46894   1.002   7.153   8.236 -0.3258 -0.7009  0.6159
15137SOL    HW146895   1.009   7.164   8.141 -0.4045 -0.7904  0.5999
15137SOL    HW246896   0.978   7.240   8.268 -0.2013 -0.6467  0.5626
15138SOL     OW46897   3.898   7.840   1.604 -0.6525 -0.3470  0.5755
15138SOL    HW146898   3.859   7.913   1.652  1.0785  1.5644 -0.8058
15138SOL    HW246899   3.876   7.857   1.512  0.4661 -1.1156  0.1485
15139SOL     OW46900   2.495   6.440   5.789 -0.0811  0.4810 -0.1453
15139SOL    HW146901   2.428   6.507   5.800 -1.3209 -0.9704  1.5225
15139SOL    HW246902   2.563   6.461   5.853 -1.0437 -0.4926  1.2359
15140SOL     OW46903   0.547   1.761   8.101  0.0924  0.6419  0.0158
15140SOL    HW146904   0.485   1.708   8.052 -0.0123 -0.0348  0.8578
15140SOL    HW246905   0.581   1.702   8.168 -0.7864  1.9178  1.6310
15141SOL     OW46906   8.097   1.864   3.141  0.8126  0.5776  0.1884
15141SOL    HW146907   8.063   1.953   3.148 -0.0391  0.2444  0.2811
15141SOL    HW246908   8.046   1.814   3.205  1.3986  0.0569  0.2496
15142SOL     OW46909   7.033   1.205   7.646  0.0426 -0.3504 -0.4127
15142SOL    HW146910   7.002   1.275   7.589 -0.9349 -1.2368 -0.9995
15142SOL    HW246911   7.026   1.126   7.593  1.8236 -0.8084 -0.0067
15143SOL     OW46912   1.131   1.556   3.691  0.1305  0.2415  0.0445
15143SOL    HW146913   1.211   1.537   3.642  0.2360  1.2638 -0.1965
15143SOL    HW246914   1.156   1.542   3.783  0.4879  0.2343 -0.0527
15144SOL     OW46915   4.244   7.337   1.770 -0.3566  0.6468  0.5633
15144SOL    HW146916   4.154   7.324   1.800 -0.9008 -0.9146 -1.6186
15144SOL    HW246917   4.244   7.304   1.680  1.9752  2.2482 -0.0609
15145SOL     OW46918   0.891   1.266   1.012  0.2401  0.1495  0.1638
15145SOL    HW146919   0.984   1.244   1.011  0.1263 -0.3623  0.5554
15145SOL    HW246920   0.874   1.294   1.102 -0.0255  0.0515  0.1459
15146SOL     OW46921   3.901   2.677   5.474  0.4492  0.5701  0.4342
15146SOL    HW146922   3.916   2.688   5.567  0.7233 -2.1137  0.7399
15146SOL    HW246923   3.820   2.726   5.457  0.2893  0.9103  2.0887
15147SOL     OW46924   0.372   1.373   8.259 -0.2656  0.3668 -0.5447
15147SOL    HW146925   0.465   1.396   8.253 -0.2427  0.1783 -0.9111
15147SOL    HW246926   0.331   1.450   8.298 -0.4796  1.7548 -3.3935
15148SOL     OW46927   2.281   2.188   2.724 -0.1204  0.5117 -0.0368
15148SOL    HW146928   2.253   2.121   2.787  0.0003  1.2376  0.7892
15148SOL    HW246929   2.376   2.189   2.730 -0.0761  0.1555 -0.6722
15149SOL     OW46930   2.561   3.261   7.306 -0.5039  0.1492  0.1823
15149SOL    HW146931   2.611   3.194   7.260 -0.4270  0.9731 -0.9367
15149SOL    HW246932   2.627   3.320   7.343 -0.6057  0.2835  0.1512
15150SOL     OW46933   7.376   6.705   6.807  0.2893  0.1579  0.1330
15150SOL    HW146934   7.365   6.669   6.895  1.0486 -0.6012 -0.0741
15150SOL    HW246935   7.296   6.680   6.761  0.4695 -0.6116  0.2231
15151SOL     OW46936   2.228   1.860   5.626 -0.5340  1.0046 -0.0590
15151SOL    HW146937   2.136   1.849   5.650 -0.3154  0.5407  0.5829
15151SOL    HW246938   2.274   1.872   5.710 -0.2126  2.8282 -0.4742
15152SOL     OW46939   0.289   4.732   5.501  0.1494  0.2779  0.3212
15152SOL    HW146940   0.233   4.726   5.578  0.1520 -2.4729  0.1791
15152SOL    HW246941   0.253   4.804   5.450  0.9961  3.0773  3.5253
15153SOL     OW46942   3.036   3.126   6.304 -0.0135  0.3560 -0.1829
15153SOL    HW146943   3.115   3.174   6.278  1.3673 -0.8421  1.6627
15153SOL    HW246944   3.066   3.035   6.314 -1.3523  0.1058  1.7663
15154SOL     OW46945   1.724   7.578   2.494 -0.4398  0.0187  0.4608
15154SOL    HW146946   1.748   7.511   2.558 -0.4542 -1.3930 -0.9704
15154SOL    HW246947   1.773   7.656   2.520  0.1605 -0.7634  1.7116
15155SOL     OW46948   1.716   2.622   6.003  0.6914  0.3086  0.8640
15155SOL    HW146949   1.800   2.667   6.015  0.7071  0.2360  1.0355
15155SOL    HW246950   1.723   2.544   6.057  1.6729 -1.2762 -1.4934
15156SOL     OW46951   2.992   5.204   0.542  0.6331 -0.1522  0.0613
15156SOL    HW146952   2.927   5.222   0.474  1.1451 -0.8951 -0.6411
15156SOL    HW246953   2.967   5.118   0.577  0.5081  0.1220  0.6511
15157SOL     OW46954   4.610   3.352   6.650  0.4702  0.1494 -0.2329
15157SOL    HW146955   4.683   3.291   6.643  1.0767  0.7555  0.6158
15157SOL    HW246956   4.579   3.342   6.740  0.8646  1.3831  0.0575
15158SOL     OW46957   3.063   3.844   4.533  0.4413  0.2646 -0.4633
15158SOL    HW146958   3.157   3.829   4.526  0.2885 -1.3847  0.6040
15158SOL    HW246959   3.054   3.939   4.531  1.9101  0.3873 -2.8831
15159SOL     OW46960   3.693   1.245   7.363  0.0852 -0.1280 -0.0722
15159SOL    HW146961   3.642   1.299   7.303 -0.1451 -1.5310 -1.1528
15159SOL    HW246962   3.649   1.255   7.448 -1.3292 -0.4908 -0.7643
15160SOL     OW46963   6.483   5.409   3.983 -0.2861 -0.0066 -0.5242
15160SOL    HW146964   6.450   5.360   3.907 -1.0112 -1.1759  0.5121
15160SOL    HW246965   6.572   5.376   3.996  0.0082  0.5373 -1.1489
15161SOL     OW46966   3.170   0.488   2.933  0.1387  0.0794 -0.2278
15161SOL    HW146967   3.125   0.412   2.895 -1.1030  1.6769 -2.0355
15161SOL    HW246968   3.133   0.496   3.021 -1.3730 -0.0525 -0.8434
15162SOL     OW46969   7.145   0.259   6.606 -0.0747  0.0450 -0.6498
15162SOL    HW146970   7.220   0.302   6.564 -0.1174 -0.0103 -0.7801
15162SOL    HW246971   7.164   0.265   6.700 -0.4091  0.9421 -0.6416
15163SOL     OW46972   7.683   7.140   4.758  0.0156  0.3513 -0.2961
15163SOL    HW146973   7.750   7.110   4.697  0.5129  0.1283  0.3596
15163SOL    HW246974   7.600   7.120   4.715  0.3669  1.0271 -1.3050
15164SOL     OW46975   2.661   7.228   2.948 -0.5270  0.5827 -0.4277
15164SOL    HW146976   2.726   7.196   3.010  1.6382  2.5005 -1.6477
15164SOL    HW246977   2.577   7.214   2.992  0.9585  2.6839  3.3129
15165SOL     OW46978   3.615   4.678   7.631 -0.1936 -0.2856 -0.2742
15165SOL    HW146979   3.620   4.693   7.725 -2.6494 -1.8241  0.1552
15165SOL    HW246980   3.563   4.752   7.598  2.1759  1.2258 -0.7306
15166SOL     OW46981   6.676   5.241   5.154  0.0422  0.4820 -0.3302
15166SOL    HW146982   6.749   5.236   5.217 -0.7577  0.1006  0.5824
15166SOL    HW246983   6.645   5.331   5.162 -0.8725  0.0756  0.7592
15167SOL     OW46984   4.068   7.306   3.915 -0.3418  0.2155  0.0459
15167SOL    HW146985   4.083   7.256   3.835  0.5983  1.2420 -0.4462
15167SOL    HW246986   4.130   7.270   3.978  0.9364  1.3234 -0.5674
15168SOL     OW46987   1.583   6.536   6.835  0.4316  0.1319  0.2923
15168SOL    HW146988   1.602   6.590   6.911  0.7682 -0.7552  0.8493
15168SOL    HW246989   1.587   6.597   6.761  1.3802  0.7649  0.8444
15169SOL     OW46990   3.738   4.458   0.491  0.3012 -0.1033 -0.0317
15169SOL    HW146991   3.752   4.527   0.426 -1.5594  1.4556  1.1616
15169SOL    HW246992   3.765   4.497   0.574  1.0189 -1.4897  0.4075
15170SOL     OW46993   3.754   6.396   3.792 -0.5878  0.3567 -0.3207
15170SOL    HW146994   3.735   6.315   3.744 -1.9527 -0.8787  2.2511
15170SOL    HW246995   3.668   6.433   3.812 -0.0044  1.4757  0.1379
15171SOL     OW46996   3.906   1.658   1.795 -0.4512  0.4903  0.2429
15171SOL    HW146997   3.927   1.567   1.776  0.2364  0.8383 -0.6624
15171SOL    HW246998   3.960   1.680   1.871  0.0758  0.4251 -0.1152
15172SOL     OW46999   2.284   4.143   2.508  0.0032 -0.4899 -0.0079
15172SOL    HW147000   2.371   4.135   2.545 -0.3763 -1.1307  0.7465
15172SOL    HW247001   2.263   4.056   2.474  0.4857  0.1577 -2.0605
15173SOL     OW47002   6.858   4.154   5.707 -0.2422  0.1347 -0.4019
15173SOL    HW147003   6.865   4.203   5.624 -1.5405 -0.8130 -1.0935
15173SOL    HW247004   6.770   4.116   5.704  0.1005 -0.7674  0.9456
15174SOL     OW47005   6.150   6.437   4.327 -0.0247  0.3685 -0.1032
15174SOL    HW147006   6.149   6.506   4.262 -1.5451  0.1258 -0.3650
15174SOL    HW247007   6.120   6.479   4.408 -3.3187 -0.4636 -0.8190
15175SOL     OW47008   7.510   2.493   3.731 -0.5950 -0.3019  0.0910
15175SOL    HW147009   7.443   2.487   3.663  0.1722 -2.2024 -0.5368
15175SOL    HW247010   7.498   2.414   3.783  1.5737 -0.9996 -0.4320
15176SOL     OW47011   7.074   5.479   0.366 -0.2458  0.7902  0.3506
15176SOL    HW147012   7.025   5.411   0.319 -1.0880  0.5764  1.5156
15176SOL    HW247013   7.108   5.535   0.297  0.7601 -1.0092 -0.6592
15177SOL     OW47014   1.223   6.961   3.386 -0.2229 -0.1841 -0.0085
15177SOL    HW147015   1.297   6.903   3.367 -0.9117 -0.6946 -1.2004
15177SOL    HW247016   1.151   6.901   3.409 -0.3744  0.2904  0.7721
15178SOL     OW47017   1.491   1.562   0.290  0.2396 -0.3462  0.0486
15178SOL    HW147018   1.584   1.568   0.269  0.0528 -2.1505 -1.3952
15178SOL    HW247019   1.490   1.544   0.384  1.4442 -2.4515 -0.3043
15179SOL     OW47020   5.462   0.699   4.326  0.7750  0.2381  0.0843
15179SOL    HW147021   5.456   0.696   4.231 -2.6377  1.2835  0.2062
15179SOL    HW247022   5.440   0.790   4.349 -0.2849 -0.4583  1.9657
15180SOL     OW47023   5.815   5.232   4.082  0.5695  0.2920 -0.3123
15180SOL    HW147024   5.882   5.290   4.046  1.6296 -0.7339 -0.0258
15180SOL    HW247025   5.793   5.173   4.010  1.1492 -0.3959  0.0634
15181SOL     OW47026   0.605   0.045   4.386 -0.2836 -0.1024 -0.1747
15181SOL    HW147027   0.696   0.016   4.380 -0.6152 -1.1745 -0.0019
15181SOL    HW247028   0.604   0.107   4.460 -0.0241 -1.3684  0.9077
15182SOL     OW47029   5.701   0.141   5.399 -0.1247 -0.0055  0.0580
15182SOL    HW147030   5.713   0.228   5.361 -0.9009 -0.1559 -0.5360
15182SOL    HW247031   5.780   0.093   5.374 -0.1434  0.2273 -0.4507
15183SOL     OW47032   5.801   0.943   5.864  0.2788 -0.6606 -0.2435
15183SOL    HW147033   5.870   0.879   5.847 -0.3346 -1.0391 -1.3577
15183SOL    HW247034   5.754   0.951   5.780 -1.1521 -0.5496  0.5496
15184SOL     OW47035   5.549   7.814   1.057  0.2372 -0.0518  0.2592
15184SOL    HW147036   5.643   7.831   1.067 -0.0427  1.2768  0.7827
15184SOL    HW247037   5.526   7.857   0.974 -0.3388  1.6224  1.2454
15185SOL     OW47038   2.737   5.247   3.680 -0.2310 -0.2973  0.2315
15185SOL    HW147039   2.810   5.293   3.722 -0.5658  0.6593 -0.2201
15185SOL    HW247040   2.749   5.156   3.705  1.7384 -0.3295 -0.6778
15186SOL     OW47041   0.880   5.958   0.285  0.0567  0.2080  0.0991
15186SOL    HW147042   0.972   5.949   0.260 -0.3043  0.3220 -1.2548
15186SOL    HW247043   0.848   5.868   0.294  0.6759  0.1491  2.0153
15187SOL     OW47044   3.999   4.784   4.159  0.3042  0.5432 -0.2247
15187SOL    HW147045   4.086   4.744   4.168  0.8206  1.5126 -0.8307
15187SOL    HW247046   3.941   4.710   4.142  0.6954 -0.3294  2.0288
15188SOL     OW47047   2.269   1.203   1.077 -0.2776 -0.2070  0.4007
15188SOL    HW147048   2.292   1.126   1.129 -1.0418 -0.5906  0.1765
15188SOL    HW247049   2.233   1.264   1.140  2.4408  0.8823  0.9627
15189SOL     OW47050   7.488   1.356   4.072 -0.1101  0.1086 -0.7044
15189SOL    HW147051   7.545   1.412   4.019 -0.1958 -0.6358 -1.5855
15189SOL    HW247052   7.532   1.271   4.074 -1.4745 -0.6460 -1.8963
15190SOL     OW47053   6.080   5.532   6.018 -0.1793 -0.0793 -0.1255
15190SOL    HW147054   6.118   5.492   5.939  0.1720 -1.7030  0.8342
15190SOL    HW247055   6.112   5.477   6.089 -1.8005  0.4229  1.0012
15191SOL     OW47056   5.691   4.970   7.841 -0.3003 -0.1152  0.0506
15191SOL    HW147057   5.686   5.064   7.860 -1.2487  0.1149 -1.2155
15191SOL    HW247058   5.647   4.928   7.914  0.9109  0.3627  1.0734
15192SOL     OW47059   7.020   0.155   3.490 -0.1382  0.5365 -0.3123
15192SOL    HW147060   7.010   0.160   3.395 -0.7810  0.8533 -0.2307
15192SOL    HW247061   7.094   0.213   3.509  0.9554 -0.6911 -0.7670
15193SOL     OW47062   6.652   1.586   0.846 -0.2643  0.4693 -0.1692
15193SOL    HW147063   6.704   1.596   0.766 -0.3791  0.7797 -0.2029
15193SOL    HW247064   6.703   1.631   0.914  0.0296 -0.1367  0.0163
15194SOL     OW47065   7.122   1.044   2.514 -0.3911  0.1588 -0.0916
15194SOL    HW147066   7.190   1.058   2.580  0.5022  2.2790 -1.4174
15194SOL    HW247067   7.041   1.037   2.565  0.4297  0.5698  1.3021
15195SOL     OW47068   1.208   8.024   6.481 -0.2722  0.5696 -0.3351
15195SOL    HW147069   1.298   7.996   6.464 -0.5281 -1.5197  1.5421
15195SOL    HW247070   1.159   7.991   6.406 -0.0516 -1.3738  0.3663
15196SOL     OW47071   4.260   4.035   6.987  0.2831  0.1666 -0.0848
15196SOL    HW147072   4.194   3.968   7.008 -0.4506  0.7817 -0.4087
15196SOL    HW247073   4.332   3.986   6.948 -0.0458 -0.4933  0.1235
15197SOL     OW47074   4.069   4.281   2.567 -0.2369  0.0821  0.7138
15197SOL    HW147075   4.016   4.341   2.514  0.6053  0.6354  0.4807
15197SOL    HW247076   4.114   4.226   2.503  0.6510  0.6400  0.8477
15198SOL     OW47077   0.191   2.999   6.136  0.1662  0.2215  0.0864
15198SOL    HW147078   0.144   3.016   6.055  1.7092  1.3672 -0.6028
15198SOL    HW247079   0.123   2.987   6.202 -1.0848  0.2935 -1.1838
15199SOL     OW47080   0.678   4.650   4.923  0.4482  0.1585  0.3193
15199SOL    HW147081   0.718   4.572   4.885 -0.3565 -0.5175  0.8260
15199SOL    HW247082   0.725   4.724   4.883  0.6993 -0.5674 -0.7454
15200SOL     OW47083   1.653   5.483   1.714 -0.0229 -0.2391 -0.0826
15200SOL    HW147084   1.660   5.576   1.690 -2.4543  0.0695  0.2419
15200SOL    HW247085   1.626   5.439   1.633 -2.1948 -0.1223  0.5417
15201SOL     OW47086   1.292   2.274   5.995  0.2485 -0.0913  0.1386
15201SOL    HW147087   1.384   2.288   6.017 -0.0641  3.3158 -0.4408
15201SOL    HW247088   1.244   2.304   6.072 -0.4311 -0.3880 -0.1671
15202SOL     OW47089   1.691   4.328   3.236  0.8857 -0.0083  0.1345
15202SOL    HW147090   1.746   4.321   3.159 -3.0047 -1.8936 -2.6694
15202SOL    HW247091   1.634   4.404   3.219 -1.0425 -1.3577  0.3536
15203SOL     OW47092   5.797   7.037   3.766  0.3235  0.2552 -0.2305
15203SOL    HW147093   5.703   7.034   3.749 -0.0536  0.8550  1.6074
15203SOL    HW247094   5.833   7.083   3.690 -0.6491 -1.4310 -1.7428
15204SOL     OW47095   1.575   0.583   0.477  0.1245 -0.6635  0.0208
15204SOL    HW147096   1.501   0.617   0.528 -0.5668 -1.1444 -0.6504
15204SOL    HW247097   1.594   0.498   0.516 -0.2248 -0.9103 -0.3480
15205SOL     OW47098   2.327   5.903   3.840 -0.5699 -0.0815 -0.1909
15205SOL    HW147099   2.239   5.890   3.805 -0.9263 -1.5001  1.1697
15205SOL    HW247100   2.351   5.992   3.813 -3.1125  0.9852  0.8691
15206SOL     OW47101   7.187   0.790   7.744  0.0139 -0.3556  0.2756
15206SOL    HW147102   7.248   0.721   7.771 -0.6714 -1.9552 -2.0705
15206SOL    HW247103   7.214   0.812   7.655 -0.1612  2.0208  0.7745
15207SOL     OW47104   4.947   1.354   4.001  0.2708 -0.0755 -0.1726
15207SOL    HW147105   4.883   1.410   3.957  1.3504 -0.0484 -1.7783
15207SOL    HW247106   4.935   1.372   4.094 -3.3741 -1.5346 -0.2846
15208SOL     OW47107   0.524   5.886   1.060  0.1490  0.2794 -0.0066
15208SOL    HW147108   0.614   5.915   1.051 -0.2483  1.5608  0.0264
15208SOL    HW247109   0.530   5.791   1.074  1.4327  0.2244 -0.8899
15209SOL     OW47110   3.141   8.104   7.338  0.3741 -0.1328 -0.7482
15209SOL    HW147111   3.074   8.117   7.405  2.9820  0.2389  1.9030
15209SOL    HW247112   3.123   8.171   7.272 -1.6891  0.1264  0.0548
15210SOL     OW47113   4.220   1.533   1.326  0.4062 -0.1816  0.5686
15210SOL    HW147114   4.277   1.585   1.383  0.8765  0.6476 -0.6383
15210SOL    HW247115   4.137   1.581   1.325  0.1811 -0.5512  1.0705
15211SOL     OW47116   6.586   1.915   4.039 -0.1478  0.4792 -0.3665
15211SOL    HW147117   6.614   1.905   4.129  1.2803  0.7786 -0.7671
15211SOL    HW247118   6.586   1.827   4.003 -0.1054  0.4367 -0.2609
15212SOL     OW47119   0.506   2.811   1.157 -0.0259 -0.4416  0.5085
15212SOL    HW147120   0.581   2.794   1.213  0.0208 -2.4638 -0.1132
15212SOL    HW247121   0.537   2.791   1.068 -0.0184  2.9618 -0.3301
15213SOL     OW47122   6.550   5.140   6.394  0.6287 -0.4330  0.0871
15213SOL    HW147123   6.583   5.055   6.421 -0.8949 -1.0442  0.0747
15213SOL    HW247124   6.457   5.138   6.416  0.4320  0.9764 -0.5305
15214SOL     OW47125   3.324   6.416   2.815  0.2621 -0.5106 -0.2827
15214SOL    HW147126   3.236   6.399   2.781  0.4241 -0.4288 -0.7463
15214SOL    HW247127   3.318   6.503   2.853 -0.1629 -0.9701  0.7280
15215SOL     OW47128   5.184   1.077   4.787 -0.1117 -0.1019 -0.0748
15215SOL    HW147129   5.089   1.075   4.798 -0.0363 -0.2653  0.5715
15215SOL    HW247130   5.209   1.166   4.811 -0.1041 -0.0460 -0.2874
15216SOL     OW47131   6.213   8.158   7.934 -0.3900 -0.0100 -0.7388
15216SOL    HW147132   6.289   8.214   7.920  1.0565 -1.7747 -0.0864
15216SOL    HW247133   6.154   8.178   7.860  0.1971  2.1642 -0.6383
15217SOL     OW47134   3.734   6.297   2.894  0.3276 -0.2889  0.6085
15217SOL    HW147135   3.666   6.300   2.826 -0.1754 -1.3149  1.0473
15217SOL    HW247136   3.687   6.269   2.972  1.5221 -2.4262  0.5854
15218SOL     OW47137   5.662   3.449   5.433 -0.5727  0.1402 -0.2858
15218SOL    HW147138   5.573   3.484   5.434 -0.4110  0.6005  2.2803
15218SOL    HW247139   5.655   3.366   5.479  0.1396 -0.3564 -1.0578
15219SOL     OW47140   0.983   2.360   0.516  0.2720  0.2256  0.3953
15219SOL    HW147141   0.894   2.352   0.551 -0.6889 -0.0711 -2.0562
15219SOL    HW247142   1.010   2.269   0.498  0.2613  0.4552 -0.8053
15220SOL     OW47143   5.913   6.462   1.698 -0.4415 -0.4240 -0.4776
15220SOL    HW147144   5.966   6.485   1.622  0.3477  0.0419  0.1967
15220SOL    HW247145   5.842   6.526   1.698 -1.0107 -1.0529 -1.3873
15221SOL     OW47146   2.999   1.556   6.491  0.8922  0.3195  0.6428
15221SOL    HW147147   2.910   1.552   6.526  0.5203  0.5085 -0.2699
15221SOL    HW247148   3.027   1.465   6.486 -0.0846  0.0941 -1.1534
15222SOL     OW47149   0.870   3.793   2.349  0.2065 -0.5074 -0.3121
15222SOL    HW147150   0.890   3.777   2.257 -0.4165  0.6135 -0.6570
15222SOL    HW247151   0.846   3.886   2.353  1.0256 -0.3441  1.1273
15223SOL     OW47152   1.076   7.235   4.038  0.2808 -0.0900  0.2947
15223SOL    HW147153   1.020   7.312   4.041  0.8495  0.2931  1.0515
15223SOL    HW247154   1.037   7.175   4.102  1.4937  0.7037  1.8170
15224SOL     OW47155   5.465   0.957   7.862 -0.4369  0.7749  0.1024
15224SOL    HW147156   5.465   0.922   7.773  0.1656 -0.8401  0.7194
15224SOL    HW247157   5.553   0.938   7.894 -0.5799  1.5672  0.9692
15225SOL     OW47158   2.053   7.942   8.235 -0.2246 -0.2463 -0.4963
15225SOL    HW147159   2.003   7.924   8.155 -0.2962  0.3682 -0.5933
15225SOL    HW247160   1.987   7.945   8.304 -0.1389 -0.9841 -0.3758
15226SOL     OW47161   4.679   5.362   2.594 -0.1309  0.0142 -0.1145
15226SOL    HW147162   4.624   5.439   2.580  1.4052  0.7807 -2.1914
15226SOL    HW247163   4.679   5.317   2.510  1.3260 -0.6951  0.2484
15227SOL     OW47164   3.984   2.694   5.095 -0.9410  0.2710  0.4724
15227SOL    HW147165   4.079   2.684   5.104 -0.7393  0.4801 -1.2190
15227SOL    HW247166   3.967   2.785   5.121 -0.7135  0.1278  1.1097
15228SOL     OW47167   5.247   1.535   2.793 -0.1365 -0.5723  0.3105
15228SOL    HW147168   5.269   1.509   2.703  2.9830 -0.4742  0.9782
15228SOL    HW247169   5.176   1.598   2.783  0.6147 -0.0466 -2.1249
15229SOL     OW47170   0.429   7.087   5.535 -0.4370  0.1505 -0.2882
15229SOL    HW147171   0.415   7.117   5.445 -1.1885  0.6448 -0.0182
15229SOL    HW247172   0.341   7.065   5.566 -0.1535 -0.2284  0.2534
15230SOL     OW47173   6.877   1.523   4.172 -0.0910  0.1573 -0.4136
15230SOL    HW147174   6.850   1.572   4.249 -0.5729  0.5286 -0.8168
15230SOL    HW247175   6.970   1.543   4.162  0.0053 -0.0157  0.1595
15231SOL     OW47176   6.080   2.371   1.970 -0.1968  0.1537 -0.0074
15231SOL    HW147177   6.113   2.295   1.921 -1.2410 -0.3383  0.0395
15231SOL    HW247178   6.104   2.446   1.917  0.2744 -0.2581 -0.3833
15232SOL     OW47179   6.527   6.658   0.127  0.1912  0.0509 -0.6345
15232SOL    HW147180   6.611   6.646   0.170  0.2915  0.7364 -0.6321
15232SOL    HW247181   6.549   6.692   0.040 -0.1602  2.1415  0.0797
15233SOL     OW47182   0.826   5.286   1.053  0.0728 -0.0472  0.5382
15233SOL    HW147183   0.780   5.241   1.124  0.3831  0.4948  1.0892
15233SOL    HW247184   0.862   5.364   1.094  2.4856 -1.0447  0.3747
15234SOL     OW47185   4.264   7.246   0.329 -0.0242  0.2924 -0.5328
15234SOL    HW147186   4.321   7.270   0.402 -2.0867 -1.6527  1.8142
15234SOL    HW247187   4.180   7.288   0.350 -0.9361 -1.1406 -1.2388
15235SOL     OW47188   3.784   2.167   4.318 -0.5282 -0.1517 -0.7920
15235SOL    HW147189   3.850   2.236   4.312 -1.1213  0.4457 -0.5651
15235SOL    HW247190   3.726   2.183   4.244 -0.8638 -0.1859 -0.5412
15236SOL     OW47191   2.831   4.460   0.286  0.5847  0.4107 -0.2364
15236SOL    HW147192   2.912   4.510   0.277  0.4490  0.4821 -1.0913
15236SOL    HW247193   2.838   4.391   0.221 -0.9242  1.6265 -1.7305
15237SOL     OW47194   4.194   4.039   3.940  0.2653  0.9747  0.5108
15237SOL    HW147195   4.136   4.090   3.883  1.0388  0.4260 -0.7839
15237SOL    HW247196   4.142   3.964   3.967  0.5076  0.2454 -1.0174
15238SOL     OW47197   5.298   0.414   2.327  0.2254  0.0205  0.3254
15238SOL    HW147198   5.348   0.380   2.402  0.9957  0.0422 -0.1751
15238SOL    HW247199   5.218   0.448   2.366  0.4844 -0.2451  1.1123
15239SOL     OW47200   3.097   1.003   5.447 -0.0600 -0.4048  0.4442
15239SOL    HW147201   3.095   0.953   5.365 -1.1894  0.1594  0.1116
15239SOL    HW247202   3.019   0.975   5.494 -0.7947  1.1668  0.1742
15240SOL     OW47203   8.180   5.962   2.827  0.3947  0.5909 -0.1085
15240SOL    HW147204   8.249   6.029   2.826  0.4522  0.5194 -0.8687
15240SOL    HW247205   8.200   5.909   2.905  1.1828  0.5877 -0.3074
15241SOL     OW47206   6.666   3.107   0.270  0.5051  0.2776 -0.1719
15241SOL    HW147207   6.731   3.050   0.230  0.8208  1.1631 -0.9284
15241SOL    HW247208   6.586   3.055   0.271  1.2271 -0.8453  0.8314
15242SOL     OW47209   6.137   0.847   4.135 -0.0995  0.1801  0.0220
15242SOL    HW147210   6.117   0.770   4.082  0.4834 -0.4942  0.7826
15242SOL    HW247211   6.052   0.890   4.148 -0.6711 -1.2180  0.9928
15243SOL     OW47212   5.247   4.599   4.745  0.1865  0.5335 -0.4936
15243SOL    HW147213   5.260   4.693   4.762 -1.6813  0.7254 -0.0756
15243SOL    HW247214   5.251   4.559   4.832 -0.0238  0.3476 -0.5711
15244SOL     OW47215   2.027   7.048   8.079  0.3567 -0.3408 -0.3566
15244SOL    HW147216   1.967   6.978   8.053  0.0954  0.0858 -0.9209
15244SOL    HW247217   1.997   7.074   8.166  0.4540 -0.9214 -0.1454
15245SOL     OW47218   3.363   0.356   6.299  0.1781  0.0110  0.2487
15245SOL    HW147219   3.296   0.422   6.314 -1.5932 -0.7172 -3.8883
15245SOL    HW247220   3.444   0.406   6.289  0.0676  1.0002  3.6478
15246SOL     OW47221   5.460   2.929   0.151 -0.0337  0.2161 -0.6524
15246SOL    HW147222   5.482   2.853   0.204 -1.0791 -0.2634 -0.8804
15246SOL    HW247223   5.365   2.920   0.136 -0.3972  2.1618  0.2838
15247SOL     OW47224   7.469   8.171   0.859  0.6047 -0.1889  0.5035
15247SOL    HW147225   7.460   8.082   0.895  0.5491 -0.4095 -0.0480
15247SOL    HW247226   7.410   8.224   0.913 -1.1254 -0.9133 -0.5969
15248SOL     OW47227   7.206   2.081   2.716 -0.2179  0.1057 -0.6139
15248SOL    HW147228   7.125   2.030   2.712  0.3215 -0.9812  1.3669
15248SOL    HW247229   7.268   2.023   2.761  1.9864  0.5196 -3.0495
15249SOL     OW47230   1.928   1.061   2.904 -0.1215 -0.4776  0.7298
15249SOL    HW147231   1.994   1.022   2.961  0.0378  2.0364  2.3174
15249SOL    HW247232   1.846   1.050   2.952 -0.4523 -1.0634  0.0417
15250SOL     OW47233   6.708   4.296   2.219 -0.5510 -0.5109 -0.3835
15250SOL    HW147234   6.771   4.368   2.226  0.6310 -1.5222 -0.5380
15250SOL    HW247235   6.686   4.275   2.309  1.9253 -2.3929 -0.1746
15251SOL     OW47236   3.854   1.229   8.035 -0.5118 -0.4513 -0.0008
15251SOL    HW147237   3.821   1.283   8.107  1.5243 -1.0986  1.4652
15251SOL    HW247238   3.924   1.282   7.996 -2.7160  0.6328 -2.6609
15252SOL     OW47239   6.359   7.664   5.751  0.5369  0.6753 -0.0170
15252SOL    HW147240   6.402   7.748   5.734 -1.1842  1.2948 -1.4163
15252SOL    HW247241   6.383   7.610   5.676  0.5746  0.3309  0.2443
15253SOL     OW47242   0.518   6.524   4.545 -0.8998  0.2321  0.1207
15253SOL    HW147243   0.561   6.533   4.630  0.3257  1.8290 -0.6512
15253SOL    HW247244   0.562   6.449   4.505  0.9885  1.6520 -0.5298
15254SOL     OW47245   5.376   1.021   3.392 -0.5796 -0.2897  0.0098
15254SOL    HW147246   5.290   1.053   3.364 -0.0243 -0.0019 -1.4444
15254SOL    HW247247   5.399   0.954   3.327  0.3406 -0.2749  0.3095
15255SOL     OW47248   7.518   0.999   1.070 -0.5996  0.0878  0.5511
15255SOL    HW147249   7.432   1.015   1.032  0.1208 -1.1224 -1.6703
15255SOL    HW247250   7.580   1.029   1.003  0.7047 -0.7150  1.3808
15256SOL     OW47251   1.421   5.188   4.372 -0.0723  0.3309 -0.0280
15256SOL    HW147252   1.336   5.186   4.328  0.3647  1.6993 -0.9942
15256SOL    HW247253   1.420   5.269   4.423  0.1423 -0.3210  1.0287
15257SOL     OW47254   2.084   0.923   3.099 -0.7281 -0.0386 -0.2459
15257SOL    HW147255   2.149   0.857   3.127 -1.7161 -1.1924 -0.6351
15257SOL    HW247256   2.014   0.916   3.164 -1.1212  0.2089 -0.6454
15258SOL     OW47257   0.964   2.371   4.006  0.3395  0.1711 -0.5936
15258SOL    HW147258   0.996   2.414   3.927 -0.0772  0.9947 -0.3192
15258SOL    HW247259   0.883   2.416   4.028  1.3065  1.0876  1.2387
15259SOL     OW47260   4.535   8.151   0.627 -0.1391  0.1563  0.4334
15259SOL    HW147261   4.513   8.136   0.535 -0.1662  1.5721  0.1934
15259SOL    HW247262   4.622   8.191   0.624 -0.0154 -0.0599  1.0452
15260SOL     OW47263   0.494   5.845   0.265 -0.6073 -0.4907  0.1764
15260SOL    HW147264   0.399   5.861   0.267 -0.4893  0.2667 -0.2554
15260SOL    HW247265   0.526   5.883   0.347 -0.6468 -0.5270  0.2084
15261SOL     OW47266   2.224   5.253   7.415 -0.2982  0.0277 -0.1230
15261SOL    HW147267   2.203   5.174   7.465  1.1331 -0.2455  0.0631
15261SOL    HW247268   2.290   5.298   7.467  1.5381 -0.4718 -1.9448
15262SOL     OW47269   8.056   1.072   6.335  0.0758 -0.5266 -0.8885
15262SOL    HW147270   7.991   1.002   6.339 -0.1375 -0.3117 -0.6355
15262SOL    HW247271   8.005   1.153   6.337  0.4568 -0.3177  1.8182
15263SOL     OW47272   6.499   4.762   5.927 -0.6015  0.4125  0.1040
15263SOL    HW147273   6.507   4.667   5.940  1.0869  0.5911  0.5150
15263SOL    HW247274   6.444   4.792   5.999 -1.0388 -0.2434  0.0438
15264SOL     OW47275   3.629   3.868   7.457 -0.2901  0.3723 -0.0209
15264SOL    HW147276   3.536   3.854   7.471 -0.7053  0.5934 -2.3336
15264SOL    HW247277   3.649   3.946   7.509 -1.0994 -0.4265  1.5038
15265SOL     OW47278   5.959   3.700   4.502  0.0270  0.0153 -0.7558
15265SOL    HW147279   5.963   3.675   4.410  0.8304  0.3666 -0.8131
15265SOL    HW247280   5.990   3.623   4.550 -3.6465 -1.4431 -0.5685
15266SOL     OW47281   6.990   4.413   1.652 -0.5092  0.3353 -0.1009
15266SOL    HW147282   6.954   4.414   1.563  1.4754 -0.8212 -0.9513
15266SOL    HW247283   7.084   4.429   1.640 -0.2195  0.1719  1.7921
15267SOL     OW47284   7.281   4.736   2.334  0.5939 -0.0677  0.0181
15267SOL    HW147285   7.343   4.768   2.269  1.1161  1.1882  1.1256
15267SOL    HW247286   7.320   4.653   2.364  1.1333  0.1248 -0.1373
15268SOL     OW47287   4.336   8.064   3.257  0.0751 -0.3016  0.2986
15268SOL    HW147288   4.241   8.064   3.241  0.3140  0.2027 -1.1794
15268SOL    HW247289   4.356   7.973   3.282 -0.3014 -1.1762 -2.4764
15269SOL     OW47290   5.035   6.528   2.420  0.2212 -0.3605  0.3363
15269SOL    HW147291   5.033   6.474   2.341  0.4204  0.9808 -0.6023
15269SOL    HW247292   4.950   6.574   2.419  0.0574 -0.6399  1.1210
15270SOL     OW47293   2.829   1.280   4.332  1.0347  0.5488  0.6436
15270SOL    HW147294   2.888   1.205   4.322  0.0487 -0.1609 -0.0121
15270SOL    HW247295   2.749   1.242   4.368 -0.3093  0.9071 -1.9021
15271SOL     OW47296   7.823   1.489   5.143  0.5207 -0.0744 -0.1299
15271SOL    HW147297   7.913   1.515   5.123  0.6858 -0.8973 -0.4867
15271SOL    HW247298   7.771   1.567   5.126  1.3308  0.8469  1.4402
15272SOL     OW47299   7.448   3.020   5.805  0.3419  0.3291  0.2244
15272SOL    HW147300   7.501   2.940   5.809 -3.9778 -2.6230  2.0822
15272SOL    HW247301   7.408   3.017   5.718  0.9854  1.0500 -0.1004
15273SOL     OW47302   5.083   0.256   1.097  0.0080 -0.1621 -0.0711
15273SOL    HW147303   5.069   0.335   1.045  1.3087  0.8645  1.1053
15273SOL    HW247304   4.997   0.237   1.135 -0.6308 -0.1316 -1.4514
15274SOL     OW47305   0.088   0.683   3.998  0.0194 -0.3838 -0.1511
15274SOL    HW147306   0.080   0.638   4.082 -0.4222  0.7006  0.4048
15274SOL    HW247307   0.128   0.619   3.939  1.1011 -0.8771  1.1120
15275SOL     OW47308   1.235   7.475   5.561  0.2047  0.2915  0.0375
15275SOL    HW147309   1.329   7.471   5.576  0.3581  0.3507 -0.8999
15275SOL    HW247310   1.201   7.527   5.634  0.6977 -1.0582  1.2444
15276SOL     OW47311   7.940   2.688   5.989  0.3502  0.1878  0.8561
15276SOL    HW147312   7.980   2.775   5.989  0.0499  0.3274  1.1109
15276SOL    HW247313   7.949   2.658   5.898  0.3166  0.5510  0.7298
15277SOL     OW47314   7.708   3.496   3.574 -0.4456  0.1257 -0.3224
15277SOL    HW147315   7.694   3.422   3.633  0.1950  0.0871 -0.2242
15277SOL    HW247316   7.719   3.572   3.632 -1.0325  0.2906 -0.4206
15278SOL     OW47317   4.290   5.056   4.296  0.5012  0.1098 -1.0046
15278SOL    HW147318   4.337   4.994   4.351  0.3398  1.5187  0.7730
15278SOL    HW247319   4.278   5.133   4.352 -3.8491 -0.1767 -1.4076
15279SOL     OW47320   0.775   0.305   0.975 -0.3348 -0.1722  0.0260
15279SOL    HW147321   0.731   0.367   0.917  2.5772  1.1596 -0.8160
15279SOL    HW247322   0.718   0.302   1.053 -1.7425  1.7386 -0.8827
15280SOL     OW47323   1.627   2.838   6.211  0.3120 -0.1680  0.0515
15280SOL    HW147324   1.643   2.778   6.137 -2.6179 -2.3608  1.0859
15280SOL    HW247325   1.620   2.924   6.170  0.2887 -1.1341 -2.0636
15281SOL     OW47326   1.574   3.690   2.934 -0.2417 -0.0078  0.0920
15281SOL    HW147327   1.553   3.744   3.010 -0.3124  2.2612 -1.4695
15281SOL    HW247328   1.538   3.739   2.860  1.3445 -1.2987 -1.5723
15282SOL     OW47329   3.404   5.883   6.534  0.0169 -0.1928  0.2201
15282SOL    HW147330   3.407   5.791   6.560  0.1613 -0.4290 -0.6140
15282SOL    HW247331   3.372   5.929   6.612 -2.7758 -1.2908 -0.2279
15283SOL     OW47332   3.512   4.320   2.384  0.3148  0.0137 -0.0274
15283SOL    HW147333   3.561   4.369   2.319 -1.7785  1.4511 -0.5892
15283SOL    HW247334   3.501   4.381   2.457 -1.0705 -0.0926 -0.1303
15284SOL     OW47335   0.374   1.312   7.323 -0.4266 -0.4094 -0.1720
15284SOL    HW147336   0.357   1.290   7.415 -1.0320  0.2907 -0.1080
15284SOL    HW247337   0.318   1.253   7.274  0.3790 -1.2316 -0.1210
15285SOL     OW47338   7.085   2.668   6.349 -0.0006 -0.1968 -0.2065
15285SOL    HW147339   6.998   2.702   6.331  0.6952  1.5991 -0.2457
15285SOL    HW247340   7.106   2.614   6.273 -0.7992 -0.1038 -0.4961
15286SOL     OW47341   4.116   4.600   7.264 -0.6820 -0.0074  0.0110
15286SOL    HW147342   4.130   4.512   7.230 -0.6360  0.1874 -0.4709
15286SOL    HW247343   4.166   4.657   7.205  2.2238  0.0158  2.3417
15287SOL     OW47344   0.978   2.628   7.050 -0.0645  0.0584 -0.5679
15287SOL    HW147345   0.952   2.543   7.084  0.4525 -1.1429 -3.0224
15287SOL    HW247346   1.049   2.657   7.107 -1.3347 -0.3995  1.2535
15288SOL     OW47347   5.358   4.328   7.176  0.5678 -0.4765 -0.0775
15288SOL    HW147348   5.354   4.417   7.209  2.9825 -0.7489  1.0257
15288SOL    HW247349   5.340   4.336   7.082  1.3800  1.2418 -0.0997
15289SOL     OW47350   0.064   3.968   3.226 -0.1690  0.5449 -0.4445
15289SOL    HW147351   0.066   3.944   3.134  0.3336  0.5769 -0.4444
15289SOL    HW247352   0.046   4.062   3.226 -2.3645  0.1412 -0.4367
15290SOL     OW47353   5.270   6.061   4.922  0.2422 -0.3617  0.0158
15290SOL    HW147354   5.180   6.055   4.954  0.0135 -1.5771 -0.7979
15290SOL    HW247355   5.265   6.122   4.849 -0.0176 -0.7657 -0.3107
15291SOL     OW47356   0.739   5.427   8.229  0.1292  0.3526  0.0345
15291SOL    HW147357   0.742   5.331   8.233  3.6609  0.3934  0.1795
15291SOL    HW247358   0.704   5.454   8.315 -0.0745 -0.7749  0.3132
15292SOL     OW47359   2.978   5.881   1.675 -0.1425 -0.2048 -0.6364
15292SOL    HW147360   2.928   5.963   1.679  1.7285  0.9736 -0.9174
15292SOL    HW247361   2.999   5.861   1.766  0.4666  0.3078 -0.6605
15293SOL     OW47362   1.619   3.835   4.991 -0.1400  0.6294 -0.5480
15293SOL    HW147363   1.550   3.811   4.928  0.4155 -0.4256 -0.7743
15293SOL    HW247364   1.686   3.878   4.938  0.3266 -0.2569 -0.6817
15294SOL     OW47365   7.059   3.088   5.886 -0.7318  0.7027 -0.3591
15294SOL    HW147366   7.108   3.082   5.804  1.6757 -0.3055  1.0807
15294SOL    HW247367   7.093   3.168   5.927 -0.6392  0.2583  0.4345
15295SOL     OW47368   5.642   7.973   7.732 -0.1351  0.4429  0.1000
15295SOL    HW147369   5.564   7.977   7.787 -0.6289  1.0896 -0.6327
15295SOL    HW247370   5.620   7.910   7.663 -0.9680  2.4457 -1.5285
15296SOL     OW47371   4.956   1.508   8.199 -0.2830  0.1974 -0.1197
15296SOL    HW147372   5.019   1.472   8.261 -0.1588  0.0184 -0.3482
15296SOL    HW247373   5.009   1.564   8.142 -0.4762  0.7573  0.2420
15297SOL     OW47374   0.192   0.698   4.577  0.3780 -0.2775 -0.2178
15297SOL    HW147375   0.261   0.733   4.520 -0.2725  1.6711  0.1451
15297SOL    HW247376   0.183   0.763   4.646 -2.0177 -0.3689 -0.3963
15298SOL     OW47377   6.347   7.303   0.645 -0.2278  0.0217 -0.0184
15298SOL    HW147378   6.334   7.322   0.738 -0.6831  0.7127 -0.2210
15298SOL    HW247379   6.374   7.387   0.608 -2.0219  0.2314 -0.8914
15299SOL     OW47380   6.605   4.003   4.545 -0.1832 -0.1596  0.0482
15299SOL    HW147381   6.540   4.061   4.585  0.4165  1.2746 -1.0392
15299SOL    HW247382   6.594   3.920   4.591 -1.0542  0.8083  1.6164
15300SOL     OW47383   5.576   4.679   4.686  0.0197  0.3204 -0.1141
15300SOL    HW147384   5.645   4.628   4.644 -0.4139 -0.4106  0.0424
15300SOL    HW247385   5.496   4.655   4.637 -0.2650  0.4685  0.2782
15301SOL     OW47386   7.834   3.189   7.910 -0.1716  0.2037 -0.0974
15301SOL    HW147387   7.890   3.265   7.893 -2.2444  1.5418 -1.1886
15301SOL    HW247388   7.822   3.149   7.824 -1.9343  0.6891 -0.0885
15302SOL     OW47389   2.381   5.816   6.955  0.0248  0.1312 -0.1545
15302SOL    HW147390   2.335   5.819   7.039 -0.3944  1.1200 -0.4114
15302SOL    HW247391   2.474   5.820   6.979 -0.0656 -0.4383  0.2980
15303SOL     OW47392   6.379   2.955   1.993 -0.0544  0.1472  0.1318
15303SOL    HW147393   6.405   2.968   2.084  0.9062  1.8330 -0.3577
15303SOL    HW247394   6.357   3.043   1.962 -1.1033 -0.5121 -1.0525
15304SOL     OW47395   6.341   3.078   3.528 -0.6416  0.5253  0.5899
15304SOL    HW147396   6.416   3.133   3.511  0.0626 -0.5556  0.1268
15304SOL    HW247397   6.378   2.993   3.552 -1.7170 -0.4482 -1.1020
15305SOL     OW47398   5.599   2.276   4.792 -0.1234 -0.7534  0.1898
15305SOL    HW147399   5.677   2.225   4.817 -0.4009 -1.0910  0.3708
15305SOL    HW247400   5.600   2.276   4.696  0.1583 -0.6647  0.1912
15306SOL     OW47401   5.061   3.961   0.038 -0.4288  0.0927  0.1557
15306SOL    HW147402   5.078   3.916  -0.044  0.7210 -0.5381  0.7256
15306SOL    HW247403   4.970   3.941   0.059 -0.6329  0.0142 -0.8024
15307SOL     OW47404   1.442   6.630   4.722  0.1145 -0.7121  0.0915
15307SOL    HW147405   1.352   6.610   4.695 -0.1120 -0.9518  1.0134
15307SOL    HW247406   1.495   6.562   4.680 -0.0141 -0.0182 -1.2274
15308SOL     OW47407   3.457   1.867   4.463 -0.1254  0.2133 -0.1104
15308SOL    HW147408   3.409   1.858   4.545 -0.8894 -0.8120 -0.6484
15308SOL    HW247409   3.547   1.887   4.489  0.0270 -1.8166  1.0409
15309SOL     OW47410   2.439   0.390   6.605 -0.1081 -0.1927 -0.5630
15309SOL    HW147411   2.359   0.340   6.584 -0.1623 -1.4149  2.3636
15309SOL    HW247412   2.413   0.448   6.677  1.4133  0.0771 -0.2222
15310SOL     OW47413   2.775   0.981   5.840 -0.3860 -0.1905  0.0832
15310SOL    HW147414   2.850   0.988   5.781 -0.7820  0.2534 -0.3712
15310SOL    HW247415   2.794   1.041   5.912  0.5877 -1.5158  0.9473
15311SOL     OW47416   3.134   4.823   0.872  0.0379 -0.2921  0.5439
15311SOL    HW147417   3.051   4.793   0.910  0.5437 -0.2351  1.7254
15311SOL    HW247418   3.164   4.891   0.933  0.6482  0.1181 -0.2147
15312SOL     OW47419   6.687   2.540   7.279  0.3816 -0.0487 -0.1141
15312SOL    HW147420   6.712   2.627   7.247  2.3286 -0.1195  1.1731
15312SOL    HW247421   6.593   2.546   7.292  1.0538  3.3398  4.2602
15313SOL     OW47422   3.489   0.169   7.241  0.2763 -0.0602  0.1670
15313SOL    HW147423   3.578   0.196   7.261 -0.3322  2.0787  0.1217
15313SOL    HW247424   3.455   0.239   7.186 -0.6320 -2.0559 -1.8850
15314SOL     OW47425   3.951   2.229   7.837 -0.0438 -0.1811  0.0369
15314SOL    HW147426   3.912   2.193   7.916  0.7378  1.7608  1.3570
15314SOL    HW247427   4.043   2.245   7.860  0.4371 -0.4842 -1.5684
15315SOL     OW47428   4.887   5.133   8.227 -0.1691 -0.6019 -0.2186
15315SOL    HW147429   4.862   5.042   8.239 -1.3097 -0.1581  0.8728
15315SOL    HW247430   4.841   5.180   8.296 -0.9788  1.0446 -1.8478
15316SOL     OW47431   7.906   6.315   6.383 -0.1179  0.3303 -0.3681
15316SOL    HW147432   7.897   6.407   6.360 -1.3632  0.7224  1.6458
15316SOL    HW247433   7.849   6.269   6.321 -0.9784  1.0985 -0.1595
15317SOL     OW47434   6.260   0.449   0.104 -0.0628 -0.1592  0.0862
15317SOL    HW147435   6.265   0.381   0.036  1.8083  0.6766 -0.6347
15317SOL    HW247436   6.228   0.526   0.058 -0.3320 -0.0224  0.5019
15318SOL     OW47437   7.584   7.748   7.788 -0.6540 -0.5164  0.2621
15318SOL    HW147438   7.639   7.759   7.865 -0.4808 -0.1404  0.0848
15318SOL    HW247439   7.620   7.672   7.743  0.1824  0.1788 -0.2513
15319SOL     OW47440   3.720   1.835   2.032 -0.1353  0.0472 -0.3283
15319SOL    HW147441   3.686   1.910   1.984 -2.8037 -2.0636 -1.8901
15319SOL    HW247442   3.759   1.780   1.965 -0.6858 -1.2626  0.4105
15320SOL     OW47443   0.720   7.245   4.452  0.1649 -0.6473  0.1958
15320SOL    HW147444   0.793   7.263   4.510  0.7574 -1.8403 -0.1641
15320SOL    HW247445   0.666   7.180   4.498 -0.2357 -0.3722  0.1208
15321SOL     OW47446   7.828   0.762   6.037  0.4579 -0.2232 -0.3817
15321SOL    HW147447   7.764   0.787   5.970  1.2095  1.3632 -0.5318
15321SOL    HW247448   7.875   0.843   6.056  1.1522 -0.9682  1.0999
15322SOL     OW47449   2.023   0.132   0.471  0.4225 -0.0599 -0.1198
15322SOL    HW147450   1.963   0.204   0.452  1.0738  0.4317 -0.3374
15322SOL    HW247451   2.071   0.160   0.549  2.4325  0.8703 -1.6257
15323SOL     OW47452   8.063   4.621   6.640  0.8788 -0.3136 -0.3626
15323SOL    HW147453   8.010   4.700   6.652 -0.6316 -1.4846  0.9063
15323SOL    HW247454   8.137   4.632   6.699  0.1208 -0.3025  0.6030
15324SOL     OW47455   7.971   0.649   3.564  0.1033 -0.1549 -0.1924
15324SOL    HW147456   7.916   0.685   3.633 -2.4441 -1.5205 -1.4197
15324SOL    HW247457   7.973   0.717   3.497  0.7723  0.3065  0.2913
15325SOL     OW47458   5.500   7.788   5.283  0.4268 -0.1212 -0.5712
15325SOL    HW147459   5.464   7.869   5.246  0.1227  0.7070  1.4496
15325SOL    HW247460   5.532   7.739   5.208  1.0854  2.1102 -1.7866
15326SOL     OW47461   1.592   6.262   3.334 -0.0652 -0.3044  0.1300
15326SOL    HW147462   1.687   6.257   3.346 -0.0211  0.8784  0.4277
15326SOL    HW247463   1.556   6.202   3.399  0.4801 -0.7877 -0.0102
15327SOL     OW47464   2.606   4.224   7.877 -0.1446 -0.6371 -0.0928
15327SOL    HW147465   2.547   4.300   7.873  0.6403 -0.0519 -0.6890
15327SOL    HW247466   2.564   4.166   7.940 -0.1082  0.8423  1.3453
15328SOL     OW47467   5.346   4.554   4.487  0.6496  0.3433  0.6896
15328SOL    HW147468   5.308   4.558   4.575  0.8302 -1.2873  0.8438
15328SOL    HW247469   5.271   4.553   4.428  0.5228  0.9667  0.8352
15329SOL     OW47470   5.014   3.516   4.944  0.2294 -0.4459  0.2740
15329SOL    HW147471   4.984   3.606   4.952 -1.0886 -0.8350 -0.1878
15329SOL    HW247472   5.105   3.519   4.972  0.7314  1.3418 -1.4225
15330SOL     OW47473   1.525   0.064   4.772  0.1508 -0.0286 -0.2604
15330SOL    HW147474   1.453   0.030   4.718  0.4948  0.5286 -1.0875
15330SOL    HW247475   1.596   0.001   4.759  0.3229  0.2467 -0.6860
15331SOL     OW47476   5.182   3.019   6.306 -0.0453 -0.4037 -0.3867
15331SOL    HW147477   5.097   2.982   6.285 -0.8975  1.9561 -1.2726
15331SOL    HW247478   5.180   3.034   6.400 -1.6523  2.0691 -0.7802
15332SOL     OW47479   2.342   4.188   0.673  0.5971 -0.6183  1.4531
15332SOL    HW147480   2.274   4.132   0.636 -1.0082  1.9422  0.4057
15332SOL    HW247481   2.389   4.223   0.597 -1.1561  2.7533  1.8194
15333SOL     OW47482   2.001   3.507   6.992  0.3636  0.1747 -0.4077
15333SOL    HW147483   2.096   3.498   6.989  0.5390  1.9500 -0.7832
15333SOL    HW247484   1.981   3.520   7.085  0.1436 -3.2300  0.0944
15334SOL     OW47485   4.036   1.047   0.634  0.0049  0.0558  0.0899
15334SOL    HW147486   4.113   1.009   0.675  1.6330  1.5451 -1.5387
15334SOL    HW247487   4.043   1.022   0.542 -1.1914  0.6433 -0.1676
15335SOL     OW47488   2.841   0.796   4.826 -0.6115 -0.1657 -0.2223
15335SOL    HW147489   2.794   0.719   4.794 -0.9251 -0.0957  0.0655
15335SOL    HW247490   2.888   0.764   4.904 -0.5491 -0.1229 -0.2426
15336SOL     OW47491   1.176   2.128   1.776  0.1872  0.2903 -0.2244
15336SOL    HW147492   1.182   2.062   1.706  2.0564  0.2704 -0.0741
15336SOL    HW247493   1.262   2.169   1.778 -1.1953  3.3788 -0.8747
15337SOL     OW47494   6.752   7.566   6.997  0.0479 -0.1370  0.0157
15337SOL    HW147495   6.671   7.516   7.002  0.4626 -0.6651  1.9384
15337SOL    HW247496   6.794   7.553   7.083  1.6389  0.9971 -0.5583
15338SOL     OW47497   4.215   1.181   4.110  0.0487 -0.4926  0.2204
15338SOL    HW147498   4.129   1.217   4.091  0.4448  0.2411 -0.1973
15338SOL    HW247499   4.206   1.143   4.198  0.2153  2.6048  1.6402
15339SOL     OW47500   7.630   6.140   2.414 -0.4862 -0.4740 -0.4245
15339SOL    HW147501   7.580   6.058   2.414 -1.0542 -0.1350 -0.9986
15339SOL    HW247502   7.716   6.116   2.448 -0.7441 -1.2539 -0.3185
15340SOL     OW47503   1.646   7.255   4.519 -0.1730  0.4992  0.0009
15340SOL    HW147504   1.701   7.210   4.455  0.0447  1.3749 -0.4471
15340SOL    HW247505   1.560   7.259   4.478 -0.3719 -0.1530  0.3531
15341SOL     OW47506   7.055   8.164   7.518  0.5568  0.2283  0.1047
15341SOL    HW147507   7.069   8.219   7.441  3.5057  1.0044  1.1237
15341SOL    HW247508   7.110   8.087   7.503  1.6808  0.6983  1.7260
15342SOL     OW47509   1.267   0.309   1.458 -0.4265  0.3540  0.3241
15342SOL    HW147510   1.212   0.245   1.504 -0.5657  1.6082  1.9451
15342SOL    HW247511   1.353   0.300   1.499 -0.2044  0.5561 -0.0979
15343SOL     OW47512   1.505   1.909   5.254  0.1357  0.0355 -0.2325
15343SOL    HW147513   1.476   1.821   5.231  0.9229 -0.4694  0.6525
15343SOL    HW247514   1.600   1.907   5.243  0.1833  0.7073  0.0100
15344SOL     OW47515   7.615   4.492   5.498 -0.3806 -0.7304  0.4000
15344SOL    HW147516   7.616   4.581   5.532 -1.6326 -0.5233 -0.0703
15344SOL    HW247517   7.573   4.499   5.412  0.9586 -1.5414 -0.3443
15345SOL     OW47518   3.558   7.653   4.706  0.2223  0.6796  0.4378
15345SOL    HW147519   3.607   7.720   4.755 -0.5721  1.7364 -0.1767
15345SOL    HW247520   3.572   7.675   4.614 -1.8552  1.3755  0.2505
15346SOL     OW47521   0.274   3.207   1.590 -0.2503 -0.5310  0.2497
15346SOL    HW147522   0.329   3.246   1.523 -0.6254 -1.5259 -0.6582
15346SOL    HW247523   0.187   3.245   1.576 -0.1948 -0.2869  0.5589
15347SOL     OW47524   5.381   8.231   7.588  0.2611  0.8774  0.6379
15347SOL    HW147525   5.381   8.207   7.495  1.3955  3.1228  0.0216
15347SOL    HW247526   5.311   8.177   7.626  0.6819 -1.0605 -1.2307
15348SOL     OW47527   0.859   0.301   0.278 -0.0659 -0.8972  0.1622
15348SOL    HW147528   0.789   0.330   0.220 -0.3792 -1.6738  0.1457
15348SOL    HW247529   0.829   0.217   0.312  1.1681 -1.5790 -0.3870
15349SOL     OW47530   0.394   3.603   6.986  0.3550 -0.6509  0.0434
15349SOL    HW147531   0.313   3.581   6.941  0.3221  2.4972 -1.6036
15349SOL    HW247532   0.461   3.603   6.916  0.3353  4.1209 -0.1834
15350SOL     OW47533   7.468   1.510   1.832 -0.1041 -0.1326  0.2004
15350SOL    HW147534   7.430   1.441   1.778  0.1796 -1.8878  2.1385
15350SOL    HW247535   7.561   1.487   1.838 -0.3286 -0.6058  2.2810
15351SOL     OW47536   3.614   5.143   4.058  0.4108  0.4318  0.7341
15351SOL    HW147537   3.673   5.167   3.987  0.0072 -1.4843 -0.3022
15351SOL    HW247538   3.648   5.059   4.090 -0.8375  0.0556  1.1271
15352SOL     OW47539   0.429   4.402   0.205 -0.3929 -0.3228  0.1087
15352SOL    HW147540   0.419   4.445   0.120 -0.4082  2.6669  1.5424
15352SOL    HW247541   0.522   4.406   0.224 -0.3551 -1.2095  0.1402
15353SOL     OW47542   8.034   0.644   7.166 -0.4092 -0.0716 -0.2306
15353SOL    HW147543   8.060   0.660   7.257 -0.6143  0.1759 -0.2125
15353SOL    HW247544   8.003   0.554   7.165  1.0861 -0.5930 -0.4055
15354SOL     OW47545   6.384   4.202   3.785  0.2800 -0.3339 -0.3392
15354SOL    HW147546   6.340   4.287   3.781  0.8766  0.0582  1.1751
15354SOL    HW247547   6.319   4.142   3.822 -0.5940 -0.8735 -2.6269
15355SOL     OW47548   0.778   0.957   2.917  0.6311  0.0235 -0.0323
15355SOL    HW147549   0.867   0.985   2.937  0.7360 -0.6718  0.5297
15355SOL    HW247550   0.786   0.907   2.836  1.0027 -1.3125  0.8126
15356SOL     OW47551   4.627   3.237   8.108 -0.1463 -0.3288  0.0199
15356SOL    HW147552   4.670   3.155   8.131  0.0036  0.4298  2.5589
15356SOL    HW247553   4.576   3.261   8.186 -0.6631  1.6908 -0.8858
15357SOL     OW47554   5.692   6.838   5.254  0.2194 -0.0485  1.3095
15357SOL    HW147555   5.620   6.830   5.192  1.6368  1.6411 -0.6135
15357SOL    HW247556   5.751   6.766   5.231 -0.6670 -1.2170  2.6515
15358SOL     OW47557   4.184   7.550   1.136  0.3721 -0.6735  0.0687
15358SOL    HW147558   4.178   7.602   1.056  1.5848  0.6222  0.8090
15358SOL    HW247559   4.182   7.614   1.207 -2.4267 -1.8821  1.1944
15359SOL     OW47560   6.462   7.381   0.001  0.6761 -0.7780  0.0147
15359SOL    HW147561   6.482   7.292  -0.028  2.8114 -0.0077 -0.9614
15359SOL    HW247562   6.385   7.406  -0.049  1.1162 -1.4538 -1.0207
15360SOL     OW47563   1.088   4.666   7.369  0.4647  0.4967 -0.0953
15360SOL    HW147564   1.109   4.630   7.455 -0.1877 -0.6882 -0.4270
15360SOL    HW247565   1.016   4.727   7.386 -0.0300 -0.1381  0.1344
15361SOL     OW47566   7.529   6.153   1.005  0.2512  1.0640 -0.5035
15361SOL    HW147567   7.574   6.236   1.019 -0.4230  1.2606  0.5824
15361SOL    HW247568   7.491   6.132   1.091  0.0963 -0.1692 -0.8665
15362SOL     OW47569   0.270   6.360   8.046 -0.0741  0.7146  0.3021
15362SOL    HW147570   0.225   6.412   7.979 -1.5971 -1.7492 -0.6559
15362SOL    HW247571   0.284   6.275   8.005  2.1418  0.2543  1.9254
15363SOL     OW47572   5.803   2.830   2.939 -0.5079  0.4451  0.0653
15363SOL    HW147573   5.822   2.738   2.956 -0.4071  0.1526 -1.5098
15363SOL    HW247574   5.753   2.859   3.015  0.3078 -0.6348  1.0386
15364SOL     OW47575   1.663   6.561   1.484  0.0518  0.2381  0.0745
15364SOL    HW147576   1.581   6.605   1.465  0.3537  1.1469  0.8590
15364SOL    HW247577   1.729   6.630   1.483  0.5114 -0.1672  1.4294
15365SOL     OW47578   6.278   3.316   1.553 -0.6912  0.1277 -0.0237
15365SOL    HW147579   6.308   3.268   1.475 -0.9456 -0.3236  0.1549
15365SOL    HW247580   6.271   3.249   1.621  1.1888  0.8006  0.8646
15366SOL     OW47581   2.144   8.053   2.827  0.1591  0.7365 -0.0743
15366SOL    HW147582   2.154   7.966   2.866  1.6416  0.4613 -1.0527
15366SOL    HW247583   2.225   8.098   2.849 -0.7041  1.9727  0.6313
15367SOL     OW47584   6.632   6.031   0.764 -0.0457  0.4523  0.7023
15367SOL    HW147585   6.694   5.985   0.707 -0.9714  0.3755 -0.2583
15367SOL    HW247586   6.589   6.095   0.707  0.1075  1.4288  1.6751
15368SOL     OW47587   3.362   6.022   2.681  0.0097 -0.0821 -0.0879
15368SOL    HW147588   3.398   6.110   2.671 -0.5342  0.0542 -0.8608
15368SOL    HW247589   3.438   5.968   2.704  0.5085  0.4176 -0.5454
15369SOL     OW47590   3.668   4.568   7.095 -0.0803  0.3466  0.5999
15369SOL    HW147591   3.687   4.599   7.184  0.1255 -0.5566  0.8775
15369SOL    HW247592   3.753   4.568   7.051  0.2982 -1.9038  1.2718
15370SOL     OW47593   2.297   1.091   3.020  0.5530  0.1964 -0.1316
15370SOL    HW147594   2.209   1.057   3.037  0.3010  1.4081  1.0626
15370SOL    HW247595   2.333   1.032   2.954 -0.1859 -1.8724  1.2524
15371SOL     OW47596   2.282   2.705   1.801 -0.3787  0.3275 -0.0020
15371SOL    HW147597   2.297   2.626   1.748 -1.6395 -0.2258  0.4457
15371SOL    HW247598   2.367   2.724   1.840  0.1125 -0.3707 -0.7097
15372SOL     OW47599   5.866   0.955   7.212 -0.3019  0.1164 -0.5979
15372SOL    HW147600   5.787   0.907   7.237  0.9143 -1.7787 -0.3244
15372SOL    HW247601   5.909   0.973   7.295 -0.5115  1.2937 -0.7370
15373SOL     OW47602   2.662   3.143   4.110 -0.3104  0.5160 -0.3280
15373SOL    HW147603   2.682   3.120   4.019 -0.3744  1.0372 -0.4698
15373SOL    HW247604   2.727   3.209   4.133 -1.2692  1.5164 -0.4842
15374SOL     OW47605   5.035   7.147   7.109 -0.0317 -0.5327 -0.2823
15374SOL    HW147606   4.939   7.152   7.104 -0.0347 -1.7845 -2.1940
15374SOL    HW247607   5.053   7.053   7.117  0.9689 -0.1388  2.2147
15375SOL     OW47608   6.882   0.290   2.640  0.0832 -0.5153 -0.0229
15375SOL    HW147609   6.899   0.274   2.732 -1.3160 -0.0366  0.3259
15375SOL    HW247610   6.823   0.365   2.639  0.4945 -0.1944 -1.3292
15376SOL     OW47611   7.056   5.362   0.757 -0.6324 -0.6285 -0.7234
15376SOL    HW147612   6.976   5.413   0.746  0.0170  0.1275 -2.0772
15376SOL    HW247613   7.072   5.361   0.851 -1.8452 -0.1848 -0.5081
15377SOL     OW47614   0.867   5.964   1.615 -0.0826 -0.5009 -0.3467
15377SOL    HW147615   0.926   5.896   1.582  0.7599 -0.2496  0.6264
15377SOL    HW247616   0.885   5.968   1.709  2.2146  3.2264 -0.8123
15378SOL     OW47617   1.744   2.247   6.693 -0.3920 -0.4678 -0.3961
15378SOL    HW147618   1.749   2.152   6.693  0.1472 -0.4803  1.5738
15378SOL    HW247619   1.833   2.276   6.673 -0.4358 -0.3890 -0.4763
15379SOL     OW47620   1.607   1.337   0.905  0.1665  0.3840  0.2127
15379SOL    HW147621   1.620   1.431   0.898 -0.2014  0.3748 -0.6875
15379SOL    HW247622   1.674   1.299   0.848  0.1114  0.1160  0.3237
15380SOL     OW47623   7.128   5.930   0.612 -0.4344  0.0758  0.7737
15380SOL    HW147624   7.192   5.946   0.682 -1.4437  0.1411  1.6909
15380SOL    HW247625   7.107   6.018   0.579  1.5907 -0.0668 -1.0550
15381SOL     OW47626   5.980   5.390   2.791  0.0372  0.4985 -0.2266
15381SOL    HW147627   5.889   5.416   2.776 -0.2060 -0.0684  0.2398
15381SOL    HW247628   6.030   5.471   2.783 -0.5769  0.9144  0.1043
15382SOL     OW47629   1.762   0.453   5.257 -0.0994 -0.0884  0.1559
15382SOL    HW147630   1.701   0.462   5.329 -0.0094  1.3029  0.0752
15382SOL    HW247631   1.726   0.509   5.188  0.1329 -0.9275 -0.6578
15383SOL     OW47632   3.917   2.591   2.682 -0.5108 -0.1792  0.1511
15383SOL    HW147633   3.962   2.516   2.644 -1.7115 -0.5123 -0.6269
15383SOL    HW247634   3.916   2.656   2.612  0.4517  0.5541  0.7927
15384SOL     OW47635   4.903   5.457   1.597 -0.4137  0.5235 -0.1173
15384SOL    HW147636   4.899   5.536   1.652  1.2162  1.0936 -0.7919
15384SOL    HW247637   4.964   5.399   1.642 -0.6521  0.1427 -0.2794
15385SOL     OW47638   1.821   7.887   5.594  0.2200 -0.1500 -0.3122
15385SOL    HW147639   1.910   7.905   5.563  0.3822 -0.7363 -0.1923
15385SOL    HW247640   1.801   7.961   5.652  0.7327 -0.1567 -0.1222
15386SOL     OW47641   5.938   3.963   5.709 -0.2524  0.0483 -0.1854
15386SOL    HW147642   6.003   3.893   5.718 -0.9272 -0.9692 -2.8342
15386SOL    HW247643   5.984   4.034   5.664  0.1286  0.9408  1.5525
15387SOL     OW47644   3.461   7.247   2.764  0.4909  0.1188  0.0479
15387SOL    HW147645   3.541   7.195   2.760  0.7002  0.3694  1.0343
15387SOL    HW247646   3.481   7.319   2.823 -0.6219 -0.0952  0.7191
15388SOL     OW47647   2.167   2.940   5.321 -0.1746  0.2761  0.7778
15388SOL    HW147648   2.085   2.939   5.271  0.3022 -1.4734 -0.0074
15388SOL    HW247649   2.152   2.879   5.393 -0.1351  1.2285  1.6050
15389SOL     OW47650   0.249   3.322   4.556 -0.4678 -0.2028 -0.7593
15389SOL    HW147651   0.283   3.411   4.558  0.7995 -0.6982  0.1068
15389SOL    HW247652   0.155   3.333   4.543 -0.4023  1.2734 -0.1324
15390SOL     OW47653   0.362   3.977   8.068 -0.0772  0.1716  0.4296
15390SOL    HW147654   0.389   4.035   7.996  0.9183  0.4192  0.9977
15390SOL    HW247655   0.336   4.036   8.138  0.7992 -0.0623  0.9585
15391SOL     OW47656   0.534   2.501   3.626 -0.6676 -0.0083  0.0060
15391SOL    HW147657   0.535   2.443   3.549  1.6921  0.0897 -0.0506
15391SOL    HW247658   0.588   2.456   3.690  1.0718  2.0550  0.0208
15392SOL     OW47659   3.943   4.228   4.114 -0.0604  0.6145  0.2137
15392SOL    HW147660   3.898   4.284   4.178  1.9880  0.5262  1.7658
15392SOL    HW247661   3.979   4.289   4.049  1.3382  1.0353  1.3730
15393SOL     OW47662   5.254   4.804   3.328  0.0508  0.5066 -0.8300
15393SOL    HW147663   5.228   4.713   3.342  0.6096  0.4395 -0.2307
15393SOL    HW247664   5.268   4.840   3.416  2.5084  0.3829 -1.1242
15394SOL     OW47665   5.092   4.601   0.827  0.4086 -0.3799  0.0589
15394SOL    HW147666   5.121   4.685   0.790 -0.9683  0.8881  1.7867
15394SOL    HW247667   5.065   4.550   0.751  2.9659  0.0176 -1.2048
15395SOL     OW47668   5.136   6.868   7.137 -0.1858  0.5338 -0.2886
15395SOL    HW147669   5.111   6.852   7.229 -0.4445  0.9122 -0.2896
15395SOL    HW247670   5.182   6.788   7.111  0.7289  0.8069  0.4625
15396SOL     OW47671   7.944   3.691   8.216  0.1582  0.0149 -0.2782
15396SOL    HW147672   8.027   3.674   8.261 -0.5938  0.7082  1.3991
15396SOL    HW247673   7.885   3.721   8.285 -1.2670  0.2907 -1.5959
15397SOL     OW47674   0.307   0.145   0.429 -0.1959  0.2410  0.2606
15397SOL    HW147675   0.245   0.072   0.417 -0.2054  0.0819  1.2066
15397SOL    HW247676   0.366   0.139   0.354 -0.8745 -0.0657 -0.2554
15398SOL     OW47677   6.549   8.194   5.738 -0.1882  0.3253 -0.2196
15398SOL    HW147678   6.508   8.280   5.728  0.7452  0.5889 -2.0075
15398SOL    HW247679   6.642   8.210   5.721 -0.0476 -1.0792 -0.8139
15399SOL     OW47680   0.780   1.142   5.505 -0.2534 -0.5114  0.0626
15399SOL    HW147681   0.764   1.089   5.583  0.4129 -0.9992 -0.1314
15399SOL    HW247682   0.865   1.114   5.474 -0.6370 -0.5099 -1.0002
15400SOL     OW47683   7.371   5.307   0.007  0.0389 -0.0703 -0.1408
15400SOL    HW147684   7.327   5.374  -0.046 -0.0764 -0.8820 -1.1002
15400SOL    HW247685   7.422   5.257  -0.057 -0.1576 -1.1196  0.5185
15401SOL     OW47686   6.372   2.799   7.060 -0.6040 -0.1324  0.1643
15401SOL    HW147687   6.293   2.777   7.109 -0.6858 -2.6505 -0.9873
15401SOL    HW247688   6.354   2.884   7.020 -1.3209  0.9748  2.8075
15402SOL     OW47689   7.554   0.973   6.577 -0.5134  0.2274  0.8308
15402SOL    HW147690   7.542   0.881   6.552 -1.2411  0.3069  0.8757
15402SOL    HW247691   7.598   1.012   6.502 -0.8357  0.0009  0.5215
15403SOL     OW47692   2.985   6.086   5.166  0.0193 -0.2672  0.1060
15403SOL    HW147693   3.051   6.057   5.229  0.6966 -0.2477 -0.5869
15403SOL    HW247694   2.924   6.012   5.160 -0.2035 -0.1585  0.9883
15404SOL     OW47695   0.008   2.933   4.932  0.1823  0.2781  0.3572
15404SOL    HW147696   0.027   2.855   4.880 -1.2186 -0.7701  1.3841
15404SOL    HW247697  -0.068   2.910   4.985  0.9451  1.6509  2.1533
15405SOL     OW47698   1.376   0.166   1.231  0.3748 -0.2921  0.1638
15405SOL    HW147699   1.313   0.140   1.164  0.2774  1.2573 -0.3802
15405SOL    HW247700   1.333   0.239   1.277  2.0532  1.2938 -0.7147
15406SOL     OW47701   1.042   1.640   1.507 -0.1406  0.0734  0.2139
15406SOL    HW147702   0.951   1.611   1.512  0.4019 -1.3850  2.7465
15406SOL    HW247703   1.079   1.594   1.431 -1.2743  0.0180 -0.3054
15407SOL     OW47704   5.388   3.499   6.838  0.2021  0.0779  0.0026
15407SOL    HW147705   5.323   3.457   6.780 -0.6725  0.2687  0.8267
15407SOL    HW247706   5.366   3.592   6.835 -1.4461 -0.1845  2.5585
15408SOL     OW47707   5.365   3.987   1.147  0.9507  0.6570  0.1679
15408SOL    HW147708   5.399   3.944   1.068  0.0156 -1.1119  0.7114
15408SOL    HW247709   5.271   3.992   1.133  0.8939  1.2745  0.7429
15409SOL     OW47710   3.999   4.187   4.558 -0.3850  0.7440 -0.0645
15409SOL    HW147711   4.019   4.268   4.513 -0.2957  1.1654  0.7270
15409SOL    HW247712   4.077   4.167   4.609 -0.8137  0.7454  0.5999
15410SOL     OW47713   7.431   5.118   0.829 -0.1871 -0.4633 -0.3563
15410SOL    HW147714   7.435   5.115   0.925 -0.9573 -0.4675 -0.3239
15410SOL    HW247715   7.474   5.037   0.801  0.6068 -0.1600 -0.0314
15411SOL     OW47716   5.171   1.395   3.307  0.3592 -0.2653  0.5084
15411SOL    HW147717   5.084   1.371   3.275 -0.7697  1.8612  1.8586
15411SOL    HW247718   5.226   1.319   3.288 -2.1572 -2.2964  1.1409
15412SOL     OW47719   5.974   6.802   8.157 -0.1657 -0.2979 -0.0570
15412SOL    HW147720   6.043   6.790   8.092 -0.4760 -2.6622  0.0156
15412SOL    HW247721   6.014   6.857   8.224  0.8823  0.2886 -1.1416
15413SOL     OW47722   0.788   6.838   6.703 -0.2069  0.1204 -0.6798
15413SOL    HW147723   0.707   6.788   6.710 -0.2082  0.0541 -1.1378
15413SOL    HW247724   0.762   6.928   6.724 -0.5313  0.2145 -1.4616
15414SOL     OW47725   4.406   0.137   5.176 -0.3441 -0.2804 -0.3902
15414SOL    HW147726   4.424   0.116   5.268 -0.9463 -2.0636 -0.6578
15414SOL    HW247727   4.313   0.162   5.175 -0.8108 -1.9868 -0.7813
15415SOL     OW47728   3.391   1.505   6.216 -0.0227  0.0337  0.2141
15415SOL    HW147729   3.327   1.436   6.231 -0.9537  0.5770 -1.1438
15415SOL    HW247730   3.462   1.463   6.168 -0.6001  0.0046 -0.6312
15416SOL     OW47731   0.988   0.817   6.181 -0.4323 -0.2280 -0.1666
15416SOL    HW147732   0.963   0.736   6.226 -1.0633 -1.4084 -2.5776
15416SOL    HW247733   1.028   0.871   6.250 -0.5245 -2.3450  1.6047
15417SOL     OW47734   4.516   3.403   5.320  0.5780 -0.2023  0.3744
15417SOL    HW147735   4.554   3.345   5.254  1.2897  0.0283  0.5794
15417SOL    HW247736   4.584   3.409   5.388 -0.4259 -1.0286  1.4659
15418SOL     OW47737   4.512   2.070   4.419  0.0791  0.5169 -0.4243
15418SOL    HW147738   4.433   2.100   4.463  0.2135 -0.2139  0.3181
15418SOL    HW247739   4.531   2.139   4.355 -1.0695  0.7599 -0.5146
15419SOL     OW47740   5.756   2.273   6.899 -0.4218 -0.6942  0.6263
15419SOL    HW147741   5.824   2.338   6.914 -2.0397  1.0178  0.6439
15419SOL    HW247742   5.690   2.290   6.966 -1.4201 -1.6039 -0.1019
15420SOL     OW47743   4.754   4.518   1.578  0.0263 -0.2716  0.0116
15420SOL    HW147744   4.725   4.556   1.495  0.6978 -0.4794 -0.3219
15420SOL    HW247745   4.804   4.588   1.620 -1.3456  0.2439  0.7986
15421SOL     OW47746   2.311   5.883   1.502  0.1348  0.7284 -0.6479
15421SOL    HW147747   2.337   5.946   1.569  1.6764 -1.2333  0.6469
15421SOL    HW247748   2.242   5.832   1.544 -0.9538  1.3679 -1.6184
15422SOL     OW47749   3.946   5.122   5.881 -0.2311  0.5654  0.2256
15422SOL    HW147750   3.883   5.193   5.867  0.9214  1.5985  0.2756
15422SOL    HW247751   3.995   5.117   5.799 -1.0766 -0.9634 -0.2087
15423SOL     OW47752   2.714   3.411   1.505 -0.5025 -0.4561  0.3102
15423SOL    HW147753   2.715   3.430   1.411  1.1246 -0.1026  0.3828
15423SOL    HW247754   2.701   3.496   1.547  0.3173 -0.3964  0.4475
15424SOL     OW47755   5.745   4.944   0.291  0.0035 -0.0479 -0.2509
15424SOL    HW147756   5.688   4.945   0.368 -0.7897  0.1646 -0.8244
15424SOL    HW247757   5.799   5.023   0.300  0.7867 -0.6917  0.7189
15425SOL     OW47758   6.343   7.135   2.705 -0.0711  0.1333  0.3457
15425SOL    HW147759   6.300   7.088   2.634  0.7993 -0.8342  0.4605
15425SOL    HW247760   6.290   7.214   2.716 -1.6540 -0.8960  0.2831
15426SOL     OW47761   8.034   3.005   1.785  0.3262  0.0327  0.0657
15426SOL    HW147762   8.036   2.973   1.875  2.4244 -0.7686 -0.2369
15426SOL    HW247763   8.092   3.081   1.786 -0.6212  0.7624 -0.3419
15427SOL     OW47764   3.833   0.210   2.212  0.0896  0.3162  0.0244
15427SOL    HW147765   3.739   0.224   2.219 -0.1806 -0.6327 -1.3463
15427SOL    HW247766   3.873   0.292   2.240 -1.1474  0.6922  0.6837
15428SOL     OW47767   7.983   1.387   1.395  0.3409 -0.0690 -0.2345
15428SOL    HW147768   8.016   1.403   1.306 -0.5789 -0.3832 -0.6357
15428SOL    HW247769   8.027   1.453   1.449 -0.9253  1.7120 -1.3231
15429SOL     OW47770   2.477   5.107   5.503  0.5244 -0.0759 -0.4089
15429SOL    HW147771   2.475   5.138   5.594 -0.5855  1.2292 -0.8736
15429SOL    HW247772   2.552   5.152   5.464 -1.2698  2.3477 -1.1708
15430SOL     OW47773   1.291   3.669   2.416 -0.4513 -0.6857 -0.0484
15430SOL    HW147774   1.284   3.574   2.411  1.5629 -0.8002 -1.2095
15430SOL    HW247775   1.380   3.685   2.449 -1.0698  0.7930  0.9814
15431SOL     OW47776   0.681   7.161   2.276  0.0504  0.1440  0.0790
15431SOL    HW147777   0.651   7.102   2.207 -1.7944  1.9543 -0.7211
15431SOL    HW247778   0.746   7.216   2.234 -1.0769  1.2504 -0.2492
15432SOL     OW47779   2.511   7.542   2.067 -0.0154 -0.7028  0.2102
15432SOL    HW147780   2.526   7.504   1.981 -1.3303  0.0383 -0.3486
15432SOL    HW247781   2.416   7.549   2.074  0.1633  1.1594  0.8911
15433SOL     OW47782   4.552   1.674   2.734  0.3499 -0.0085  0.3377
15433SOL    HW147783   4.563   1.740   2.802 -0.7321 -0.1673  0.6749
15433SOL    HW247784   4.595   1.711   2.657 -0.9889  1.4898  0.2714
15434SOL     OW47785   2.550   2.774   4.921  0.2152  0.7596  0.3766
15434SOL    HW147786   2.556   2.850   4.978  0.6436 -0.3779  1.9028
15434SOL    HW247787   2.465   2.735   4.941 -0.8210  1.8267 -1.7352
15435SOL     OW47788   5.584   6.125   1.013 -1.1625  0.5528  0.1896
15435SOL    HW147789   5.649   6.193   0.994 -1.5324  0.7295 -0.4670
15435SOL    HW247790   5.547   6.149   1.097 -1.0583  0.9866  0.1125
15436SOL     OW47791   2.140   0.707   2.025 -0.0374  0.1431  0.2787
15436SOL    HW147792   2.057   0.704   1.977  0.4983  2.2235 -0.8433
15436SOL    HW247793   2.115   0.707   2.117 -1.2473  0.0963 -0.0398
15437SOL     OW47794   6.294   7.658   3.158 -0.2386  0.4192  0.2242
15437SOL    HW147795   6.385   7.675   3.181  0.1912 -1.0357 -0.2923
15437SOL    HW247796   6.287   7.562   3.161 -1.6229  0.5048 -0.1939
15438SOL     OW47797   6.685   5.344   0.567  0.0620 -0.0479 -0.4575
15438SOL    HW147798   6.738   5.424   0.566  0.2079 -0.1421 -0.1970
15438SOL    HW247799   6.604   5.369   0.522  0.0175  0.3071 -0.1837
15439SOL     OW47800   5.118   8.041   7.697 -0.5042 -0.0201  0.1382
15439SOL    HW147801   5.093   8.041   7.605 -0.3812 -1.3234  0.0909
15439SOL    HW247802   5.099   7.952   7.727 -0.8532  0.4950  1.4579
15440SOL     OW47803   6.961   5.703   1.616  0.1913 -0.6281  0.2673
15440SOL    HW147804   6.909   5.642   1.668 -0.1400  0.3817  1.1305
15440SOL    HW247805   6.933   5.686   1.526 -1.8871  0.1058  0.7378
15441SOL     OW47806   5.081   0.498   3.804 -0.5162  0.0583  0.1023
15441SOL    HW147807   5.093   0.588   3.775  1.7834  0.4190  2.0310
15441SOL    HW247808   5.156   0.451   3.768 -0.3483 -0.5445  1.2095
15442SOL     OW47809   6.300   0.709   7.212 -0.4041  0.1268 -0.7432
15442SOL    HW147810   6.305   0.613   7.207 -0.1823  0.0839  0.2074
15442SOL    HW247811   6.227   0.726   7.272  0.0402  0.5382 -0.3154
15443SOL     OW47812   6.511   6.199   4.305 -0.0869 -0.1661 -0.2934
15443SOL    HW147813   6.591   6.209   4.356  0.1769  0.8663 -0.8908
15443SOL    HW247814   6.441   6.196   4.371  0.2290  1.3640  0.1451
15444SOL     OW47815   0.501   2.641   2.923 -0.3367 -0.0401  0.4798
15444SOL    HW147816   0.591   2.626   2.953 -0.6752 -0.7701  1.1727
15444SOL    HW247817   0.499   2.606   2.834  0.1778  0.3629  0.3119
15445SOL     OW47818   0.417   4.368   8.188 -1.2800 -0.3162 -0.7885
15445SOL    HW147819   0.419   4.458   8.155  1.1248 -0.3136 -0.7339
15445SOL    HW247820   0.476   4.320   8.131  0.8829 -0.8975  1.8245
15446SOL     OW47821   4.889   4.672   5.298 -0.0295 -0.1368 -0.1167
15446SOL    HW147822   4.946   4.645   5.370 -2.8055  0.2018  2.2573
15446SOL    HW247823   4.831   4.598   5.283  0.4873 -0.1912 -2.0180
15447SOL     OW47824   3.331   4.771   0.237  0.3866 -0.0071  0.2100
15447SOL    HW147825   3.371   4.773   0.325 -0.2939 -1.0325  0.5505
15447SOL    HW247826   3.396   4.725   0.183  0.4236 -0.1652  0.3847
15448SOL     OW47827   1.996   1.216   2.198 -0.0018  0.4350 -0.0208
15448SOL    HW147828   2.089   1.196   2.200 -0.3226 -1.1852 -1.1412
15448SOL    HW247829   1.961   1.165   2.125 -1.6595  1.4995  0.0001
15449SOL     OW47830   1.942   6.453   1.862 -0.2671  0.1397 -0.4811
15449SOL    HW147831   2.017   6.481   1.810 -0.2875 -0.1387 -0.6586
15449SOL    HW247832   1.975   6.381   1.915 -0.0552  0.8887  0.4193
15450SOL     OW47833   6.206   0.290   2.828  0.2039  0.3251 -0.1425
15450SOL    HW147834   6.144   0.323   2.894  0.6272  0.4007  0.2199
15450SOL    HW247835   6.216   0.197   2.848 -0.0280  0.2475 -0.3891
15451SOL     OW47836   5.513   5.641   1.414 -0.1623 -0.2061 -0.1826
15451SOL    HW147837   5.564   5.717   1.444 -0.0926  0.4071 -1.8074
15451SOL    HW247838   5.425   5.676   1.399 -0.4233 -0.7085  0.1591
15452SOL     OW47839   6.602   3.263   5.306 -0.0907  0.1019  0.4098
15452SOL    HW147840   6.601   3.204   5.231 -1.9988  1.9157 -1.0497
15452SOL    HW247841   6.690   3.252   5.343  0.8760 -0.8908 -2.0313
15453SOL     OW47842   6.054   3.728   6.170 -0.0623 -0.1659  0.0504
15453SOL    HW147843   6.133   3.739   6.117 -0.9697  3.1206 -0.6936
15453SOL    HW247844   6.012   3.649   6.134  0.3307  0.8990 -2.9007
15454SOL     OW47845   6.584   3.435   7.292  0.4802 -0.2505  0.1836
15454SOL    HW147846   6.497   3.418   7.256  0.3276  1.9266 -0.5704
15454SOL    HW247847   6.621   3.348   7.308 -1.6982 -1.2057  0.2030
15455SOL     OW47848   6.292   6.826   1.221  0.4351 -0.0253  0.0430
15455SOL    HW147849   6.354   6.795   1.155  1.7589 -0.7101  1.5556
15455SOL    HW247850   6.311   6.771   1.298 -1.8782 -0.0660  0.6072
15456SOL     OW47851   5.416   3.626   1.364  0.4616 -0.3301  0.4818
15456SOL    HW147852   5.387   3.576   1.287  1.5782 -1.0751  0.5258
15456SOL    HW247853   5.341   3.623   1.424 -0.8937  1.3366 -1.0742
15457SOL     OW47854   7.863   0.139   2.405 -0.4544 -0.8495  0.5124
15457SOL    HW147855   7.783   0.109   2.447 -1.4256 -0.2806 -0.8882
15457SOL    HW247856   7.933   0.089   2.447 -1.8012 -3.3095 -0.0699
15458SOL     OW47857   1.247   7.631   5.348  0.1784 -0.4850 -0.6935
15458SOL    HW147858   1.227   7.567   5.416 -0.5459  1.5791  1.1093
15458SOL    HW247859   1.343   7.635   5.345  0.2090 -0.6926  0.0923
15459SOL     OW47860   1.973   8.222   3.470  0.0692 -0.4056 -0.1715
15459SOL    HW147861   1.910   8.295   3.467  0.7285  0.2436  1.0873
15459SOL    HW247862   1.919   8.144   3.461 -1.0391  0.1062  1.5385
15460SOL     OW47863   5.399   2.016   7.639  0.3132  0.2202 -0.0706
15460SOL    HW147864   5.319   2.018   7.692  0.4757 -0.2660  0.1914
15460SOL    HW247865   5.391   2.093   7.582  0.3348  0.9980  0.9619
15461SOL     OW47866   4.280   0.358   2.027 -0.1963  0.5701 -0.0530
15461SOL    HW147867   4.371   0.378   2.006 -0.1052  2.0096  1.6033
15461SOL    HW247868   4.232   0.438   2.005 -0.8454  0.3142  0.4227
15462SOL     OW47869   5.122   1.761   0.723 -0.2149 -0.0192 -0.1687
15462SOL    HW147870   5.120   1.673   0.685  1.7863 -0.4185  0.5750
15462SOL    HW247871   5.161   1.748   0.809 -2.3945  1.2323  1.0523
15463SOL     OW47872   4.175   5.661   1.989  0.3342 -0.0453 -0.1272
15463SOL    HW147873   4.126   5.735   1.954 -0.6450 -1.1917 -1.2266
15463SOL    HW247874   4.240   5.642   1.922  1.1408  0.3435  0.5348
15464SOL     OW47875   4.884   7.710   5.126 -0.0927  0.3693  0.5787
15464SOL    HW147876   4.875   7.806   5.119  1.0304  0.5218  1.0908
15464SOL    HW247877   4.802   7.676   5.091 -0.7775  1.5466  0.9919
15465SOL     OW47878   1.598   2.242   1.103 -0.4642 -0.5041  0.1313
15465SOL    HW147879   1.577   2.255   1.011 -0.4864  1.9606  0.4446
15465SOL    HW247880   1.523   2.195   1.139 -0.4939 -1.3988 -1.0698
15466SOL     OW47881   2.899   5.358   5.587 -0.1604  0.0740 -0.1394
15466SOL    HW147882   2.942   5.328   5.667 -0.0118  0.8495  0.0773
15466SOL    HW247883   2.875   5.449   5.605 -0.0033  0.2985 -1.0181
15467SOL     OW47884   1.108   7.749   1.021  0.3194 -0.2186 -0.4911
15467SOL    HW147885   1.059   7.828   1.044  1.8413  0.6039 -0.0121
15467SOL    HW247886   1.174   7.780   0.959  0.5712 -1.2352 -0.7356
15468SOL     OW47887   5.605   4.874   8.161 -0.2437 -0.0691 -0.5078
15468SOL    HW147888   5.567   4.847   8.245  1.1197 -0.2547  0.0723
15468SOL    HW247889   5.606   4.794   8.108  2.1797 -0.8156  0.5877
15469SOL     OW47890   7.929   2.487   4.889 -0.2254 -0.7060 -0.6631
15469SOL    HW147891   7.918   2.439   4.807 -0.8622 -0.2338 -0.8535
15469SOL    HW247892   7.964   2.572   4.863 -1.0251 -0.3272 -0.4985
15470SOL     OW47893   3.694   0.886   4.391 -0.3438 -0.0096  0.4250
15470SOL    HW147894   3.620   0.947   4.396 -0.9147 -0.6930  0.4621
15470SOL    HW247895   3.731   0.886   4.479 -1.1846 -0.7375  0.7932
15471SOL     OW47896   1.603   6.211   4.108  0.1107  0.4346 -0.0906
15471SOL    HW147897   1.552   6.205   4.189 -1.4964  0.9243 -1.0464
15471SOL    HW247898   1.647   6.296   4.114 -0.0174  0.4784  0.2604
15472SOL     OW47899   1.104   7.774   4.558 -0.0233  0.4420  0.7695
15472SOL    HW147900   1.180   7.731   4.517 -0.2730  0.4617  0.2787
15472SOL    HW247901   1.137   7.860   4.582  0.2262  0.3040  0.9260
15473SOL     OW47902   5.863   1.391   8.091 -0.7230  0.0145  0.1102
15473SOL    HW147903   5.856   1.478   8.051  0.5323  1.1815  2.3389
15473SOL    HW247904   5.774   1.370   8.119 -1.0395  0.5404 -0.4914
15474SOL     OW47905   3.037   2.097   1.860 -0.8671  0.0466  0.1128
15474SOL    HW147906   3.061   2.011   1.824 -0.5643  0.2400 -0.1435
15474SOL    HW247907   3.062   2.092   1.952 -0.4869 -0.0009  0.0073
15475SOL     OW47908   1.761   3.899   4.445 -0.3518  0.2891 -0.1925
15475SOL    HW147909   1.741   3.915   4.353  0.2279 -0.0791 -0.3824
15475SOL    HW247910   1.675   3.896   4.487 -0.6775 -0.4634 -0.8784
15476SOL     OW47911   0.415   6.250   1.991 -0.1134  0.0511  0.0278
15476SOL    HW147912   0.358   6.223   2.063 -2.7225  0.4641 -1.7951
15476SOL    HW247913   0.371   6.217   1.912  0.6829  2.8330 -1.6564
15477SOL     OW47914   4.741   2.511   2.281 -0.4009 -0.1901 -0.1074
15477SOL    HW147915   4.784   2.566   2.216 -0.7617 -0.0249 -0.2101
15477SOL    HW247916   4.734   2.567   2.359 -0.2430 -0.2868 -0.0217
15478SOL     OW47917   7.117   7.017   3.004  0.6295  0.3125 -0.4765
15478SOL    HW147918   7.167   6.973   3.073 -0.1022 -1.4322 -1.0331
15478SOL    HW247919   7.030   7.031   3.042  0.8537  1.2909 -0.3062
15479SOL     OW47920   7.753   7.764   5.069 -0.6758 -0.0319  0.2283
15479SOL    HW147921   7.689   7.825   5.106 -0.5042 -0.7123  1.6676
15479SOL    HW247922   7.732   7.762   4.975 -0.5987  2.3261  0.1220
15480SOL     OW47923   1.127   5.941   2.441  0.0370 -0.1214  0.7022
15480SOL    HW147924   1.102   5.849   2.437  1.2248 -0.5239  2.0560
15480SOL    HW247925   1.134   5.969   2.350 -0.1039 -1.4238  0.2859
15481SOL     OW47926   6.449   7.861   8.296  0.1958  0.4239  0.5504
15481SOL    HW147927   6.381   7.797   8.275 -1.1657  1.2460  2.3606
15481SOL    HW247928   6.472   7.899   8.211  0.4600 -1.8591 -0.4506
15482SOL     OW47929   7.885   6.818   7.724 -0.3524 -0.0512 -0.5310
15482SOL    HW147930   7.896   6.841   7.816  0.5707  0.4293 -0.7580
15482SOL    HW247931   7.918   6.728   7.718 -0.9845 -0.3087 -0.2840
15483SOL     OW47932   0.613   1.608   0.258  0.2873 -0.1956 -0.1805
15483SOL    HW147933   0.634   1.516   0.274 -2.9388 -1.1579 -1.1603
15483SOL    HW247934   0.593   1.612   0.165  1.2869  1.7270 -0.3457
15484SOL     OW47935   5.754   6.895   2.830  0.0541  0.7353 -0.8597
15484SOL    HW147936   5.809   6.818   2.826 -0.5917  0.2855 -1.2554
15484SOL    HW247937   5.815   6.969   2.830  0.7230  0.1978  1.1011
15485SOL     OW47938   7.166   1.683   6.938 -0.3666 -0.0750  0.1619
15485SOL    HW147939   7.100   1.742   6.973 -0.9364  0.1184 -1.1997
15485SOL    HW247940   7.130   1.653   6.855  0.8341 -0.7308 -0.1381
15486SOL     OW47941   1.367   1.289   0.501 -0.3071  0.1202  0.1297
15486SOL    HW147942   1.375   1.199   0.468  2.4316  1.1010 -2.0704
15486SOL    HW247943   1.274   1.298   0.524 -0.8829 -2.8416 -0.8059
15487SOL     OW47944   7.119   7.908   4.557  0.4631 -0.0036  0.0840
15487SOL    HW147945   7.085   7.925   4.469  0.8144 -0.2418 -0.1026
15487SOL    HW247946   7.082   7.978   4.611  0.0710  0.0186 -0.2099
15488SOL     OW47947   7.664   3.613   7.713 -0.3905  0.6374 -0.2019
15488SOL    HW147948   7.701   3.572   7.635 -2.5712  0.0861 -0.9697
15488SOL    HW247949   7.626   3.540   7.763  0.3672  1.0704  1.0472
15489SOL     OW47950   3.946   7.227   4.874  0.0571 -0.3661 -0.8283
15489SOL    HW147951   3.957   7.132   4.876  0.4786 -0.3088 -0.1806
15489SOL    HW247952   3.853   7.241   4.893 -0.0752 -0.6611 -1.2551
15490SOL     OW47953   3.848   1.902   5.928 -0.5042  0.5300  0.2242
15490SOL    HW147954   3.922   1.923   5.870 -1.1483 -0.8480 -1.1156
15490SOL    HW247955   3.869   1.947   6.010  0.3503  2.6686 -1.1124
15491SOL     OW47956   3.679   7.228   4.477 -0.6745 -0.0246  0.1719
15491SOL    HW147957   3.735   7.157   4.508 -2.0044 -1.1215  0.0976
15491SOL    HW247958   3.690   7.297   4.542  2.2412  0.5397 -0.8484
15492SOL     OW47959   6.236   4.956   4.059  0.1644 -0.5959 -0.2011
15492SOL    HW147960   6.220   5.044   4.095  0.0913 -0.8890  0.4812
15492SOL    HW247961   6.148   4.919   4.047  0.2426 -1.6377  2.1484
15493SOL     OW47962   0.241   0.678   0.698 -0.0055  0.3063 -0.5063
15493SOL    HW147963   0.244   0.612   0.767  1.2908  0.9782  0.1075
15493SOL    HW247964   0.333   0.701   0.682 -0.4202  1.9509 -0.7131
15494SOL     OW47965   1.922   5.323   5.404 -0.1337 -0.7103 -0.4740
15494SOL    HW147966   1.941   5.286   5.318  1.2071  0.2912 -0.6146
15494SOL    HW247967   1.829   5.345   5.400 -0.4727 -2.2167 -1.0776
15495SOL     OW47968   4.504   2.480   1.520  0.6420  0.6476  0.3140
15495SOL    HW147969   4.554   2.505   1.443 -2.3296  1.3366 -1.4657
15495SOL    HW247970   4.452   2.404   1.492 -0.9921  1.3384  1.3929
15496SOL     OW47971   0.839   7.353   0.850  0.0527  0.6449  0.3969
15496SOL    HW147972   0.840   7.435   0.800  1.3357 -0.0217 -0.7331
15496SOL    HW247973   0.747   7.336   0.867 -0.2098  2.4404  0.8400
15497SOL     OW47974   0.205   0.100   5.666  0.2238  1.6170  0.1881
15497SOL    HW147975   0.213   0.010   5.698 -0.0590  2.0977  1.6195
15497SOL    HW247976   0.269   0.150   5.716  0.5709  2.1820 -0.7895
15498SOL     OW47977   3.599   5.426   5.516  0.1188  0.2830  0.2855
15498SOL    HW147978   3.650   5.417   5.436 -0.1738 -1.1096  0.2459
15498SOL    HW247979   3.612   5.517   5.542  2.4885  0.0268  0.1690
15499SOL     OW47980   2.204   4.119   3.813 -0.1563 -0.1229 -0.1570
15499SOL    HW147981   2.254   4.174   3.873 -1.0101  0.5191 -0.0211
15499SOL    HW247982   2.125   4.096   3.862 -0.3176 -0.5485 -0.6133
15500SOL     OW47983   6.605   1.173   5.796  0.0500 -0.2129  0.0273
15500SOL    HW147984   6.543   1.176   5.869 -1.7579 -0.5356 -1.4369
15500SOL    HW247985   6.612   1.263   5.766 -1.1609 -0.4166 -0.9396
15501SOL     OW47986   6.895   4.372   3.515 -0.4389  0.2149  0.1388
15501SOL    HW147987   6.804   4.359   3.489 -0.0798 -2.8583  0.2297
15501SOL    HW247988   6.924   4.446   3.462 -2.7891  0.7955 -0.4051
15502SOL     OW47989   8.163   3.031   4.232 -0.1124 -0.0224  0.7383
15502SOL    HW147990   8.205   3.039   4.318  0.9229 -1.5865  0.4026
15502SOL    HW247991   8.069   3.028   4.251  0.1137 -0.3639  1.8119
15503SOL     OW47992   2.408   3.349   0.134  0.0417 -0.3915 -0.0182
15503SOL    HW147993   2.401   3.403   0.213  0.5266  0.4759 -0.5722
15503SOL    HW247994   2.443   3.408   0.067 -1.2220 -0.8798 -1.1267
15504SOL     OW47995   4.053   3.628   7.420 -0.2703 -1.3339 -0.1240
15504SOL    HW147996   3.978   3.621   7.479 -0.0630 -1.2708  0.1472
15504SOL    HW247997   4.060   3.721   7.401 -1.3478 -1.5329 -1.5653
15505SOL     OW47998   6.602   8.301   3.428  0.0204  0.4264 -0.1071
15505SOL    HW147999   6.526   8.243   3.418 -0.3003  0.5219  1.5439
15505SOL    HW248000   6.652   8.261   3.499  1.2524  0.6600 -0.8408
15506SOL     OW48001   8.061   7.498   2.556  0.0820 -1.2846  0.0936
15506SOL    HW148002   8.059   7.510   2.461 -1.6988  0.6293  0.3450
15506SOL    HW248003   8.154   7.496   2.578  0.5145 -1.9757 -1.7060
15507SOL     OW48004   7.739   5.727   5.701  0.5420  0.5376 -0.0801
15507SOL    HW148005   7.676   5.799   5.690  1.0728  1.0354  0.1264
15507SOL    HW248006   7.806   5.762   5.759  0.2760 -0.4692  0.8561
15508SOL     OW48007   3.194   4.499   6.425 -0.0484  0.4206  0.6728
15508SOL    HW148008   3.269   4.455   6.385 -0.6156 -0.6376  0.7636
15508SOL    HW248009   3.121   4.440   6.409 -0.5310  0.6291  2.1142
15509SOL     OW48010   0.104   0.557   7.273  0.4671  0.0397  0.6243
15509SOL    HW148011   0.122   0.471   7.237 -1.1955 -0.0886  0.0543
15509SOL    HW248012   0.182   0.609   7.252  1.4795 -1.3117  0.9932
15510SOL     OW48013   3.932   1.227   7.479  0.0357 -0.3886  0.0017
15510SOL    HW148014   3.847   1.226   7.435 -0.8436 -1.6087  1.6346
15510SOL    HW248015   3.969   1.140   7.460  0.2389 -0.4211  0.5510
15511SOL     OW48016   2.990   7.192   2.534  0.3795 -0.0062  0.1320
15511SOL    HW148017   2.956   7.282   2.542  0.5663 -0.0326  1.3127
15511SOL    HW248018   3.070   7.192   2.586  1.5607 -0.2832 -1.6623
15512SOL     OW48019   4.832   7.833   2.058 -0.3424  0.2868  0.6323
15512SOL    HW148020   4.795   7.774   2.124 -0.0085  0.0280  0.5920
15512SOL    HW248021   4.902   7.879   2.104 -1.3919  1.5451  0.9994
15513SOL     OW48022   7.429   2.748   2.255  0.0156  0.6044  0.4268
15513SOL    HW148023   7.524   2.736   2.257 -0.2107 -1.3166  1.1098
15513SOL    HW248024   7.402   2.711   2.171 -0.1141  1.3064  0.1577
15514SOL     OW48025   1.410   7.428   0.601 -0.5468 -0.4536 -0.3545
15514SOL    HW148026   1.439   7.518   0.613  1.7944 -1.0957 -1.0760
15514SOL    HW248027   1.335   7.435   0.542 -0.9266  1.0826  0.2789
15515SOL     OW48028   5.741   3.977   6.491 -0.4300 -0.1549  0.0785
15515SOL    HW148029   5.796   3.923   6.434 -0.4701 -0.8631  0.6965
15515SOL    HW248030   5.701   3.914   6.552  1.1985  0.8150  2.1994
15516SOL     OW48031   1.290   1.414   2.233  0.1489 -0.1394  0.1590
15516SOL    HW148032   1.323   1.393   2.145  2.0521 -2.3902  1.3501
15516SOL    HW248033   1.364   1.458   2.276 -0.6868  0.7206  0.7289
15517SOL     OW48034   7.061   1.197   2.256 -0.6259  0.2086  0.3335
15517SOL    HW148035   7.092   1.161   2.339  0.1816 -0.1109 -0.0983
15517SOL    HW248036   7.035   1.287   2.277 -2.3489 -0.5067  1.3549
15518SOL     OW48037   6.735   5.285   6.272 -0.2220 -0.4703 -0.2610
15518SOL    HW148038   6.696   5.369   6.244 -0.4595 -0.4486  0.1299
15518SOL    HW248039   6.661   5.236   6.309  0.0564 -0.5700  0.1622
15519SOL     OW48040   4.366   5.257   2.911  0.4938 -0.2226 -0.1790
15519SOL    HW148041   4.326   5.310   2.842  0.1168  0.0920  0.2766
15519SOL    HW248042   4.410   5.320   2.967 -0.2338 -0.3477  0.5499
15520SOL     OW48043   2.403   4.073   6.778 -0.4666  0.6680  0.4165
15520SOL    HW148044   2.492   4.110   6.781 -0.0576 -0.2940  0.3006
15520SOL    HW248045   2.405   4.003   6.843 -1.5394  1.4847  1.3590
15521SOL     OW48046   4.245   3.481   1.442 -0.3484 -0.5557  0.5394
15521SOL    HW148047   4.245   3.524   1.356 -0.6734  2.7209  2.1133
15521SOL    HW248048   4.153   3.479   1.468  0.1419  2.3122  2.6210
15522SOL     OW48049   6.977   3.778   0.817 -0.1437  0.4965  0.6176
15522SOL    HW148050   6.950   3.727   0.894  0.1736  1.4795  1.3956
15522SOL    HW248051   7.072   3.767   0.814 -0.2208 -0.0147  0.0194
15523SOL     OW48052   1.035   5.500   4.528 -0.0407  0.8406 -0.0910
15523SOL    HW148053   0.957   5.496   4.473  0.7856  3.3758 -1.5089
15523SOL    HW248054   1.037   5.589   4.562  2.0270  0.6869  0.2589
15524SOL     OW48055   0.344   5.729   8.280 -0.8955  0.1384  0.1884
15524SOL    HW148056   0.403   5.752   8.209 -1.0508 -1.5048 -0.4922
15524SOL    HW248057   0.361   5.795   8.348  1.4561 -0.0876 -0.1450
15525SOL     OW48058   7.183   0.773   1.565  0.1354  0.4728 -0.4733
15525SOL    HW148059   7.109   0.765   1.504 -0.9131 -0.9554  0.9426
15525SOL    HW248060   7.142   0.774   1.652  1.7754 -0.3218  0.3300
15526SOL     OW48061   7.289   0.299   7.214  0.4828  0.6858 -0.4962
15526SOL    HW148062   7.305   0.349   7.293  2.2684  0.8202 -0.9286
15526SOL    HW248063   7.324   0.212   7.232  0.0947  0.4557 -0.8242
15527SOL     OW48064   1.130   1.100   4.086 -0.2010  0.2747 -0.6426
15527SOL    HW148065   1.055   1.158   4.090  0.3163  1.1147 -2.5184
15527SOL    HW248066   1.178   1.127   4.007  0.0615 -2.6779 -1.5711
15528SOL     OW48067   3.432   1.906   2.725  0.3176 -0.0949 -0.5738
15528SOL    HW148068   3.526   1.895   2.714  0.0243 -1.3156 -1.9415
15528SOL    HW248069   3.396   1.898   2.637 -1.3212 -2.2484  0.2509
15529SOL     OW48070   6.075   0.417   0.752  0.0371 -0.2187  0.3690
15529SOL    HW148071   6.030   0.380   0.828  0.3693 -0.2398  0.5561
15529SOL    HW248072   6.119   0.495   0.786  0.7032 -0.5739  0.3380
15530SOL     OW48073   2.791   5.168   5.920  0.2107 -0.0284  0.1975
15530SOL    HW148074   2.761   5.202   6.005  1.6806 -0.4140  0.9043
15530SOL    HW248075   2.872   5.216   5.903 -0.9821  1.3286 -1.8730
15531SOL     OW48076   6.174   1.363   3.155  0.0751 -0.1636  0.3828
15531SOL    HW148077   6.096   1.314   3.178  1.1801 -1.9830  0.3783
15531SOL    HW248078   6.207   1.396   3.239 -1.1528  1.3419  0.2867
15532SOL     OW48079   3.646   1.822   2.312 -0.1522  0.3369  0.1812
15532SOL    HW148080   3.656   1.840   2.218 -1.1223  1.7275  0.3304
15532SOL    HW248081   3.617   1.906   2.349 -1.0076 -0.5450  1.5269
15533SOL     OW48082   8.171   1.827   6.655  0.1543 -0.5422 -0.2517
15533SOL    HW148083   8.116   1.788   6.723 -0.0276  0.2732  0.0701
15533SOL    HW248084   8.228   1.755   6.627 -0.0432 -0.9908  0.4806
15534SOL     OW48085   4.901   1.874   1.589  0.2450 -0.6911  0.3105
15534SOL    HW148086   4.828   1.812   1.593 -0.7544  0.5129  1.2741
15534SOL    HW248087   4.906   1.910   1.677 -0.5940  2.1490 -0.7233
15535SOL     OW48088   7.516   5.111   6.772 -0.5655  0.5664  0.0384
15535SOL    HW148089   7.579   5.043   6.749 -0.8220 -0.0972  1.2755
15535SOL    HW248090   7.464   5.123   6.693 -1.8499 -2.1366  0.4243
15536SOL     OW48091   2.004   6.847   3.775  0.1089 -0.3280  0.2634
15536SOL    HW148092   1.916   6.878   3.796 -0.0754  0.4198 -1.5170
15536SOL    HW248093   1.995   6.752   3.768 -1.2102 -0.0419 -2.6747
15537SOL     OW48094   1.496   6.186   6.912  0.1060  0.0903 -0.3946
15537SOL    HW148095   1.506   6.233   6.994 -0.6774 -0.8830  0.2623
15537SOL    HW248096   1.581   6.147   6.896 -0.3776 -1.6877  1.1844
15538SOL     OW48097   6.801   3.234   7.569 -0.4615 -0.0093 -0.1217
15538SOL    HW148098   6.880   3.181   7.576 -0.3430  0.0465 -0.9881
15538SOL    HW248099   6.748   3.209   7.645  0.7110  0.5019  0.8828
15539SOL     OW48100   3.574   5.377   0.810 -0.1473 -0.0796 -0.4721
15539SOL    HW148101   3.529   5.311   0.758 -0.9999  0.6813 -0.7043
15539SOL    HW248102   3.557   5.459   0.764 -0.7098  0.5658  0.8745
15540SOL     OW48103   2.641   7.624   5.210  0.3558 -0.8224 -0.0294
15540SOL    HW148104   2.563   7.572   5.195  0.3136 -0.2840 -1.6875
15540SOL    HW248105   2.672   7.596   5.297 -1.0944 -1.7453  0.2005
15541SOL     OW48106   4.033   7.175   0.690  0.1290 -0.0034 -0.3358
15541SOL    HW148107   4.092   7.147   0.760  0.8678 -0.2565 -1.0463
15541SOL    HW248108   3.946   7.172   0.729  0.7163  1.8214  1.1702
15542SOL     OW48109   0.106   6.918   1.175  0.5512  0.0386 -0.7591
15542SOL    HW148110   0.147   6.944   1.257  2.3990 -0.2984 -1.5649
15542SOL    HW248111   0.065   6.998   1.142  1.6967  0.6843 -0.6111
15543SOL     OW48112   1.760   6.176   8.212  0.1741 -0.0254  0.2835
15543SOL    HW148113   1.712   6.250   8.249  0.2390 -0.1327  0.5928
15543SOL    HW248114   1.780   6.202   8.122 -0.6769 -0.0870  0.0761
15544SOL     OW48115   2.509   3.506   6.627 -0.0882  0.2834  0.3703
15544SOL    HW148116   2.416   3.486   6.627 -0.0529  0.0981  0.8815
15544SOL    HW248117   2.544   3.462   6.550 -0.4602  0.5389  0.0546
15545SOL     OW48118   2.078   4.429   2.217  0.1301 -0.0747  0.3482
15545SOL    HW148119   2.044   4.511   2.181 -0.0880 -0.1059  0.4787
15545SOL    HW248120   2.167   4.423   2.183 -0.8823 -1.3486 -2.3015
15546SOL     OW48121   0.125   6.505   0.978  0.2026 -0.1984 -1.0164
15546SOL    HW148122   0.175   6.586   0.984  0.5504 -0.4332 -0.7201
15546SOL    HW248123   0.186   6.437   1.005 -1.4576 -0.0719  3.4460
15547SOL     OW48124   5.209   2.353   7.361  0.0613  0.4852 -0.0761
15547SOL    HW148125   5.283   2.293   7.362 -1.2333 -1.2113 -1.6300
15547SOL    HW248126   5.235   2.422   7.300  0.7710  0.4440  0.1797
15548SOL     OW48127   0.870   4.766   6.746 -0.3616  0.2775  0.0849
15548SOL    HW148128   0.939   4.828   6.771  0.3278  0.1405 -1.4026
15548SOL    HW248129   0.918   4.688   6.717 -1.1691 -0.1706 -0.0467
15549SOL     OW48130   5.969   8.293   4.695  0.1197  0.2966 -0.2009
15549SOL    HW148131   5.955   8.374   4.745 -1.8934 -0.2049  0.1234
15549SOL    HW248132   5.926   8.225   4.748 -2.2810 -0.2102 -2.6939
15550SOL     OW48133   7.816   6.211   6.867 -0.3531  0.0218 -0.0960
15550SOL    HW148134   7.827   6.208   6.962 -0.4594 -3.5861 -0.1018
15550SOL    HW248135   7.904   6.202   6.832 -0.1085  3.2561 -0.3859
15551SOL     OW48136   7.364   2.826   3.437 -0.1434 -0.1475  0.1587
15551SOL    HW148137   7.398   2.777   3.512 -1.1184 -2.9653 -1.2038
15551SOL    HW248138   7.403   2.784   3.361 -2.0524  0.3375 -1.1214
15552SOL     OW48139   5.194   2.500   3.964  0.0783 -0.0577 -0.2726
15552SOL    HW148140   5.217   2.500   4.056  0.2368 -0.1255 -0.3133
15552SOL    HW248141   5.182   2.593   3.943  3.0125  0.2259 -0.9351
15553SOL     OW48142   3.566   8.007   5.498 -0.3053 -0.3216  0.2812
15553SOL    HW148143   3.600   8.048   5.578  0.9452  0.3535 -0.5889
15553SOL    HW248144   3.644   7.990   5.445 -0.9870 -2.1015 -0.1878
15554SOL     OW48145   6.650   7.541   1.684 -0.2380 -1.0772 -0.5583
15554SOL    HW148146   6.563   7.573   1.709 -0.1151  0.4972 -2.0618
15554SOL    HW248147   6.702   7.550   1.764 -0.6515  0.9010 -0.4955
15555SOL     OW48148   2.789   7.736   6.764  0.4099  0.0971  0.3506
15555SOL    HW148149   2.731   7.662   6.782 -2.2631  2.1960  0.7080
15555SOL    HW248150   2.803   7.735   6.670 -0.0457 -0.5460  0.2917
15556SOL     OW48151   0.441   2.125   3.631  0.4653  0.5505  0.1378
15556SOL    HW148152   0.453   2.169   3.716  0.3899 -0.1309  0.5071
15556SOL    HW248153   0.504   2.167   3.573  2.4372 -0.8198  1.2333
15557SOL     OW48154   2.535   5.589   6.277 -0.2528  0.1111 -0.1708
15557SOL    HW148155   2.473   5.563   6.345 -0.4798 -0.4928 -0.6094
15557SOL    HW248156   2.573   5.507   6.245  0.7601  0.4709  0.0803
15558SOL     OW48157   6.575   3.346   5.605 -0.3933  0.3573 -0.3155
15558SOL    HW148158   6.549   3.320   5.516 -0.6218  1.2077 -0.5062
15558SOL    HW248159   6.507   3.407   5.633  1.4434  2.7459 -0.8884
15559SOL     OW48160   0.213   2.238   5.001 -0.5536  0.2770 -0.6478
15559SOL    HW148161   0.261   2.197   4.929 -2.6367  0.0284 -1.9559
15559SOL    HW248162   0.122   2.237   4.972 -1.3815  0.5755  1.8289
15560SOL     OW48163   1.262   2.399   6.524  0.2872 -0.1879 -0.4189
15560SOL    HW148164   1.355   2.419   6.534  0.0334  1.3920 -1.1770
15560SOL    HW248165   1.221   2.434   6.603  0.3422 -1.0758  0.0192
15561SOL     OW48166   1.336   3.803   5.605 -0.0660 -0.3398  0.3904
15561SOL    HW148167   1.297   3.734   5.551 -1.7718 -0.5060  1.7781
15561SOL    HW248168   1.400   3.845   5.547 -2.2117 -0.1600 -1.9769
15562SOL     OW48169   2.027   6.517   6.549  0.0002 -0.3295 -0.2760
15562SOL    HW148170   1.961   6.448   6.544 -0.1842 -0.2556  0.9066
15562SOL    HW248171   1.980   6.593   6.585  0.5855 -0.1076  0.0378
15563SOL     OW48172   0.280   3.731   5.426 -0.2049  0.3833  0.0898
15563SOL    HW148173   0.285   3.822   5.455  2.1638  0.0750  0.7657
15563SOL    HW248174   0.232   3.686   5.496 -0.8176  0.9968  0.0648
15564SOL     OW48175   6.755   6.094   6.892 -0.2360  0.7415 -0.0125
15564SOL    HW148176   6.770   6.182   6.926  1.8639  0.7117 -0.7863
15564SOL    HW248177   6.795   6.036   6.957 -1.3637  0.3548  0.3518
15565SOL     OW48178   0.309   6.252   7.498  0.0274 -0.0962 -0.1209
15565SOL    HW148179   0.335   6.162   7.518 -0.3207 -0.0866  0.3916
15565SOL    HW248180   0.376   6.284   7.438 -0.2252 -0.9355 -0.8711
15566SOL     OW48181   0.638   6.218   7.909 -0.4732  0.5215 -0.1358
15566SOL    HW148182   0.570   6.265   7.957  0.5809  0.5274  1.4017
15566SOL    HW248183   0.645   6.265   7.826  0.1339  2.7446  1.1351
15567SOL     OW48184   6.071   6.568   0.285  0.6988 -0.0247 -0.2854
15567SOL    HW148185   6.007   6.639   0.280  0.2474 -0.3036  1.5131
15567SOL    HW248186   6.154   6.610   0.259  0.4644  1.2069  0.8783
15568SOL     OW48187   4.745   0.129   4.315  0.2234  0.4770  0.4275
15568SOL    HW148188   4.677   0.196   4.300 -0.8400 -0.2497  1.8101
15568SOL    HW248189   4.824   0.167   4.278  0.0551  3.3525  2.8203
15569SOL     OW48190   7.058   2.620   0.220  0.1280  0.0412  0.3609
15569SOL    HW148191   7.006   2.632   0.141 -0.2255  1.4131  0.7909
15569SOL    HW248192   6.994   2.604   0.289  0.4720 -1.9553  0.2429
15570SOL     OW48193   6.099   5.243   7.729 -0.4028 -0.2042  0.5369
15570SOL    HW148194   6.066   5.190   7.656 -0.2646 -0.5770  0.7395
15570SOL    HW248195   6.020   5.278   7.770 -0.3847  2.2823 -1.4388
15571SOL     OW48196   6.912   3.952   4.946 -0.0023 -0.1141  0.8490
15571SOL    HW148197   6.978   4.021   4.947 -2.6474  2.5066 -0.0223
15571SOL    HW248198   6.909   3.923   4.855 -0.4378  0.1054  0.7974
15572SOL     OW48199   3.972   3.346   2.719  0.0013 -0.1355 -0.0746
15572SOL    HW148200   3.909   3.329   2.649  0.4269 -0.3146 -0.4133
15572SOL    HW248201   4.037   3.405   2.680  0.1959 -0.1734  0.1898
15573SOL     OW48202   5.533   6.049   4.249 -0.3379  0.9550 -0.3553
15573SOL    HW148203   5.536   6.143   4.270  0.3684  1.2927 -1.9155
15573SOL    HW248204   5.625   6.023   4.244 -0.5324  0.2863 -0.4436
15574SOL     OW48205   1.257   7.841   0.821 -0.1830  0.6048  0.5959
15574SOL    HW148206   1.301   7.859   0.738  1.7272 -0.1643  1.4082
15574SOL    HW248207   1.200   7.917   0.836 -0.5562  0.7464 -1.3961
15575SOL     OW48208   0.078   3.198   2.324 -0.3830 -0.7488  0.2920
15575SOL    HW148209   0.011   3.130   2.312 -1.0282 -0.0202 -0.3068
15575SOL    HW248210   0.142   3.158   2.382 -1.0042 -1.7012  0.3417
15576SOL     OW48211   2.989   3.043   5.990 -0.1102 -0.2889 -0.3171
15576SOL    HW148212   2.991   3.139   5.998 -1.4127 -0.3930  1.5080
15576SOL    HW248213   3.004   3.027   5.896 -1.9266  1.8142 -1.0193
15577SOL     OW48214   0.695   3.810   5.401 -0.5469 -0.4289 -0.3366
15577SOL    HW148215   0.626   3.745   5.392 -0.1637 -0.8757 -0.1183
15577SOL    HW248216   0.770   3.772   5.355 -0.0318 -0.5845  0.6064
15578SOL     OW48217   4.316   4.282   8.178  0.4489 -0.5136 -0.2174
15578SOL    HW148218   4.288   4.249   8.093  0.5203 -0.1582 -0.3823
15578SOL    HW248219   4.402   4.320   8.161 -0.2678  1.0865 -0.3525
15579SOL     OW48220   2.986   6.432   5.747  0.1030  0.1007  0.8999
15579SOL    HW148221   2.971   6.485   5.668 -0.0088  1.1830  1.6390
15579SOL    HW248222   3.005   6.345   5.713 -0.4017  0.4417 -0.3179
15580SOL     OW48223   5.572   8.195   5.259  0.2239 -0.2916 -0.2498
15580SOL    HW148224   5.539   8.243   5.183  0.4636 -1.7595 -1.2899
15580SOL    HW248225   5.667   8.208   5.255  0.0533  1.7773  1.2857
15581SOL     OW48226   0.235   1.545   2.068 -0.5232 -0.0531 -0.4436
15581SOL    HW148227   0.253   1.554   1.975 -2.0670 -1.0252 -0.8417
15581SOL    HW248228   0.144   1.517   2.073 -0.2772 -0.6094  1.3325
15582SOL     OW48229   6.724   0.427   3.970 -0.0841  0.0996 -0.0413
15582SOL    HW148230   6.696   0.518   3.966 -1.2846 -0.2898 -0.6347
15582SOL    HW248231   6.795   0.421   3.905  0.2462  0.6931  0.2674
15583SOL     OW48232   6.785   1.992   3.004  0.3821 -0.1256 -0.2320
15583SOL    HW148233   6.877   1.985   3.027  0.5976 -2.1381 -1.5687
15583SOL    HW248234   6.766   2.086   3.008  2.0536  0.1476  1.6148
15584SOL     OW48235   2.443   3.453   0.645 -0.2548  0.3563  0.1820
15584SOL    HW148236   2.518   3.448   0.585  0.5958 -1.1670  1.3320
15584SOL    HW248237   2.408   3.364   0.647 -1.8105  0.9542  0.0376
15585SOL     OW48238   4.867   7.276   4.142 -0.0694  0.1523 -0.2610
15585SOL    HW148239   4.955   7.239   4.148 -0.3272 -0.7182 -1.5273
15585SOL    HW248240   4.842   7.295   4.232  0.3389 -2.1968  0.3745
15586SOL     OW48241   4.066   6.509   7.925  0.2988 -0.1402  0.3322
15586SOL    HW148242   3.979   6.517   7.965  0.1437 -2.1466  0.4798
15586SOL    HW248243   4.056   6.548   7.838 -1.9278 -3.9544 -1.2492
15587SOL     OW48244   0.462   6.397   3.369  0.4503 -0.1188  0.0570
15587SOL    HW148245   0.485   6.483   3.403  1.7453 -0.3931 -0.0997
15587SOL    HW248246   0.452   6.410   3.275  0.8678 -0.1719  0.0015
15588SOL     OW48247   0.095   7.231   0.587  0.1890 -0.6555  0.7166
15588SOL    HW148248   0.011   7.278   0.585 -0.5935 -1.9921  1.5967
15588SOL    HW248249   0.161   7.299   0.570 -1.2837 -0.1836 -3.8358
15589SOL     OW48250   6.577   1.011   3.680  0.2168  0.4102  0.3498
15589SOL    HW148251   6.623   1.054   3.607 -0.5988  0.1131 -0.3449
15589SOL    HW248252   6.645   0.996   3.746  0.7197  1.8307  0.1709
15590SOL     OW48253   6.016   6.869   0.747 -0.1558  0.0843 -0.5490
15590SOL    HW148254   6.107   6.890   0.726  0.6264 -1.1859  1.3801
15590SOL    HW248255   6.016   6.774   0.759 -1.4179  0.2474  0.8538
15591SOL     OW48256   4.982   7.049   1.186 -0.0254  0.5283  0.0722
15591SOL    HW148257   4.908   6.999   1.217  0.2355  0.5248  0.6937
15591SOL    HW248258   5.001   7.111   1.256  0.8620  0.2047  0.1320
15592SOL     OW48259   4.952   3.756   7.170 -0.1751  0.0338  0.3622
15592SOL    HW148260   4.908   3.784   7.250 -1.0492  0.1371 -0.1435
15592SOL    HW248261   5.028   3.706   7.200  0.6028  1.7186  1.2680
15593SOL     OW48262   4.508   4.872   3.700 -0.8040  0.2069 -0.5354
15593SOL    HW148263   4.450   4.796   3.706  0.4252 -0.7955 -1.2126
15593SOL    HW248264   4.480   4.917   3.620 -0.9391 -0.0108 -0.6103
15594SOL     OW48265   5.529   0.323   5.904  0.4202 -0.7197 -0.0620
15594SOL    HW148266   5.584   0.244   5.909  0.9522 -0.2774  1.4389
15594SOL    HW248267   5.522   0.341   5.810  1.5419 -1.6856 -0.3532
15595SOL     OW48268   0.883   6.036   4.258 -0.1188  0.5900  0.3721
15595SOL    HW148269   0.823   6.035   4.333 -1.7542  2.0712 -0.8620
15595SOL    HW248270   0.928   6.120   4.266  0.4432  0.2954  0.2669
15596SOL     OW48271   6.151   5.624   0.298 -0.1531  0.0741 -0.2295
15596SOL    HW148272   6.219   5.674   0.343 -2.0160  1.1531  1.4714
15596SOL    HW248273   6.109   5.573   0.367 -1.2121 -0.4398 -1.2341
15597SOL     OW48274   7.053   6.399   3.521  0.0347  0.0983 -0.2726
15597SOL    HW148275   7.109   6.375   3.447  0.5656 -0.3013  0.2487
15597SOL    HW248276   6.964   6.401   3.485  0.3631  0.5533 -1.0650
15598SOL     OW48277   3.231   6.679   6.489  0.0708 -0.0238  0.0370
15598SOL    HW148278   3.270   6.609   6.542  0.8413 -0.6313 -1.2885
15598SOL    HW248279   3.193   6.739   6.553  2.1751 -0.0159  1.3603
15599SOL     OW48280   4.751   3.796   4.711 -0.8630 -0.5562  0.0073
15599SOL    HW148281   4.753   3.889   4.734 -0.7181 -0.7980  1.0012
15599SOL    HW248282   4.717   3.794   4.622 -1.7790  0.3944  0.3244
15600SOL     OW48283   7.818   6.738   4.764 -0.1458 -0.1189  0.5483
15600SOL    HW148284   7.828   6.773   4.853 -2.1530  1.6413  0.1289
15600SOL    HW248285   7.881   6.787   4.712  0.4052 -0.5177  0.8405
15601SOL     OW48286   5.472   6.655   5.847  0.5380 -0.5832 -0.3701
15601SOL    HW148287   5.512   6.570   5.829  0.5774  0.1885 -4.3725
15601SOL    HW248288   5.545   6.716   5.846  0.1828 -0.1517 -0.1299
15602SOL     OW48289   7.167   2.325   4.926 -0.0518 -0.3650  0.1489
15602SOL    HW148290   7.171   2.420   4.933 -0.9574 -0.0714 -2.6158
15602SOL    HW248291   7.076   2.306   4.901  0.9261 -1.6196 -2.7518
15603SOL     OW48292   7.304   5.449   3.592  0.0450  0.2855 -0.0151
15603SOL    HW148293   7.311   5.515   3.523 -0.4651  0.2369 -0.1079
15603SOL    HW248294   7.393   5.442   3.627  0.0168  1.3296  0.2753
15604SOL     OW48295   7.405   4.734   3.092 -0.0114 -0.4386 -0.1349
15604SOL    HW148296   7.336   4.721   3.157  0.7907  1.5619  1.1617
15604SOL    HW248297   7.460   4.657   3.100 -0.3443 -0.5634  1.0472
15605SOL     OW48298   7.388   0.012   2.026 -0.3362 -0.1073  0.3498
15605SOL    HW148299   7.296  -0.013   2.041 -0.7432  0.5384 -1.0590
15605SOL    HW248300   7.387   0.059   1.943  1.4826 -1.2478 -0.3407
15606SOL     OW48301   6.245   8.139   3.393  0.1181  0.2190 -0.1895
15606SOL    HW148302   6.172   8.082   3.419  0.7141 -0.6391 -0.3768
15606SOL    HW248303   6.323   8.084   3.402  0.8724  1.4435  1.0260
15607SOL     OW48304   0.005   3.551   5.818  0.1442 -0.3476  0.1926
15607SOL    HW148305  -0.009   3.640   5.851 -2.2888 -0.1382 -1.2802
15607SOL    HW248306   0.035   3.502   5.895 -1.6964  0.9813  1.8272
15608SOL     OW48307   6.993   6.741   6.804  0.9084  0.2121 -0.4743
15608SOL    HW148308   7.025   6.808   6.865  0.0512 -0.8019  1.1291
15608SOL    HW248309   6.915   6.706   6.846  0.1978 -0.4030 -2.2634
15609SOL     OW48310   1.013   7.913   4.292 -0.4553 -0.4569  0.0319
15609SOL    HW148311   1.004   7.898   4.386 -1.1287  1.2727  0.2596
15609SOL    HW248312   0.935   7.873   4.254  1.0368 -3.4163 -0.0973
15610SOL     OW48313   2.504   0.242   1.950  0.5008  0.1911  0.2950
15610SOL    HW148314   2.530   0.317   1.896  1.5396 -0.4510 -0.1145
15610SOL    HW248315   2.505   0.168   1.889 -2.2085  0.1096  0.2813
15611SOL     OW48316   2.626   3.181   3.703 -0.0342 -0.3775 -0.2183
15611SOL    HW148317   2.701   3.132   3.669  0.4608  0.3141 -0.1348
15611SOL    HW248318   2.563   3.180   3.631  0.7367  0.4831 -0.9137
15612SOL     OW48319   0.050   4.004   8.024  0.2639  0.1558 -0.1832
15612SOL    HW148320   0.129   4.050   7.996  0.1591  0.4949  0.0788
15612SOL    HW248321  -0.016   4.025   7.958  1.0660 -2.1510 -1.7959
15613SOL     OW48322   1.930   3.654   2.345 -0.4668 -0.0930 -0.3206
15613SOL    HW148323   2.000   3.638   2.282  0.2373 -1.0612  0.6756
15613SOL    HW248324   1.936   3.747   2.365  0.3139 -0.1023 -0.5065
15614SOL     OW48325   3.751   0.131   4.263 -0.5906 -0.4009 -0.5087
15614SOL    HW148326   3.752   0.227   4.261 -2.1304 -0.3907 -1.4087
15614SOL    HW248327   3.670   0.109   4.310  0.0578 -1.2665  0.2219
15615SOL     OW48328   5.989   4.560   0.133  0.1796 -0.0133  0.0792
15615SOL    HW148329   6.001   4.655   0.132  0.6077 -0.0673  0.0142
15615SOL    HW248330   6.078   4.524   0.130  0.0213 -0.4159  0.1261
15616SOL     OW48331   7.001   1.762   3.808 -0.0863  0.4442  0.3081
15616SOL    HW148332   6.990   1.842   3.859 -1.5465  0.5196 -0.1253
15616SOL    HW248333   7.050   1.703   3.865  0.1865  1.3143  0.9701
15617SOL     OW48334   8.269   4.795   4.867 -0.4556  0.2615 -0.5777
15617SOL    HW148335   8.187   4.774   4.822 -0.4694  0.2438 -0.5443
15617SOL    HW248336   8.269   4.891   4.873  0.2548  0.3570 -1.9374
15618SOL     OW48337   2.843   7.501   7.036  0.4020 -0.5681  0.1898
15618SOL    HW148338   2.925   7.483   6.988  0.1399 -1.2471 -0.0073
15618SOL    HW248339   2.775   7.499   6.968  0.1495 -0.5532  0.4435
15619SOL     OW48340   6.016   2.443   0.833 -0.3458  0.4864  0.0372
15619SOL    HW148341   5.948   2.404   0.778  0.3830  1.2108 -1.4051
15619SOL    HW248342   6.098   2.419   0.791  0.2433  0.4773  1.1955
15620SOL     OW48343   3.637   5.222   6.980 -0.2589 -0.3933 -0.3433
15620SOL    HW148344   3.568   5.177   6.932 -1.6715  0.1260  1.1559
15620SOL    HW248345   3.678   5.154   7.034  1.8358 -1.1385 -2.7595
15621SOL     OW48346   0.208   2.776   2.344  0.0508 -0.3530 -0.1168
15621SOL    HW148347   0.261   2.716   2.396  0.3176  0.6235  0.7523
15621SOL    HW248348   0.184   2.846   2.405 -0.8915  0.0348 -0.9162
15622SOL     OW48349   5.194   7.386   2.943  0.4863 -0.5248  0.0013
15622SOL    HW148350   5.280   7.404   2.905  0.0803  1.4097 -0.0589
15622SOL    HW248351   5.181   7.456   3.007 -0.6067 -1.4058  0.7631
15623SOL     OW48352   0.453   1.810   0.350 -0.4634  0.4176  0.4298
15623SOL    HW148353   0.503   1.891   0.356 -1.5416  1.5321 -4.1777
15623SOL    HW248354   0.518   1.745   0.321 -0.7294  0.9334 -1.3984
15624SOL     OW48355   1.613   8.311   0.997  0.3080  0.4830 -0.7081
15624SOL    HW148356   1.613   8.238   0.935  0.9715  1.2482 -1.6173
15624SOL    HW248357   1.539   8.292   1.056  1.0003 -1.3524 -0.4003
15625SOL     OW48358   8.132   1.651   3.892 -0.3418 -0.4063 -0.1183
15625SOL    HW148359   8.089   1.610   3.967 -0.2064 -0.3365  0.0002
15625SOL    HW248360   8.195   1.586   3.862  2.1675  0.9150  2.0797
15626SOL     OW48361   7.577   5.083   6.131 -0.6976  0.6523  0.5749
15626SOL    HW148362   7.647   5.030   6.168 -0.3340  0.3348 -0.5256
15626SOL    HW248363   7.499   5.058   6.181 -0.3981 -0.4257  0.5270
15627SOL     OW48364   0.761   2.992   7.283  0.3389 -0.9762  0.4026
15627SOL    HW148365   0.793   2.989   7.193 -0.4712 -3.3745  0.1482
15627SOL    HW248366   0.799   2.914   7.324  0.3868 -0.1149  2.0292
15628SOL     OW48367   2.967   8.286   0.024 -0.3331  0.6108  0.2592
15628SOL    HW148368   2.889   8.241  -0.008 -0.0005  2.0930 -2.7497
15628SOL    HW248369   2.933   8.361   0.072 -0.7876 -0.6558  1.9839
15629SOL     OW48370   4.413   0.572   8.147 -0.3194  0.2064  0.0473
15629SOL    HW148371   4.379   0.566   8.237 -0.9331 -1.5259 -0.2874
15629SOL    HW248372   4.490   0.628   8.155  0.1830 -0.6842  1.8307
15630SOL     OW48373   3.127   6.271   8.148 -0.0388  0.3566 -0.1124
15630SOL    HW148374   3.149   6.238   8.061 -1.9004  0.0018 -0.4625
15630SOL    HW248375   3.183   6.348   8.159  0.3105  0.3229 -1.5770
15631SOL     OW48376   2.912   0.101   7.208 -0.3917  0.6316  0.1051
15631SOL    HW148377   2.992   0.153   7.222 -0.1922 -0.1118  1.8781
15631SOL    HW248378   2.854   0.127   7.279 -0.4711 -1.1991  0.7451
15632SOL     OW48379   6.231   5.402   6.214 -0.6275  0.6567  0.0856
15632SOL    HW148380   6.167   5.340   6.249  0.8443 -2.4853 -2.6302
15632SOL    HW248381   6.283   5.428   6.290 -2.3143 -0.1269  1.5370
15633SOL     OW48382   0.795   3.906   4.890  0.0454  0.3165  0.2311
15633SOL    HW148383   0.704   3.876   4.897  0.5116 -0.8958  1.5082
15633SOL    HW248384   0.789   3.992   4.848 -1.6910  0.2502  0.2923
15634SOL     OW48385   5.505   2.537   4.806 -0.3964 -0.5548  0.4211
15634SOL    HW148386   5.521   2.442   4.811 -0.2938 -0.6304 -1.0348
15634SOL    HW248387   5.499   2.555   4.712  0.0975  0.9733  0.6685
15635SOL     OW48388   7.249   6.209   4.280 -0.0402 -0.1256 -0.0750
15635SOL    HW148389   7.272   6.255   4.200 -0.9122 -0.0714 -0.2985
15635SOL    HW248390   7.154   6.221   4.289 -0.3333 -2.0760 -0.2760
15636SOL     OW48391   2.115   1.258   6.764  0.8444 -0.4396 -0.3697
15636SOL    HW148392   2.195   1.280   6.813  0.2008 -0.1429  0.5778
15636SOL    HW248393   2.127   1.167   6.738  1.2856 -0.5458  0.1847
15637SOL     OW48394   2.211   6.990   2.987 -0.0212 -0.0922  0.7715
15637SOL    HW148395   2.240   7.049   2.917  1.1128  1.1285  2.2319
15637SOL    HW248396   2.275   6.918   2.986 -0.0424 -0.1077  0.5245
15638SOL     OW48397   0.241   6.980   2.490  0.4591 -0.1428 -0.3429
15638SOL    HW148398   0.197   6.997   2.406  1.0043 -2.3256 -1.1041
15638SOL    HW248399   0.175   6.934   2.542  0.8664 -0.8066 -0.4123
15639SOL     OW48400   7.941   7.464   0.891  0.4091 -0.4329  0.4691
15639SOL    HW148401   8.008   7.479   0.959  0.9760  0.2299 -0.2234
15639SOL    HW248402   7.939   7.546   0.842 -0.2806 -0.7759 -0.0778
15640SOL     OW48403   8.096   5.628   1.952  0.0136 -0.6940 -0.2089
15640SOL    HW148404   8.044   5.687   2.007  1.4778 -0.5959  1.0995
15640SOL    HW248405   8.053   5.633   1.866 -0.2516  1.8444  0.0096
15641SOL     OW48406   5.495   1.337   1.183  0.9879  0.3716 -0.7427
15641SOL    HW148407   5.483   1.381   1.268  2.4878 -0.8483  0.1203
15641SOL    HW248408   5.428   1.376   1.127  1.5022  2.9217  0.3285
15642SOL     OW48409   2.240   8.286   0.332  0.1033 -0.3148  0.3208
15642SOL    HW148410   2.319   8.264   0.382 -0.3677 -0.7730  0.8702
15642SOL    HW248411   2.178   8.318   0.398 -0.1962 -0.0295 -0.0987
15643SOL     OW48412   7.087   5.872   3.799  0.4911  0.4685  0.5131
15643SOL    HW148413   7.160   5.931   3.816  0.0907  0.7094  1.3944
15643SOL    HW248414   7.120   5.785   3.823  0.5961  0.5293  0.5844
15644SOL     OW48415   1.256   4.601   8.226  0.8570  0.6369  0.3757
15644SOL    HW148416   1.175   4.606   8.277  2.8330 -0.8186  3.8127
15644SOL    HW248417   1.300   4.684   8.243  0.7035  0.8791 -0.4101
15645SOL     OW48418   8.152   4.485   3.676 -0.3674  0.2648  0.1727
15645SOL    HW148419   8.193   4.400   3.659  1.4277  1.3133 -0.8194
15645SOL    HW248420   8.122   4.516   3.591  1.1630  1.7229  0.1387
15646SOL     OW48421   4.873   3.342   7.655 -0.7878 -0.0587  0.2061
15646SOL    HW148422   4.801   3.284   7.629 -1.6286  1.2355 -0.3892
15646SOL    HW248423   4.881   3.330   7.750 -1.7097 -0.3017  0.2561
15647SOL     OW48424   7.185   1.777   3.589 -0.6181 -0.1952 -0.1454
15647SOL    HW148425   7.219   1.862   3.618  0.2734 -0.1598 -1.2533
15647SOL    HW248426   7.142   1.741   3.666  0.6285  0.4406  0.8594
15648SOL     OW48427   5.187   3.284   2.501  0.6855 -0.4067 -0.0600
15648SOL    HW148428   5.275   3.309   2.472 -0.3193  0.2293 -2.7280
15648SOL    HW248429   5.132   3.297   2.424 -1.4768 -2.3542  1.0954
15649SOL     OW48430   0.637   7.517   0.178 -0.4391 -0.2441 -0.0107
15649SOL    HW148431   0.667   7.564   0.101  0.2067 -1.1677 -0.3310
15649SOL    HW248432   0.603   7.585   0.236  2.1930  0.8248  0.3486
15650SOL     OW48433   6.699   7.922   3.297  0.4905  0.3413  0.7113
15650SOL    HW148434   6.646   7.852   3.259 -0.9856  1.3932  0.7945
15650SOL    HW248435   6.714   7.895   3.388 -0.0554  0.1215  0.7345
15651SOL     OW48436   7.288   1.313   3.210 -0.1678  0.5135 -0.3239
15651SOL    HW148437   7.367   1.261   3.229 -0.3154  0.1069 -0.8311
15651SOL    HW248438   7.228   1.291   3.282  0.5442  1.5841  0.6188
15652SOL     OW48439   3.604   1.344   3.105  0.0437  0.4468  0.2924
15652SOL    HW148440   3.584   1.265   3.156  0.1691 -0.5276 -1.1677
15652SOL    HW248441   3.699   1.348   3.104  0.0390  0.5262  0.2288
15653SOL     OW48442   6.487   1.765   3.649 -0.1980 -0.3360  0.4694
15653SOL    HW148443   6.448   1.714   3.720 -0.7329 -0.8183 -0.1619
15653SOL    HW248444   6.418   1.769   3.582 -0.1167  1.0964  0.4512
15654SOL     OW48445   0.573   1.383   7.744  0.1419  0.5026  0.5541
15654SOL    HW148446   0.662   1.416   7.733  0.9561 -2.3675 -2.1178
15654SOL    HW248447   0.531   1.398   7.659 -0.5112 -2.1068  0.3791
15655SOL     OW48448   5.869   3.840   1.874  0.2763 -0.2967  0.3997
15655SOL    HW148449   5.844   3.793   1.794 -1.4457  1.6084 -0.2201
15655SOL    HW248450   5.881   3.931   1.846  2.0612 -0.0336  1.8671
15656SOL     OW48451   7.659   1.697   7.977  0.2235 -0.5922  0.6404
15656SOL    HW148452   7.707   1.613   7.977  0.8775 -0.2676 -1.6922
15656SOL    HW248453   7.714   1.755   7.924 -1.7436  0.3929 -0.3614
15657SOL     OW48454   4.174   2.769   5.680  0.0650 -0.0890  0.0222
15657SOL    HW148455   4.105   2.830   5.652 -1.6414 -1.5370  0.9370
15657SOL    HW248456   4.204   2.803   5.764  1.8411  1.6010 -1.2520
15658SOL     OW48457   2.201   1.968   7.832 -0.3336 -0.1176  0.1834
15658SOL    HW148458   2.221   1.875   7.819 -1.0882 -0.1463 -0.9040
15658SOL    HW248459   2.283   2.013   7.813 -0.2195 -0.5044 -0.2615
15659SOL     OW48460   8.282   1.426   7.755 -0.4255  0.2195 -0.3242
15659SOL    HW148461   8.354   1.449   7.695 -0.4011  0.0706 -0.3519
15659SOL    HW248462   8.325   1.384   7.829 -0.4225  0.7119 -0.0413
15660SOL     OW48463   5.754   5.142   1.923 -0.2721  0.1000  0.0050
15660SOL    HW148464   5.693   5.072   1.945  0.6379 -0.5915  0.3413
15660SOL    HW248465   5.734   5.163   1.831 -2.1369  1.0452  0.5854
15661SOL     OW48466   5.197   6.062   5.688 -0.0486  0.2887 -0.2989
15661SOL    HW148467   5.146   6.006   5.747  1.3502 -1.0854 -0.3452
15661SOL    HW248468   5.277   6.081   5.736  0.9313 -0.5055 -1.5726
15662SOL     OW48469   1.773   1.037   6.352 -0.4054 -0.5656  0.2913
15662SOL    HW148470   1.807   1.045   6.263  0.5981 -2.9994  0.4298
15662SOL    HW248471   1.697   1.096   6.353 -0.3129 -0.3293 -2.1087
15663SOL     OW48472   6.475   8.253   1.898  0.1066 -0.5233  0.9353
15663SOL    HW148473   6.488   8.328   1.956  0.2241 -0.0107  0.2492
15663SOL    HW248474   6.387   8.221   1.920  0.7239 -1.2491  2.4269
15664SOL     OW48475   4.270   4.873   7.944  0.0278  0.4022 -0.0893
15664SOL    HW148476   4.266   4.907   7.855 -0.2302  0.9754  0.1358
15664SOL    HW248477   4.214   4.795   7.942 -0.5413  0.8108 -0.2577
15665SOL     OW48478   7.092   5.532   4.410  0.1918 -0.0249 -0.5942
15665SOL    HW148479   7.024   5.470   4.381 -0.6679  0.1470  0.9822
15665SOL    HW248480   7.063   5.559   4.496  2.2262  0.1708  0.0447
15666SOL     OW48481   2.089   1.446   3.233  0.0836  0.5104  0.4591
15666SOL    HW148482   2.127   1.495   3.305  0.5148  1.4674 -0.4067
15666SOL    HW248483   2.091   1.506   3.158  0.0425 -0.6012 -0.4590
15667SOL     OW48484   7.507   0.492   0.632 -0.0365  0.2198 -0.1713
15667SOL    HW148485   7.462   0.558   0.685  1.2958  0.7666  0.2892
15667SOL    HW248486   7.436   0.442   0.592 -1.0590  1.6447 -0.1764
15668SOL     OW48487   6.897   1.073   7.437  0.6073 -0.2044 -0.1985
15668SOL    HW148488   6.802   1.078   7.446  0.5355 -1.1413 -0.4632
15668SOL    HW248489   6.914   1.094   7.346  0.8703  2.7200  0.4655
15669SOL     OW48490   1.689   4.784   3.884 -0.9338  0.1177  0.6714
15669SOL    HW148491   1.692   4.731   3.804 -0.1257  0.2154  0.6428
15669SOL    HW248492   1.674   4.873   3.854  5.3277  1.1944  0.1840
15670SOL     OW48493   4.732   3.611   7.052 -0.7686 -0.1643 -0.0887
15670SOL    HW148494   4.758   3.534   7.001 -1.2737 -0.5295  0.2059
15670SOL    HW248495   4.810   3.667   7.050 -0.4998 -0.5423 -0.5616
15671SOL     OW48496   6.366   2.638   4.987  0.0491 -0.1710 -0.0074
15671SOL    HW148497   6.419   2.665   4.911  1.0367  1.8452  1.3487
15671SOL    HW248498   6.418   2.571   5.030  0.2436 -0.1468 -0.2045
15672SOL     OW48499   2.863   0.717   0.926  0.5451  0.5580  0.5976
15672SOL    HW148500   2.872   0.745   1.017  1.7203 -1.4221  1.1188
15672SOL    HW248501   2.850   0.622   0.931  1.9905  0.2257 -1.3527
15673SOL     OW48502   0.829   3.742   3.848  0.2695 -0.2217 -0.4203
15673SOL    HW148503   0.849   3.677   3.781 -0.5555  0.6660 -1.5504
15673SOL    HW248504   0.866   3.706   3.928  0.6207 -1.6513 -1.2074
15674SOL     OW48505   0.181   0.458   0.517 -0.3896 -0.4422  0.3707
15674SOL    HW148506   0.201   0.536   0.568 -0.9482 -1.1804  1.7476
15674SOL    HW248507   0.086   0.462   0.503 -0.2275 -0.1897 -0.7228
15675SOL     OW48508   7.303   3.792   0.518  0.7413  1.0326 -0.1301
15675SOL    HW148509   7.285   3.759   0.430  0.6933 -0.9197  0.6026
15675SOL    HW248510   7.397   3.813   0.517  1.3577 -1.5234  0.1357
15676SOL     OW48511   2.905   4.286   1.535  0.5528  0.4056  0.5112
15676SOL    HW148512   2.838   4.329   1.589  0.9196  1.1132  0.4054
15676SOL    HW248513   2.872   4.197   1.523 -1.5431  1.3868 -1.4834
15677SOL     OW48514   2.193   1.589   3.426  0.2034  0.0534  0.3238
15677SOL    HW148515   2.270   1.589   3.481  1.1871 -1.2494 -0.9936
15677SOL    HW248516   2.221   1.632   3.345 -1.0316  1.3790  0.5789
15678SOL     OW48517   2.315   6.089   4.974  0.4722  0.2093  0.0266
15678SOL    HW148518   2.367   6.011   4.954 -0.6601 -0.5774  0.1281
15678SOL    HW248519   2.370   6.140   5.033  1.1494 -0.5950  0.0926
15679SOL     OW48520   1.608   7.706   0.882 -0.2741  0.4937 -0.3871
15679SOL    HW148521   1.530   7.655   0.901 -0.1990  0.6001  0.2342
15679SOL    HW248522   1.586   7.795   0.908  0.3575  0.3591  0.6539
15680SOL     OW48523   4.815   4.412   3.043  0.0500 -0.2395  0.3747
15680SOL    HW148524   4.891   4.469   3.054 -0.2078  0.5881 -1.8879
15680SOL    HW248525   4.840   4.353   2.972 -1.6923  0.5027 -0.8618
15681SOL     OW48526   3.714   8.260   5.241  0.4180  0.4180  0.2566
15681SOL    HW148527   3.742   8.277   5.151  1.7057 -0.4100  0.4909
15681SOL    HW248528   3.627   8.299   5.246  0.2933  0.3979 -1.3709
15682SOL     OW48529   1.370   5.622   1.574 -0.1612 -0.5039 -0.0372
15682SOL    HW148530   1.461   5.637   1.599 -0.2925  0.6374 -0.2337
15682SOL    HW248531   1.363   5.658   1.486 -0.9459 -0.0970  0.1942
15683SOL     OW48532   4.918   3.478   2.583  0.7297  0.1516  0.2597
15683SOL    HW148533   4.968   3.410   2.628 -0.0219  0.0950  1.0162
15683SOL    HW248534   4.979   3.515   2.520  0.6532 -2.4928 -1.4766
15684SOL     OW48535   1.239   7.895   3.085  0.6971 -0.6007 -0.3751
15684SOL    HW148536   1.175   7.937   3.142  2.2692 -0.3286  1.2270
15684SOL    HW248537   1.187   7.834   3.033 -1.4267  2.2571 -1.7734
15685SOL     OW48538   3.989   1.423   1.691 -0.0377  0.0710 -0.2780
15685SOL    HW148539   4.048   1.364   1.738 -0.7039  0.0655  0.5697
15685SOL    HW248540   3.996   1.398   1.599  0.7187 -0.4158 -0.0871
15686SOL     OW48541   4.464   3.505   7.040 -0.2480 -0.6043 -0.4534
15686SOL    HW148542   4.549   3.548   7.032  0.0713 -1.3909 -1.4716
15686SOL    HW248543   4.424   3.543   7.118  0.9279 -0.0375 -0.1244
15687SOL     OW48544   6.881   3.118   3.438  0.4839 -0.0766  0.1273
15687SOL    HW148545   6.929   3.045   3.478  0.8822  0.4771  0.6492
15687SOL    HW248546   6.935   3.195   3.455 -0.7583  0.6134  1.0196
15688SOL     OW48547   1.451   4.109   1.220 -0.1658  0.1901  0.2543
15688SOL    HW148548   1.500   4.027   1.229  1.0378  0.9790  1.0280
15688SOL    HW248549   1.403   4.118   1.302 -1.7830 -0.6772 -0.5781
15689SOL     OW48550   5.605   1.628   2.410 -0.0369 -0.0971 -0.1412
15689SOL    HW148551   5.668   1.690   2.447  0.0363  0.7521 -1.6519
15689SOL    HW248552   5.643   1.542   2.429  0.5157  0.3452  0.8136
15690SOL     OW48553   2.526   5.471   2.693  0.2007  0.0636 -0.0654
15690SOL    HW148554   2.596   5.406   2.692 -0.7174 -0.9528  0.2803
15690SOL    HW248555   2.527   5.506   2.782 -1.0572 -1.4537  0.5776
15691SOL     OW48556   6.597   5.602   7.310  0.0521  0.3768  0.3411
15691SOL    HW148557   6.592   5.534   7.242 -2.1363  2.3409 -1.5262
15691SOL    HW248558   6.690   5.625   7.314  0.8464 -2.6992  1.0413
15692SOL     OW48559   2.046   7.655   2.895 -0.3072 -0.0091  0.3188
15692SOL    HW148560   2.056   7.630   2.987  0.1720 -1.7427 -0.1886
15692SOL    HW248561   2.116   7.718   2.880 -0.0749 -0.0927  1.0164
15693SOL     OW48562   6.022   4.762   6.900  0.7925  0.0296  0.2967
15693SOL    HW148563   6.070   4.692   6.944  0.4516 -0.1857  0.3264
15693SOL    HW248564   6.026   4.739   6.808  0.8849  0.0969  0.2834
15694SOL     OW48565   6.427   2.097   8.187  0.2207  0.2458  0.2539
15694SOL    HW148566   6.436   2.120   8.280  1.3804  0.8043  0.0046
15694SOL    HW248567   6.474   2.014   8.178  0.8864  0.6471 -0.0149
15695SOL     OW48568   5.330   5.884   4.225  0.2659 -0.3268 -0.2045
15695SOL    HW148569   5.409   5.936   4.241 -1.0412  0.7669  3.1330
15695SOL    HW248570   5.312   5.896   4.132  1.5844  2.9505 -0.1042
15696SOL     OW48571   7.261   2.234   7.683  0.4112 -0.5081 -0.3140
15696SOL    HW148572   7.306   2.289   7.619 -0.0280  0.1163 -0.0935
15696SOL    HW248573   7.247   2.291   7.758 -2.5319 -0.0901 -1.1350
15697SOL     OW48574   5.958   0.862   3.160  0.1451 -0.6742  0.5066
15697SOL    HW148575   5.957   0.924   3.232  2.4829 -2.0088  1.7369
15697SOL    HW248576   5.964   0.776   3.201 -1.0909 -1.6159 -1.2123
15698SOL     OW48577   1.129   2.598   4.735  0.1212 -0.0812 -0.1719
15698SOL    HW148578   1.213   2.551   4.734  0.6948  0.8932  0.9127
15698SOL    HW248579   1.064   2.530   4.755  0.8551 -0.5610  0.6540
15699SOL     OW48580   4.202   1.678   6.419  0.0456  0.0940 -0.5165
15699SOL    HW148581   4.190   1.638   6.505 -1.0078 -1.7982 -1.5114
15699SOL    HW248582   4.118   1.666   6.374  0.4411  1.4295 -1.6719
15700SOL     OW48583   6.723   5.794   2.210  0.6653  0.0593 -0.3473
15700SOL    HW148584   6.744   5.717   2.263  0.6132  0.9148  0.9294
15700SOL    HW248585   6.804   5.813   2.163  0.6580 -0.8125 -0.7291
15701SOL     OW48586   2.133   7.154   0.284 -0.1521 -0.1491 -0.0912
15701SOL    HW148587   2.154   7.220   0.218 -1.2622  0.1757 -0.1391
15701SOL    HW248588   2.187   7.178   0.359 -0.5836  0.8706 -0.0874
15702SOL     OW48589   1.818   4.405   4.469 -0.1085  0.2001  0.3757
15702SOL    HW148590   1.785   4.475   4.525 -1.3902 -0.6705  0.7333
15702SOL    HW248591   1.740   4.361   4.437  0.6530 -0.2624 -0.8928
15703SOL     OW48592   1.315   7.068   2.605 -0.2604 -0.2233 -0.3394
15703SOL    HW148593   1.312   7.158   2.638 -0.0019 -0.2561 -0.2315
15703SOL    HW248594   1.378   7.070   2.533 -1.7922  0.1355 -1.6952
15704SOL     OW48595   6.579   0.462   0.048 -0.4036 -0.4447 -0.1012
15704SOL    HW148596   6.645   0.394   0.037 -0.2573 -0.5297  1.1840
15704SOL    HW248597   6.499   0.426   0.010 -0.6182 -1.8064  1.5790
15705SOL     OW48598   4.332   1.912   6.147 -0.5688  0.5168 -0.5179
15705SOL    HW148599   4.261   1.868   6.194 -0.4593  0.6010 -0.2687
15705SOL    HW248600   4.313   2.006   6.158 -0.4609  0.5382 -0.5182
15706SOL     OW48601   5.977   3.246   0.769 -0.0666  0.3541 -0.4008
15706SOL    HW148602   5.975   3.338   0.793  2.6400  0.6117 -1.0823
15706SOL    HW248603   6.067   3.218   0.785 -0.9111 -2.2661  0.0922
15707SOL     OW48604   7.743   0.700   2.071 -0.1879  0.1332  0.4400
15707SOL    HW148605   7.774   0.636   2.135 -0.9671 -0.8318 -0.1294
15707SOL    HW248606   7.822   0.733   2.030  0.2174 -0.6479  0.5772
15708SOL     OW48607   1.543   7.293   1.327 -0.0267 -0.0564 -0.5215
15708SOL    HW148608   1.454   7.324   1.313  0.6538  2.0632 -0.2886
15708SOL    HW248609   1.538   7.241   1.408 -0.7625  1.2378  0.2735
15709SOL     OW48610   6.478   7.925   5.687 -0.4807  0.6592 -0.2448
15709SOL    HW148611   6.538   7.927   5.613 -0.5946  0.6462 -0.3392
15709SOL    HW248612   6.471   8.016   5.715 -1.3316  0.8293 -0.9829
15710SOL     OW48613   0.025   4.249   6.487 -0.0830  1.6430 -0.1774
15710SOL    HW148614   0.110   4.238   6.531  0.2500  1.0867 -0.9451
15710SOL    HW248615   0.023   4.180   6.421 -1.0848  1.7368 -0.2548
15711SOL     OW48616   2.256   7.949   7.507  0.5663 -0.1143  0.1811
15711SOL    HW148617   2.311   7.928   7.582  1.7182 -1.0323 -0.8956
15711SOL    HW248618   2.228   7.864   7.473 -0.4339  0.3103 -0.0694
15712SOL     OW48619   2.526   6.636   2.632  0.1842  0.1981 -0.6714
15712SOL    HW148620   2.459   6.640   2.701 -0.6541 -0.6160 -1.4336
15712SOL    HW248621   2.556   6.545   2.632  1.6041  0.6433 -0.0576
15713SOL     OW48622   4.997   6.754   4.439 -0.2039 -0.4417 -0.5490
15713SOL    HW148623   4.982   6.680   4.381 -2.4163 -1.7574  1.6222
15713SOL    HW248624   4.922   6.812   4.427 -0.9634 -0.9858  1.3361
15714SOL     OW48625   7.885   7.951   5.427  0.0916  0.0482 -0.2918
15714SOL    HW148626   7.853   7.889   5.492 -0.6541 -0.4929 -1.1614
15714SOL    HW248627   7.822   7.945   5.355  0.4766  1.2054 -0.7369
15715SOL     OW48628   7.847   1.988   3.012  0.0414 -0.0964 -0.0298
15715SOL    HW148629   7.757   2.017   2.999  0.1420  2.7703  4.4596
15715SOL    HW248630   7.839   1.910   3.067  0.2754 -1.2263 -1.5593
15716SOL     OW48631   0.560   2.815   4.069 -0.0724  0.0824  0.2089
15716SOL    HW148632   0.600   2.789   3.986  0.6377 -1.5240  1.0218
15716SOL    HW248633   0.474   2.849   4.045  0.6307  0.8477 -1.2978
15717SOL     OW48634   3.387   4.769   4.898 -0.0910 -0.0179  0.6519
15717SOL    HW148635   3.328   4.776   4.823 -0.5041  0.9689  1.0554
15717SOL    HW248636   3.333   4.729   4.967 -0.8042  2.3291  1.5174
15718SOL     OW48637   0.255   8.194   0.384  0.1808 -0.2546 -0.1367
15718SOL    HW148638   0.281   8.139   0.309  0.1330  0.2651 -0.5376
15718SOL    HW248639   0.315   8.169   0.454 -0.2265 -1.2562 -0.1294
15719SOL     OW48640   2.356   1.130   0.678  0.2595 -0.2215 -0.4990
15719SOL    HW148641   2.311   1.110   0.596  0.1006  0.6733 -0.6292
15719SOL    HW248642   2.286   1.130   0.744 -0.2896  3.2113 -1.0146
15720SOL     OW48643   6.905   8.237   2.974  0.0837  0.2517  0.2033
15720SOL    HW148644   6.885   8.266   3.064 -0.7969  0.7187 -0.1367
15720SOL    HW248645   6.840   8.281   2.920 -0.1040 -0.9329 -0.5439
15721SOL     OW48646   5.804   3.122   5.906  0.1245  0.1505 -0.0770
15721SOL    HW148647   5.719   3.161   5.925 -0.5441 -0.4784 -1.6595
15721SOL    HW248648   5.790   3.028   5.914  1.3240  0.1313  2.1314
15722SOL     OW48649   1.459   5.388   1.176 -0.5392  0.4035  0.4046
15722SOL    HW148650   1.545   5.367   1.140 -0.2898  2.2184 -0.0850
15722SOL    HW248651   1.418   5.303   1.191  1.6426 -0.5083  1.4005
15723SOL     OW48652   2.999   6.732   4.633  0.0775  0.7026  0.4561
15723SOL    HW148653   2.911   6.771   4.634 -0.8934 -1.4101  2.3496
15723SOL    HW248654   2.990   6.654   4.578  0.7605  0.4764  0.6660
15724SOL     OW48655   0.982   1.209   5.928  0.1870 -0.1554 -0.0562
15724SOL    HW148656   0.923   1.148   5.972 -0.7305  0.0132 -1.0302
15724SOL    HW248657   1.058   1.156   5.903 -0.2144 -0.7010 -0.1171
15725SOL     OW48658   2.447   6.482   2.202 -0.2965 -0.0032 -0.2560
15725SOL    HW148659   2.500   6.522   2.134 -1.2767 -0.5439 -1.3538
15725SOL    HW248660   2.357   6.490   2.171 -0.8539  0.6857  1.4652
15726SOL     OW48661   1.565   6.539   2.180 -0.4992 -0.2631 -0.7151
15726SOL    HW148662   1.527   6.625   2.160 -1.0238 -0.5339 -0.8735
15726SOL    HW248663   1.493   6.490   2.219  0.5206  0.3191  2.0394
15727SOL     OW48664   7.611   7.355   7.981  0.6807 -0.4211 -0.1177
15727SOL    HW148665   7.658   7.279   8.016 -1.1138 -1.8686 -0.7059
15727SOL    HW248666   7.521   7.344   8.013  0.6024  2.0160  0.6122
15728SOL     OW48667   5.560   1.921   0.653  0.3656 -0.2704 -0.4334
15728SOL    HW148668   5.480   1.950   0.698  1.0769  0.1739  0.5752
15728SOL    HW248669   5.585   1.994   0.598  0.7629  0.0756  0.2003
15729SOL     OW48670   4.478   0.863   0.026  0.0317  0.3843 -0.1116
15729SOL    HW148671   4.531   0.806  -0.031 -0.1177  1.1367 -1.0166
15729SOL    HW248672   4.408   0.806   0.058 -0.3592  0.1498 -1.3419
15730SOL     OW48673   1.735   4.858   7.461  0.2465 -0.4207 -0.1069
15730SOL    HW148674   1.655   4.887   7.417  1.2877  0.9870 -1.1276
15730SOL    HW248675   1.708   4.782   7.512 -1.7542  0.0744 -0.3847
15731SOL     OW48676   0.855   4.688   3.429  0.1538 -0.0289 -0.1156
15731SOL    HW148677   0.800   4.616   3.396  0.8491  0.4890 -2.5289
15731SOL    HW248678   0.795   4.760   3.443 -0.2140 -0.3846  0.1578
15732SOL     OW48679   4.661   8.141   5.514 -0.0233  0.2538 -0.2786
15732SOL    HW148680   4.645   8.217   5.458  0.0427  0.7092  0.3247
15732SOL    HW248681   4.587   8.082   5.497 -0.3018  0.6431 -0.4111
15733SOL     OW48682   5.582   7.189   2.907 -0.4889  0.1646  0.2968
15733SOL    HW148683   5.501   7.141   2.893 -0.2802 -0.6033  1.6002
15733SOL    HW248684   5.635   7.172   2.829  0.0901 -2.8104  1.2590
15734SOL     OW48685   6.600   5.369   2.593  0.0133 -0.2689 -0.7314
15734SOL    HW148686   6.695   5.366   2.587  0.1991  1.1138  1.0325
15734SOL    HW248687   6.571   5.281   2.567  1.7153 -0.4853 -1.9315
15735SOL     OW48688   1.386   3.281   4.834 -0.3368  0.0156 -0.3204
15735SOL    HW148689   1.463   3.336   4.850 -0.1812 -0.7910  1.7874
15735SOL    HW248690   1.413   3.223   4.763  0.9262 -0.0954  0.2254
15736SOL     OW48691   4.597   4.662   4.826 -0.2121  0.5531 -0.3403
15736SOL    HW148692   4.502   4.664   4.813 -0.0803  0.6180 -1.3999
15736SOL    HW248693   4.619   4.569   4.828 -0.3864  0.5341  0.6051
15737SOL     OW48694   5.166   7.677   5.577 -0.4873 -0.2555 -0.3898
15737SOL    HW148695   5.142   7.709   5.490  0.4595 -1.0960 -0.9798
15737SOL    HW248696   5.210   7.751   5.619  0.2896 -0.2745 -1.1528
15738SOL     OW48697   1.656   5.041   0.213 -0.0396  0.7860 -0.4732
15738SOL    HW148698   1.723   5.105   0.188 -1.3006  2.3428  0.0192
15738SOL    HW248699   1.580   5.094   0.236 -0.5516 -0.8189  1.7132
15739SOL     OW48700   7.057   6.074   1.162 -0.1607  0.7705  0.0446
15739SOL    HW148701   7.008   6.067   1.244 -0.4358  1.4943 -0.0484
15739SOL    HW248702   6.994   6.050   1.095  0.1922 -0.2581  0.0768
15740SOL     OW48703   7.056   4.592   2.217 -0.2951  0.2936  0.6219
15740SOL    HW148704   7.141   4.635   2.211 -0.8995  1.1947 -2.3972
15740SOL    HW248705   6.993   4.663   2.224 -0.9257 -0.3049  1.1208
15741SOL     OW48706   2.807   1.632   6.691 -0.1663  0.4710 -0.1939
15741SOL    HW148707   2.772   1.721   6.685  1.9737  1.6425  3.3107
15741SOL    HW248708   2.750   1.589   6.755  0.0167 -0.0971 -0.4118
15742SOL     OW48709   7.782   7.143   2.913 -0.4157 -0.6648  0.3374
15742SOL    HW148710   7.726   7.113   2.842 -2.3540 -0.6698  1.8070
15742SOL    HW248711   7.796   7.236   2.896 -1.8032 -0.4129  0.5336
15743SOL     OW48712   4.504   0.417   3.904  0.7291 -0.4585  0.1715
15743SOL    HW148713   4.505   0.431   3.999 -0.6788 -2.5592  0.5286
15743SOL    HW248714   4.549   0.333   3.892  3.5377  1.1890 -1.3170
15744SOL     OW48715   6.825   0.025   2.529 -0.0752  0.0829  0.0357
15744SOL    HW148716   6.835   0.116   2.559 -0.8732  0.2876 -0.3063
15744SOL    HW248717   6.897  -0.022   2.571  0.9034  1.0563 -0.5172
15745SOL     OW48718   1.333   1.707   6.887  0.2484  0.1959  0.3719
15745SOL    HW148719   1.367   1.618   6.890  2.1115  0.9003  0.7531
15745SOL    HW248720   1.302   1.719   6.798  0.9227 -0.4992  0.0457
15746SOL     OW48721   3.154   0.197   8.206 -0.7005  0.0408 -0.6292
15746SOL    HW148722   3.123   0.106   8.204 -1.0881  0.1713 -0.3780
15746SOL    HW248723   3.213   0.200   8.281 -0.2326 -0.1516 -0.9835
15747SOL     OW48724   3.713   3.564   6.833  0.3242 -0.1468 -0.0670
15747SOL    HW148725   3.711   3.659   6.821  0.8899 -0.1923 -0.5551
15747SOL    HW248726   3.806   3.544   6.841  0.1451 -0.4913  1.4341
15748SOL     OW48727   1.877   2.772   3.956 -0.3250 -0.0659 -0.2556
15748SOL    HW148728   1.794   2.733   3.929 -1.0175  1.9791 -1.1286
15748SOL    HW248729   1.907   2.716   4.028 -2.4667 -0.7797  0.1134
15749SOL     OW48730   5.026   2.430   4.213 -0.6770  0.0123 -0.1595
15749SOL    HW148731   4.942   2.458   4.177  0.5868  1.6039 -1.9904
15749SOL    HW248732   5.053   2.502   4.271 -0.1866 -0.0999 -0.2452
15750SOL     OW48733   7.640   8.123   8.287 -0.1686  0.1569  0.4183
15750SOL    HW148734   7.649   8.036   8.250  0.3395  0.2965  0.2018
15750SOL    HW248735   7.716   8.133   8.345  0.5551  0.9797 -0.6370
15751SOL     OW48736   7.356   1.529   4.602 -0.0078 -0.2445  0.8932
15751SOL    HW148737   7.399   1.487   4.528 -1.5768  0.8736 -0.7016
15751SOL    HW248738   7.426   1.543   4.665  1.7202  0.3011 -1.0753
15752SOL     OW48739   7.427   4.676   0.386  0.2485  0.5199 -0.4134
15752SOL    HW148740   7.403   4.742   0.451  0.8846  1.7951 -1.4554
15752SOL    HW248741   7.407   4.717   0.302 -0.2238 -0.9799 -1.0419
15753SOL     OW48742   3.081   4.730   7.099  0.2873  0.3243 -0.3087
15753SOL    HW148743   3.095   4.711   7.007 -1.6064  2.1608 -1.0278
15753SOL    HW248744   3.019   4.664   7.129  1.1241 -0.4469 -0.2564
15754SOL     OW48745   7.100   4.938   8.211  0.1992 -0.6514 -0.0090
15754SOL    HW148746   7.157   4.945   8.287 -1.8432 -0.1853  1.5411
15754SOL    HW248747   7.062   4.850   8.217 -1.0563 -0.0999  0.3337
15755SOL     OW48748   0.214   7.584   2.619 -0.5395  0.8160 -0.2509
15755SOL    HW148749   0.266   7.622   2.548  2.0131  0.8407  1.5653
15755SOL    HW248750   0.201   7.493   2.593  0.6401  0.7442 -0.6116
15756SOL     OW48751   6.498   3.876   0.115  0.0422  0.2060 -0.0343
15756SOL    HW148752   6.434   3.907   0.051 -0.4750  0.1911  0.4795
15756SOL    HW248753   6.583   3.892   0.073 -0.2021  2.3119  0.1910
15757SOL     OW48754   1.124   5.865   6.416  1.0334 -0.2716 -0.4834
15757SOL    HW148755   1.086   5.819   6.491  0.9488  0.3708 -0.1253
15757SOL    HW248756   1.200   5.813   6.391  1.3275 -0.2367  0.3407
15758SOL     OW48757   5.577   4.345   3.732 -0.5683 -0.1107 -0.0401
15758SOL    HW148758   5.629   4.271   3.700 -0.0544 -0.3159  1.2204
15758SOL    HW248759   5.487   4.321   3.711 -0.4714 -1.4303  0.9478
15759SOL     OW48760   1.677   2.927   6.498  0.3899 -0.4340 -0.3613
15759SOL    HW148761   1.695   2.968   6.414 -0.9789 -0.6692 -0.7808
15759SOL    HW248762   1.588   2.893   6.490 -0.2186  0.6055  1.6119
15760SOL     OW48763   1.926   3.302   3.201 -0.3375 -0.1515 -0.0525
15760SOL    HW148764   1.887   3.242   3.138 -1.2692 -0.5507  0.8933
15760SOL    HW248765   1.868   3.298   3.277  1.4211 -0.5536  1.2714
15761SOL     OW48766   4.190   0.759   7.688 -0.3522 -0.7905 -0.0139
15761SOL    HW148767   4.267   0.726   7.642  1.0172 -0.0840  1.7118
15761SOL    HW248768   4.212   0.750   7.781 -2.0797  0.0409  0.4957
15762SOL     OW48769   5.871   2.319   5.863  0.6606 -0.1424  0.1831
15762SOL    HW148770   5.901   2.264   5.790  1.4411 -1.0435  1.1786
15762SOL    HW248771   5.864   2.260   5.937  0.8751  0.9829  1.1187
15763SOL     OW48772   1.064   7.291   5.213  0.2844 -0.0918 -0.3376
15763SOL    HW148773   1.105   7.233   5.150  2.0903  0.3370  0.4126
15763SOL    HW248774   0.975   7.304   5.180  0.8352 -0.8098 -2.1457
15764SOL     OW48775   5.739   5.985   5.733 -0.1675  0.3417 -0.0425
15764SOL    HW148776   5.706   6.067   5.696  1.0524  0.1334 -1.6425
15764SOL    HW248777   5.829   5.979   5.700 -0.7392 -2.3958 -1.2381
15765SOL     OW48778   2.451   6.888   0.217  0.1077 -0.6878  0.1164
15765SOL    HW148779   2.528   6.870   0.162 -0.2726 -0.5740 -0.4586
15765SOL    HW248780   2.451   6.817   0.282  0.6769 -0.7095  0.0992
15766SOL     OW48781   7.002   2.861   8.142  0.1088 -0.3026 -0.4655
15766SOL    HW148782   6.985   2.835   8.232  1.0079  0.1353 -0.1609
15766SOL    HW248783   6.958   2.946   8.133 -2.8973 -1.8761 -1.4855
15767SOL     OW48784   0.602   2.097   2.717 -0.1663 -0.2453 -0.1763
15767SOL    HW148785   0.544   2.124   2.646 -0.8644  0.7798  0.7607
15767SOL    HW248786   0.557   2.125   2.797  2.8351  3.2033  0.4819
15768SOL     OW48787   7.398   2.441   6.891 -0.1877  0.1010  0.3295
15768SOL    HW148788   7.377   2.525   6.850 -1.1168  1.5735  3.7035
15768SOL    HW248789   7.336   2.380   6.851  0.3600  1.0043 -2.0075
15769SOL     OW48790   5.912   2.092   5.178  0.3341 -0.3836 -0.3752
15769SOL    HW148791   5.866   2.085   5.262  1.9234 -0.2425  0.5396
15769SOL    HW248792   5.915   2.002   5.145  0.8461 -0.6579  0.3816
15770SOL     OW48793   5.956   1.804   5.346  0.7586  0.2123  0.1275
15770SOL    HW148794   5.945   1.799   5.251 -0.3033 -0.4366  0.2736
15770SOL    HW248795   5.885   1.861   5.375 -0.6276 -1.8041  0.8156
15771SOL     OW48796   7.478   1.211   7.900  0.8431  0.3460 -0.2296
15771SOL    HW148797   7.405   1.215   7.838  0.1387  0.3371  0.5871
15771SOL    HW248798   7.478   1.296   7.942 -0.6347 -0.6578  1.9208
15772SOL     OW48799   4.407   5.830   4.341  0.2395  0.0204 -0.0860
15772SOL    HW148800   4.326   5.880   4.331 -0.9937 -1.6131  1.3863
15772SOL    HW248801   4.414   5.815   4.435  2.2423  0.0867 -0.2011
15773SOL     OW48802   3.322   5.845   7.279 -0.2075 -0.0209 -0.2870
15773SOL    HW148803   3.401   5.833   7.227 -0.4793  1.9008 -1.1826
15773SOL    HW248804   3.254   5.799   7.229  0.1980 -1.0991  0.1401
15774SOL     OW48805   7.490   5.161   8.078  0.2277 -0.2456  0.2605
15774SOL    HW148806   7.476   5.088   8.018 -1.2676  0.5684 -0.3964
15774SOL    HW248807   7.582   5.186   8.065 -0.3536  0.6088 -2.4645
15775SOL     OW48808   7.546   7.829   5.402 -0.1009  0.1663 -0.5370
15775SOL    HW148809   7.516   7.815   5.492  2.6232 -0.2027  0.3767
15775SOL    HW248810   7.504   7.759   5.352  0.0576 -0.9581  0.8589
15776SOL     OW48811   6.445   8.291   2.999  0.1395 -0.2826 -0.6661
15776SOL    HW148812   6.506   8.236   3.047 -1.9018 -2.0598 -0.0471
15776SOL    HW248813   6.485   8.302   2.912  2.4818  0.6248  0.5049
15777SOL     OW48814   6.152   4.085   4.364 -0.3218 -0.6057  0.1687
15777SOL    HW148815   6.115   4.075   4.276 -0.6280  0.7104  0.1312
15777SOL    HW248816   6.128   4.174   4.390  2.1235 -0.0067  0.4874
15778SOL     OW48817   0.842   0.753   5.722 -0.2067  0.6426 -0.3674
15778SOL    HW148818   0.758   0.799   5.728 -0.1714  0.6347  0.1863
15778SOL    HW248819   0.879   0.759   5.810 -0.3228 -0.6800 -0.2178
15779SOL     OW48820   7.517   2.491   4.079  0.1440  0.9315 -0.2411
15779SOL    HW148821   7.482   2.466   3.994  0.0543  0.2048  0.0110
15779SOL    HW248822   7.602   2.531   4.060  0.2548  0.4975 -0.6410
15780SOL     OW48823   0.977   1.407   5.020 -0.1411 -0.0437  0.3713
15780SOL    HW148824   0.986   1.472   4.951 -1.7885 -0.4235 -0.2198
15780SOL    HW248825   1.067   1.387   5.047  0.4668  0.7422 -1.0611
15781SOL     OW48826   7.397   5.839   8.072  0.3479  0.3577 -0.5249
15781SOL    HW148827   7.416   5.798   8.157  1.3410  1.6184 -0.1217
15781SOL    HW248828   7.423   5.773   8.007 -1.9557 -1.2717  0.1403
15782SOL     OW48829   2.170   2.756   6.278  0.3275 -0.5243  0.4657
15782SOL    HW148830   2.167   2.837   6.228 -2.8073 -0.7102  0.2190
15782SOL    HW248831   2.209   2.692   6.218  0.4333  0.2254 -0.2690
15783SOL     OW48832   1.359   5.455   5.559 -0.5876  0.1756 -0.0482
15783SOL    HW148833   1.300   5.519   5.597 -0.2340  0.9672 -0.8298
15783SOL    HW248834   1.353   5.469   5.465 -0.0436 -0.5242 -0.1911
15784SOL     OW48835   5.173   7.189   1.343 -0.0898  0.1529  0.3340
15784SOL    HW148836   5.244   7.126   1.333 -0.0982  0.2741 -0.5614
15784SOL    HW248837   5.177   7.243   1.264 -0.7680  0.5729  0.5772
15785SOL     OW48838   6.084   4.504   4.947  0.3616  0.2636  0.1229
15785SOL    HW148839   6.035   4.440   4.896  0.5186  1.5510 -1.6813
15785SOL    HW248840   6.020   4.540   5.008  0.3790 -1.9100  1.4732
15786SOL     OW48841   1.684   3.856   2.447  0.2044  0.0829 -0.6192
15786SOL    HW148842   1.601   3.889   2.483  0.7764  0.2645  0.5753
15786SOL    HW248843   1.658   3.791   2.383 -0.8879  0.8250 -0.9411
15787SOL     OW48844   4.119   2.061   5.989 -0.5078  0.3441 -0.3342
15787SOL    HW148845   4.190   2.126   5.996  1.2802 -1.3829 -1.7365
15787SOL    HW248846   4.083   2.055   6.077  0.5959  1.8061  0.2451
15788SOL     OW48847   3.728   3.036   6.951 -0.6136 -0.2667  0.3372
15788SOL    HW148848   3.767   3.012   6.867 -2.6460 -1.2361 -0.3711
15788SOL    HW248849   3.672   3.111   6.931  0.2969  0.6544  1.1922
15789SOL     OW48850   4.447   5.771   2.046  0.4059  0.0248 -0.4094
15789SOL    HW148851   4.494   5.689   2.035 -0.4179 -0.4279 -0.5783
15789SOL    HW248852   4.355   5.746   2.056  0.1101  0.9345 -0.7274
15790SOL     OW48853   3.490   8.293   1.704 -0.7610 -0.1558  0.0416
15790SOL    HW148854   3.579   8.326   1.714 -1.4527  1.6504  0.3963
15790SOL    HW248855   3.462   8.269   1.792 -0.1934 -1.9240 -0.2390
15791SOL     OW48856   8.192   5.290   1.358  0.6320  0.1605 -0.7354
15791SOL    HW148857   8.125   5.252   1.415 -0.9536 -0.1204 -2.7240
15791SOL    HW248858   8.269   5.300   1.415 -1.5035  1.8560  1.9639
15792SOL     OW48859   5.089   5.430   1.954 -0.3307  0.5870 -0.2060
15792SOL    HW148860   5.058   5.520   1.954 -0.3023  0.6096  1.9976
15792SOL    HW248861   5.168   5.432   2.008 -0.7114 -0.8828  0.4203
15793SOL     OW48862   4.898   0.050   7.574 -0.0532 -0.2931 -0.3745
15793SOL    HW148863   4.912   0.140   7.604 -0.2172 -0.9303  1.6775
15793SOL    HW248864   4.840   0.059   7.498 -2.1150  1.1701  1.3300
15794SOL     OW48865   0.454   2.260   2.904  0.1161  0.6374  0.3326
15794SOL    HW148866   0.380   2.255   2.844  0.6617  0.8151 -0.3637
15794SOL    HW248867   0.415   2.263   2.992 -0.7051  1.1923 -0.0528
15795SOL     OW48868   0.960   4.068   6.589 -0.2822  0.3004 -0.2338
15795SOL    HW148869   0.919   4.101   6.669  1.0675  2.4229 -0.3568
15795SOL    HW248870   0.938   4.134   6.523 -0.2768 -0.7536 -1.2848
15796SOL     OW48871   1.325   5.659   3.040  0.1733 -0.1449 -0.4007
15796SOL    HW148872   1.330   5.566   3.019  1.5206  0.0228 -0.8727
15796SOL    HW248873   1.237   5.685   3.013  0.4282 -0.8751 -1.9803
15797SOL     OW48874   2.113   7.004   0.746 -0.2856  0.0203  0.3699
15797SOL    HW148875   2.073   6.921   0.721 -2.6468  1.2549 -0.0532
15797SOL    HW248876   2.089   7.064   0.676  1.1860  1.1461  0.8061
15798SOL     OW48877   6.592   5.254   2.896  0.5064  0.1859  0.0940
15798SOL    HW148878   6.585   5.184   2.961  1.8291  0.8533  0.9642
15798SOL    HW248879   6.671   5.232   2.847 -0.2048 -0.0318 -0.9689
15799SOL     OW48880   2.405   2.329   7.058  0.2400 -0.0059 -0.0985
15799SOL    HW148881   2.447   2.244   7.045 -0.7934 -0.1701 -2.6301
15799SOL    HW248882   2.477   2.392   7.056  0.6785 -0.5377 -1.4547
15800SOL     OW48883   1.098   1.908   5.305 -0.2390 -0.0058  0.2273
15800SOL    HW148884   1.008   1.881   5.292 -0.5893  0.8282  0.9057
15800SOL    HW248885   1.150   1.835   5.271 -1.1603 -0.0136 -1.1958
15801SOL     OW48886   2.623   3.354   6.437  0.0942 -0.1936  0.6908
15801SOL    HW148887   2.587   3.265   6.433  0.3984 -0.3396  1.1674
15801SOL    HW248888   2.716   3.343   6.415 -0.4367  0.3664 -1.9533
15802SOL     OW48889   4.817   3.317   4.967  0.3756 -0.3014  0.7525
15802SOL    HW148890   4.814   3.280   4.878 -0.1871  1.3031  0.0898
15802SOL    HW248891   4.868   3.398   4.957 -0.9081  0.6206  1.6260
15803SOL     OW48892   4.152   1.455   0.673  0.3183 -0.2955  0.0162
15803SOL    HW148893   4.061   1.444   0.702  0.6247 -3.5381 -0.0886
15803SOL    HW248894   4.160   1.396   0.598  2.1986  0.9263 -0.7819
15804SOL     OW48895   5.478   5.873   2.395  0.3867 -0.7691 -0.0633
15804SOL    HW148896   5.529   5.949   2.422  1.0797 -1.5453  0.9006
15804SOL    HW248897   5.522   5.841   2.316 -1.8134  1.6755 -2.3591
15805SOL     OW48898   3.609   0.425   3.111  0.0192  0.1659 -0.1121
15805SOL    HW148899   3.555   0.474   3.049  0.1454  0.3779 -0.0521
15805SOL    HW248900   3.659   0.491   3.158 -0.3024  0.0306  0.4348
15806SOL     OW48901   5.481   2.582   4.540  0.3229  0.1357  0.2994
15806SOL    HW148902   5.526   2.645   4.484  1.3302  0.4429  1.4241
15806SOL    HW248903   5.397   2.624   4.559 -1.2738 -1.2303 -3.2742
15807SOL     OW48904   6.343   4.349   1.128  0.9316 -0.0265  0.5854
15807SOL    HW148905   6.309   4.259   1.128 -0.3729  0.4416 -0.0609
15807SOL    HW248906   6.363   4.367   1.036  0.9121  0.4321  0.6678
15808SOL     OW48907   5.377   7.822   4.321 -0.2493 -0.2340 -0.1437
15808SOL    HW148908   5.350   7.745   4.270  2.5652 -0.8730 -0.7383
15808SOL    HW248909   5.307   7.885   4.307 -2.6328 -2.6559  0.3523
15809SOL     OW48910   6.601   0.227   3.795 -0.1880  0.1112  0.1502
15809SOL    HW148911   6.576   0.259   3.708 -1.4762  1.0431  0.8399
15809SOL    HW248912   6.610   0.307   3.848  1.7893 -0.3751  0.5630
15810SOL     OW48913   3.058   5.562   6.704  0.1346  0.8214  0.6765
15810SOL    HW148914   3.095   5.481   6.738 -0.8151  0.1032  0.0439
15810SOL    HW248915   2.985   5.533   6.649 -0.8871  2.1508  1.3083
15811SOL     OW48916   5.335   8.244   5.416 -0.2505 -0.0154 -0.2914
15811SOL    HW148917   5.344   8.330   5.455 -0.3015 -0.3417  0.4378
15811SOL    HW248918   5.414   8.233   5.363  0.2371  0.0617  0.4183
15812SOL     OW48919   4.565   1.434   7.212 -0.1403  0.0429  0.8812
15812SOL    HW148920   4.480   1.475   7.230  0.2020  0.3249  1.8847
15812SOL    HW248921   4.622   1.466   7.282  0.7295 -0.3472  0.3581
15813SOL     OW48922   2.586   6.046   6.723  0.6169 -0.9156 -0.0241
15813SOL    HW148923   2.517   5.982   6.739  1.4373 -1.7361  0.2216
15813SOL    HW248924   2.543   6.131   6.734 -0.1729 -1.4311  0.8609
15814SOL     OW48925   1.991   5.574   3.061  0.5544 -0.1803  0.4146
15814SOL    HW148926   2.075   5.576   3.015  0.9624 -3.0273  0.9215
15814SOL    HW248927   2.012   5.534   3.146 -0.9227  1.1673  1.4370
15815SOL     OW48928   0.937   0.697   7.564 -0.2007  0.5257  0.2659
15815SOL    HW148929   1.000   0.763   7.535  0.2684 -0.0880 -0.1127
15815SOL    HW248930   0.925   0.640   7.488  0.3039 -0.5289  0.9700
15816SOL     OW48931   3.575   4.375   5.356  0.3695  0.8892 -0.2274
15816SOL    HW148932   3.578   4.338   5.444 -0.1246  0.4832 -0.3783
15816SOL    HW248933   3.666   4.378   5.328  0.6598  2.2158  0.7883
15817SOL     OW48934   2.244   6.294   5.833  0.3193  0.3728 -0.2761
15817SOL    HW148935   2.248   6.334   5.920  1.3170  0.3907 -0.3251
15817SOL    HW248936   2.315   6.336   5.785  1.4325 -1.5220 -0.2980
15818SOL     OW48937   0.798   4.361   4.248 -0.0881  0.2674 -0.1842
15818SOL    HW148938   0.824   4.377   4.157 -1.2806 -1.9274 -0.9294
15818SOL    HW248939   0.880   4.371   4.298  0.4044  2.4626 -1.3251
15819SOL     OW48940   6.168   2.361   0.426  0.1856 -0.4263 -0.1398
15819SOL    HW148941   6.253   2.393   0.398 -0.8040  0.4537 -2.2759
15819SOL    HW248942   6.177   2.345   0.520  2.1906  1.2763 -0.0242
15820SOL     OW48943   7.655   1.144   4.124  0.0525  0.5649 -0.8823
15820SOL    HW148944   7.750   1.154   4.123  0.0118  1.3188  1.1224
15820SOL    HW248945   7.641   1.051   4.141  0.4252  0.5606 -0.6046
15821SOL     OW48946   3.678   3.594   0.436  0.5273  0.0670  0.1026
15821SOL    HW148947   3.657   3.567   0.526  1.5992  1.1546  0.7043
15821SOL    HW248948   3.733   3.524   0.402 -0.0916 -0.4730  0.2180
15822SOL     OW48949   2.458   0.010   0.974  0.2359 -0.0783 -0.2221
15822SOL    HW148950   2.456  -0.072   1.023  1.2176 -0.5525 -0.9609
15822SOL    HW248951   2.476   0.077   1.041 -1.2665 -0.3577  0.4919
15823SOL     OW48952   3.003   1.602   6.903 -0.0376  0.2052  0.3562
15823SOL    HW148953   2.963   1.577   6.986 -1.0849 -1.9210 -0.7374
15823SOL    HW248954   2.928   1.617   6.844  0.7194 -0.2268 -0.7265
15824SOL     OW48955   0.465   7.851   1.434 -0.0586 -0.4404 -0.2395
15824SOL    HW148956   0.474   7.942   1.408 -2.2516  0.8427  3.1243
15824SOL    HW248957   0.371   7.833   1.429  0.2974 -2.4146 -0.4951
15825SOL     OW48958   6.008   2.674   2.609  0.0574  0.2370 -0.1520
15825SOL    HW148959   6.007   2.597   2.666  1.5258 -0.2953 -0.8053
15825SOL    HW248960   5.988   2.747   2.667 -3.0970 -0.8185  0.1535
15826SOL     OW48961   0.619   7.942   8.251  0.1995  0.0871  0.1429
15826SOL    HW148962   0.542   7.956   8.306  2.0905  0.3940  2.8304
15826SOL    HW248963   0.617   8.015   8.189 -0.2907  1.5738  1.8507
15827SOL     OW48964   2.637   3.504   3.078 -0.0582  0.1242 -0.5864
15827SOL    HW148965   2.548   3.526   3.105 -0.4880 -1.6893 -0.4780
15827SOL    HW248966   2.693   3.556   3.136 -1.0180 -0.9653  1.3803
15828SOL     OW48967   4.177   7.876   2.113  0.0188  0.3188  0.4570
15828SOL    HW148968   4.152   7.805   2.054  0.4298  2.1996 -2.0565
15828SOL    HW248969   4.099   7.931   2.118  0.3485  0.7575  0.8069
15829SOL     OW48970   3.386   8.234   1.367 -0.7513  0.9314  0.1185
15829SOL    HW148971   3.431   8.183   1.300 -0.9995  0.5621  0.2284
15829SOL    HW248972   3.392   8.181   1.446  0.8386  2.0506  0.7591
15830SOL     OW48973   5.228   0.437   2.979  0.0203  0.3818  0.6475
15830SOL    HW148974   5.315   0.397   2.974 -0.4917 -0.4017 -3.0142
15830SOL    HW248975   5.244   0.531   2.980  0.8746  0.2548 -0.8671
15831SOL     OW48976   7.104   7.198   1.225  0.0705  0.2277  0.2142
15831SOL    HW148977   7.086   7.253   1.301  0.6045 -0.6264  0.9635
15831SOL    HW248978   7.197   7.209   1.209  0.1700 -0.4178  0.3367
15832SOL     OW48979   7.570   8.124   6.312 -0.2366  0.3359  0.7209
15832SOL    HW148980   7.477   8.144   6.324 -0.4116  0.2605 -0.5136
15832SOL    HW248981   7.603   8.197   6.260  0.0373 -0.4580 -0.2248
15833SOL     OW48982   6.043   0.538   5.149 -0.5911  0.1278  0.1366
15833SOL    HW148983   6.029   0.489   5.069  0.6359  0.1919 -0.1197
15833SOL    HW248984   6.084   0.476   5.209  1.6885  1.0079 -0.4495
15834SOL     OW48985   4.190   2.281   0.334 -0.3110 -0.1729 -0.1402
15834SOL    HW148986   4.150   2.194   0.341 -0.3068 -0.3006 -1.5245
15834SOL    HW248987   4.280   2.263   0.308 -0.4440  0.2454 -0.9164
15835SOL     OW48988   7.069   2.365   4.378 -0.3566  0.2055  0.2744
15835SOL    HW148989   7.137   2.345   4.313 -0.6084 -1.7373  0.5698
15835SOL    HW248990   7.086   2.455   4.403  1.0531  0.3038 -0.9444
15836SOL     OW48991   6.153   7.011   8.141 -0.5770  0.2024 -0.4285
15836SOL    HW148992   6.168   6.943   8.075 -1.5719 -0.7613  0.3198
15836SOL    HW248993   6.089   7.070   8.101 -0.2577  0.3002 -0.7982
15837SOL     OW48994   3.962   1.507   6.199  0.0047 -0.0261 -0.1854
15837SOL    HW148995   3.944   1.432   6.256 -0.9467 -0.0078 -0.4571
15837SOL    HW248996   3.921   1.485   6.116  0.0627  0.6214 -0.3872
15838SOL     OW48997   4.332   2.730   2.885 -0.0894  0.4645 -0.2541
15838SOL    HW148998   4.269   2.770   2.945  0.9302  0.7267  0.6593
15838SOL    HW248999   4.355   2.647   2.928 -3.0631 -1.7453 -2.6692
15839SOL     OW49000   2.290   7.400   7.017  0.3108 -0.5835 -0.2343
15839SOL    HW149001   2.209   7.446   6.993 -0.3227 -0.8450  1.3516
15839SOL    HW249002   2.262   7.331   7.077  1.4172 -2.2980 -1.6763
15840SOL     OW49003   0.393   2.326   0.034 -0.2142 -0.0810 -0.2168
15840SOL    HW149004   0.386   2.240  -0.005 -0.6714  0.0214 -0.3604
15840SOL    HW249005   0.317   2.374   0.002 -0.2361  0.2131  0.2676
15841SOL     OW49006   3.360   3.579   0.596 -0.3827  0.0663 -0.0839
15841SOL    HW149007   3.279   3.550   0.553  0.2578 -0.3468 -1.0209
15841SOL    HW249008   3.380   3.663   0.555 -1.5768  1.3090  1.7779
15842SOL     OW49009   1.665   2.262   7.142 -0.1420  0.5099  0.2656
15842SOL    HW149010   1.641   2.180   7.097 -1.1706  0.0548  1.6273
15842SOL    HW249011   1.754   2.281   7.110 -0.2083 -0.7043 -0.6803
15843SOL     OW49012   4.290   0.686   3.121 -0.1453 -0.2984  0.4727
15843SOL    HW149013   4.314   0.748   3.053 -0.9172  0.7057  1.1006
15843SOL    HW249014   4.205   0.652   3.092  0.2601 -1.0471  0.1469
15844SOL     OW49015   4.828   3.972   5.775 -0.3034  0.3592 -0.0139
15844SOL    HW149016   4.734   3.986   5.789 -0.0067  3.1173 -0.6158
15844SOL    HW249017   4.857   3.925   5.853 -1.9085  0.6723  0.7953
15845SOL     OW49018   0.788   1.444   0.660  0.5929  0.4882 -0.1556
15845SOL    HW149019   0.879   1.427   0.636  0.2492 -0.5598 -0.7275
15845SOL    HW249020   0.739   1.371   0.623 -0.2109 -0.1351  2.0784
15846SOL     OW49021   4.963   4.188   6.945  0.0852 -0.1946  0.1065
15846SOL    HW149022   4.923   4.102   6.935 -1.7901  0.4044  1.9563
15846SOL    HW249023   5.057   4.172   6.947 -0.1395 -1.9411 -1.6566
15847SOL     OW49024   7.523   3.351   7.764  0.8655  0.0244 -0.2845
15847SOL    HW149025   7.598   3.298   7.739  2.3818  0.3495  3.3500
15847SOL    HW249026   7.494   3.315   7.848 -0.8524  2.0976  0.0766
15848SOL     OW49027   4.886   4.426   7.092 -0.8331 -0.1414  0.0376
15848SOL    HW149028   4.911   4.340   7.057 -1.7305 -0.3172 -0.1798
15848SOL    HW249029   4.799   4.412   7.130 -0.7655  0.5554  0.4502
15849SOL     OW49030   7.804   6.981   5.455 -0.0827  0.0106 -0.9030
15849SOL    HW149031   7.865   6.959   5.385  0.8613  0.2876 -0.1743
15849SOL    HW249032   7.747   7.048   5.417  0.9769  0.7959 -1.1222
15850SOL     OW49033   0.001   0.831   2.959 -0.1182 -0.7522 -0.0653
15850SOL    HW149034  -0.066   0.778   2.917 -1.7007  0.7695  0.4760
15850SOL    HW249035  -0.038   0.858   3.042  0.5758  1.3060 -0.3573
15851SOL     OW49036   3.173   1.235   3.465 -0.1990 -0.2149 -0.2042
15851SOL    HW149037   3.174   1.249   3.559  0.1812  0.3821 -0.2932
15851SOL    HW249038   3.102   1.290   3.433  1.9752  2.4502 -0.6794
15852SOL     OW49039   5.667   2.401   8.116 -0.3663  0.1267  0.9159
15852SOL    HW149040   5.636   2.451   8.040 -0.2156 -0.0294  0.7524
15852SOL    HW249041   5.605   2.328   8.123 -1.1837  0.8911  1.7611
15853SOL     OW49042   6.477   5.307   5.977 -1.1686 -0.4335 -0.3785
15853SOL    HW149043   6.427   5.344   6.050 -1.5241 -0.6427 -0.5125
15853SOL    HW249044   6.539   5.247   6.019 -1.0964 -0.2479 -0.2180
15854SOL     OW49045   2.606   4.752   0.920  0.4446  0.7353  0.5449
15854SOL    HW149046   2.555   4.673   0.939  0.1212  1.1014  1.2220
15854SOL    HW249047   2.605   4.759   0.824  2.1199 -1.1580  0.3587
15855SOL     OW49048   0.295   0.745   7.168  0.2535 -0.2275  0.0236
15855SOL    HW149049   0.356   0.716   7.100 -2.2540 -3.2354 -1.0583
15855SOL    HW249050   0.229   0.795   7.121 -0.5307 -0.8288  0.4700
15856SOL     OW49051   3.237   1.801   7.503 -0.4071  0.0476 -0.4855
15856SOL    HW149052   3.165   1.785   7.442 -0.5857 -0.0220 -0.2566
15856SOL    HW249053   3.303   1.847   7.451 -0.9207  0.7681 -0.5023
15857SOL     OW49054   5.435   7.591   6.648 -0.0492  0.5993 -0.0371
15857SOL    HW149055   5.406   7.520   6.705 -1.8295 -0.9742 -2.7790
15857SOL    HW249056   5.531   7.592   6.658  0.1412 -3.0412 -0.8909
15858SOL     OW49057   0.622   7.220   7.413 -0.1538 -0.1224 -0.0843
15858SOL    HW149058   0.628   7.312   7.387 -2.7009 -0.4851 -2.1586
15858SOL    HW249059   0.660   7.171   7.340 -0.1193 -0.7981  0.3758
15859SOL     OW49060   1.427   5.443   0.414 -0.6723  0.0664  0.4721
15859SOL    HW149061   1.485   5.486   0.476  1.4922  0.5521 -1.8353
15859SOL    HW249062   1.391   5.515   0.361 -0.9375 -0.5116 -0.1385
15860SOL     OW49063   8.256   3.529   1.229 -0.4848  0.4071  0.1338
15860SOL    HW149064   8.344   3.566   1.225 -0.6639  0.8847  0.5114
15860SOL    HW249065   8.240   3.514   1.322 -0.8536  0.4562  0.0798
15861SOL     OW49066   1.058   3.108   5.159  0.3508  0.1502 -0.5009
15861SOL    HW149067   1.045   3.023   5.116  0.1462 -0.1835  0.2017
15861SOL    HW249068   1.152   3.111   5.178 -0.0303 -1.0226  1.6943
15862SOL     OW49069   4.904   8.234   6.029  0.1908 -0.6181  0.0323
15862SOL    HW149070   4.827   8.179   6.042 -0.8573  0.4927 -1.3605
15862SOL    HW249071   4.934   8.212   5.941  1.5743 -1.1538  0.6192
15863SOL     OW49072   4.907   0.039   3.833 -0.5716  0.5590 -0.3520
15863SOL    HW149073   4.822   0.006   3.861 -0.5340  0.4765 -0.3336
15863SOL    HW249074   4.902   0.134   3.848 -0.1959  0.3979  0.8868
15864SOL     OW49075   2.716   0.753   6.641  0.1052 -0.2305 -0.8195
15864SOL    HW149076   2.778   0.682   6.628 -0.9401 -1.0659 -1.2527
15864SOL    HW249077   2.686   0.776   6.553  0.7040  1.0031 -0.7239
15865SOL     OW49078   6.391   2.255   3.327  0.0739 -0.0891 -0.1281
15865SOL    HW149079   6.431   2.313   3.263  1.3846 -1.2264 -0.3573
15865SOL    HW249080   6.450   2.180   3.332 -0.5309 -0.4837  1.6612
15866SOL     OW49081   7.739   1.109   0.413 -0.0226  0.2259 -0.3249
15866SOL    HW149082   7.816   1.065   0.376  1.3812  2.6832 -0.4076
15866SOL    HW249083   7.718   1.178   0.351  0.0639  1.9928  1.5576
15867SOL     OW49084   5.302   1.238   8.285  0.2905 -0.2109 -0.6964
15867SOL    HW149085   5.308   1.257   8.192  1.4610 -0.7355 -0.7416
15867SOL    HW249086   5.313   1.143   8.291 -2.8987 -0.6304 -0.2729
15868SOL     OW49087   4.520   6.489   3.971 -0.0038 -0.2652 -0.2382
15868SOL    HW149088   4.445   6.434   3.994 -0.1760  0.3898  0.7861
15868SOL    HW249089   4.497   6.526   3.886 -0.8031 -0.1284  0.0343
15869SOL     OW49090   2.228   1.119   5.515 -0.0713 -0.7669 -0.4661
15869SOL    HW149091   2.139   1.142   5.489 -0.0705  0.0376  0.1916
15869SOL    HW249092   2.233   1.143   5.607  1.0552 -0.0826 -0.6913
15870SOL     OW49093   7.102   2.390   1.166  0.0087  0.4164 -0.5245
15870SOL    HW149094   7.105   2.316   1.105  1.2683 -1.3158  1.5700
15870SOL    HW249095   7.012   2.389   1.199 -0.1825  0.2630 -1.0366
15871SOL     OW49096   3.239   4.555   7.506  0.0176 -0.2095 -0.0856
15871SOL    HW149097   3.244   4.638   7.457  1.7308  0.2144  0.7603
15871SOL    HW249098   3.264   4.488   7.443  3.9204  0.5196  0.6068
15872SOL     OW49099   3.984   3.479   6.838 -0.0603  0.0888 -0.2955
15872SOL    HW149100   3.955   3.465   6.748 -1.6493  0.8899  0.0690
15872SOL    HW249101   4.018   3.569   6.839  0.0680  0.0397 -0.1214
15873SOL     OW49102   7.672   0.829   1.239  0.5774 -0.4656  0.3831
15873SOL    HW149103   7.635   0.871   1.161 -1.9178 -1.9233  0.7246
15873SOL    HW249104   7.606   0.841   1.307  1.3567 -1.8675  1.4148
15874SOL     OW49105   5.570   0.180   2.542  0.4295 -0.5228  0.3117
15874SOL    HW149106   5.633   0.122   2.584  0.2526 -0.2073  1.0078
15874SOL    HW249107   5.614   0.209   2.462  0.6776 -1.2915  0.1684
15875SOL     OW49108   2.174   1.128   7.851  0.2369  0.5564 -0.2532
15875SOL    HW149109   2.146   1.077   7.775  1.2723 -1.4172  0.6429
15875SOL    HW249110   2.139   1.080   7.926  1.4569  1.0215  0.6249
15876SOL     OW49111   1.190   0.857   5.179 -0.2189 -0.3227 -0.5253
15876SOL    HW149112   1.114   0.899   5.139  0.9085  1.2917 -1.0278
15876SOL    HW249113   1.231   0.926   5.231  0.2070 -1.5225  0.7661
15877SOL     OW49114   2.845   0.465   2.556 -0.6440 -0.5984  0.2588
15877SOL    HW149115   2.890   0.547   2.573 -0.1823 -0.3825 -1.9052
15877SOL    HW249116   2.762   0.491   2.514 -1.7474 -1.1067  2.0802
15878SOL     OW49117   6.624   1.600   1.182  0.0023 -0.5724 -0.2801
15878SOL    HW149118   6.550   1.607   1.122 -0.1897  1.7679  0.1888
15878SOL    HW249119   6.701   1.613   1.126 -0.0405 -0.9327 -0.4259
15879SOL     OW49120   4.071   4.825   2.543 -0.3519  0.7760  0.0689
15879SOL    HW149121   3.987   4.859   2.513  0.4282  1.3799 -1.5007
15879SOL    HW249122   4.136   4.876   2.495  0.9054  0.2147  1.1552
15880SOL     OW49123   1.798   1.944   5.183 -0.3929  0.0111 -0.1228
15880SOL    HW149124   1.837   1.973   5.265  2.0042 -0.9494 -0.8748
15880SOL    HW249125   1.780   2.024   5.135 -0.4030  0.5112  0.7149
15881SOL     OW49126   5.592   4.949   7.276 -0.1108  0.3169  0.1244
15881SOL    HW149127   5.564   4.862   7.248 -0.2869 -0.0906  1.5174
15881SOL    HW249128   5.567   4.953   7.369 -1.0205  2.2239 -0.1838
15882SOL     OW49129   6.943   1.096   5.822 -0.5344  0.4744 -1.0913
15882SOL    HW149130   6.882   1.108   5.894  1.0084  2.2203 -0.0306
15882SOL    HW249131   7.027   1.077   5.866 -0.2254 -1.5266 -2.4962
15883SOL     OW49132   3.389   4.088   0.765  0.2328 -0.3861 -0.2395
15883SOL    HW149133   3.483   4.075   0.774  0.1814  0.1379  1.0496
15883SOL    HW249134   3.379   4.183   0.753 -0.1433 -0.4391 -0.3509
15884SOL     OW49135   5.576   3.942   2.416 -0.5026 -0.1690  0.0333
15884SOL    HW149136   5.541   3.969   2.331 -1.5008  0.1850  0.5463
15884SOL    HW249137   5.653   3.998   2.428 -1.0710  0.6653 -0.0920
15885SOL     OW49138   2.809   4.807   7.113 -0.0212 -0.6024 -0.2945
15885SOL    HW149139   2.825   4.854   7.031  0.2453  2.4960  1.4754
15885SOL    HW249140   2.828   4.716   7.092  0.9187  0.2461 -3.4285
15886SOL     OW49141   1.878   0.994   4.651 -0.3683  0.5615 -0.2749
15886SOL    HW149142   1.789   1.013   4.621 -0.8713  0.0786  0.9118
15886SOL    HW249143   1.916   0.941   4.581 -1.9564 -1.6129  0.4820
15887SOL     OW49144   0.800   2.680   3.206 -0.6078 -0.7223 -0.3133
15887SOL    HW149145   0.782   2.651   3.117 -1.2143 -1.1716 -0.0484
15887SOL    HW249146   0.756   2.765   3.213  1.4505  0.4623 -1.1946
15888SOL     OW49147   3.945   5.272   5.028  0.1005  0.4953  0.5168
15888SOL    HW149148   3.874   5.232   5.078 -1.0195 -0.0879 -1.4931
15888SOL    HW249149   4.024   5.227   5.059 -1.0394 -2.7024 -1.0487
15889SOL     OW49150   4.352   4.071   5.190  0.6721  0.3476  0.3277
15889SOL    HW149151   4.302   3.998   5.152  1.0607  0.1724  0.1478
15889SOL    HW249152   4.324   4.148   5.140 -0.4586  0.4922  1.1536
15890SOL     OW49153   3.380   4.260   1.060 -0.3678  0.3228  0.2414
15890SOL    HW149154   3.307   4.207   1.029 -0.1635 -1.8373  3.2603
15890SOL    HW249155   3.338   4.338   1.099 -0.9612  0.0650  0.1242
15891SOL     OW49156   0.870   7.007   5.279 -0.0977 -0.3050 -0.4439
15891SOL    HW149157   0.945   6.998   5.220  0.1203  0.3071 -0.2675
15891SOL    HW249158   0.854   6.918   5.312  0.4304 -0.4691 -0.6294
15892SOL     OW49159   4.056   5.164   6.691  0.3778 -0.6068  0.1729
15892SOL    HW149160   3.980   5.180   6.746 -0.3482 -0.8505 -0.7420
15892SOL    HW249161   4.125   5.221   6.728 -1.1278  1.9642 -0.8190
15893SOL     OW49162   1.459   4.738   4.628 -0.3782  0.2519  0.2381
15893SOL    HW149163   1.478   4.780   4.712  0.6325  0.7144 -0.2222
15893SOL    HW249164   1.408   4.804   4.579  0.3946  0.5905 -0.1188
15894SOL     OW49165   3.207   3.048   6.571 -0.0076  0.0730  0.4709
15894SOL    HW149166   3.189   2.968   6.522  0.5017  0.9086 -1.0916
15894SOL    HW249167   3.123   3.094   6.574 -0.7999 -1.4347  3.1192
15895SOL     OW49168   4.612   0.053   6.033  0.3160  0.4210 -0.5895
15895SOL    HW149169   4.667   0.067   6.110  0.2512 -0.7432 -0.3242
15895SOL    HW249170   4.672   0.018   5.967  0.5633  2.2664 -1.3879
15896SOL     OW49171   7.374   7.652   4.852  0.0615  0.1791 -0.0775
15896SOL    HW149172   7.371   7.610   4.766 -1.7812 -2.7533  1.3476
15896SOL    HW249173   7.288   7.695   4.860  0.5577  1.1810 -0.0208
15897SOL     OW49174   3.454   5.078   1.152 -0.0239  0.3629  0.4809
15897SOL    HW149175   3.453   5.072   1.056  1.4034  0.4101  0.4524
15897SOL    HW249176   3.365   5.102   1.175 -1.1532 -2.5182 -0.6425
15898SOL     OW49177   6.874   6.185   7.915  0.1831 -0.1940 -0.2840
15898SOL    HW149178   6.963   6.205   7.885  0.3090  0.4588  0.5040
15898SOL    HW249179   6.884   6.165   8.008 -0.4604 -0.3746 -0.2517
15899SOL     OW49180   2.748   5.546   3.785  0.1679  0.2771 -0.0006
15899SOL    HW149181   2.759   5.640   3.793 -1.1030  0.5353 -1.0983
15899SOL    HW249182   2.833   5.515   3.754 -0.4368  1.5548 -3.1845
15900SOL     OW49183   3.229   1.307   1.435  0.4244  0.0096  0.0602
15900SOL    HW149184   3.310   1.256   1.429  0.1336 -0.7842  2.3758
15900SOL    HW249185   3.202   1.298   1.526 -1.1871  1.9607 -0.1927
15901SOL     OW49186   5.174   7.106   5.860 -0.0789  0.1592 -0.5690
15901SOL    HW149187   5.081   7.118   5.842 -0.7348  0.5337  2.7574
15901SOL    HW249188   5.182   7.014   5.887  0.4780  0.1731 -0.6697
15902SOL     OW49189   3.344   2.820   2.171  0.2240  0.0644  0.0367
15902SOL    HW149190   3.358   2.790   2.261  0.9278 -1.8232 -0.6806
15902SOL    HW249191   3.378   2.909   2.170 -0.4429  0.3561  1.8232
15903SOL     OW49192   7.724   3.043   3.538  0.4406 -0.2466  0.0970
15903SOL    HW149193   7.765   3.094   3.608  1.4118  0.3657 -0.8941
15903SOL    HW249194   7.634   3.032   3.566  0.6694  0.5158  1.1580
15904SOL     OW49195   2.314   4.654   7.173 -0.2790 -0.5238 -0.4501
15904SOL    HW149196   2.309   4.749   7.183 -0.0194 -0.6960  1.5312
15904SOL    HW249197   2.380   4.640   7.106 -2.2510  0.7620 -2.7593
15905SOL     OW49198   8.043   1.049   5.352  0.0204  0.2014  0.4505
15905SOL    HW149199   8.044   1.098   5.270 -1.0533  0.4016  0.5593
15905SOL    HW249200   7.968   0.991   5.345  0.0231  0.0987  1.2252
15906SOL     OW49201   5.210   8.083   2.545 -0.0172 -0.6354 -0.1758
15906SOL    HW149202   5.281   8.123   2.595  0.0246  1.8993 -2.1842
15906SOL    HW249203   5.253   8.045   2.469 -0.6471 -0.1894 -0.7586
15907SOL     OW49204   0.452   1.789   1.656  0.0106  0.7150  0.3029
15907SOL    HW149205   0.399   1.729   1.604 -0.7873  1.8116 -0.1660
15907SOL    HW249206   0.408   1.873   1.648  0.5374  1.1521  1.7890
15908SOL     OW49207   6.291   6.462   3.494  0.5346 -0.1152  0.1258
15908SOL    HW149208   6.381   6.478   3.466  0.6878 -1.7919 -0.3901
15908SOL    HW249209   6.247   6.546   3.482  2.0736  0.7680  0.5847
15909SOL     OW49210   2.143   1.668   2.636 -0.3339  0.1245  0.4656
15909SOL    HW149211   2.183   1.714   2.709 -0.9550  2.8706 -0.8656
15909SOL    HW249212   2.057   1.641   2.669  0.1156 -0.2910  1.3190
15910SOL     OW49213   4.547   0.723   6.414 -0.3745 -0.2421 -0.5274
15910SOL    HW149214   4.564   0.631   6.393 -1.9605 -0.5886 -0.3818
15910SOL    HW249215   4.481   0.720   6.484  0.0007  0.9994 -0.1028
15911SOL     OW49216   5.536   5.172   0.179  0.1501 -0.1754  0.4911
15911SOL    HW149217   5.491   5.167   0.263  0.0747 -1.5408  0.3939
15911SOL    HW249218   5.494   5.244   0.133 -1.1892 -0.7115  0.8461
15912SOL     OW49219   5.557   2.585   6.442 -0.7751 -0.0990 -0.2625
15912SOL    HW149220   5.587   2.541   6.521 -0.1960 -0.4537 -0.6692
15912SOL    HW249221   5.638   2.604   6.393 -1.2154 -1.7354 -1.7212
15913SOL     OW49222   1.389   5.391   6.654  0.0193 -0.2485 -0.2263
15913SOL    HW149223   1.405   5.425   6.566 -1.3237  2.0903  0.3837
15913SOL    HW249224   1.422   5.460   6.712 -0.8950 -0.9035  1.0817
15914SOL     OW49225   5.761   0.726   1.022 -0.4194 -0.1357  0.0823
15914SOL    HW149226   5.759   0.631   1.027  2.3448 -0.2883 -0.9103
15914SOL    HW249227   5.854   0.748   1.026 -1.0493  2.5505  0.7264
15915SOL     OW49228   6.755   1.485   1.393  0.2894  0.0810  0.5058
15915SOL    HW149229   6.710   1.431   1.459  1.1741  0.0669  1.1032
15915SOL    HW249230   6.684   1.525   1.343 -0.4018  0.2796  1.6196
15916SOL     OW49231   1.902   7.102   7.528  0.0056 -0.9034  0.5445
15916SOL    HW149232   1.829   7.060   7.483 -1.0233 -0.2674  1.5753
15916SOL    HW249233   1.955   7.029   7.562 -0.2415 -1.3676 -0.0682
15917SOL     OW49234   3.591   7.938   2.331 -0.3003 -0.2887  0.4809
15917SOL    HW149235   3.600   8.027   2.296 -0.4976 -0.0323  1.0695
15917SOL    HW249236   3.560   7.886   2.257  0.4454  0.0042 -0.0353
15918SOL     OW49237   6.409   1.666   2.707 -0.0130 -0.0054 -0.2044
15918SOL    HW149238   6.456   1.674   2.791  0.4731 -0.1924 -0.4586
15918SOL    HW249239   6.368   1.580   2.711  1.5025 -0.7659 -0.9205
15919SOL     OW49240   2.023   3.086   1.362  0.2601  0.5823  0.1291
15919SOL    HW149241   1.966   3.113   1.290 -1.2665 -1.1597  0.6425
15919SOL    HW249242   2.057   3.001   1.335 -1.9902 -1.0842  2.3360
15920SOL     OW49243   8.103   2.158   7.329  0.3644 -0.1688  0.9843
15920SOL    HW149244   8.102   2.065   7.353 -0.4180 -1.0102 -2.0516
15920SOL    HW249245   8.092   2.204   7.412  0.8058 -2.7868  2.5610
15921SOL     OW49246   2.976   2.126   5.025  0.3034 -0.0924 -0.0541
15921SOL    HW149247   3.063   2.157   5.051  0.8608 -0.6264 -1.2294
15921SOL    HW249248   2.919   2.203   5.035  1.4996  1.1266 -2.1602
15922SOL     OW49249   8.137   1.581   1.522 -0.1272  0.0680  0.0451
15922SOL    HW149250   8.181   1.564   1.605  0.2336  0.4202 -0.0718
15922SOL    HW249251   8.203   1.625   1.469 -0.7604  1.0333  0.0334
15923SOL     OW49252   6.833   5.593   5.220 -0.1337  0.4861 -0.0843
15923SOL    HW149253   6.742   5.568   5.238  0.3015 -1.4519 -0.3762
15923SOL    HW249254   6.875   5.593   5.307 -0.1000 -0.0396 -0.0952
15924SOL     OW49255   4.941   4.256   3.755  0.0067 -0.0682 -0.0765
15924SOL    HW149256   4.955   4.336   3.806 -1.0471 -0.1716  0.3861
15924SOL    HW249257   4.991   4.189   3.801  2.0358  0.5931 -1.2432
15925SOL     OW49258   6.488   4.980   5.711  0.3670 -0.0556  0.0188
15925SOL    HW149259   6.445   4.924   5.647 -0.2041 -0.2678  0.5898
15925SOL    HW249260   6.582   4.964   5.698  0.2864  0.4543 -1.2684
15926SOL     OW49261   0.440   6.675   6.276  0.0413 -0.2303 -0.2746
15926SOL    HW149262   0.410   6.587   6.253 -1.7137  0.8517 -2.1966
15926SOL    HW249263   0.360   6.725   6.290  0.9848  1.6910 -1.6026
15927SOL     OW49264   6.205   5.173   8.293 -0.1958 -0.1193 -0.1412
15927SOL    HW149265   6.134   5.212   8.343 -1.0461 -1.3966 -0.3146
15927SOL    HW249266   6.193   5.205   8.204  0.2086  0.6701  0.0864
15928SOL     OW49267   0.622   1.983   7.755  0.1964  0.1488 -0.2067
15928SOL    HW149268   0.530   1.995   7.730  0.5501 -0.1716 -1.7169
15928SOL    HW249269   0.657   1.922   7.690  0.7416 -2.0625  2.0598
15929SOL     OW49270   0.256   7.078   1.348  0.5242 -0.0487 -0.1056
15929SOL    HW149271   0.248   7.126   1.430  0.5126  0.4380 -0.3921
15929SOL    HW249272   0.309   7.002   1.370  0.2518 -0.0831  0.4237
15930SOL     OW49273   7.370   7.526   2.155 -0.6580 -0.1087 -0.2325
15930SOL    HW149274   7.439   7.581   2.117  0.2322  0.4808  2.1326
15930SOL    HW249275   7.289   7.560   2.117  0.1475  0.8367 -1.1429
15931SOL     OW49276   7.753   0.721   8.082 -0.0124  0.5413  0.2000
15931SOL    HW149277   7.695   0.795   8.064  0.8031  1.1459  0.0792
15931SOL    HW249278   7.746   0.666   8.003 -0.2482  0.7240  0.0940
15932SOL     OW49279   0.864   8.031   2.346  0.1630  0.0077 -0.3653
15932SOL    HW149280   0.794   8.021   2.282  0.0546 -1.0463 -0.0966
15932SOL    HW249281   0.943   8.004   2.300 -0.0469 -1.6128  0.2021
15933SOL     OW49282   3.360   5.543   7.097  0.2530  0.0500  0.5748
15933SOL    HW149283   3.437   5.598   7.113  1.1045 -0.5953 -1.2077
15933SOL    HW249284   3.287   5.605   7.092  0.9984  0.8954  0.0002
15934SOL     OW49285   3.906   0.302   4.963 -0.3770 -0.0888 -0.3953
15934SOL    HW149286   3.858   0.305   4.881  2.0459 -4.4607 -2.1803
15934SOL    HW249287   3.984   0.357   4.948 -0.7297  0.3995 -0.4364
15935SOL     OW49288   7.373   2.999   6.710  0.4047  0.3546 -0.5505
15935SOL    HW149289   7.381   3.094   6.719  1.5206  0.3661 -1.4798
15935SOL    HW249290   7.353   2.986   6.617 -0.4195 -0.2913 -0.2908
15936SOL     OW49291   3.817   4.819   3.342 -0.9536 -0.5057 -0.1059
15936SOL    HW149292   3.903   4.853   3.316 -0.7961  0.0940  1.1504
15936SOL    HW249293   3.800   4.748   3.280  1.0370 -1.4857  0.4301
15937SOL     OW49294   4.953   2.673   7.756  0.0491 -0.2226  0.4151
15937SOL    HW149295   4.907   2.656   7.674  1.2504  0.3954 -0.4113
15937SOL    HW249296   4.997   2.757   7.742 -0.1273  0.1386  1.8778
15938SOL     OW49297   2.977   4.908   8.023 -0.2917 -0.3165  0.0326
15938SOL    HW149298   3.004   4.971   8.089  0.6258 -0.2551 -0.3991
15938SOL    HW249299   3.003   4.823   8.059  0.3348 -0.2704 -0.3121
15939SOL     OW49300   6.875   6.465   4.755  0.1446  0.2223 -0.0712
15939SOL    HW149301   6.833   6.495   4.836  0.2738  2.1100 -0.6671
15939SOL    HW249302   6.807   6.416   4.710 -0.8443  1.6144 -0.1321
15940SOL     OW49303   5.091   4.730   3.883 -0.0847 -0.5666 -0.1168
15940SOL    HW149304   5.022   4.684   3.836 -1.4259 -0.3090  1.5835
15940SOL    HW249305   5.046   4.778   3.952  1.4780  1.7486 -0.6274
15941SOL     OW49306   3.787   3.473   8.036 -0.1212  0.6694 -0.0821
15941SOL    HW149307   3.847   3.447   7.967 -0.8726 -0.9063 -0.1543
15941SOL    HW249308   3.837   3.463   8.117 -0.4320 -1.0894 -0.1053
15942SOL     OW49309   3.928   4.965   6.151  0.2168 -0.0672  0.5226
15942SOL    HW149310   3.860   4.905   6.120 -0.1424  0.5449  0.1329
15942SOL    HW249311   3.935   5.032   6.083 -0.1712  0.9656  1.4757
15943SOL     OW49312   4.160   2.502   5.610 -0.9914 -0.7038  0.2957
15943SOL    HW149313   4.100   2.489   5.537  0.1130  0.7221 -0.9217
15943SOL    HW249314   4.159   2.597   5.625  1.7225 -0.4875 -0.4957
15944SOL     OW49315   4.827   0.524   7.868  0.6291  0.0437  0.5699
15944SOL    HW149316   4.840   0.608   7.823  1.0816  0.3106  1.1991
15944SOL    HW249317   4.870   0.535   7.953  0.7410 -0.8448  0.6326
15945SOL     OW49318   3.437   7.421   5.405  0.2036 -0.0070 -0.3020
15945SOL    HW149319   3.460   7.436   5.497 -0.0592  0.6662 -0.3395
15945SOL    HW249320   3.354   7.467   5.394  1.6206  2.3493 -1.5898
15946SOL     OW49321   6.685   8.257   0.396  0.3718  0.2859 -0.5505
15946SOL    HW149322   6.774   8.267   0.361  0.2460  1.4667 -0.5617
15946SOL    HW249323   6.688   8.176   0.447  1.6025  0.5995 -0.1123
15947SOL     OW49324   6.202   2.440   0.105  0.1021 -0.3763  0.5521
15947SOL    HW149325   6.259   2.396   0.042 -1.2858 -0.6126 -0.5570
15947SOL    HW249326   6.114   2.411   0.082 -0.4530 -0.2841  2.4609
15948SOL     OW49327   0.522   3.744   1.770  0.2868 -0.0554  0.2062
15948SOL    HW149328   0.471   3.704   1.841 -1.3182  0.5224 -0.6209
15948SOL    HW249329   0.458   3.763   1.702  1.6464  0.4768 -0.9337
15949SOL     OW49330   5.575   6.846   5.623  0.2259 -0.0935  0.0422
15949SOL    HW149331   5.531   6.903   5.686 -0.1595  0.7130 -0.9502
15949SOL    HW249332   5.538   6.760   5.639 -0.9555  0.3827 -0.0676
15950SOL     OW49333   7.183   3.638   5.664  0.2493 -0.6130  0.3668
15950SOL    HW149334   7.131   3.570   5.707  1.1834 -1.3464  0.3443
15950SOL    HW249335   7.208   3.601   5.580 -0.6517  0.4087 -0.3503
15951SOL     OW49336   6.739   7.632   5.599  0.5843  0.4692 -0.0916
15951SOL    HW149337   6.817   7.614   5.547  0.8364 -0.6834  0.6788
15951SOL    HW249338   6.714   7.721   5.574 -0.1897 -0.5785 -3.3244
15952SOL     OW49339   7.663   7.037   0.249  0.0140  0.4071 -0.4041
15952SOL    HW149340   7.644   7.102   0.181 -1.6794  1.2011  0.7591
15952SOL    HW249341   7.720   7.083   0.310 -2.1198  1.2695  1.0286
15953SOL     OW49342   6.700   4.697   0.937  0.4316  0.6778  0.4816
15953SOL    HW149343   6.742   4.673   1.020 -0.3037 -2.2075  0.0932
15953SOL    HW249344   6.749   4.647   0.871 -0.1772  1.4995 -0.5977
15954SOL     OW49345   4.075   4.647   0.977  0.1077 -0.1005 -0.5809
15954SOL    HW149346   4.158   4.646   0.929 -0.3655  0.2119 -1.4238
15954SOL    HW249347   4.010   4.669   0.910 -0.8165 -1.5618 -0.1748
15955SOL     OW49348   2.071   0.381   1.944 -0.4717  0.0343  0.1488
15955SOL    HW149349   2.159   0.369   1.907 -0.2764  0.7360  0.3749
15955SOL    HW249350   2.069   0.324   2.020  0.4782  1.4657  1.2667
15956SOL     OW49351   0.964   3.634   4.053  0.4535  0.4444 -0.4448
15956SOL    HW149352   0.928   3.693   4.119  1.8085  2.1115 -1.1807
15956SOL    HW249353   1.055   3.662   4.041  0.9704 -1.4373 -1.2069
15957SOL     OW49354   5.894   3.841   2.975 -0.3435  0.0447 -0.0913
15957SOL    HW149355   5.907   3.751   2.946  1.1082  0.3984 -0.6286
15957SOL    HW249356   5.966   3.889   2.934 -1.2083  1.4805  0.0393
15958SOL     OW49357   6.860   6.917   5.750  0.2009 -0.0747  0.5867
15958SOL    HW149358   6.794   6.985   5.736 -0.0558 -0.4748 -0.1924
15958SOL    HW249359   6.941   6.954   5.715 -0.1871 -0.6067 -0.9433
15959SOL     OW49360   6.478   0.888   2.272  0.1073  0.6153  0.4507
15959SOL    HW149361   6.573   0.894   2.264  0.0454  0.3738 -0.5748
15959SOL    HW249362   6.462   0.801   2.307  0.2470  0.4788  0.1791
15960SOL     OW49363   6.631   2.759   0.418 -0.3883 -0.2426 -0.5738
15960SOL    HW149364   6.589   2.721   0.495 -0.9724 -0.0341 -0.7830
15960SOL    HW249365   6.722   2.773   0.444 -0.0922 -2.0345 -0.5707
15961SOL     OW49366   6.706   6.012   3.349 -0.2874 -0.1563  0.6196
15961SOL    HW149367   6.731   5.920   3.343 -0.1720 -0.0842 -0.0211
15961SOL    HW249368   6.684   6.025   3.442  1.2302 -0.4276  1.0283
15962SOL     OW49369   3.294   3.845   0.833 -0.1208 -0.2017  0.6900
15962SOL    HW149370   3.359   3.784   0.867  0.2038 -0.2778 -0.0554
15962SOL    HW249371   3.343   3.927   0.821 -0.4099  0.0347  1.0991
15963SOL     OW49372   5.293   4.318   5.901 -0.5476 -0.3065 -0.1032
15963SOL    HW149373   5.347   4.275   5.968 -0.8153  1.7655  1.5260
15963SOL    HW249374   5.225   4.254   5.880  1.2760 -2.1287 -0.6125
15964SOL     OW49375   1.190   4.611   4.123  0.0433  0.2024 -0.1228
15964SOL    HW149376   1.176   4.651   4.209  0.2689 -0.0331  0.0216
15964SOL    HW249377   1.203   4.686   4.064  0.6481  0.3352  0.1809
15965SOL     OW49378   1.036   5.663   0.500  0.2020  0.4518 -0.4617
15965SOL    HW149379   1.121   5.656   0.456  0.0417 -1.6878 -0.4895
15965SOL    HW249380   1.058   5.699   0.587  0.7101  3.0417 -1.6157
15966SOL     OW49381   0.769   2.624   2.952 -0.0831  0.4558  0.3687
15966SOL    HW149382   0.777   2.644   2.859 -1.3701  1.9208  0.5655
15966SOL    HW249383   0.801   2.534   2.960  2.7631  1.2673 -1.0392
15967SOL     OW49384   7.259   6.029   1.999 -0.4367  0.3545  0.1531
15967SOL    HW149385   7.192   5.997   2.061  0.7057  0.6268  1.5527
15967SOL    HW249386   7.262   6.123   2.014 -0.0060  0.3912 -0.1838
15968SOL     OW49387   0.741   1.550   6.093  0.1553  0.0975  0.0551
15968SOL    HW149388   0.649   1.556   6.118  0.1453 -1.3620  0.4433
15968SOL    HW249389   0.771   1.468   6.131  1.3165 -0.0182 -1.0476
15969SOL     OW49390   6.962   1.888   3.281  0.4334 -0.2433 -0.2143
15969SOL    HW149391   6.895   1.931   3.335  1.9301 -0.8259  2.1848
15969SOL    HW249392   6.979   1.950   3.210 -1.3517  0.7010  0.1490
15970SOL     OW49393   5.807   1.877   2.428  0.2026  0.3092  0.1765
15970SOL    HW149394   5.745   1.912   2.492  0.3985 -1.5336  1.4166
15970SOL    HW249395   5.845   1.954   2.386 -1.4432  1.4940  0.8382
15971SOL     OW49396   3.636   1.136   2.236  0.0778 -0.0025 -0.0112
15971SOL    HW149397   3.608   1.196   2.306  1.0428  0.7416 -0.2604
15971SOL    HW249398   3.554   1.106   2.197 -0.4293  0.8091  0.4102
15972SOL     OW49399   2.735   2.866   5.390  0.3734 -0.1193  0.3593
15972SOL    HW149400   2.788   2.789   5.373 -0.1033 -0.6740  1.3096
15972SOL    HW249401   2.650   2.831   5.419 -0.1802  0.7542 -0.1758
15973SOL     OW49402   6.413   4.533   6.217 -0.2502 -0.0722  0.3529
15973SOL    HW149403   6.441   4.521   6.127 -1.4412  0.7835 -0.1458
15973SOL    HW249404   6.386   4.446   6.246  0.1186 -0.3437 -0.1177
15974SOL     OW49405   1.891   3.529   4.307 -0.4570 -0.1698  0.4694
15974SOL    HW149406   1.938   3.609   4.285  0.9504 -0.7065  1.4889
15974SOL    HW249407   1.931   3.498   4.388 -2.0012 -1.0949  0.9140
15975SOL     OW49408   7.168   1.853   2.960 -0.7361 -0.3314  0.4750
15975SOL    HW149409   7.227   1.780   2.946  0.0553  0.4154 -0.1375
15975SOL    HW249410   7.081   1.817   2.947 -0.2448 -0.6954 -1.8616
15976SOL     OW49411   8.090   5.910   5.486 -0.1204 -0.2516 -0.1451
15976SOL    HW149412   8.002   5.923   5.451 -0.5215 -0.2318  0.8592
15976SOL    HW249413   8.093   5.818   5.511  0.7907 -0.7375 -1.9187
15977SOL     OW49414   8.226   4.884   3.951 -0.0336 -0.3594  0.1878
15977SOL    HW149415   8.218   4.875   3.856 -0.4441 -0.8011  0.2612
15977SOL    HW249416   8.175   4.810   3.987  1.0203 -0.8369  0.7331
15978SOL     OW49417   6.047   1.743   0.958 -0.0712 -0.7318  0.0462
15978SOL    HW149418   6.034   1.795   1.038 -1.4772 -1.1143  0.0761
15978SOL    HW249419   6.042   1.806   0.887  1.3481 -0.3634  0.2542
15979SOL     OW49420   2.530   7.990   6.200  0.0384  0.0682  0.1320
15979SOL    HW149421   2.474   8.000   6.123  0.8926  0.9513 -0.3915
15979SOL    HW249422   2.594   7.923   6.175  2.0981  2.3672 -1.0332
15980SOL     OW49423   0.516   7.621   6.771  0.3950  0.1349 -0.0803
15980SOL    HW149424   0.429   7.607   6.734  0.3703 -0.8623  0.3396
15980SOL    HW249425   0.536   7.539   6.816  2.0969 -0.1147 -1.2586
15981SOL     OW49426   5.694   0.415   2.951  0.3059  0.2613 -0.7689
15981SOL    HW149427   5.747   0.491   2.926  0.9229 -0.3140 -1.2572
15981SOL    HW249428   5.752   0.361   3.005  0.7742 -1.1276 -2.5676
15982SOL     OW49429   4.093   3.411   0.250 -0.2608 -0.0445  0.3781
15982SOL    HW149430   4.162   3.357   0.287  0.2144 -0.5718 -1.2523
15982SOL    HW249431   4.138   3.489   0.218 -1.0095  1.6172  3.2160
15983SOL     OW49432   5.177   0.497   5.496 -0.0114 -0.1552  0.2389
15983SOL    HW149433   5.255   0.520   5.546  0.4436  0.3890 -0.6908
15983SOL    HW249434   5.105   0.504   5.558  0.6641 -0.5235  1.0727
15984SOL     OW49435   7.010   7.173   2.548  0.1434 -0.7352  0.4503
15984SOL    HW149436   7.040   7.250   2.597  0.6112 -1.1664  0.8362
15984SOL    HW249437   6.995   7.106   2.615 -0.7263 -0.8413  0.1647
15985SOL     OW49438   6.220   8.023   6.805  0.1845 -0.0518 -0.1693
15985SOL    HW149439   6.286   8.000   6.740  0.1761 -0.1352 -0.1498
15985SOL    HW249440   6.252   8.105   6.843 -1.0764  1.3053 -1.9979
15986SOL     OW49441   7.820   1.845   2.245  0.1767  0.0283 -0.0867
15986SOL    HW149442   7.791   1.755   2.228 -0.1797  0.3237 -1.0849
15986SOL    HW249443   7.763   1.877   2.314  1.1020 -0.9245  1.1463
15987SOL     OW49444   5.542   6.689   7.234  0.0295 -0.1678 -0.4368
15987SOL    HW149445   5.483   6.718   7.165 -2.5148 -0.9450  1.3477
15987SOL    HW249446   5.589   6.615   7.197 -0.4489  0.1734 -1.7335
15988SOL     OW49447   1.765   1.826   7.778  0.2489  0.6602 -0.1819
15988SOL    HW149448   1.674   1.843   7.756  0.1605 -0.3973 -0.6938
15988SOL    HW249449   1.811   1.830   7.694  0.4154 -0.3541 -0.1460
15989SOL     OW49450   2.443   4.499   0.854  0.8939  0.2892  0.0310
15989SOL    HW149451   2.354   4.533   0.848  0.5167 -0.5732  0.6797
15989SOL    HW249452   2.451   4.438   0.781  1.1255  0.7681 -0.3413
15990SOL     OW49453   0.438   0.292   1.933 -0.1388 -0.0056  0.0053
15990SOL    HW149454   0.345   0.313   1.924 -0.3694 -0.6557  0.7197
15990SOL    HW249455   0.484   0.369   1.901 -0.9450  0.8940  0.9765
15991SOL     OW49456   6.285   6.219   3.359  0.2555  0.2382  1.0226
15991SOL    HW149457   6.281   6.314   3.372 -2.4151  0.2570  0.1937
15991SOL    HW249458   6.327   6.208   3.274  0.0382  0.6874  0.8566
15992SOL     OW49459   4.305   0.989   7.132  0.4248  0.2613  0.2484
15992SOL    HW149460   4.355   0.909   7.149  1.3277  0.7930  0.1001
15992SOL    HW249461   4.357   1.037   7.068 -1.4782 -0.3103 -1.7580
15993SOL     OW49462   5.856   8.047   3.995  0.0064  0.2489  0.2001
15993SOL    HW149463   5.922   8.074   4.058  4.7863  0.0881 -4.4463
15993SOL    HW249464   5.846   7.953   4.008  1.4193  0.1126  0.2837
15994SOL     OW49465   4.784   0.840   5.064  0.3354 -0.3958 -0.0166
15994SOL    HW149466   4.854   0.893   5.026  0.4151  0.0832  0.7748
15994SOL    HW249467   4.754   0.784   4.992  0.7377  0.2195 -0.6733
15995SOL     OW49468   5.502   4.035   8.012 -0.0962  0.2132  0.6317
15995SOL    HW149469   5.477   3.968   7.948  0.5348  0.5405  0.0319
15995SOL    HW249470   5.430   4.036   8.075 -0.8543  0.0450 -0.2112
15996SOL     OW49471   1.685   7.351   2.321  0.1846  0.5396  0.3923
15996SOL    HW149472   1.701   7.417   2.389 -0.5590 -0.6088  1.7119
15996SOL    HW249473   1.768   7.345   2.273  1.1324  0.4370  2.0175
15997SOL     OW49474   4.961   8.305   1.292  0.2287 -0.3389 -0.5604
15997SOL    HW149475   4.980   8.227   1.345  0.1180 -0.9779 -1.4502
15997SOL    HW249476   4.868   8.299   1.271  0.0325  0.4694  0.0635
15998SOL     OW49477   7.932   7.179   0.094 -0.1654 -0.3375  0.3595
15998SOL    HW149478   7.883   7.217   0.167  1.2856  1.2397  0.5497
15998SOL    HW249479   7.937   7.085   0.115 -3.3248 -0.5911  0.1703
15999SOL     OW49480   1.399   2.834   7.684  0.2898  0.6191  0.6689
15999SOL    HW149481   1.424   2.871   7.769  3.1028 -0.7604  0.4867
15999SOL    HW249482   1.408   2.907   7.623  0.4559  1.0466  1.1965
16000SOL     OW49483   2.219   3.577   0.558  0.4671 -0.1018  0.0455
16000SOL    HW149484   2.188   3.571   0.649 -0.5559 -0.3220 -0.3160
16000SOL    HW249485   2.313   3.559   0.564  0.5841  0.8423  1.1842
16001SOL     OW49486   0.260   6.701   3.910  0.4263  0.1763  0.0234
16001SOL    HW149487   0.268   6.648   3.989 -0.7269  0.4694  0.3406
16001SOL    HW249488   0.234   6.788   3.941  1.5999  0.7589 -0.5518
16002SOL     OW49489   4.268   5.536   6.978  0.6056  0.4632  0.0706
16002SOL    HW149490   4.274   5.542   7.073  0.1736  1.3884  0.0358
16002SOL    HW249491   4.278   5.626   6.947  0.5379  0.1915 -0.7462
16003SOL     OW49492   2.803   7.592   4.987  0.1750  0.5830  0.3765
16003SOL    HW149493   2.858   7.514   4.989  1.2254  1.2466 -1.3298
16003SOL    HW249494   2.770   7.601   5.077  1.2343 -0.9709  0.9355
16004SOL     OW49495   3.867   7.986   5.917 -0.1446  0.5388 -0.3154
16004SOL    HW149496   3.930   8.059   5.915  1.3455 -0.6889  0.7180
16004SOL    HW249497   3.796   8.015   5.860  1.4499  1.8901 -1.7019
16005SOL     OW49498   7.547   5.580   1.070  0.0783  0.0877 -0.5387
16005SOL    HW149499   7.506   5.599   1.154  0.3054  2.0440 -0.8561
16005SOL    HW249500   7.475   5.544   1.017  0.0958 -1.8119  0.6802
16006SOL     OW49501   1.225   5.204   3.970 -0.4907  0.3060  0.2879
16006SOL    HW149502   1.243   5.129   3.912  0.3058 -0.3126  1.3140
16006SOL    HW249503   1.133   5.226   3.952 -0.7271 -0.9006 -0.0444
16007SOL     OW49504   2.683   8.101   2.886 -0.2462  0.0808 -0.6301
16007SOL    HW149505   2.771   8.113   2.922 -0.1970 -0.5620 -0.5262
16007SOL    HW249506   2.689   8.136   2.797  0.1884 -0.1983 -0.7147
16008SOL     OW49507   0.213   4.142   4.175 -0.1104  0.4923  0.2657
16008SOL    HW149508   0.159   4.211   4.137  0.3542  0.4098 -0.5496
16008SOL    HW249509   0.263   4.107   4.102 -0.0382 -0.4359  0.7497
16009SOL     OW49510   1.286   0.624   3.585 -0.0466  0.1513 -0.4640
16009SOL    HW149511   1.351   0.612   3.654  1.5810 -1.1800 -2.1567
16009SOL    HW249512   1.320   0.697   3.533  0.1334 -0.5899 -1.3946
16010SOL     OW49513   5.734   0.675   3.496 -0.4747  0.3112  0.5188
16010SOL    HW149514   5.753   0.755   3.545  0.8282  0.9146 -0.9496
16010SOL    HW249515   5.680   0.704   3.422 -0.0520 -0.1809  0.0152
16011SOL     OW49516   1.405   4.211   8.216 -0.2990  0.0691  0.2982
16011SOL    HW149517   1.318   4.180   8.240 -0.2448  0.2163  0.6871
16011SOL    HW249518   1.440   4.142   8.160 -0.2786 -0.4669  0.9636
16012SOL     OW49519   0.534   4.010   7.212 -0.2441  0.2165 -0.0955
16012SOL    HW149520   0.516   4.006   7.118 -0.9934  1.0943  0.0112
16012SOL    HW249521   0.463   4.062   7.249 -1.1295 -1.9140  1.2819
16013SOL     OW49522   0.740   6.457   2.375 -0.1170  0.0126  0.3718
16013SOL    HW149523   0.646   6.471   2.386  0.1536  1.4236  0.9445
16013SOL    HW249524   0.767   6.412   2.455 -0.4578 -1.2971 -0.2179
16014SOL     OW49525   5.971   8.111   0.703 -0.3184 -0.5234  0.2838
16014SOL    HW149526   5.997   8.193   0.746 -0.1204  0.0262 -0.8646
16014SOL    HW249527   6.019   8.043   0.749  0.5802  0.1523  0.3503
16015SOL     OW49528   3.637   0.642   6.483 -0.3643  0.7410 -0.0117
16015SOL    HW149529   3.605   0.598   6.405  1.4464 -1.4581  0.4283
16015SOL    HW249530   3.561   0.646   6.541 -1.6752  2.2394 -1.7815
16016SOL     OW49531   4.988   1.368   4.291 -0.4338  0.1281 -0.1732
16016SOL    HW149532   5.040   1.351   4.369 -0.5849  0.5934  0.0317
16016SOL    HW249533   4.979   1.463   4.289 -0.4965  0.1094 -0.7149
16017SOL     OW49534   4.487   0.040   6.616 -0.0079 -0.2538  0.4832
16017SOL    HW149535   4.421  -0.024   6.592  1.0035 -1.0989 -0.1015
16017SOL    HW249536   4.468   0.116   6.560  0.8272 -1.2997 -1.2727
16018SOL     OW49537   4.973   5.913   5.787  0.2248  0.1928 -0.0646
16018SOL    HW149538   4.940   5.893   5.700  1.6497 -0.2425 -0.5232
16018SOL    HW249539   4.984   5.827   5.828 -0.4578  0.3977  0.5482
16019SOL     OW49540   3.918   0.910   4.662  0.0704  0.3537  0.2421
16019SOL    HW149541   3.890   1.001   4.651 -0.0160  0.1469 -1.4064
16019SOL    HW249542   3.998   0.916   4.714  0.0095  1.3577  0.2349
16020SOL     OW49543   2.832   1.463   5.542  0.0075 -0.0537 -0.0385
16020SOL    HW149544   2.812   1.467   5.448 -0.0944 -0.7138 -0.0436
16020SOL    HW249545   2.906   1.402   5.548  0.0171 -0.0082  0.3101
16021SOL     OW49546   4.865   2.189   4.688  0.4775 -0.1365 -0.2405
16021SOL    HW149547   4.960   2.194   4.700  0.4339  1.2465 -0.3733
16021SOL    HW249548   4.829   2.200   4.776  0.3898  1.7723 -0.4898
16022SOL     OW49549   7.627   7.534   2.375  0.0885  0.2299 -0.3343
16022SOL    HW149550   7.698   7.508   2.316  0.9081  1.4966  0.0610
16022SOL    HW249551   7.553   7.480   2.349  1.0695 -0.7942 -1.0609
16023SOL     OW49552   7.698   0.177   6.444  0.3545  0.0908 -0.5424
16023SOL    HW149553   7.754   0.103   6.420 -0.9863 -1.3572  0.5788
16023SOL    HW249554   7.639   0.140   6.510 -0.6013  2.0875 -0.2555
16024SOL     OW49555   3.324   0.651   6.252 -0.1941 -0.1132 -0.2538
16024SOL    HW149556   3.234   0.632   6.225 -0.4156  0.6362 -0.0446
16024SOL    HW249557   3.363   0.695   6.177 -0.9655  2.4429  0.7923
16025SOL     OW49558   3.936   6.673   5.447 -0.4443  0.1831  0.6972
16025SOL    HW149559   3.991   6.738   5.491  0.7180 -0.7986  0.7294
16025SOL    HW249560   3.996   6.627   5.389 -1.1661 -1.1319  0.9778
16026SOL     OW49561   4.908   0.933   3.872  0.1853 -0.1259 -0.2286
16026SOL    HW149562   4.966   1.007   3.855  1.0861 -0.5076  1.0731
16026SOL    HW249563   4.824   0.959   3.836  0.1869  2.0165  1.2075
16027SOL     OW49564   3.347   2.375   8.305 -0.3139  0.5418 -0.7337
16027SOL    HW149565   3.318   2.311   8.371  1.9464 -1.9376 -2.0456
16027SOL    HW249566   3.291   2.357   8.229  0.2382  0.2146 -1.0617
16028SOL     OW49567   2.702   4.827   7.684 -0.2531  0.1375 -0.6210
16028SOL    HW149568   2.719   4.812   7.591 -0.0087 -0.5173 -0.4771
16028SOL    HW249569   2.607   4.840   7.689 -0.2857  0.0201 -0.9414
16029SOL     OW49570   3.881   4.746   1.685  0.2679 -0.1547  0.6715
16029SOL    HW149571   3.933   4.743   1.765  2.6495  1.9884 -0.7141
16029SOL    HW249572   3.801   4.791   1.711  1.4871  1.5178  1.6323
16030SOL     OW49573   1.604   0.013   7.849 -0.0272  0.6497 -0.9359
16030SOL    HW149574   1.565   0.037   7.933  1.0468  1.2622 -0.6051
16030SOL    HW249575   1.697   0.006   7.867 -0.0688 -1.7755 -1.4991
16031SOL     OW49576   0.184   5.754   2.115 -0.9456 -0.0388 -0.1633
16031SOL    HW149577   0.265   5.794   2.146 -1.1251 -0.6782  1.1615
16031SOL    HW249578   0.202   5.728   2.025 -0.1683  1.1697 -0.3651
16032SOL     OW49579   7.142   6.588   4.396 -0.2906  0.3991 -0.2969
16032SOL    HW149580   7.218   6.601   4.339 -0.7542  0.8173 -0.8077
16032SOL    HW249581   7.095   6.515   4.357 -0.3259  0.3442 -0.1533
16033SOL     OW49582   3.863   4.085   2.108 -0.3916  0.3216 -0.0273
16033SOL    HW149583   3.892   4.070   2.018  0.9249  0.8797  0.2886
16033SOL    HW249584   3.892   4.174   2.128 -1.2536  0.4395  0.7270
16034SOL     OW49585   0.970   5.211   3.858  0.2049 -0.5776  0.1739
16034SOL    HW149586   0.973   5.120   3.830 -1.4264 -0.9595  1.1763
16034SOL    HW249587   0.876   5.230   3.869  0.5810  0.8928  1.0229
16035SOL     OW49588   3.081   5.606   2.183  0.0234  0.0288 -0.0920
16035SOL    HW149589   3.085   5.560   2.267  0.1450 -0.5731 -0.4291
16035SOL    HW249590   3.053   5.695   2.206  0.2111 -0.0897  0.6024
16036SOL     OW49591   6.713   3.255   2.841 -0.1769  0.3529  0.1852
16036SOL    HW149592   6.739   3.170   2.876  1.6013  1.1745  0.9058
16036SOL    HW249593   6.686   3.306   2.917  0.9801  1.1996  0.0445
16037SOL     OW49594   4.251   0.276   4.019 -0.1229  0.0078 -0.2714
16037SOL    HW149595   4.172   0.222   4.011  0.3592 -0.8305  0.5475
16037SOL    HW249596   4.276   0.295   3.929 -1.7703  1.0434 -0.5276
16038SOL     OW49597   7.100   8.294   5.402 -0.0714  0.0626 -0.2449
16038SOL    HW149598   7.109   8.272   5.495  1.5982  0.2968 -0.3409
16038SOL    HW249599   7.064   8.215   5.362  0.9598 -0.6872  0.2943
16039SOL     OW49600   2.295   4.073   4.574 -0.5142  0.2185 -0.1085
16039SOL    HW149601   2.341   4.050   4.655 -1.6131 -2.2032 -0.1312
16039SOL    HW249602   2.363   4.104   4.515  0.0051  4.6534  2.5819
16040SOL     OW49603   3.586   1.588   3.367  0.1565  0.6919 -0.4344
16040SOL    HW149604   3.624   1.644   3.435 -1.0918  1.3318 -0.2433
16040SOL    HW249605   3.646   1.514   3.360 -0.1816  0.1327  2.0521
16041SOL     OW49606   8.082   8.266   0.499 -0.0854 -0.0449 -0.0002
16041SOL    HW149607   8.070   8.360   0.513  0.0945 -0.1405  0.7953
16041SOL    HW249608   8.069   8.227   0.585 -1.4884 -0.8912 -0.5810
16042SOL     OW49609   6.058   4.908   2.930  0.5873  0.4543  0.5059
16042SOL    HW149610   6.077   4.937   2.841 -0.0346  2.1048  0.8977
16042SOL    HW249611   6.010   4.825   2.918 -0.2971  1.1232 -0.7277
16043SOL     OW49612   7.678   5.880   7.950  0.1967  0.2450 -1.2622
16043SOL    HW149613   7.597   5.832   7.967  0.3965 -0.1882 -1.5075
16043SOL    HW249614   7.706   5.849   7.864 -0.6887  2.2246 -2.3068
16044SOL     OW49615   7.191   5.194   7.492  0.1940  0.1735 -0.2537
16044SOL    HW149616   7.113   5.139   7.502  1.2508 -1.0294  1.7483
16044SOL    HW249617   7.241   5.153   7.422 -0.8266  0.8168 -1.3878
16045SOL     OW49618   5.203   5.197   4.974 -0.3638 -0.0338 -0.0863
16045SOL    HW149619   5.133   5.150   4.929 -0.9916 -1.0093  1.8232
16045SOL    HW249620   5.260   5.128   5.008 -1.5204  0.5063  3.1041
16046SOL     OW49621   1.353   0.055   6.390  0.2119 -0.3171  0.3363
16046SOL    HW149622   1.264   0.053   6.355  0.3078  1.0019 -0.0066
16046SOL    HW249623   1.392  -0.028   6.362 -1.0656 -1.1215  0.9170
16047SOL     OW49624   5.509   2.918   2.137 -0.3754 -0.4104  0.1142
16047SOL    HW149625   5.446   2.954   2.200  0.4891 -1.6817  1.7412
16047SOL    HW249626   5.465   2.840   2.102 -1.0809  0.5963 -1.3030
16048SOL     OW49627   7.992   0.458   8.234 -0.7423  1.0134 -0.6740
16048SOL    HW149628   8.014   0.546   8.264  0.3139  0.9425 -1.2185
16048SOL    HW249629   7.978   0.407   8.314  0.0237  1.3296 -0.3472
16049SOL     OW49630   1.225   0.741   0.904 -0.3448 -0.3518  0.0125
16049SOL    HW149631   1.162   0.802   0.943 -0.0777 -0.6344  0.9113
16049SOL    HW249632   1.200   0.655   0.940  0.2631 -0.5298  0.0084
16050SOL     OW49633   7.241   4.088   8.207 -0.7667  0.3643  0.1396
16050SOL    HW149634   7.153   4.117   8.231 -1.0854 -0.9681  0.6683
16050SOL    HW249635   7.234   3.992   8.206  0.2767  0.2966 -1.3835
16051SOL     OW49636   2.940   4.409   6.358  0.0740  0.1293 -0.0236
16051SOL    HW149637   2.938   4.467   6.282  1.3494 -0.4902 -0.5380
16051SOL    HW249638   2.932   4.321   6.321  1.4894 -0.2273  0.5023
16052SOL     OW49639   7.706   1.062   8.210 -0.5357  0.6092 -0.1466
16052SOL    HW149640   7.614   1.068   8.234 -1.4597  2.3821 -3.8334
16052SOL    HW249641   7.748   1.135   8.255 -2.1184  3.4738 -3.1016
16053SOL     OW49642   1.181   7.248   0.747  0.1821 -0.0398 -0.2918
16053SOL    HW149643   1.107   7.219   0.694 -0.3663  0.7069  0.0641
16053SOL    HW249644   1.179   7.343   0.741 -1.2356  0.1757  2.8920
16054SOL     OW49645   4.759   1.541   4.126  0.3795  0.0402  0.0010
16054SOL    HW149646   4.767   1.585   4.041 -0.1308 -0.6115 -0.3938
16054SOL    HW249647   4.834   1.572   4.176  1.4024 -0.5358 -1.1374
16055SOL     OW49648   5.249   4.220   6.898  0.0800  0.4321  0.3814
16055SOL    HW149649   5.339   4.233   6.870 -0.0830 -0.4821 -0.5740
16055SOL    HW249650   5.205   4.303   6.875  0.3488  0.3434 -0.4693
16056SOL     OW49651   3.003   3.448   0.130 -0.1410  0.2880  0.1976
16056SOL    HW149652   3.059   3.371   0.118 -0.2825  0.3257 -0.6927
16056SOL    HW249653   3.058   3.522   0.106 -0.3893  0.3735 -0.1065
16057SOL     OW49654   7.942   3.395   7.267  0.2516 -0.7756 -0.2370
16057SOL    HW149655   7.888   3.424   7.194 -0.3117 -1.2795 -0.0348
16057SOL    HW249656   7.995   3.324   7.232  0.0940 -0.9131 -0.1970
16058SOL     OW49657   1.468   3.934   2.587  0.0403  0.3219  0.1213
16058SOL    HW149658   1.373   3.942   2.586 -0.1542 -1.7739  0.4428
16058SOL    HW249659   1.494   3.959   2.676 -0.2892 -0.0146  0.3110
16059SOL     OW49660   2.854   7.504   7.548 -0.0168 -0.2125 -0.3623
16059SOL    HW149661   2.931   7.455   7.574 -0.6643 -1.7770 -1.3468
16059SOL    HW249662   2.843   7.484   7.455 -2.7080 -1.5333  0.1993
16060SOL     OW49663   0.762   0.904   2.107  0.0795 -0.7603 -0.0220
16060SOL    HW149664   0.764   0.917   2.013  0.4998  0.2343  0.1249
16060SOL    HW249665   0.674   0.930   2.134  0.1066 -0.6189 -0.0727
16061SOL     OW49666   6.135   2.691   4.173 -0.3360 -0.4857  0.2351
16061SOL    HW149667   6.185   2.639   4.111  0.3841 -0.0463  0.4480
16061SOL    HW249668   6.044   2.666   4.157 -0.1724 -0.3034 -1.0618
16062SOL     OW49669   6.497   4.131   7.497  0.2092  0.3713 -0.5006
16062SOL    HW149670   6.564   4.158   7.559 -0.2748  3.0728 -1.0754
16062SOL    HW249671   6.543   4.124   7.413  0.8679 -3.2893  0.0748
16063SOL     OW49672   6.062   8.010   5.469 -0.2767  0.2658 -0.0626
16063SOL    HW149673   6.129   7.948   5.440 -0.0295 -0.1142  1.2621
16063SOL    HW249674   5.999   8.013   5.397  0.4305 -0.4611 -0.7244
16064SOL     OW49675   7.075   6.005   8.298 -0.0308 -0.0493 -0.6392
16064SOL    HW149676   7.008   5.936   8.303 -0.1834  0.2290  2.2203
16064SOL    HW249677   7.155   5.963   8.330 -0.4364  1.3608  2.4775
16065SOL     OW49678   0.875   2.607   6.812  0.4200  0.6838  0.0904
16065SOL    HW149679   0.816   2.534   6.831  0.1737  1.0738  0.8351
16065SOL    HW249680   0.910   2.633   6.897  2.1188  0.0778 -0.4176
16066SOL     OW49681   2.575   7.348   3.650 -0.1199 -0.1804  0.0165
16066SOL    HW149682   2.653   7.352   3.595 -0.9823 -1.5257 -1.3618
16066SOL    HW249683   2.555   7.255   3.656 -1.0285  0.0870  1.2067
16067SOL     OW49684   7.121   5.177   5.644 -0.1086 -0.2160  0.3313
16067SOL    HW149685   7.060   5.232   5.692  1.0045 -0.8786  2.5395
16067SOL    HW249686   7.092   5.088   5.661  0.8782 -0.4962  0.5549
16068SOL     OW49687   6.149   7.626   4.793 -0.0933 -0.2831  0.4814
16068SOL    HW149688   6.138   7.716   4.822 -0.2698 -0.8828  2.3861
16068SOL    HW249689   6.242   7.608   4.801 -0.3356 -0.8930  2.1022
16069SOL     OW49690   0.585   3.107   0.528 -0.1454  0.2328  0.2799
16069SOL    HW149691   0.562   3.026   0.573 -0.1348 -0.5349 -1.0713
16069SOL    HW249692   0.604   3.080   0.438  0.7886  1.5970  0.0494
16070SOL     OW49693   6.082   7.569   4.067 -0.1262  0.3752 -0.2411
16070SOL    HW149694   6.152   7.520   4.110 -1.9670 -0.2408  2.1470
16070SOL    HW249695   6.024   7.501   4.032 -0.2844  0.8723 -0.9540
16071SOL     OW49696   0.993   6.749   1.054  0.0878 -0.0783 -0.1707
16071SOL    HW149697   1.088   6.739   1.056  0.2235  1.1198 -0.2637
16071SOL    HW249698   0.970   6.744   0.961  0.0767 -0.2378 -0.1589
16072SOL     OW49699   6.648   5.092   4.515  0.1857  0.0628 -0.2521
16072SOL    HW149700   6.729   5.119   4.560  1.0503  1.0605 -2.3400
16072SOL    HW249701   6.667   5.003   4.484  0.4051  0.2312 -0.5945
16073SOL     OW49702   7.539   1.467   3.370 -0.0739  0.0731  0.8447
16073SOL    HW149703   7.501   1.419   3.296  1.8326 -1.6721  0.9456
16073SOL    HW249704   7.487   1.440   3.446  0.2996 -1.0102  0.7238
16074SOL     OW49705   6.709   1.316   4.694 -0.5577  0.8119  0.3715
16074SOL    HW149706   6.631   1.313   4.750 -1.0571 -0.3729 -0.3749
16074SOL    HW249707   6.695   1.392   4.638 -1.9660 -0.3262 -0.8586
16075SOL     OW49708   6.214   1.947   4.629 -0.0114 -0.0694 -0.0692
16075SOL    HW149709   6.221   2.025   4.684 -0.9952  0.3742 -0.5617
16075SOL    HW249710   6.138   1.900   4.664 -0.8332  0.3712 -1.2245
16076SOL     OW49711   4.376   6.791   1.731 -0.2639  0.1219 -0.2294
16076SOL    HW149712   4.343   6.779   1.642  0.4415 -1.1256 -0.3464
16076SOL    HW249713   4.415   6.706   1.753 -1.2539  0.1176  1.6183
16077SOL     OW49714   6.191   5.348   1.614 -0.7507 -0.5294  0.1718
16077SOL    HW149715   6.287   5.353   1.613 -0.8181  1.6193  1.1640
16077SOL    HW249716   6.165   5.368   1.524 -0.3286  1.3660  0.4465
16078SOL     OW49717   6.697   0.527   3.281 -0.3684  0.1247 -0.2767
16078SOL    HW149718   6.625   0.580   3.313 -1.1886 -0.9703 -0.2858
16078SOL    HW249719   6.721   0.472   3.355  0.0946  0.0997 -0.4436
16079SOL     OW49720   0.292   1.793   0.983 -0.7404  0.1643  0.0689
16079SOL    HW149721   0.275   1.703   0.953 -2.1285  0.1770  0.7722
16079SOL    HW249722   0.372   1.819   0.937 -0.0931 -1.5836  0.1705
16080SOL     OW49723   0.239   4.297   4.954 -0.1194  0.0778  0.0293
16080SOL    HW149724   0.204   4.310   5.042  1.0497  0.5465  0.4469
16080SOL    HW249725   0.329   4.331   4.960 -0.6509  1.8754 -1.8354
16081SOL     OW49726   7.078   3.093   4.872 -0.1551 -0.0362  0.1439
16081SOL    HW149727   7.061   3.142   4.791 -0.7210  2.0655  1.5036
16081SOL    HW249728   7.173   3.090   4.878 -0.1077  0.7686 -0.0545
16082SOL     OW49729   1.440   8.213   1.986  0.4277  0.1762 -0.7145
16082SOL    HW149730   1.457   8.279   1.919 -0.8461  2.0459  0.7581
16082SOL    HW249731   1.379   8.152   1.945  0.9343  0.3639 -1.7827
16083SOL     OW49732   3.559   0.189   6.549 -0.5399  0.1710  0.1888
16083SOL    HW149733   3.483   0.206   6.495 -1.7082 -1.1227  1.3626
16083SOL    HW249734   3.631   0.233   6.505 -2.2604  2.8681 -0.0465
16084SOL     OW49735   2.866   5.532   2.637  0.8090  0.0105  0.2419
16084SOL    HW149736   2.803   5.603   2.643  1.8579  1.1617 -1.6886
16084SOL    HW249737   2.814   5.452   2.641 -0.4143  0.8873  2.1096
16085SOL     OW49738   0.399   3.315   1.358  0.0592 -0.1525  0.0670
16085SOL    HW149739   0.322   3.362   1.326  0.1843 -0.4479 -0.6709
16085SOL    HW249740   0.470   3.379   1.354  0.3877 -0.6191 -1.6395
16086SOL     OW49741   1.403   0.536   6.649 -0.8839 -0.4731 -0.1008
16086SOL    HW149742   1.387   0.466   6.586  2.1981 -0.3258 -1.0998
16086SOL    HW249743   1.373   0.615   6.604 -0.3371 -0.6007 -0.7034
16087SOL     OW49744   2.894   6.348   1.531 -0.4311  0.3970  0.3872
16087SOL    HW149745   2.873   6.264   1.572 -1.2062  0.7277  0.6780
16087SOL    HW249746   2.938   6.398   1.600  0.0950  0.2088  0.1925
16088SOL     OW49747   6.499   5.275   1.392 -0.0143 -0.7160 -0.3420
16088SOL    HW149748   6.558   5.218   1.344 -0.9505 -1.1258 -1.0253
16088SOL    HW249749   6.445   5.216   1.444  0.4894 -0.3196  0.6472
16089SOL     OW49750   3.432   6.683   3.381 -0.1880  0.1298 -0.1496
16089SOL    HW149751   3.416   6.745   3.310 -0.4026 -0.2578 -0.4407
16089SOL    HW249752   3.524   6.657   3.369 -0.4265 -0.4794 -0.7225
16090SOL     OW49753   4.310   4.933   7.690 -0.4927  0.0784  1.2061
16090SOL    HW149754   4.395   4.974   7.679 -0.5922  0.0902  0.4021
16090SOL    HW249755   4.268   4.941   7.604 -1.1208 -0.3314  1.4643
16091SOL     OW49756   2.729   5.598   7.223 -0.2433 -0.3974  0.0942
16091SOL    HW149757   2.791   5.534   7.260 -1.1420 -1.0902  0.4289
16091SOL    HW249758   2.658   5.601   7.287 -0.8359 -0.0564 -0.5795
16092SOL     OW49759   5.733   8.237   7.360  0.3002  0.2154  0.7953
16092SOL    HW149760   5.822   8.207   7.337 -0.6266 -2.0059 -0.0908
16092SOL    HW249761   5.732   8.240   7.455  1.3570  0.3057  0.8065
16093SOL     OW49762   3.723   6.038   3.789  0.0891  0.3125  0.3832
16093SOL    HW149763   3.787   6.073   3.851  1.3398 -0.5990 -0.3650
16093SOL    HW249764   3.725   6.099   3.715  2.0894 -1.0978 -0.8124
16094SOL     OW49765   5.672   3.529   0.828 -0.2826  0.1035 -0.6033
16094SOL    HW149766   5.702   3.587   0.899  1.1750 -1.5112  0.1463
16094SOL    HW249767   5.683   3.581   0.749  1.0087  0.8695  0.0560
16095SOL     OW49768   3.355   3.693   4.955 -0.3470 -0.5629 -0.0476
16095SOL    HW149769   3.319   3.736   5.033  0.9758  0.0563  0.2235
16095SOL    HW249770   3.280   3.687   4.895 -1.1545 -0.2101  0.9071
16096SOL     OW49771   3.213   0.865   3.138 -0.0095 -0.1173  0.5590
16096SOL    HW149772   3.219   0.960   3.151 -1.9676 -0.1381  1.9486
16096SOL    HW249773   3.265   0.848   3.060 -2.0958  2.5504 -1.5204
16097SOL     OW49774   2.653   7.107   1.912 -0.3335 -0.7116  0.1098
16097SOL    HW149775   2.689   7.046   1.977  1.6784  0.0762 -0.2252
16097SOL    HW249776   2.638   7.188   1.961  3.1199  0.5436 -0.7501
16098SOL     OW49777   5.162   5.916   3.075  0.3587 -0.0166  0.6616
16098SOL    HW149778   5.194   5.869   3.152  0.3996 -0.3551  0.4371
16098SOL    HW249779   5.205   6.002   3.080  2.1347 -0.8251 -0.2006
16099SOL     OW49780   0.643   7.080   6.760  0.0516  0.3248  0.4355
16099SOL    HW149781   0.612   7.105   6.673 -1.9080  0.3735  1.1300
16099SOL    HW249782   0.695   7.156   6.789  1.8489 -0.2487 -1.2154
16100SOL     OW49783   1.167   5.916   7.523 -0.2371  0.3585  0.2211
16100SOL    HW149784   1.172   5.934   7.429  0.0907 -0.9872 -0.0301
16100SOL    HW249785   1.253   5.880   7.546 -0.9540 -1.1667  0.6145
16101SOL     OW49786   7.555   0.281   6.703  0.2917  0.1727 -0.4116
16101SOL    HW149787   7.572   0.222   6.776 -1.7801  1.1931  0.9541
16101SOL    HW249788   7.567   0.368   6.739 -0.6062  0.6817 -1.3071
16102SOL     OW49789   4.283   3.335   6.607 -0.5265  0.1407 -0.4962
16102SOL    HW149790   4.355   3.389   6.576 -0.6608  2.2708  2.6465
16102SOL    HW249791   4.205   3.389   6.593 -0.9568 -0.2373  0.3909
16103SOL     OW49792   7.495   1.541   5.201  0.5403 -0.0839  0.0410
16103SOL    HW149793   7.507   1.476   5.132 -2.7757 -1.2402  0.4455
16103SOL    HW249794   7.507   1.626   5.157  1.2949 -0.8789 -1.3091
16104SOL     OW49795   4.162   2.394   8.021 -0.0479  0.4105 -0.8064
16104SOL    HW149796   4.183   2.464   8.083  1.2776 -0.8898  0.2801
16104SOL    HW249797   4.100   2.338   8.069  0.1098  0.0105 -1.0637
16105SOL     OW49798   0.201   5.196   5.548  0.2213  0.3400  0.4290
16105SOL    HW149799   0.216   5.115   5.499 -1.0205 -0.1300  0.8174
16105SOL    HW249800   0.208   5.265   5.482 -1.0911 -0.2629 -0.3659
16106SOL     OW49801   2.113   1.292   2.724 -0.4089  0.3840 -0.3214
16106SOL    HW149802   2.089   1.242   2.802 -1.0438 -0.1390 -0.8436
16106SOL    HW249803   2.194   1.337   2.748  1.2690 -2.4301 -0.4853
16107SOL     OW49804   1.844   4.692   2.450 -0.1153 -0.0544  0.8980
16107SOL    HW149805   1.929   4.699   2.494  0.4825  3.3324 -0.6370
16107SOL    HW249806   1.827   4.780   2.417 -3.7900 -0.9046  0.2998
16108SOL     OW49807   0.815   2.860   1.112  0.2154 -0.3942  0.0855
16108SOL    HW149808   0.861   2.877   1.030  0.2220  2.0394  0.5386
16108SOL    HW249809   0.792   2.948   1.144 -2.5023 -1.4357  1.1232
16109SOL     OW49810   3.564   2.553   3.707 -0.5943 -0.0395 -0.2089
16109SOL    HW149811   3.633   2.618   3.718  0.6970 -1.4839  0.4554
16109SOL    HW249812   3.484   2.598   3.735  0.3515  1.1157  0.7051
16110SOL     OW49813   0.653   5.814   8.263  0.2190  0.3642 -0.1075
16110SOL    HW149814   0.685   5.862   8.187 -0.7438 -0.2917 -0.9320
16110SOL    HW249815   0.603   5.879   8.312  1.1651  0.8892  0.1876
16111SOL     OW49816   7.521   1.094   4.485 -0.0692 -0.5123  0.7311
16111SOL    HW149817   7.601   1.060   4.444  0.3593  0.4509  0.7546
16111SOL    HW249818   7.464   1.114   4.411 -1.0237 -2.9044  0.7624
16112SOL     OW49819   1.000   5.009   6.768 -0.2286 -0.0750  0.5977
16112SOL    HW149820   0.986   5.041   6.858  0.2280  0.5835  0.4365
16112SOL    HW249821   1.070   5.064   6.733  0.3791 -1.0710  0.2131
16113SOL     OW49822   0.937   3.347   4.792 -0.0087  0.4794  0.1797
16113SOL    HW149823   0.946   3.409   4.719 -2.7503 -0.6112 -1.1436
16113SOL    HW249824   0.997   3.275   4.771 -1.1256 -0.0456 -1.2435
16114SOL     OW49825   1.789   7.211   0.382  0.7116  0.8039  0.3511
16114SOL    HW149826   1.775   7.144   0.315  2.6329  0.5434  0.1845
16114SOL    HW249827   1.706   7.216   0.428  0.0289 -0.5272 -0.6930
16115SOL     OW49828   5.501   7.356   7.674 -0.1482  0.4811 -0.6099
16115SOL    HW149829   5.486   7.352   7.580  1.3350 -0.6570 -0.8303
16115SOL    HW249830   5.467   7.274   7.708  0.2446  0.4377 -0.3065
16116SOL     OW49831   1.840   5.763   7.483 -0.0445 -0.1015  0.9897
16116SOL    HW149832   1.745   5.754   7.492 -0.6737  3.1135 -1.5321
16116SOL    HW249833   1.866   5.818   7.556 -0.5011  0.9791  0.3453
16117SOL     OW49834   1.011   0.998   1.682 -0.3211 -0.5271 -0.2495
16117SOL    HW149835   0.938   1.041   1.638  0.3990  0.2721 -0.6794
16117SOL    HW249836   1.086   1.056   1.666  0.6977 -2.0145 -0.9592
16118SOL     OW49837   2.925   6.697   1.358 -0.0577  0.7612  0.1552
16118SOL    HW149838   2.938   6.776   1.306 -0.2571  0.2133 -0.7505
16118SOL    HW249839   2.851   6.717   1.415  0.4696  1.5406  0.5746
16119SOL     OW49840   1.577   4.314   4.383  0.5626  0.6260  0.0436
16119SOL    HW149841   1.605   4.268   4.304 -0.2987 -0.5059  0.3928
16119SOL    HW249842   1.515   4.380   4.351  1.7288  1.5200 -0.4405
16120SOL     OW49843   8.127   4.794   0.170  0.0610 -0.2872 -0.3187
16120SOL    HW149844   8.033   4.781   0.160  0.2339 -1.5271 -0.4606
16120SOL    HW249845   8.149   4.743   0.248  0.6004  0.0522 -0.2522
16121SOL     OW49846   2.593   1.385   5.696  0.1251 -0.2122 -0.2827
16121SOL    HW149847   2.561   1.317   5.637 -0.4453  0.3126 -0.5753
16121SOL    HW249848   2.656   1.435   5.643 -0.1156  0.0338 -0.3369
16122SOL     OW49849   7.515   5.755   0.311  0.1180  0.1877 -0.3322
16122SOL    HW149850   7.543   5.701   0.385  0.6675 -0.1610 -0.7846
16122SOL    HW249851   7.429   5.788   0.336 -0.6295 -1.6381 -0.4177
16123SOL     OW49852   5.297   6.707   2.153  1.1995 -0.3216 -0.2167
16123SOL    HW149853   5.348   6.655   2.216  1.6895 -1.0111 -1.1753
16123SOL    HW249854   5.279   6.788   2.200  1.8178 -0.6999  0.7174
16124SOL     OW49855   6.521   0.299   4.807  0.4417  0.0354  0.0803
16124SOL    HW149856   6.579   0.361   4.762  0.2288 -0.4709 -0.8884
16124SOL    HW249857   6.549   0.213   4.776  0.2516 -0.3087  0.8704
16125SOL     OW49858   5.799   7.755   3.709  0.0876 -0.5278  0.2764
16125SOL    HW149859   5.888   7.742   3.677  0.6756  0.8183  1.3002
16125SOL    HW249860   5.808   7.763   3.804 -1.1483 -0.5685  0.4157
16126SOL     OW49861   2.451   3.450   3.387  0.6521 -0.2944 -0.1615
16126SOL    HW149862   2.366   3.428   3.425  1.2098 -0.0345  1.2439
16126SOL    HW249863   2.429   3.509   3.314 -0.4043 -0.7121 -0.2045
16127SOL     OW49864   1.361   2.344   4.524  0.1435  0.6379  0.1003
16127SOL    HW149865   1.396   2.433   4.528  0.6272  0.5525 -1.5941
16127SOL    HW249866   1.384   2.305   4.608  1.0041  1.7287  0.3793
16128SOL     OW49867   0.196   4.342   0.385  0.2405 -0.0317 -0.1477
16128SOL    HW149868   0.259   4.374   0.321  0.6673  0.6124  0.5892
16128SOL    HW249869   0.247   4.285   0.443  0.3104  1.0341  0.8666
16129SOL     OW49870   0.200   5.281   6.261  0.4437  0.0472  0.0907
16129SOL    HW149871   0.191   5.377   6.264  0.1286 -0.0101  1.2229
16129SOL    HW249872   0.110   5.249   6.275  0.9424 -0.4310  2.5082
16130SOL     OW49873   6.273   5.843   8.110  0.5011 -0.2171  0.4221
16130SOL    HW149874   6.288   5.787   8.034 -0.6128 -1.0513  0.7963
16130SOL    HW249875   6.204   5.903   8.081  0.3148 -0.3161  0.6653
16131SOL     OW49876   2.723   0.057   0.806  0.5590  0.0724  0.0116
16131SOL    HW149877   2.642   0.108   0.814 -0.1358 -1.0695  0.2925
16131SOL    HW249878   2.694  -0.033   0.796  1.8419 -0.5880  1.9653
16132SOL     OW49879   1.837   2.726   6.602  0.1663 -0.4366 -0.3590
16132SOL    HW149880   1.824   2.812   6.560 -0.3662 -0.3219  0.0405
16132SOL    HW249881   1.757   2.678   6.584 -0.8474  0.2602  2.0743
16133SOL     OW49882   0.508   0.557   2.907 -1.0840  0.3678 -0.0565
16133SOL    HW149883   0.422   0.578   2.871 -0.6969  1.9982 -0.0438
16133SOL    HW249884   0.570   0.584   2.840 -0.5673 -0.8219 -0.0744
16134SOL     OW49885   2.323   5.780   8.189  0.3485 -0.0603 -0.2566
16134SOL    HW149886   2.372   5.780   8.107  2.2636 -0.2631  0.8412
16134SOL    HW249887   2.368   5.844   8.244 -1.4603  0.7340  0.3333
16135SOL     OW49888   0.804   0.459   7.012 -0.0398 -0.0050 -0.8453
16135SOL    HW149889   0.766   0.525   7.070 -1.6786 -0.8327 -0.9363
16135SOL    HW249890   0.837   0.392   7.071 -0.1373 -0.0278 -0.8165
16136SOL     OW49891   5.994   5.116   3.863 -0.0102 -0.2157  0.2902
16136SOL    HW149892   5.933   5.080   3.926  2.4950 -0.5357  2.6158
16136SOL    HW249893   6.053   5.044   3.842  0.4265  0.4526 -0.8648
16137SOL     OW49894   2.703   0.781   5.255  0.8902 -0.3470  0.0714
16137SOL    HW149895   2.755   0.725   5.196  3.1971 -0.9489  2.5922
16137SOL    HW249896   2.717   0.869   5.221  1.0292 -0.8172 -1.1445
16138SOL     OW49897   0.993   7.668   6.749 -0.0643 -0.3746  0.5394
16138SOL    HW149898   1.009   7.754   6.787 -1.0899  0.0715 -0.0183
16138SOL    HW249899   0.905   7.674   6.711  0.1985 -1.3958 -0.2609
16139SOL     OW49900   0.641   3.489   8.163  0.1824  0.1918  0.3838
16139SOL    HW149901   0.694   3.545   8.105  0.1471  0.4760  0.6243
16139SOL    HW249902   0.639   3.404   8.118  2.4437 -0.3839  1.3115
16140SOL     OW49903   6.920   0.606   2.161  0.3042  0.3598  0.4399
16140SOL    HW149904   6.932   0.518   2.127  0.1781  0.8748 -0.9510
16140SOL    HW249905   6.943   0.599   2.254  1.6073 -0.8433  0.0422
16141SOL     OW49906   1.139   0.120   4.827 -0.3116 -0.0628  0.6592
16141SOL    HW149907   1.229   0.134   4.799 -0.2692  0.4061  1.0263
16141SOL    HW249908   1.139   0.032   4.865 -0.1279 -0.2667  0.1871
16142SOL     OW49909   7.861   2.321   4.695  0.2005 -0.1621 -0.0745
16142SOL    HW149910   7.823   2.261   4.760  1.1701 -0.0188  0.6381
16142SOL    HW249911   7.838   2.282   4.611 -1.6352 -0.0168  0.3218
16143SOL     OW49912   6.214   7.903   1.928 -0.2536  0.0446 -0.4090
16143SOL    HW149913   6.201   7.994   1.954 -2.2940 -0.0132 -1.1367
16143SOL    HW249914   6.283   7.907   1.861 -0.0439  0.9891 -0.1521
16144SOL     OW49915   1.069   5.131   7.264  0.3548 -0.0896 -0.1875
16144SOL    HW149916   1.148   5.173   7.299  0.3151 -0.8070  0.7823
16144SOL    HW249917   1.008   5.203   7.249  0.5442  0.2801  0.7893
16145SOL     OW49918   0.562   3.092   3.533 -0.4108 -0.3649 -0.4363
16145SOL    HW149919   0.478   3.054   3.509 -0.9908  0.9861 -0.5702
16145SOL    HW249920   0.603   3.027   3.591 -2.2522 -0.2790  0.9893
16146SOL     OW49921   7.030   3.802   0.481  0.1640  0.2490 -0.0217
16146SOL    HW149922   6.999   3.718   0.513 -0.2097  0.7687  0.9922
16146SOL    HW249923   7.123   3.804   0.503 -0.0661  0.5551  0.9356
16147SOL     OW49924   5.002   5.963   1.685 -0.0956 -0.2695  0.2723
16147SOL    HW149925   5.002   6.014   1.766 -1.0331  2.9276 -1.6068
16147SOL    HW249926   5.093   5.962   1.657 -0.0578  0.4114  0.3511
16148SOL     OW49927   0.538   8.258   1.076  0.2174 -0.1616 -0.1419
16148SOL    HW149928   0.516   8.351   1.086 -1.4670 -0.5342 -0.1719
16148SOL    HW249929   0.566   8.231   1.164  0.8791  0.4039 -0.1712
16149SOL     OW49930   5.197   2.958   1.711 -0.1913  0.2939  0.4800
16149SOL    HW149931   5.124   2.920   1.760 -0.6947  0.4393 -0.1448
16149SOL    HW249932   5.167   3.046   1.688  0.1038  0.2812  0.0500
16150SOL     OW49933   6.234   5.807   4.073 -0.6099  0.2951  0.0688
16150SOL    HW149934   6.199   5.893   4.099 -0.6326  0.0279  0.9327
16150SOL    HW249935   6.310   5.827   4.019 -0.3011  0.8530  0.7117
16151SOL     OW49936   2.829   1.418   6.170 -0.4261  0.5968  0.4144
16151SOL    HW149937   2.781   1.500   6.182 -0.2931  0.3267  2.9748
16151SOL    HW249938   2.817   1.371   6.252  0.0532 -1.6879 -0.7742
16152SOL     OW49939   7.620   5.695   6.716  0.2192 -0.6336 -0.0746
16152SOL    HW149940   7.686   5.762   6.694  0.6070 -0.8642  0.3608
16152SOL    HW249941   7.666   5.635   6.775 -0.9217  0.2547  1.7705
16153SOL     OW49942   5.365   7.016   2.865  0.8698 -0.0976  0.6039
16153SOL    HW149943   5.292   7.000   2.925 -1.2880  3.4207 -0.9207
16153SOL    HW249944   5.353   6.952   2.795 -1.9637  1.6276 -0.5910
16154SOL     OW49945   4.823   4.976   6.398 -0.4314 -0.6522  0.1198
16154SOL    HW149946   4.852   4.927   6.475  0.1683 -1.5393 -0.6606
16154SOL    HW249947   4.744   5.021   6.426 -0.4771 -1.3422  1.1172
16155SOL     OW49948   1.191   2.444   5.684  0.6685  0.2703 -0.0063
16155SOL    HW149949   1.261   2.393   5.726  1.3122 -0.3918 -1.8185
16155SOL    HW249950   1.221   2.535   5.689  0.8507  0.1720  0.7445
16156SOL     OW49951   6.091   8.262   7.712 -0.2808  0.4896  0.2640
16156SOL    HW149952   6.064   8.194   7.650  1.4156 -0.0986  0.1407
16156SOL    HW249953   6.085   8.343   7.662  0.3005  0.1130 -0.4175
16157SOL     OW49954   7.277   3.947   4.259  0.3423  0.2532 -0.1034
16157SOL    HW149955   7.251   3.891   4.186  2.0229 -3.4084  1.9283
16157SOL    HW249956   7.229   3.913   4.334  1.0761  1.8404  1.1206
16158SOL     OW49957   5.125   5.253   2.812  0.3109 -0.1416  0.5123
16158SOL    HW149958   5.031   5.240   2.805  0.1214  0.5522  1.7764
16158SOL    HW249959   5.154   5.264   2.721 -0.9411  0.4890  0.1754
16159SOL     OW49960   1.813   6.336   6.450 -0.0838  0.0314  0.4346
16159SOL    HW149961   1.744   6.347   6.385  0.8968  0.3800 -0.5643
16159SOL    HW249962   1.767   6.324   6.533 -1.3374 -0.0843 -0.2795
16160SOL     OW49963   2.972   0.683   7.477  0.2510 -0.3479 -0.7693
16160SOL    HW149964   2.899   0.632   7.441 -0.5814  0.5433 -0.4002
16160SOL    HW249965   2.964   0.671   7.572 -0.0394  0.5636 -0.6711
16161SOL     OW49966   3.656   4.476   8.045 -0.9683 -0.1342 -0.4134
16161SOL    HW149967   3.701   4.491   8.127  0.8624 -0.0347 -1.4199
16161SOL    HW249968   3.571   4.439   8.070 -0.4444 -0.0505  1.4981
16162SOL     OW49969   1.518   3.237   2.405 -0.3770  0.5223  0.1668
16162SOL    HW149970   1.544   3.276   2.321 -1.3925  0.4092 -0.2157
16162SOL    HW249971   1.464   3.305   2.447 -0.5519  0.2660  0.3573
16163SOL     OW49972   3.748   4.060   7.767 -0.3005  0.2249 -0.3743
16163SOL    HW149973   3.737   3.967   7.747 -0.8160  0.2812 -0.3685
16163SOL    HW249974   3.707   4.106   7.694 -0.6006  0.4425 -0.0723
16164SOL     OW49975   3.355   7.164   4.206  0.3970  0.1147 -0.2826
16164SOL    HW149976   3.267   7.127   4.202  0.8481 -0.8767 -1.1083
16164SOL    HW249977   3.393   7.127   4.286  0.7497 -1.0030 -0.9615
16165SOL     OW49978   6.265   4.590   2.282  0.1837 -0.3706 -0.0313
16165SOL    HW149979   6.325   4.541   2.226 -0.8804  0.8145 -2.2976
16165SOL    HW249980   6.178   4.563   2.253 -0.3861  0.3184  1.0209
16166SOL     OW49981   2.771   5.713   6.401 -0.0652  0.0091 -0.6728
16166SOL    HW149982   2.770   5.801   6.437  0.0822 -0.5055  0.6347
16166SOL    HW249983   2.684   5.701   6.363 -0.0872  0.7016 -0.8408
16167SOL     OW49984   3.084   0.353   5.379 -0.3066 -0.2369 -0.3127
16167SOL    HW149985   3.025   0.335   5.306 -0.2020 -0.5426 -0.3237
16167SOL    HW249986   3.060   0.441   5.409 -0.9166 -0.4446 -0.1717
16168SOL     OW49987   0.798   4.528   7.219 -0.4205 -0.6294  0.0545
16168SOL    HW149988   0.841   4.464   7.276  0.5886  0.8203  0.9632
16168SOL    HW249989   0.740   4.577   7.278 -1.5442 -1.0130 -0.7213
16169SOL     OW49990   5.379   1.114   4.580  0.2990 -0.1860 -0.0104
16169SOL    HW149991   5.296   1.107   4.628  0.5658 -1.5368  0.2715
16169SOL    HW249992   5.360   1.071   4.496  0.9071 -1.1323  0.3272
16170SOL     OW49993   2.294   5.464   4.691 -0.2415 -0.2028 -0.5580
16170SOL    HW149994   2.390   5.464   4.700 -0.3703  0.1624  1.0691
16170SOL    HW249995   2.275   5.383   4.645  0.6526 -1.9485  2.0058
16171SOL     OW49996   2.629   1.777   8.015  0.1077  0.5995 -0.3511
16171SOL    HW149997   2.543   1.777   8.056  0.4301  2.3756  0.3610
16171SOL    HW249998   2.612   1.747   7.925 -0.9183 -1.1006  0.3785
16172SOL     OW49999   4.671   4.163   7.152 -0.1584  0.4781  0.0816
16172SOL    HW150000   4.583   4.193   7.128 -0.3416  0.2944  0.5081
16172SOL    HW250001   4.658   4.073   7.182  0.5814 -0.5323 -2.4748
16173SOL     OW50002   7.732   2.522   7.893 -0.1599 -0.6172  0.1414
16173SOL    HW150003   7.714   2.511   7.986 -1.2736  0.5419  0.0766
16173SOL    HW250004   7.723   2.434   7.857 -1.8868 -0.7366  0.7890
16174SOL     OW50005   6.599   5.122   6.785  0.3375  0.1984 -0.5881
16174SOL    HW150006   6.688   5.092   6.804  0.9710  2.2184 -0.2709
16174SOL    HW250007   6.550   5.041   6.769  1.7197 -1.0791  1.3419
16175SOL     OW50008   4.955   5.958   3.751  0.7982  0.3620 -0.4448
16175SOL    HW150009   5.026   5.897   3.768  1.8028  1.3384 -1.0638
16175SOL    HW250010   4.917   5.930   3.668  0.6755  0.0399 -0.2793
16176SOL     OW50011   0.915   4.514   7.798 -0.6636  0.3728  0.0031
16176SOL    HW150012   1.000   4.486   7.765  0.3596  2.0688  1.1640
16176SOL    HW250013   0.868   4.432   7.813  1.2372 -0.6334  0.6156
16177SOL     OW50014   8.233   0.987   7.882 -0.3884 -0.8142  0.3061
16177SOL    HW150015   8.209   1.001   7.791 -0.3056 -0.8152  0.2844
16177SOL    HW250016   8.193   0.903   7.905  0.1744 -1.1523  0.0678
16178SOL     OW50017   8.075   7.128   7.035  0.3480 -0.3450  0.3634
16178SOL    HW150018   8.062   7.133   7.130  0.0291 -0.0763  0.3095
16178SOL    HW250019   8.004   7.071   7.005 -0.9331  1.4013  0.0205
16179SOL     OW50020   6.217   2.518   1.489  0.3134  0.0406 -0.1760
16179SOL    HW150021   6.268   2.555   1.417 -0.2145  1.5938  0.2355
16179SOL    HW250022   6.133   2.494   1.450  0.1990  0.4428 -0.1752
16180SOL     OW50023   6.447   0.047   1.115 -0.0903 -0.6635 -0.1147
16180SOL    HW150024   6.542   0.047   1.131  0.4045 -2.6866 -2.6314
16180SOL    HW250025   6.409   0.013   1.196  1.2434  1.1525  1.2999
16181SOL     OW50026   1.286   4.200   1.026  0.0736  0.5852  0.5258
16181SOL    HW150027   1.310   4.162   0.942 -0.2870  0.2984  0.5542
16181SOL    HW250028   1.342   4.155   1.090 -1.2065 -0.7654  0.7111
16182SOL     OW50029   2.933   0.290   1.669  0.4661 -0.5964 -0.1476
16182SOL    HW150030   2.932   0.357   1.601 -1.1918  2.8512  3.0814
16182SOL    HW250031   2.870   0.225   1.640 -0.9041  1.2845 -1.5170
16183SOL     OW50032   2.190   8.302   4.382  0.3496 -0.3722 -0.0484
16183SOL    HW150033   2.262   8.281   4.442  1.1051 -0.1000 -0.8584
16183SOL    HW250034   2.117   8.327   4.440  0.8010 -0.9665  0.7814
16184SOL     OW50035   3.822   7.911   4.503 -0.3002  0.1428  0.0061
16184SOL    HW150036   3.813   8.006   4.511  1.7920  0.4444 -0.9600
16184SOL    HW250037   3.775   7.890   4.422  0.5320  0.5632 -0.5904
16185SOL     OW50038   6.982   6.682   2.941 -0.0246  0.0701  0.3029
16185SOL    HW150039   7.066   6.728   2.935 -0.4621  0.8067 -0.1423
16185SOL    HW250040   6.990   6.609   2.880  1.1674 -1.2421  1.9688
16186SOL     OW50041   2.076   2.312   0.772  0.0585  0.2224 -0.3947
16186SOL    HW150042   2.147   2.359   0.728 -0.1826  1.4073  0.4630
16186SOL    HW250043   2.120   2.259   0.839  0.0784  1.5658  0.6697
16187SOL     OW50044   2.636   4.534   0.466 -0.3171  0.2830  0.1451
16187SOL    HW150045   2.547   4.546   0.433 -0.4831 -2.8685 -0.6901
16187SOL    HW250046   2.682   4.487   0.395  2.4320  3.0443 -0.0286
16188SOL     OW50047   0.478   2.032   5.448  0.6097 -0.3700 -0.1675
16188SOL    HW150048   0.519   1.977   5.382  0.3037 -0.9835  0.1494
16188SOL    HW250049   0.519   2.118   5.437 -0.3799 -0.0994 -2.0348
16189SOL     OW50050   0.791   2.743   0.515 -0.1618 -0.1805  0.5187
16189SOL    HW150051   0.779   2.815   0.453 -0.8434 -0.3421  0.4621
16189SOL    HW250052   0.883   2.719   0.506 -0.1682  0.0410 -0.1682
16190SOL     OW50053   5.468   7.595   7.226 -0.1841 -0.0971 -0.2466
16190SOL    HW150054   5.391   7.563   7.178 -0.2100  2.9688 -2.3638
16190SOL    HW250055   5.433   7.662   7.285  0.2771 -1.8799  2.1505
16191SOL     OW50056   3.729   4.821   6.090  0.2822 -0.0817  0.4252
16191SOL    HW150057   3.734   4.757   6.019 -1.6759  0.3601 -0.1668
16191SOL    HW250058   3.709   4.769   6.168 -0.3922 -0.3010  0.1125
16192SOL     OW50059   0.202   5.895   7.967 -0.0493 -0.0382  0.4823
16192SOL    HW150060   0.208   5.942   7.884 -0.5685 -2.5321 -1.0363
16192SOL    HW250061   0.291   5.894   8.002 -0.0678  2.1974  0.6767
16193SOL     OW50062   5.574   4.581   4.990  0.4958 -0.0017 -0.0764
16193SOL    HW150063   5.651   4.537   4.955  0.9516 -0.5680  1.6036
16193SOL    HW250064   5.576   4.668   4.950  0.8521 -0.6949 -1.6371
16194SOL     OW50065   1.984   4.681   2.135  0.3860  0.5976  0.3885
16194SOL    HW150066   2.044   4.726   2.195  1.2848  0.4508 -0.3874
16194SOL    HW250067   1.973   4.742   2.062  0.8243 -0.0232 -0.2001
16195SOL     OW50068   8.013   6.112   0.008  0.0716  0.0626  0.1765
16195SOL    HW150069   8.092   6.166   0.005  0.2984 -0.2680  0.1884
16195SOL    HW250070   8.019   6.057  -0.070 -0.0807 -0.0533  0.2466
16196SOL     OW50071   4.078   4.583   6.460 -0.3116 -0.0048  0.0148
16196SOL    HW150072   4.138   4.520   6.420 -0.6220 -1.2722  1.5165
16196SOL    HW250073   4.134   4.636   6.517 -0.1787  0.6113 -0.6745
16197SOL     OW50074   6.280   1.185   3.479  0.2797  0.0649  0.5432
16197SOL    HW150075   6.232   1.166   3.560  1.8660 -1.0339  1.2515
16197SOL    HW250076   6.310   1.275   3.490  2.5554 -0.8379  2.3023
16198SOL     OW50077   0.197   1.873   2.068 -0.1725  0.0143 -0.7187
16198SOL    HW150078   0.154   1.809   2.125  0.5913  1.5191  1.6126
16198SOL    HW250079   0.128   1.934   2.042  0.1002  1.2491  1.3600
16199SOL     OW50080   4.104   0.067   4.518  0.0965  0.0445  0.2206
16199SOL    HW150081   4.149  -0.018   4.524  1.8486  0.6753 -2.9147
16199SOL    HW250082   4.064   0.066   4.431  0.0023  2.3838  0.2188
16200SOL     OW50083   1.007   2.175   0.017 -0.0124 -0.1547 -0.0668
16200SOL    HW150084   1.061   2.238  -0.032 -1.7780  0.4783 -1.2248
16200SOL    HW250085   0.949   2.138  -0.048  0.1210 -2.0542  0.8716
16201SOL     OW50086   1.767   2.763   2.989 -0.2420  0.1574  0.8388
16201SOL    HW150087   1.764   2.855   3.017  1.1873  0.8603 -1.1654
16201SOL    HW250088   1.676   2.739   2.976 -0.5803  1.6586  0.2996
16202SOL     OW50089   7.660   0.798   5.517  0.0019 -0.2949  0.3905
16202SOL    HW150090   7.580   0.814   5.467  0.2566  1.5945  0.5468
16202SOL    HW250091   7.727   0.783   5.451 -0.2704 -0.8395  0.2352
16203SOL     OW50092   6.937   7.964   2.985  0.1933 -0.1743  0.3807
16203SOL    HW150093   6.956   7.951   3.078 -0.6562 -0.8084  0.4733
16203SOL    HW250094   6.926   8.059   2.976 -0.0323 -0.1412  0.9849
16204SOL     OW50095   0.295   4.090   6.261  0.5359 -0.0804 -0.0475
16204SOL    HW150096   0.366   4.130   6.313 -0.2383  1.0761  0.1436
16204SOL    HW250097   0.329   4.090   6.172  1.6155 -1.4806  0.3309
16205SOL     OW50098   7.841   5.313   2.698  0.7675  0.7836 -0.1516
16205SOL    HW150099   7.815   5.224   2.674  0.3011  0.4769  1.3983
16205SOL    HW250100   7.781   5.369   2.649  0.7616  0.2304 -0.7826
16206SOL     OW50101   3.154   5.604   5.532  1.0088 -0.3500 -0.0866
16206SOL    HW150102   3.075   5.616   5.479  1.2666  1.8542 -0.0155
16206SOL    HW250103   3.190   5.521   5.503 -1.3050 -1.3884 -0.1599
16207SOL     OW50104   7.670   4.393   3.453  0.1297  0.1651  0.2737
16207SOL    HW150105   7.754   4.349   3.441 -0.2534 -0.2695 -0.8762
16207SOL    HW250106   7.687   4.483   3.424  0.2263  0.1024  0.1298
16208SOL     OW50107   1.254   6.154   8.070  0.1573  0.1948  0.6955
16208SOL    HW150108   1.311   6.186   8.140 -1.2725 -0.3800  2.1716
16208SOL    HW250109   1.196   6.228   8.051  1.2822  0.7393 -0.7194
16209SOL     OW50110   4.178   4.641   3.890  0.2559 -0.5616  0.4228
16209SOL    HW150111   4.232   4.709   3.931  2.4805 -1.8186 -0.3042
16209SOL    HW250112   4.099   4.686   3.862  1.0683  1.4269  1.2371
16210SOL     OW50113   7.908   5.457   6.050 -0.4512  0.1452 -0.3212
16210SOL    HW150114   7.849   5.423   5.983 -1.6654  1.3026  0.1457
16210SOL    HW250115   7.982   5.396   6.050 -1.1791 -0.7571 -1.5992
16211SOL     OW50116   2.536   4.629   7.019 -0.4760 -0.5222 -0.1957
16211SOL    HW150117   2.496   4.710   6.985 -0.1733 -0.0710  0.5092
16211SOL    HW250118   2.629   4.650   7.028 -0.2045 -1.3233 -1.0875
16212SOL     OW50119   6.419   6.090   1.364 -0.2186 -0.1586 -0.1741
16212SOL    HW150120   6.383   6.011   1.404 -0.6352  0.5914  0.9480
16212SOL    HW250121   6.355   6.158   1.385 -0.1311  0.3867 -1.5798
16213SOL     OW50122   5.103   0.967   1.807 -0.0316  0.1326 -0.0358
16213SOL    HW150123   5.051   1.047   1.812 -0.1679 -0.0875  2.3002
16213SOL    HW250124   5.055   0.912   1.743 -1.5709  0.7288  0.5846
16214SOL     OW50125   4.939   1.831   6.336 -0.5044 -0.0657  0.7217
16214SOL    HW150126   4.906   1.883   6.262  2.4899 -0.2448 -0.7872
16214SOL    HW250127   4.908   1.742   6.318 -0.8016  0.1164  0.3145
16215SOL     OW50128   4.400   4.001   0.111 -0.2025  0.0738 -0.7139
16215SOL    HW150129   4.400   3.908   0.132 -0.7009  0.5806  1.7139
16215SOL    HW250130   4.309   4.020   0.085  0.2236 -0.3858 -2.5896
16216SOL     OW50131   7.437   7.922   0.536  0.0623 -0.1418  0.3113
16216SOL    HW150132   7.361   7.981   0.535  0.4179  0.3101 -1.9462
16216SOL    HW250133   7.417   7.857   0.469  1.3644 -0.4139  0.1906
16217SOL     OW50134   8.142   7.825   6.042 -0.0455 -0.1283 -0.9354
16217SOL    HW150135   8.114   7.735   6.054 -0.5106  0.3004  1.4187
16217SOL    HW250136   8.217   7.836   6.101 -1.0031  1.4402  0.0430
16218SOL     OW50137   3.976   6.887   2.514  0.0781  0.3763  0.4226
16218SOL    HW150138   3.916   6.889   2.589  0.1049  0.0711  0.4516
16218SOL    HW250139   3.970   6.797   2.481  0.5320  0.3431  0.4333
16219SOL     OW50140   4.532   6.745   5.332  0.2701  0.7438  0.1391
16219SOL    HW150141   4.614   6.695   5.329 -0.6211 -0.8062  1.1805
16219SOL    HW250142   4.545   6.809   5.402 -1.3377 -3.0979  4.2342
16220SOL     OW50143   3.696   7.711   5.391 -0.4729  0.4349 -0.1230
16220SOL    HW150144   3.716   7.726   5.483  1.7492  0.3720 -0.5587
16220SOL    HW250145   3.707   7.797   5.350 -2.8710  0.7806 -0.1289
16221SOL     OW50146   0.422   1.419   5.694  0.5170 -0.3664  0.2328
16221SOL    HW150147   0.488   1.463   5.641  0.1604 -0.2776 -0.1356
16221SOL    HW250148   0.347   1.478   5.695  1.2469  0.6140  2.5751
16222SOL     OW50149   0.927   7.699   3.286  0.3840  0.2779 -0.0024
16222SOL    HW150150   0.892   7.723   3.372  0.0719 -0.3683  0.0489
16222SOL    HW250151   0.854   7.712   3.225 -0.2311 -1.9050  0.2283
16223SOL     OW50152   7.870   0.950   5.706 -0.0408  0.2067 -0.3861
16223SOL    HW150153   7.944   0.895   5.731 -0.2038  0.4078  0.5601
16223SOL    HW250154   7.891   1.036   5.743  0.4307  0.8982 -2.2503
16224SOL     OW50155   1.470   0.863   4.095 -0.1525 -0.2644 -0.1264
16224SOL    HW150156   1.506   0.952   4.088 -3.5748  1.1166 -1.9976
16224SOL    HW250157   1.545   0.805   4.087  1.9540  2.4627 -0.8510
16225SOL     OW50158   7.969   4.964   5.479  0.1477  0.1201  0.1875
16225SOL    HW150159   7.985   4.886   5.531 -0.9817  0.3340  0.8661
16225SOL    HW250160   8.056   4.994   5.453  0.6197 -0.9653  0.5001
16226SOL     OW50161   2.342   7.984   4.535  0.4749  0.6038 -0.1869
16226SOL    HW150162   2.310   7.896   4.513  0.4718 -0.2209  2.9351
16226SOL    HW250163   2.431   7.985   4.501  1.6201 -1.8314  2.5121
16227SOL     OW50164   7.450   1.963   5.909 -0.0750 -0.1033  0.1672
16227SOL    HW150165   7.379   1.960   5.845  0.0165 -1.1515  0.1172
16227SOL    HW250166   7.428   1.896   5.973 -0.4206  1.2554  1.5243
16228SOL     OW50167   6.952   5.374   1.366  0.3468 -0.3298  0.1526
16228SOL    HW150168   6.935   5.339   1.278  0.4713 -0.0688  0.0243
16228SOL    HW250169   6.928   5.466   1.360  1.3332 -0.0705  0.1073
16229SOL     OW50170   5.439   3.111   1.408  0.1801 -0.2972 -0.3529
16229SOL    HW150171   5.534   3.114   1.400  0.1322 -0.0822 -0.8394
16229SOL    HW250172   5.406   3.132   1.321 -0.3255  0.7519  0.0871
16230SOL     OW50173   7.119   5.785   1.284  0.0809  0.4703 -0.1470
16230SOL    HW150174   7.195   5.803   1.340  0.2109 -0.3699 -0.0439
16230SOL    HW250175   7.154   5.790   1.195 -0.0092  1.2767 -0.1405
16231SOL     OW50176   4.610   0.308   3.123 -0.1641 -0.4710 -0.3880
16231SOL    HW150177   4.690   0.359   3.112 -0.0742 -0.4300  0.4741
16231SOL    HW250178   4.552   0.365   3.174  0.3961 -1.7002  1.6869
16232SOL     OW50179   2.920   7.117   4.427 -0.2407  0.0711 -0.0368
16232SOL    HW150180   2.996   7.141   4.480  0.1631 -0.3979 -0.3973
16232SOL    HW250181   2.956   7.105   4.339 -0.8844  0.7390 -0.3963
16233SOL     OW50182   2.343   6.799   4.796  0.0530  0.0771 -0.7085
16233SOL    HW150183   2.358   6.759   4.882 -0.4597  1.4806  0.0578
16233SOL    HW250184   2.321   6.726   4.739  2.8048 -1.1814 -0.2351
16234SOL     OW50185   3.966   5.628   4.794  0.3693  0.3519 -0.2943
16234SOL    HW150186   3.993   5.596   4.880  1.2608  2.0418  0.0791
16234SOL    HW250187   4.036   5.689   4.769 -0.2018  0.3513 -1.9384
16235SOL     OW50188   2.607   7.251   1.302 -0.1024 -0.4330 -0.5203
16235SOL    HW150189   2.593   7.297   1.385 -1.0513 -0.5716 -0.5881
16235SOL    HW250190   2.519   7.246   1.263  0.2577 -0.8191 -1.2919
16236SOL     OW50191   2.129   8.135   5.174  0.2160  0.2317 -0.9756
16236SOL    HW150192   2.203   8.078   5.156  1.3616  2.4472 -3.5300
16236SOL    HW250193   2.136   8.206   5.110 -3.5046  1.0662 -0.6125
16237SOL     OW50194   2.802   4.891   5.229  0.5705 -0.2667  0.3866
16237SOL    HW150195   2.835   4.826   5.166 -1.5584 -0.7159 -0.2861
16237SOL    HW250196   2.761   4.959   5.174 -0.3814 -0.1416  1.2481
16238SOL     OW50197   2.925   2.578   0.947  0.2890  0.2606 -0.5005
16238SOL    HW150198   2.978   2.629   1.008 -0.9795  0.7128  0.2410
16238SOL    HW250199   2.844   2.560   0.994  0.3948 -1.7641 -1.0462
16239SOL     OW50200   4.781   7.284   2.521 -0.1674  0.7937 -0.1618
16239SOL    HW150201   4.783   7.195   2.486  2.5332  1.2596 -1.3399
16239SOL    HW250202   4.707   7.326   2.478 -1.3071 -0.7724  0.2061
16240SOL     OW50203   5.256   7.368   1.157  0.0785 -0.7844 -0.4747
16240SOL    HW150204   5.193   7.397   1.091  1.2924  2.4269 -0.3224
16240SOL    HW250205   5.270   7.445   1.212  1.3325 -2.5380  1.7676
16241SOL     OW50206   3.334   5.465   0.476  0.6070 -0.0282  0.4850
16241SOL    HW150207   3.254   5.465   0.528  0.7268 -0.3570  0.6708
16241SOL    HW250208   3.397   5.514   0.529  0.1808  1.3239 -0.2128
16242SOL     OW50209   2.758   6.457   5.911 -0.0587 -0.2371 -0.2172
16242SOL    HW150210   2.743   6.365   5.933  0.9902 -0.7880 -1.7532
16242SOL    HW250211   2.848   6.460   5.879 -0.8572  0.8873 -2.4599
16243SOL     OW50212   2.199   3.392   2.927 -0.2063 -0.8793 -0.5546
16243SOL    HW150213   2.226   3.303   2.905  0.2215 -0.6091 -1.1206
16243SOL    HW250214   2.258   3.448   2.877 -0.2943 -0.2733  0.0120
16244SOL     OW50215   1.421   7.068   7.934 -0.1072  0.1669  0.0035
16244SOL    HW150216   1.329   7.054   7.956 -0.8279  1.9822 -1.6568
16244SOL    HW250217   1.437   7.012   7.858  0.9038 -2.1172  1.8731
16245SOL     OW50218   0.514   3.836   4.963  0.2314 -0.5961 -0.0020
16245SOL    HW150219   0.438   3.894   4.953  1.6141  1.0296 -1.2504
16245SOL    HW250220   0.509   3.806   5.054 -0.4288  1.5806  0.7074
16246SOL     OW50221   0.655   7.796   5.677 -0.2710 -0.1093  1.1004
16246SOL    HW150222   0.707   7.756   5.747 -1.7716 -2.9490  0.6671
16246SOL    HW250223   0.575   7.826   5.721  0.3289  1.3997  1.2034
16247SOL     OW50224   1.552   3.674   1.029  0.1445 -0.3528  0.2124
16247SOL    HW150225   1.510   3.595   1.064  0.5984  0.0592  1.7137
16247SOL    HW250226   1.524   3.677   0.937 -2.1771 -0.6746  0.8874
16248SOL     OW50227   1.787   0.549   8.149  0.2071 -0.1130  0.4520
16248SOL    HW150228   1.771   0.454   8.154  0.0458 -0.0322  1.6106
16248SOL    HW250229   1.726   0.580   8.083 -0.6125 -0.6438  0.9405
16249SOL     OW50230   6.883   2.244   3.796 -0.1362 -0.5451  0.0678
16249SOL    HW150231   6.799   2.290   3.805  0.2182  0.0148  0.5418
16249SOL    HW250232   6.927   2.289   3.724  0.6524  0.5449  1.2164
16250SOL     OW50233   6.885   2.552   3.386  0.0752 -0.2349  0.1724
16250SOL    HW150234   6.942   2.530   3.312  0.8398  1.4879  0.2257
16250SOL    HW250235   6.926   2.629   3.426 -1.1442 -0.2499  1.4918
16251SOL     OW50236   3.024   1.421   0.302  0.4691 -0.2952  0.0247
16251SOL    HW150237   3.001   1.392   0.214 -0.9878 -1.0539  0.6356
16251SOL    HW250238   3.007   1.515   0.301 -2.9222 -0.8273  0.4690
16252SOL     OW50239   4.232   1.598   7.843  0.1088 -0.1673  0.4841
16252SOL    HW150240   4.161   1.631   7.898 -0.8224 -3.0538  1.1377
16252SOL    HW250241   4.310   1.645   7.873 -1.2466  1.9834  0.7551
16253SOL     OW50242   6.547   1.247   0.060  0.3745 -0.7671  0.7069
16253SOL    HW150243   6.577   1.177   0.002  0.1689  0.3875 -0.8137
16253SOL    HW250244   6.472   1.285   0.015  0.0476 -0.0004  1.8582
16254SOL     OW50245   4.806   0.998   3.406  0.0157 -0.5932  0.1745
16254SOL    HW150246   4.737   0.939   3.436  2.2697 -2.5956  1.6268
16254SOL    HW250247   4.812   1.065   3.474  0.2768 -1.0863  0.6440
16255SOL     OW50248   7.385   5.422   5.893 -0.2062  0.0835 -0.5532
16255SOL    HW150249   7.362   5.489   5.829 -1.5076 -1.3089 -1.5737
16255SOL    HW250250   7.468   5.451   5.930 -1.1936  2.7189 -0.3091
16256SOL     OW50251   6.964   4.068   0.552  0.1462  0.0096 -0.4179
16256SOL    HW150252   7.002   3.986   0.522  0.9622  0.4976 -0.7546
16256SOL    HW250253   6.979   4.130   0.480  0.8153  0.8101  0.3920
16257SOL     OW50254   6.375   0.006   4.947  0.1678  0.4081  0.3862
16257SOL    HW150255   6.383   0.080   4.887  1.4045  0.3865  0.4975
16257SOL    HW250256   6.421   0.034   5.026  1.0611 -0.6464  0.2551
16258SOL     OW50257   7.408   1.159   0.751 -0.2814  0.9317 -0.5619
16258SOL    HW150258   7.490   1.178   0.797 -0.4788 -0.2839  0.3054
16258SOL    HW250259   7.410   1.216   0.674  0.5949  2.1337  0.3331
16259SOL     OW50260   5.108   6.707   1.965 -0.1058  0.0947 -0.3423
16259SOL    HW150261   5.167   6.691   2.039  0.8836 -0.1418 -1.1737
16259SOL    HW250262   5.061   6.787   1.989  1.3108  0.8848 -0.1387
16260SOL     OW50263   2.750   0.291   1.133  0.1041 -0.4682  0.2838
16260SOL    HW150264   2.844   0.300   1.119 -0.0436 -0.2530 -0.6262
16260SOL    HW250265   2.712   0.295   1.045 -0.7219 -0.9563  0.6094
16261SOL     OW50266   0.151   7.933   7.848 -0.2019 -0.5417 -0.2023
16261SOL    HW150267   0.088   7.947   7.918 -0.6228  0.2388 -0.7357
16261SOL    HW250268   0.151   8.015   7.798  1.1703 -0.5722 -0.2546
16262SOL     OW50269   7.891   3.599   5.818  0.2851  0.3384 -0.2191
16262SOL    HW150270   7.805   3.587   5.779 -0.1511  0.0169  0.8289
16262SOL    HW250271   7.924   3.511   5.833 -0.6557  0.3965  2.5124
16263SOL     OW50272   3.673   2.696   6.247  0.4445  0.3445 -0.0835
16263SOL    HW150273   3.712   2.734   6.168  1.3210  0.2533  0.3044
16263SOL    HW250274   3.705   2.751   6.318  1.6363 -1.0427  0.4733
16264SOL     OW50275   4.953   2.469   3.323  0.0241 -0.0015 -0.0017
16264SOL    HW150276   4.988   2.554   3.348  0.8623 -0.4164  0.2406
16264SOL    HW250277   4.943   2.474   3.228  1.4568 -0.1452 -0.1665
16265SOL     OW50278   3.680   5.193   6.313 -0.0131 -0.3764 -0.4786
16265SOL    HW150279   3.750   5.149   6.361 -2.2683 -1.8220  1.5862
16265SOL    HW250280   3.689   5.161   6.224 -1.1183 -4.5338  0.8036
16266SOL     OW50281   3.998   1.326   7.108 -1.0093  0.2126 -0.3140
16266SOL    HW150282   4.078   1.311   7.057 -1.1170 -0.8079 -0.1951
16266SOL    HW250283   4.030   1.365   7.190 -0.6221 -0.3383 -0.2021
16267SOL     OW50284   0.630   4.029   6.208  0.3526  0.3621 -0.1115
16267SOL    HW150285   0.553   4.067   6.250  0.2774  1.9361 -1.6483
16267SOL    HW250286   0.601   3.944   6.176  0.1239 -0.4080  2.0499
16268SOL     OW50287   6.906   0.694   7.801  0.1036 -0.3646  0.0075
16268SOL    HW150288   6.872   0.769   7.752  1.6022  0.0272 -0.4582
16268SOL    HW250289   7.000   0.708   7.804  0.6130 -3.0240 -1.4564
16269SOL     OW50290   7.337   2.600   0.283  0.1408 -0.0283  0.1305
16269SOL    HW150291   7.353   2.694   0.271  0.3628 -0.2562 -1.5435
16269SOL    HW250292   7.242   2.590   0.273 -0.1886  0.3016  2.5782
16270SOL     OW50293   0.609   1.344   7.184  0.1588 -0.0536 -0.1471
16270SOL    HW150294   0.686   1.314   7.233 -0.5797  0.8912  1.6359
16270SOL    HW250295   0.535   1.303   7.228 -0.5725  1.3732 -0.0357
16271SOL     OW50296   0.455   5.692   3.634 -0.2980 -0.1190  0.2031
16271SOL    HW150297   0.453   5.772   3.685 -3.3956 -0.2702  0.4559
16271SOL    HW250298   0.479   5.721   3.545  0.7624  0.7500  0.7605
16272SOL     OW50299   5.270   1.196   6.112  0.2037  0.4174  0.2162
16272SOL    HW150300   5.232   1.127   6.058 -2.4547  1.0845  1.2032
16272SOL    HW250301   5.323   1.248   6.050 -1.2475  0.0463 -1.3698
16273SOL     OW50302   2.696   8.117   0.693  0.7695 -0.0356 -0.2509
16273SOL    HW150303   2.680   8.084   0.605 -0.3799  0.3806 -0.2160
16273SOL    HW250304   2.761   8.057   0.730  0.7841 -0.5892 -1.1532
16274SOL     OW50305   2.715   4.827   1.720  0.5086  0.0280  0.2856
16274SOL    HW150306   2.675   4.745   1.750  2.6926 -0.8091  1.0225
16274SOL    HW250307   2.770   4.801   1.647  0.6778  0.9672  0.0820
16275SOL     OW50308   0.288   7.812   5.612  0.4523  0.3265  0.4003
16275SOL    HW150309   0.339   7.881   5.569  0.6591  0.9237  1.5840
16275SOL    HW250310   0.197   7.829   5.586  0.5434  0.8369  0.4143
16276SOL     OW50311   5.535   5.985   6.193  0.0484 -0.3502  0.2516
16276SOL    HW150312   5.464   6.049   6.193 -0.1453 -0.5268  2.0905
16276SOL    HW250313   5.615   6.038   6.203 -0.0338 -0.3241  0.7829
16277SOL     OW50314   4.173   5.602   3.488 -0.5644 -0.0310 -0.2195
16277SOL    HW150315   4.177   5.531   3.423 -1.4487  0.1184 -0.4415
16277SOL    HW250316   4.265   5.625   3.503 -0.3551  2.7450 -4.5665
16278SOL     OW50317   6.942   5.092   7.499  0.6953 -0.5414 -0.9273
16278SOL    HW150318   6.867   5.042   7.530  2.5493 -2.0736  1.2513
16278SOL    HW250319   6.906   5.177   7.475 -1.6641 -1.1340  0.3540
16279SOL     OW50320   6.329   2.326   1.664 -0.6846  0.0755 -0.1691
16279SOL    HW150321   6.260   2.263   1.684 -1.7383  1.3017  0.1191
16279SOL    HW250322   6.286   2.393   1.610  0.4702  0.4285 -0.6817
16280SOL     OW50323   1.993   0.573   1.747  0.4828  0.5855 -0.2710
16280SOL    HW150324   1.910   0.589   1.793  0.5802  0.6051 -0.1045
16280SOL    HW250325   2.045   0.522   1.808  0.6901  0.7859 -0.2808
16281SOL     OW50326   3.287   3.717   7.183 -0.0007  0.1705 -0.0272
16281SOL    HW150327   3.271   3.790   7.123 -0.9663  1.4679  1.7476
16281SOL    HW250328   3.221   3.728   7.252  1.3188 -1.0519  1.4643
16282SOL     OW50329   2.740   3.455   7.361 -0.1841  0.0066  0.0467
16282SOL    HW150330   2.835   3.468   7.354  0.1516 -2.2014 -0.0015
16282SOL    HW250331   2.709   3.529   7.413  1.5553  0.7946  0.0079
16283SOL     OW50332   1.042   5.276   4.690  0.1510  0.6252 -0.3225
16283SOL    HW150333   1.130   5.293   4.724  0.4609 -0.0319 -0.7918
16283SOL    HW250334   1.025   5.347   4.629  0.2152  0.9418  0.0264
16284SOL     OW50335   7.410   3.857   7.052 -0.2895  0.1600 -0.1434
16284SOL    HW150336   7.420   3.943   7.012 -0.3492  0.3153  0.1793
16284SOL    HW250337   7.317   3.849   7.071 -0.6052 -0.8094 -2.0499
16285SOL     OW50338   6.599   0.322   1.856 -0.2298 -0.8578  0.1160
16285SOL    HW150339   6.663   0.283   1.797 -1.9516 -1.5398 -1.3468
16285SOL    HW250340   6.562   0.247   1.903  1.4199 -0.2856  2.4196
16286SOL     OW50341   5.688   5.688   7.170  0.1646  0.2136 -0.1936
16286SOL    HW150342   5.656   5.644   7.249  0.3831  1.5727  0.6470
16286SOL    HW250343   5.671   5.781   7.185  1.6466  0.6377 -1.0730
16287SOL     OW50344   6.702   8.183   7.123 -0.1542 -0.1206  0.0717
16287SOL    HW150345   6.772   8.188   7.058 -0.2896  0.5717 -0.0179
16287SOL    HW250346   6.625   8.220   7.080  0.1044  1.6645  1.0870
16288SOL     OW50347   2.926   7.028   2.779 -0.2881 -0.4595  0.3067
16288SOL    HW150348   2.845   6.984   2.754 -0.4137 -2.0559  3.2812
16288SOL    HW250349   2.957   6.978   2.855  4.2533 -0.8019 -1.6393
16289SOL     OW50350   8.090   3.707   1.631  0.6029  0.3343  0.1198
16289SOL    HW150351   8.066   3.725   1.722  0.0906 -0.6022  0.1689
16289SOL    HW250352   8.163   3.646   1.637  1.0344  0.8281 -0.0856
16290SOL     OW50353   1.707   4.181   5.011  0.2270 -0.3898  0.3758
16290SOL    HW150354   1.736   4.261   5.054  1.9811 -1.3638  1.0727
16290SOL    HW250355   1.664   4.210   4.931  0.4163  1.2608  0.8658
16291SOL     OW50356   4.069   7.151   2.745  0.0019 -0.0583 -0.2698
16291SOL    HW150357   4.143   7.091   2.734 -1.5626 -1.6211 -2.8861
16291SOL    HW250358   4.005   7.101   2.795  0.3512  0.9800  1.2344
16292SOL     OW50359   3.154   8.184   4.069  0.2652  0.2377 -0.1796
16292SOL    HW150360   3.218   8.135   4.121 -0.1641 -0.1295  0.0053
16292SOL    HW250361   3.092   8.117   4.038 -1.5847  0.9293  1.8935
16293SOL     OW50362   6.391   7.076   6.665 -0.7612 -0.6182  0.0214
16293SOL    HW150363   6.396   7.158   6.714 -0.5845 -0.1238 -0.8243
16293SOL    HW250364   6.421   7.009   6.727 -2.6405 -0.3099  1.3176
16294SOL     OW50365   7.900   6.458   5.276  0.7184 -0.2886  0.3177
16294SOL    HW150366   7.995   6.460   5.285  0.6388  0.2365  1.1152
16294SOL    HW250367   7.867   6.476   5.365 -0.1467  2.8529 -0.5819
16295SOL     OW50368   2.650   3.993   3.337  0.1497  0.1543 -0.3436
16295SOL    HW150369   2.648   4.031   3.249 -0.6912  1.8017  0.3649
16295SOL    HW250370   2.587   3.921   3.333 -0.5218  0.7612 -0.8607
16296SOL     OW50371   6.369   3.981   2.182  0.1547 -0.2409  0.1506
16296SOL    HW150372   6.433   3.919   2.216  0.5335 -0.4243 -0.8858
16296SOL    HW250373   6.388   3.987   2.089 -1.3998 -0.3766 -0.1936
16297SOL     OW50374   5.619   1.805   4.351  0.3601 -0.0892 -0.2584
16297SOL    HW150375   5.580   1.858   4.420 -1.2163 -1.2214 -0.2418
16297SOL    HW250376   5.705   1.781   4.385 -0.4204 -0.6925  1.3647
16298SOL     OW50377   4.591   5.578   7.967 -0.1867 -0.5035 -0.3342
16298SOL    HW150378   4.598   5.526   8.048  0.7493  0.1085 -0.0097
16298SOL    HW250379   4.497   5.584   7.950 -0.3148 -2.9501 -0.7945
16299SOL     OW50380   2.334   7.707   1.548  0.0191  0.7205  0.0613
16299SOL    HW150381   2.398   7.644   1.516 -0.0340  1.4493 -1.4915
16299SOL    HW250382   2.359   7.721   1.640 -0.6921 -2.4095  0.7570
16300SOL     OW50383   1.579   4.628   6.414 -0.2066  0.3059 -0.3280
16300SOL    HW150384   1.652   4.573   6.441  0.2005  0.3213 -1.3723
16300SOL    HW250385   1.577   4.620   6.318 -2.1468 -0.4380 -0.2480
16301SOL     OW50386   2.998   5.581   7.914  0.5213  0.0169 -0.0942
16301SOL    HW150387   3.085   5.547   7.934  0.3903 -0.3373 -0.1086
16301SOL    HW250388   2.977   5.639   7.987  0.5191 -0.3688  0.2122
16302SOL     OW50389   2.435   5.193   1.404  0.0473 -0.3738  0.8103
16302SOL    HW150390   2.497   5.248   1.358  1.8028 -0.6215  2.8195
16302SOL    HW250391   2.481   5.110   1.416 -2.4215 -2.2431 -1.8702
16303SOL     OW50392   1.509   6.290   1.481 -0.1640 -0.3973 -0.0012
16303SOL    HW150393   1.571   6.362   1.465 -0.3606  0.2826  2.0584
16303SOL    HW250394   1.478   6.305   1.571 -2.4207 -1.4082 -0.5719
16304SOL     OW50395   1.472   4.722   7.533 -0.1152 -0.0404 -0.0602
16304SOL    HW150396   1.384   4.740   7.567 -0.0786 -1.6077  0.9242
16304SOL    HW250397   1.458   4.657   7.464  0.3433 -1.1339  0.8470
16305SOL     OW50398   8.021   0.595   5.084 -0.4482 -0.9866  0.5869
16305SOL    HW150399   7.938   0.639   5.064 -0.5742 -0.8592  1.3670
16305SOL    HW250400   8.088   0.650   5.043 -0.8218 -1.7039 -1.0289
16306SOL     OW50401   5.701   3.284   2.516  0.0367  0.1926  0.2074
16306SOL    HW150402   5.734   3.315   2.601  1.0664  0.3601 -0.2358
16306SOL    HW250403   5.656   3.202   2.536 -3.0295  2.1185  1.4508
16307SOL     OW50404   6.056   4.019   0.612 -0.2692  0.3450  0.3288
16307SOL    HW150405   6.009   3.935   0.612 -0.5407  0.4887 -0.7478
16307SOL    HW250406   6.117   4.012   0.685 -0.2972 -0.7939  0.2573
16308SOL     OW50407   2.644   5.413   0.918 -0.4623  0.0116 -0.2784
16308SOL    HW150408   2.644   5.403   1.013  0.3652 -0.7502 -0.3620
16308SOL    HW250409   2.670   5.504   0.904 -1.6770  0.4625  0.2476
16309SOL     OW50410   7.201   2.337   6.063 -0.3196  0.4292 -0.1073
16309SOL    HW150411   7.237   2.425   6.073 -1.0820  0.9824 -2.0708
16309SOL    HW250412   7.186   2.327   5.969  0.5062 -2.1096 -0.0091
16310SOL     OW50413   5.942   3.656   7.555 -0.1389  0.2378 -0.3387
16310SOL    HW150414   5.957   3.577   7.504  0.1563  1.3628 -2.0335
16310SOL    HW250415   5.851   3.648   7.585  0.0188 -0.9268 -0.1544
16311SOL     OW50416   2.723   4.353   1.728  0.5827  0.0972  0.2243
16311SOL    HW150417   2.711   4.311   1.813 -0.4806  1.2174  0.6479
16311SOL    HW250418   2.690   4.442   1.741  1.0333  0.4810 -1.1776
16312SOL     OW50419   3.064   1.464   7.858 -0.2698 -0.2716  0.2229
16312SOL    HW150420   3.035   1.391   7.913 -0.9221 -0.9543 -0.9969
16312SOL    HW250421   2.987   1.520   7.850  0.0209  0.1744  0.5608
16313SOL     OW50422   4.503   1.016   2.952 -0.0067 -0.1481  0.0302
16313SOL    HW150423   4.588   1.045   2.920 -1.4274  2.4046 -1.6045
16313SOL    HW250424   4.457   0.986   2.874 -0.8344 -0.9555  0.8126
16314SOL     OW50425   0.901   3.692   0.293  0.4983 -0.1038  0.9724
16314SOL    HW150426   0.909   3.702   0.198  0.5342  0.8284  1.0697
16314SOL    HW250427   0.952   3.765   0.329 -0.6606  0.3793  1.6882
16315SOL     OW50428   0.104   7.624   5.410  0.0047 -0.1501  0.6089
16315SOL    HW150429   0.069   7.656   5.327  2.0732  1.8543  0.4667
16315SOL    HW250430   0.090   7.696   5.471  1.8305 -0.1796  1.0867
16316SOL     OW50431   1.872   2.064   7.336  0.1139 -0.6640  0.0605
16316SOL    HW150432   1.875   2.043   7.243  1.8844 -1.0799  0.1934
16316SOL    HW250433   1.942   2.128   7.348  0.7061 -1.5560  1.3415
16317SOL     OW50434   3.829   4.899   2.463  0.3837  0.4005  0.4553
16317SOL    HW150435   3.808   4.912   2.371 -1.4777  0.2775  0.8548
16317SOL    HW250436   3.788   4.973   2.508 -0.1607 -0.4580  1.3829
16318SOL     OW50437   7.816   0.390   5.890 -0.1011 -0.0597  0.1821
16318SOL    HW150438   7.824   0.422   5.800 -0.9709  0.5853  0.3299
16318SOL    HW250439   7.879   0.442   5.940  0.8111 -0.8343 -0.1626
16319SOL     OW50440   6.057   2.230   3.506  0.1194 -0.4344  0.1224
16319SOL    HW150441   6.066   2.324   3.523 -2.8293 -0.5981  3.3343
16319SOL    HW250442   6.109   2.189   3.575 -0.4178 -1.1240  0.1209
16320SOL     OW50443   3.902   7.575   1.647 -0.5807  0.5876 -0.4146
16320SOL    HW150444   3.865   7.547   1.564  1.7681  1.0021 -1.6207
16320SOL    HW250445   3.930   7.665   1.633  0.7390  0.3403  0.5107
16321SOL     OW50446   4.332   1.936   2.797  0.1400  0.3906 -0.5904
16321SOL    HW150447   4.308   1.876   2.868  0.6683 -0.2843 -0.9753
16321SOL    HW250448   4.399   1.993   2.834  0.7880 -0.2984 -0.7001
16322SOL     OW50449   5.578   4.597   4.053  0.1404  0.1324 -0.3961
16322SOL    HW150450   5.556   4.523   4.110 -0.1963  0.7908  0.3426
16322SOL    HW250451   5.640   4.649   4.105 -0.8990  1.2404 -0.2437
16323SOL     OW50452   2.055   2.841   1.296 -0.1273 -0.0194  0.2965
16323SOL    HW150453   2.124   2.787   1.258 -0.5567 -0.6197  0.3680
16323SOL    HW250454   1.987   2.845   1.229 -0.6539 -0.6355  0.7849
16324SOL     OW50455   4.943   1.352   3.177 -0.0519  0.1564 -0.1013
16324SOL    HW150456   4.873   1.299   3.138  0.0368 -0.1371  0.1352
16324SOL    HW250457   4.904   1.439   3.188 -0.2497  0.1006 -0.3451
16325SOL     OW50458   0.860   5.322   7.801 -0.2761  0.7966 -0.2605
16325SOL    HW150459   0.861   5.295   7.709  0.9241  2.4537 -0.7418
16325SOL    HW250460   0.879   5.415   7.799  0.2561  0.7514  1.7183
16326SOL     OW50461   6.207   6.553   4.028  0.2918  0.5335  0.5226
16326SOL    HW150462   6.229   6.493   3.957  0.2247  0.7917  0.2861
16326SOL    HW250463   6.260   6.522   4.102  0.5453  0.4170  0.2939
16327SOL     OW50464   4.372   7.231   0.836  0.1646  0.1944 -0.5637
16327SOL    HW150465   4.330   7.213   0.921  2.0205  1.7081  0.7151
16327SOL    HW250466   4.355   7.324   0.821 -0.9955 -0.2897 -2.3658
16328SOL     OW50467   6.599   7.530   0.778  0.2475 -0.2902 -0.5012
16328SOL    HW150468   6.655   7.492   0.847  1.6682 -1.0683 -2.0562
16328SOL    HW250469   6.635   7.495   0.696 -2.3923 -0.5875 -1.5585
16329SOL     OW50470   4.361   7.663   2.706  0.1064  0.0380  0.7479
16329SOL    HW150471   4.442   7.706   2.733 -0.3013  0.9962  0.4751
16329SOL    HW250472   4.358   7.677   2.611  0.9578 -2.3140  0.3394
16330SOL     OW50473   2.504   7.612   6.555  0.7376  0.4965 -0.2609
16330SOL    HW150474   2.416   7.617   6.592 -0.1373  0.2509 -2.2473
16330SOL    HW250475   2.512   7.690   6.500  0.3097 -1.3617 -3.0833
16331SOL     OW50476   1.389   5.905   0.908 -0.2217  0.2503 -0.3477
16331SOL    HW150477   1.412   5.897   1.000 -0.7376 -0.6164 -0.2992
16331SOL    HW250478   1.327   5.978   0.905 -0.5653 -0.0236  0.0517
16332SOL     OW50479   4.971   0.343   8.185 -0.1376 -0.4529 -0.0360
16332SOL    HW150480   4.895   0.307   8.232 -0.4503 -0.8714 -0.8556
16332SOL    HW250481   4.940   0.428   8.153 -0.6686 -1.1604 -1.4247
16333SOL     OW50482   8.185   1.756   7.219  0.4014 -0.1369 -0.2717
16333SOL    HW150483   8.180   1.741   7.313 -1.2589 -0.6403 -0.4208
16333SOL    HW250484   8.275   1.732   7.195  0.8708  0.1415  1.1955
16334SOL     OW50485   3.025   8.028   3.838 -0.3642  0.0480  0.2655
16334SOL    HW150486   2.987   7.947   3.872  0.7331 -0.4244  0.4013
16334SOL    HW250487   2.952   8.090   3.835 -1.0424 -0.7140  0.9057
16335SOL     OW50488   3.391   6.905   2.705  0.7221 -0.2738  0.3420
16335SOL    HW150489   3.458   6.972   2.720  0.6624 -0.2819  0.6515
16335SOL    HW250490   3.428   6.848   2.637  0.9789 -0.2120  0.4298
16336SOL     OW50491   0.647   4.437   6.987  0.1111 -0.8627 -0.0161
16336SOL    HW150492   0.716   4.469   7.046  1.2200  0.2991 -1.8949
16336SOL    HW250493   0.681   4.354   6.953 -0.4019 -1.3874  0.7288
16337SOL     OW50494   4.182   8.194   6.778 -0.5625  0.0059  0.2292
16337SOL    HW150495   4.119   8.265   6.762 -0.0132  0.2170 -1.0886
16337SOL    HW250496   4.152   8.124   6.720 -1.1457 -0.8737  1.5829
16338SOL     OW50497   0.205   7.637   3.473 -0.0481  0.2573 -0.3202
16338SOL    HW150498   0.110   7.622   3.474 -0.0833  0.4707 -0.5024
16338SOL    HW250499   0.222   7.686   3.553 -0.2225  1.0256 -0.7538
16339SOL     OW50500   7.024   7.306   3.617 -0.0529  0.6279  0.1656
16339SOL    HW150501   7.003   7.265   3.533  1.6728  1.2950 -0.6227
16339SOL    HW250502   7.088   7.246   3.657  0.1980  1.0323  0.3700
16340SOL     OW50503   1.859   7.771   1.399  0.1289 -0.1310  0.6897
16340SOL    HW150504   1.769   7.752   1.371  1.4195 -2.8711 -1.9661
16340SOL    HW250505   1.869   7.723   1.482 -0.4222 -1.0726  0.2233
16341SOL     OW50506   6.365   5.993   0.370 -0.1247  0.2721 -0.4574
16341SOL    HW150507   6.328   5.907   0.390 -1.0080  1.0033  1.1334
16341SOL    HW250508   6.410   6.019   0.451  0.6214  1.0625 -1.1148
16342SOL     OW50509   0.837   6.561   4.501 -0.3893  0.1496 -1.0472
16342SOL    HW150510   0.789   6.478   4.496  0.1523 -0.2784  0.7084
16342SOL    HW250511   0.913   6.548   4.444  0.5792 -1.1799  0.4941
16343SOL     OW50512   3.355   0.386   7.063 -0.0338  0.3093 -0.5974
16343SOL    HW150513   3.389   0.473   7.084  0.6970 -0.1824  0.2448
16343SOL    HW250514   3.333   0.391   6.970  2.0111  0.7310 -1.0672
16344SOL     OW50515   4.446   4.875   4.447 -0.4208  0.2116 -0.2050
16344SOL    HW150516   4.452   4.920   4.532  0.8510  0.9609 -0.6808
16344SOL    HW250517   4.507   4.801   4.455 -0.1700  0.3843 -0.5296
16345SOL     OW50518   3.708   3.840   4.011  0.3825 -0.2873  0.5590
16345SOL    HW150519   3.622   3.811   3.981  0.4327 -2.1817  2.1475
16345SOL    HW250520   3.711   3.933   3.990 -1.7268 -0.3777 -0.2475
16346SOL     OW50521   6.153   5.774   5.788  0.3660  0.3449 -0.7519
16346SOL    HW150522   6.067   5.735   5.772  0.7036  0.5130 -3.0864
16346SOL    HW250523   6.156   5.785   5.883 -1.9961 -0.1070 -0.5829
16347SOL     OW50524   6.116   4.634   3.153  0.2731  0.3535 -0.4435
16347SOL    HW150525   6.075   4.703   3.205 -0.2618 -1.0259  0.9827
16347SOL    HW250526   6.061   4.628   3.075 -1.2108 -0.2174  0.6072
16348SOL     OW50527   2.456   0.059   5.600  0.0656  0.0405 -0.4527
16348SOL    HW150528   2.381   0.110   5.568 -0.2859  0.5348  1.1029
16348SOL    HW250529   2.494   0.020   5.521 -1.6999 -0.0391 -1.2906
16349SOL     OW50530   4.682   0.194   2.524 -0.1988  0.1373  0.2100
16349SOL    HW150531   4.709   0.282   2.498  2.1265 -0.6010  0.0481
16349SOL    HW250532   4.761   0.141   2.516 -1.8417 -2.2642 -0.9353
16350SOL     OW50533   0.076   3.042   5.531 -0.0409 -0.2082  0.0842
16350SOL    HW150534   0.087   2.952   5.500  1.6129  0.3889 -1.1218
16350SOL    HW250535   0.013   3.080   5.469  0.1985 -0.1780 -0.1413
16351SOL     OW50536   2.823   0.626   0.320  0.5493  0.1667 -0.1102
16351SOL    HW150537   2.855   0.713   0.295  0.9664 -0.4304 -1.7394
16351SOL    HW250538   2.746   0.613   0.265  0.1306 -0.2498  0.5750
16352SOL     OW50539   2.156   2.333   4.956 -0.2294 -0.1273  0.5785
16352SOL    HW150540   2.106   2.257   4.925  0.7355 -0.9805  1.1002
16352SOL    HW250541   2.093   2.381   5.010 -0.7528 -0.7259  0.5199
16353SOL     OW50542   5.430   4.080   2.626  0.2443  0.1910  0.2618
16353SOL    HW150543   5.369   4.137   2.578  0.5193  2.7315  2.7818
16353SOL    HW250544   5.489   4.046   2.559 -0.4131  2.3044 -1.4528
16354SOL     OW50545   1.679   5.216   1.780  0.0004 -0.2484 -0.5774
16354SOL    HW150546   1.669   5.309   1.763 -1.7482 -0.3698 -0.3792
16354SOL    HW250547   1.595   5.178   1.752  0.2596 -1.5931  0.4052
16355SOL     OW50548   8.287   5.192   5.680  0.2040  0.2598 -0.2426
16355SOL    HW150549   8.373   5.181   5.640  1.8373  2.7950  2.3442
16355SOL    HW250550   8.265   5.284   5.664 -0.5849  0.4506  1.7757
16356SOL     OW50551   1.030   7.890   5.914 -0.0340 -0.5518  0.3452
16356SOL    HW150552   1.096   7.957   5.897 -0.2089 -0.6148 -0.6244
16356SOL    HW250553   0.951   7.938   5.938  0.1742 -0.4552  0.8492
16357SOL     OW50554   7.081   3.886   2.332  0.5549 -0.6547 -0.3944
16357SOL    HW150555   7.006   3.846   2.376  0.4484 -0.2938 -0.2491
16357SOL    HW250556   7.069   3.865   2.239  0.6917 -1.2757 -0.2703
16358SOL     OW50557   2.807   4.189   8.201 -0.2147 -0.1565  0.5455
16358SOL    HW150558   2.853   4.122   8.150 -0.9008 -2.0047  2.2736
16358SOL    HW250559   2.714   4.171   8.186 -0.4221  1.8138 -0.7178
16359SOL     OW50560   7.098   3.926   6.761 -0.4553 -0.5459  0.0094
16359SOL    HW150561   7.004   3.916   6.774 -0.5708  1.2216  0.7126
16359SOL    HW250562   7.121   4.003   6.814  1.5782 -1.6495  0.7953
16360SOL     OW50563   7.794   1.618   3.626 -0.2207 -0.0419 -0.5086
16360SOL    HW150564   7.819   1.550   3.690 -3.1077 -1.5122 -0.8710
16360SOL    HW250565   7.800   1.700   3.675  0.1207 -0.8800  0.8987
16361SOL     OW50566   7.751   2.605   4.014  0.1858  0.5358  0.8768
16361SOL    HW150567   7.840   2.608   4.050  0.9663 -0.1164 -0.9742
16361SOL    HW250568   7.760   2.631   3.923 -1.3935 -0.4847  0.4030
16362SOL     OW50569   6.674   7.797   0.741 -0.1200 -0.2393  0.5991
16362SOL    HW150570   6.664   7.702   0.733  0.3913 -0.2694  0.2317
16362SOL    HW250571   6.766   7.813   0.719 -0.1421  0.3157  0.8967
16363SOL     OW50572   7.278   0.664   1.189  0.2769  0.0849 -0.3989
16363SOL    HW150573   7.366   0.642   1.157 -0.0301 -0.3374 -0.9582
16363SOL    HW250574   7.289   0.748   1.233  0.8867  0.2236 -0.8112
16364SOL     OW50575   4.265   1.273   1.794  0.1006 -0.2044 -0.0464
16364SOL    HW150576   4.279   1.367   1.785  0.8648 -0.4205 -1.2875
16364SOL    HW250577   4.342   1.242   1.841  1.2828 -0.6150 -2.1882
16365SOL     OW50578   1.840   5.738   1.121  0.0852  0.2600  1.1016
16365SOL    HW150579   1.847   5.660   1.067 -0.3918  0.9495  0.0106
16365SOL    HW250580   1.827   5.706   1.210  0.6805 -0.8929  0.7704
16366SOL     OW50581   0.011   7.419   7.897 -0.3253  0.0199  0.6765
16366SOL    HW150582   0.044   7.508   7.908 -0.0719 -0.0701  0.6469
16366SOL    HW250583   0.036   7.373   7.977  0.9414 -0.4552  0.0301
16367SOL     OW50584   1.232   1.773   2.972  0.0552  0.6099 -0.1672
16367SOL    HW150585   1.276   1.809   3.050  0.7073 -0.9022  0.1760
16367SOL    HW250586   1.140   1.797   2.983  0.3529  1.5095  0.4309
16368SOL     OW50587   5.407   3.488   4.344 -0.0091  0.4803  0.1354
16368SOL    HW150588   5.409   3.414   4.404 -1.2093 -0.7279 -1.2638
16368SOL    HW250589   5.421   3.565   4.400  0.7985 -0.7602  1.6627
16369SOL     OW50590   7.929   2.572   5.723  0.1342 -0.2196  0.0602
16369SOL    HW150591   7.848   2.521   5.722 -0.4417  0.6843  0.7182
16369SOL    HW250592   7.985   2.528   5.659 -0.7147 -1.1027 -0.0883
16370SOL     OW50593   0.476   1.812   4.183 -0.7650 -0.4367 -0.0667
16370SOL    HW150594   0.545   1.851   4.130  0.1197 -0.3599  1.1289
16370SOL    HW250595   0.444   1.738   4.131 -0.4728  0.1259 -1.0569
16371SOL     OW50596   3.299   8.065   3.524  0.0719  0.6962  0.6980
16371SOL    HW150597   3.239   8.079   3.597 -0.5396  0.9708  0.1435
16371SOL    HW250598   3.242   8.046   3.450  0.6369  1.8848 -0.0441
16372SOL     OW50599   4.370   5.974   1.394 -0.2294 -0.1012  0.6625
16372SOL    HW150600   4.371   6.069   1.378  0.4970 -0.4933 -1.8163
16372SOL    HW250601   4.279   5.949   1.378  0.2765 -0.3280 -2.2574
16373SOL     OW50602   0.215   4.781   1.358  0.4243  0.2506  0.1095
16373SOL    HW150603   0.183   4.692   1.342  1.6607 -0.3137  0.6527
16373SOL    HW250604   0.305   4.779   1.326  0.5013  1.2750  0.2613
16374SOL     OW50605   2.475   1.843   1.127  0.2871  0.1477  0.4429
16374SOL    HW150606   2.383   1.860   1.146  0.3409  1.7303 -0.5715
16374SOL    HW250607   2.520   1.925   1.149  1.2004 -0.0591 -0.5892
16375SOL     OW50608   5.596   3.863   6.124  0.5597 -0.1828 -0.2925
16375SOL    HW150609   5.628   3.948   6.156  2.6863 -0.9055 -0.4342
16375SOL    HW250610   5.520   3.885   6.069  0.3788  1.5222  0.6167
16376SOL     OW50611   1.737   4.121   6.001  0.6888  0.3146 -0.3340
16376SOL    HW150612   1.764   4.062   6.071  0.5169  0.5064 -0.1074
16376SOL    HW250613   1.654   4.084   5.969  0.1946  0.8486  0.3075
16377SOL     OW50614   6.088   1.690   2.929 -0.2994 -0.6618  0.1889
16377SOL    HW150615   6.040   1.732   2.858  1.4808 -0.9468 -1.2078
16377SOL    HW250616   6.103   1.760   2.993 -0.7998 -0.1164 -0.2921
16378SOL     OW50617   6.192   8.216   3.083  0.5242  1.0936  0.6663
16378SOL    HW150618   6.274   8.240   3.041  0.8748 -1.5379 -0.2654
16378SOL    HW250619   6.217   8.191   3.172  0.4470  2.1486  0.9897
16379SOL     OW50620   5.458   6.019   1.410  0.2095 -0.1995 -0.1615
16379SOL    HW150621   5.397   5.949   1.383  0.1180 -0.2113  0.0816
16379SOL    HW250622   5.528   5.973   1.456  0.6564 -0.2409 -0.8673
16380SOL     OW50623   4.544   4.600   5.428  0.3020 -0.3155  0.1930
16380SOL    HW150624   4.575   4.676   5.477 -0.4816 -0.5822  1.1268
16380SOL    HW250625   4.465   4.630   5.384  1.6693  0.2743 -1.9351
16381SOL     OW50626   6.037   2.247   3.024  0.4970 -0.6442 -0.1151
16381SOL    HW150627   6.088   2.177   2.983 -0.5801 -0.4245 -1.9192
16381SOL    HW250628   6.103   2.310   3.053  1.3688 -1.4079 -0.3995
16382SOL     OW50629   0.193   0.373   5.885 -0.4001  0.6589 -0.4799
16382SOL    HW150630   0.237   0.443   5.933  1.9472  0.3572 -2.0956
16382SOL    HW250631   0.263   0.312   5.863 -2.4886 -2.4840  1.3392
16383SOL     OW50632   0.263   4.149   6.610 -0.2530  0.1272 -0.0101
16383SOL    HW150633   0.264   4.086   6.682 -0.2412  0.3588  0.1917
16383SOL    HW250634   0.355   4.173   6.598 -0.0768 -1.0125 -1.0691
16384SOL     OW50635   6.928   6.708   6.534 -0.0203  0.2846  0.3419
16384SOL    HW150636   6.956   6.617   6.523 -0.5352  0.2719 -0.9282
16384SOL    HW250637   6.963   6.733   6.620 -0.1722 -1.2117  0.8662
16385SOL     OW50638   3.396   4.543   3.934 -0.3544 -0.0956  0.5050
16385SOL    HW150639   3.380   4.448   3.934 -1.5776  0.0991 -0.3787
16385SOL    HW250640   3.405   4.565   3.842 -1.2689  0.8341  0.6300
16386SOL     OW50641   1.719   4.941   8.010 -0.2362  0.2788 -0.1241
16386SOL    HW150642   1.697   4.859   8.055 -0.0857 -0.3342 -1.1457
16386SOL    HW250643   1.791   4.977   8.060 -1.0796  0.3857  1.0267
16387SOL     OW50644   7.031   7.158   5.682 -0.0150 -0.3285  0.0915
16387SOL    HW150645   7.102   7.205   5.727  0.1955 -1.9264  1.4638
16387SOL    HW250646   7.018   7.207   5.601  1.6623  0.8479  0.5039
16388SOL     OW50647   1.493   3.984   5.456 -0.6440 -0.0318 -0.1217
16388SOL    HW150648   1.551   4.036   5.511 -0.9157  1.6182 -1.3725
16388SOL    HW250649   1.538   3.979   5.371 -0.9927 -1.1687 -0.2602
16389SOL     OW50650   5.533   6.095   4.668  0.1600  0.1022  0.7484
16389SOL    HW150651   5.615   6.112   4.621 -0.8700 -0.2228 -1.1719
16389SOL    HW250652   5.516   6.177   4.715  2.5822 -0.4723  2.7361
16390SOL     OW50653   6.617   7.227   6.704  0.1986  0.2151 -0.0630
16390SOL    HW150654   6.652   7.216   6.616 -0.6859 -0.2132 -0.3667
16390SOL    HW250655   6.572   7.311   6.702 -0.0522  0.0798 -0.0932
16391SOL     OW50656   5.559   4.652   5.560 -0.0525  0.1377  0.6324
16391SOL    HW150657   5.496   4.606   5.504 -0.1351 -1.1017  1.7178
16391SOL    HW250658   5.604   4.712   5.501  0.8982 -2.2077 -1.0963
16392SOL     OW50659   7.963   4.997   2.591 -0.6017 -0.2008 -0.5830
16392SOL    HW150660   8.047   4.951   2.583  0.2408  1.2846 -0.4281
16392SOL    HW250661   7.927   4.966   2.674 -0.1806 -0.8145 -0.6257
16393SOL     OW50662   4.233   1.168   6.496 -0.0471 -0.1756  0.6296
16393SOL    HW150663   4.294   1.231   6.533 -0.1894 -0.0237  0.6030
16393SOL    HW250664   4.170   1.151   6.566 -1.8388  2.0643 -0.3912
16394SOL     OW50665   4.370   4.108   5.484 -0.1488  0.6213  0.5727
16394SOL    HW150666   4.463   4.131   5.477 -0.0052  0.3373  1.4943
16394SOL    HW250667   4.345   4.085   5.395  0.7647  0.3487  0.3767
16395SOL     OW50668   0.272   6.204   1.453 -0.7112 -0.1097 -0.3349
16395SOL    HW150669   0.190   6.243   1.423  1.1798  3.3439 -1.3220
16395SOL    HW250670   0.309   6.163   1.375 -0.4347  0.2678 -0.3996
16396SOL     OW50671   8.016   4.755   5.639  0.0425  0.3875  0.0135
16396SOL    HW150672   7.949   4.725   5.701  1.1460 -0.1129  0.9600
16396SOL    HW250673   8.089   4.784   5.693  0.4476  1.3241 -1.0108
16397SOL     OW50674   7.307   7.613   1.115  0.1345 -0.1189  0.0754
16397SOL    HW150675   7.382   7.581   1.166 -0.0574 -0.9737 -0.1684
16397SOL    HW250676   7.317   7.570   1.030 -0.1690  0.4252 -0.2358
16398SOL     OW50677   7.048   1.553   5.688 -0.0318 -0.1743 -0.3741
16398SOL    HW150678   6.981   1.487   5.706 -0.5201  0.2591 -0.6127
16398SOL    HW250679   7.106   1.549   5.764  0.7943 -1.9181 -1.0468
16399SOL     OW50680   6.497   1.561   3.035 -0.1516 -0.3653 -0.6576
16399SOL    HW150681   6.551   1.528   2.964 -1.6252 -3.7220 -0.2972
16399SOL    HW250682   6.546   1.541   3.115 -0.7652 -1.1369 -0.4675
16400SOL     OW50683   3.492   3.546   4.182 -0.0752 -0.3627 -0.2654
16400SOL    HW150684   3.490   3.451   4.175 -0.3454 -0.3301 -0.6481
16400SOL    HW250685   3.556   3.564   4.251  0.0019 -0.8187 -0.2180
16401SOL     OW50686   7.696   2.826   2.237  0.2663  0.0697  0.1393
16401SOL    HW150687   7.756   2.868   2.176 -0.5782 -2.3521 -2.4942
16401SOL    HW250688   7.750   2.761   2.283 -0.1013 -1.5843 -1.6904
16402SOL     OW50689   5.743   2.779   2.288  0.4189  0.0212  0.7317
16402SOL    HW150690   5.652   2.782   2.258  1.0568  0.0623 -1.2933
16402SOL    HW250691   5.737   2.778   2.384 -1.6578  2.9350  0.7190
16403SOL     OW50692   7.007   3.046   7.613 -0.0400 -0.9494 -0.1220
16403SOL    HW150693   6.987   2.992   7.689 -0.2839  1.4052  1.5621
16403SOL    HW250694   7.099   3.070   7.624 -0.7943  1.6063  0.9141
16404SOL     OW50695   8.041   0.170   3.138 -0.6346  0.1418 -0.1307
16404SOL    HW150696   7.950   0.190   3.159  0.3163  2.4751  2.0040
16404SOL    HW250697   8.071   0.113   3.210 -0.1231  0.2390 -0.2624
16405SOL     OW50698   4.669   8.002   2.307  0.3786 -0.2875 -0.3216
16405SOL    HW150699   4.703   8.060   2.238 -0.6627  0.3376 -0.3082
16405SOL    HW250700   4.576   7.994   2.289 -0.1203  0.7249  1.6201
16406SOL     OW50701   7.067   6.194   0.590  0.1298 -0.3072  0.1447
16406SOL    HW150702   6.993   6.228   0.541  0.9482  1.4607  0.1223
16406SOL    HW250703   7.067   6.244   0.672  0.7523 -0.9448  0.5419
16407SOL     OW50704   5.045   4.757   8.202  0.3823  0.0200  0.3765
16407SOL    HW150705   5.097   4.830   8.234  0.6694 -0.1971  0.4037
16407SOL    HW250706   5.083   4.736   8.117 -0.3800  0.5975 -0.1199
16408SOL     OW50707   2.695   7.767   3.609  0.2589 -0.3711 -0.6210
16408SOL    HW150708   2.761   7.712   3.651  0.7893  0.0437 -0.9130
16408SOL    HW250709   2.620   7.709   3.597 -0.3903 -0.1560  2.1353
16409SOL     OW50710   2.751   3.053   1.692 -0.1199  0.0396  0.4537
16409SOL    HW150711   2.790   3.062   1.778 -0.1105  0.6643  0.3844
16409SOL    HW250712   2.668   3.101   1.698 -1.3912 -2.1426  0.9210
16410SOL     OW50713   8.199   2.012   3.728  0.1398 -0.2513 -0.7092
16410SOL    HW150714   8.201   2.080   3.795 -0.6873 -2.5893  1.7459
16410SOL    HW250715   8.290   2.003   3.701  0.6952 -0.2260  1.0974
16411SOL     OW50716   6.150   6.730   7.964  0.1875 -0.7007 -0.4736
16411SOL    HW150717   6.097   6.740   7.886 -0.7942 -1.2638  0.1127
16411SOL    HW250718   6.215   6.663   7.941 -0.3815 -1.1910 -0.6655
16412SOL     OW50719   6.967   5.286   7.988  0.1053 -0.2176 -0.2494
16412SOL    HW150720   7.016   5.254   8.064 -0.4401  1.4643  0.8271
16412SOL    HW250721   6.877   5.259   8.005 -0.1623  0.8731  0.1216
16413SOL     OW50722   1.526   3.037   5.055 -0.3333 -0.2679 -0.2719
16413SOL    HW150723   1.495   2.958   5.010 -0.6672  0.2604 -0.9774
16413SOL    HW250724   1.598   3.068   5.000  1.5281 -1.5318  1.3929
16414SOL     OW50725   1.682   1.586   0.917 -0.2505  0.0889  0.5383
16414SOL    HW150726   1.711   1.670   0.881 -0.1285 -0.1562  0.0590
16414SOL    HW250727   1.763   1.537   0.932 -0.4545 -1.7316 -3.5424
16415SOL     OW50728   6.675   6.356   5.543 -0.4371  0.2155  0.1602
16415SOL    HW150729   6.731   6.410   5.599 -1.1826  0.5494  0.5960
16415SOL    HW250730   6.678   6.269   5.583 -0.7721  0.3955  0.5953
16416SOL     OW50731   7.066   0.019   6.544  0.0106 -0.5634 -0.4974
16416SOL    HW150732   7.106   0.106   6.552  0.0773 -0.7681  1.8609
16416SOL    HW250733   6.978   0.036   6.510 -0.5664  0.6153  1.4761
16417SOL     OW50734   1.348   4.075   5.049  0.0407  0.4223  0.5600
16417SOL    HW150735   1.418   4.038   5.103 -0.2146  1.5123  1.6386
16417SOL    HW250736   1.394   4.114   4.974  0.3801 -1.2367 -0.1270
16418SOL     OW50737   5.269   6.282   4.382 -0.1384 -0.0008 -0.2541
16418SOL    HW150738   5.263   6.186   4.388  0.2215 -0.0621 -0.8491
16418SOL    HW250739   5.202   6.307   4.319  0.6829  0.0140 -1.1211
16419SOL     OW50740   1.587   7.930   4.928  0.7347  0.3174  0.4968
16419SOL    HW150741   1.609   7.908   5.018  2.2721 -0.9525 -0.1652
16419SOL    HW250742   1.552   7.849   4.891 -0.7174  1.0610  0.1857
16420SOL     OW50743   6.974   1.957   4.204  0.0686  0.0722  0.3970
16420SOL    HW150744   6.947   1.940   4.114  0.7977 -0.8655  0.3430
16420SOL    HW250745   6.950   2.049   4.219 -1.6555 -0.2557 -0.1594
16421SOL     OW50746   7.366   5.865   7.540  0.2951  0.1220 -0.2251
16421SOL    HW150747   7.378   5.797   7.473  0.1563  0.2588 -0.3915
16421SOL    HW250748   7.298   5.830   7.598  0.8952 -0.2840  0.2269
16422SOL     OW50749   5.866   0.652   6.466 -0.4540  0.0289  0.0889
16422SOL    HW150750   5.922   0.581   6.435 -0.5516 -0.3657  0.8196
16422SOL    HW250751   5.913   0.732   6.442 -0.4656 -0.2745 -0.9545
16423SOL     OW50752   5.977   4.974   0.082 -0.2726 -0.0577  0.3963
16423SOL    HW150753   6.029   4.911   0.033 -2.7800 -3.1472  1.5894
16423SOL    HW250754   5.893   4.978   0.036  0.2033  3.3878 -0.3644
16424SOL     OW50755   1.740   3.633   3.610  1.0053  0.7849 -0.3043
16424SOL    HW150756   1.828   3.597   3.598  0.6701 -0.6483  1.2312
16424SOL    HW250757   1.722   3.622   3.704 -0.4923  1.7962 -0.4510
16425SOL     OW50758   8.237   6.371   3.505  0.1093  0.6045 -0.5711
16425SOL    HW150759   8.252   6.373   3.599  0.7245  0.6108 -0.6686
16425SOL    HW250760   8.283   6.293   3.475  0.6869  1.1054 -0.9965
16426SOL     OW50761   1.365   7.114   3.788  0.0532  0.2443  0.5355
16426SOL    HW150762   1.423   7.146   3.858  0.9752  0.5671 -0.3759
16426SOL    HW250763   1.338   7.194   3.742 -0.3695  0.0059  0.3725
16427SOL     OW50764   3.772   1.759   5.589 -0.2288 -0.3327  0.2846
16427SOL    HW150765   3.722   1.831   5.628 -0.5013  0.0659 -0.7807
16427SOL    HW250766   3.850   1.752   5.643 -0.1996  0.7652  0.4055
16428SOL     OW50767   1.573   7.672   8.241  0.4844  0.4708  0.5029
16428SOL    HW150768   1.531   7.591   8.212 -0.7642  0.9142  1.0625
16428SOL    HW250769   1.665   7.649   8.253 -0.0276 -1.0734  1.4941
16429SOL     OW50770   3.670   1.929   7.513 -0.8108 -0.2646  0.0885
16429SOL    HW150771   3.695   1.846   7.471  0.6768  0.2192 -0.0008
16429SOL    HW250772   3.603   1.904   7.576  0.8564 -1.8134  1.3028
16430SOL     OW50773   3.620   1.366   6.439 -0.2635 -0.1637  0.3190
16430SOL    HW150774   3.601   1.275   6.418 -0.6132 -0.0105 -0.0362
16430SOL    HW250775   3.659   1.401   6.358  2.2834 -0.6886  1.2847
16431SOL     OW50776   0.726   2.187   7.473  0.4586 -0.4768 -0.7132
16431SOL    HW150777   0.660   2.210   7.408 -0.1809  1.4096  0.5605
16431SOL    HW250778   0.809   2.217   7.435  0.3120 -0.8906 -1.3676
16432SOL     OW50779   0.082   5.328   5.023  0.0676  0.2427  0.3660
16432SOL    HW150780   0.083   5.235   5.001 -1.6080 -0.0600  1.4810
16432SOL    HW250781   0.171   5.347   5.052  0.9967 -0.4865 -1.9786
16433SOL     OW50782   2.879   7.337   1.369  0.6359  0.0052  0.0611
16433SOL    HW150783   2.925   7.419   1.388 -2.2507  1.2759  1.8938
16433SOL    HW250784   2.873   7.292   1.453 -1.0388 -0.3175 -0.1975
16434SOL     OW50785   6.761   5.955   2.526  0.1250 -0.3513 -0.6395
16434SOL    HW150786   6.703   5.908   2.586  0.8094 -1.4223 -0.8201
16434SOL    HW250787   6.805   5.887   2.475  1.1892  0.4603 -0.8351
16435SOL     OW50788   3.369   0.331   5.418  0.5228  0.9311  0.0286
16435SOL    HW150789   3.274   0.348   5.421  0.0946 -1.2018 -0.5785
16435SOL    HW250790   3.387   0.283   5.498  0.8008  0.0643 -0.5407
16436SOL     OW50791   3.685   0.689   0.495 -0.0250 -0.4775  1.0195
16436SOL    HW150792   3.597   0.702   0.532 -1.0564  0.6269 -1.6823
16436SOL    HW250793   3.745   0.714   0.566 -1.8854 -0.6262  2.6871
16437SOL     OW50794   2.645   5.246   7.455  0.3448 -0.3754  0.7533
16437SOL    HW150795   2.698   5.168   7.468  1.4131  0.0228 -0.9901
16437SOL    HW250796   2.643   5.289   7.541  0.2387 -1.9882  1.5728
16438SOL     OW50797   2.134   3.500   4.076 -0.1169  0.3699 -0.0157
16438SOL    HW150798   2.169   3.502   4.165  0.8399 -1.4298 -0.3233
16438SOL    HW250799   2.112   3.408   4.061  0.8852  0.4322 -2.0548
16439SOL     OW50800   6.339   3.599   2.381  0.6286  0.3478 -0.1816
16439SOL    HW150801   6.369   3.520   2.338 -1.6422  0.6615 -2.4231
16439SOL    HW250802   6.244   3.593   2.380  0.4466  2.4535  0.8517
16440SOL     OW50803   7.619   1.877   3.262 -0.0293 -0.3638 -0.2862
16440SOL    HW150804   7.598   1.820   3.188  1.0682 -1.2328  0.0548
16440SOL    HW250805   7.629   1.817   3.336  2.0217  0.1540 -0.1060
16441SOL     OW50806   6.359   8.027   5.212 -0.5565 -0.3070 -0.2617
16441SOL    HW150807   6.446   8.061   5.235 -1.5273  1.4749  0.8655
16441SOL    HW250808   6.302   8.103   5.212 -2.5174 -1.7215  0.8645
16442SOL     OW50809   4.874   1.290   7.713 -0.3838  0.1271 -0.0588
16442SOL    HW150810   4.800   1.232   7.733 -0.0186  0.0077  0.9629
16442SOL    HW250811   4.913   1.251   7.635 -1.2131  0.0082 -0.4201
16443SOL     OW50812   0.673   1.819   2.714  0.9247  0.4314 -0.1546
16443SOL    HW150813   0.665   1.907   2.679  0.6224  0.3171 -0.3707
16443SOL    HW250814   0.744   1.825   2.777  1.0974  0.7626 -0.3811
16444SOL     OW50815   7.272   0.421   7.485  0.2162  0.5563  0.0481
16444SOL    HW150816   7.188   0.445   7.524 -0.6347  0.6340 -1.7845
16444SOL    HW250817   7.292   0.492   7.425  0.9903 -0.0758 -0.4568
16445SOL     OW50818   5.884   5.489   7.032  0.4284 -0.8263 -0.4281
16445SOL    HW150819   5.795   5.459   7.017 -0.2388  1.2033 -0.5838
16445SOL    HW250820   5.899   5.473   7.125 -1.1162  1.4673  0.2388
16446SOL     OW50821   5.669   7.909   3.269 -0.7379  0.6217  0.0160
16446SOL    HW150822   5.639   7.881   3.355  2.0603 -2.0532  0.2074
16446SOL    HW250823   5.674   7.829   3.217 -1.6114  2.0726 -2.4264
16447SOL     OW50824   6.591   1.038   7.037 -0.0717  0.0856  0.1825
16447SOL    HW150825   6.614   1.086   7.116  0.2380  0.9413 -0.4231
16447SOL    HW250826   6.497   1.020   7.047  0.1392 -0.5360  1.1211
16448SOL     OW50827   7.540   4.845   1.248 -0.0721 -0.3118  0.3275
16448SOL    HW150828   7.510   4.788   1.177 -1.5689  0.2660  0.4712
16448SOL    HW250829   7.578   4.786   1.312  0.9036 -0.8797 -0.7635
16449SOL     OW50830   2.922   4.056   6.980 -0.2689  0.2814 -0.1318
16449SOL    HW150831   2.968   4.082   6.900 -1.5565 -0.0026 -0.9891
16449SOL    HW250832   2.884   4.137   7.013 -0.0051  0.3448  0.0166
16450SOL     OW50833   1.107   0.816   8.284 -0.2071  0.0161  0.0814
16450SOL    HW150834   1.072   0.727   8.289 -0.4676  0.1335  0.3554
16450SOL    HW250835   1.104   0.848   8.374 -0.6253  0.4972 -0.1032
16451SOL     OW50836   4.853   4.418   4.678  0.0386 -0.3467  0.3770
16451SOL    HW150837   4.876   4.445   4.589  0.4177 -0.7270  0.3596
16451SOL    HW250838   4.827   4.326   4.669 -0.3989 -0.2480  0.5813
16452SOL     OW50839   2.174   0.533   6.284  0.2578 -0.0874  0.7805
16452SOL    HW150840   2.262   0.512   6.315  0.5134 -0.6233 -0.2963
16452SOL    HW250841   2.182   0.540   6.189 -0.3468  2.3485  0.8613
16453SOL     OW50842   1.997   4.266   7.268 -0.1443 -0.1293  0.0967
16453SOL    HW150843   2.053   4.338   7.294 -1.1008  1.0796 -1.0979
16453SOL    HW250844   2.021   4.249   7.177  0.1215 -1.3598  0.3915
16454SOL     OW50845   4.493   5.099   1.003  0.9491  0.0474 -0.4147
16454SOL    HW150846   4.524   5.135   0.920  0.4884 -0.6532 -0.8969
16454SOL    HW250847   4.573   5.071   1.048  0.9783 -2.9996 -2.2446
16455SOL     OW50848   3.537   2.587   1.770  0.5832  0.4161  0.2889
16455SOL    HW150849   3.460   2.560   1.821  0.4900  1.5800  0.7751
16455SOL    HW250850   3.603   2.609   1.836  1.0212  0.3219 -0.1146
16456SOL     OW50851   4.263   4.340   7.249 -0.2039 -0.2130 -0.0457
16456SOL    HW150852   4.297   4.335   7.160 -0.8018  1.6381 -0.4068
16456SOL    HW250853   4.340   4.335   7.306 -0.0057 -3.8271 -0.5478
16457SOL     OW50854   2.271   4.644   8.103  0.3696  0.1111 -0.2808
16457SOL    HW150855   2.360   4.608   8.105 -0.1143 -1.0527  1.2175
16457SOL    HW250856   2.269   4.706   8.175 -0.1166 -0.0560 -0.1538
16458SOL     OW50857   4.917   2.185   5.390 -0.2001 -0.0616  0.4506
16458SOL    HW150858   4.966   2.216   5.313 -0.8129 -0.7000 -0.2040
16458SOL    HW250859   4.885   2.265   5.432  1.0751  0.3498  0.6797
16459SOL     OW50860   4.150   5.109   5.131  0.1985  0.0065 -0.0749
16459SOL    HW150861   4.162   5.014   5.128  1.2835  0.0553  2.0336
16459SOL    HW250862   4.237   5.143   5.152 -0.1953  1.4722 -0.8098
16460SOL     OW50863   5.754   2.796   7.068  0.0445  0.0513  0.6169
16460SOL    HW150864   5.767   2.872   7.012 -0.4587 -0.1937  0.1633
16460SOL    HW250865   5.663   2.804   7.098 -0.4646 -1.1305 -0.5802
16461SOL     OW50866   6.927   2.213   4.217 -0.0264 -0.4192  0.5438
16461SOL    HW150867   6.915   2.282   4.152 -0.2325 -0.4460  0.5526
16461SOL    HW250868   6.978   2.254   4.287  1.5012 -0.8142 -0.3226
16462SOL     OW50869   6.046   6.551   0.746 -0.1937 -0.4459  0.2449
16462SOL    HW150870   6.023   6.458   0.747 -0.1023 -0.4719  0.0432
16462SOL    HW250871   5.980   6.592   0.801  1.4618 -0.9950  2.6955
16463SOL     OW50872   1.560   4.884   2.722  0.0952  0.3741 -0.6521
16463SOL    HW150873   1.594   4.859   2.636  0.7452  0.4626 -0.4208
16463SOL    HW250874   1.470   4.851   2.722  0.3010 -0.2054 -1.1123
16464SOL     OW50875   3.478   2.470   1.320  0.5714 -0.3091  0.0333
16464SOL    HW150876   3.538   2.520   1.375  1.0044 -0.1251 -0.6008
16464SOL    HW250877   3.454   2.394   1.373  0.8163 -0.0240  0.5529
16465SOL     OW50878   2.338   4.696   7.453 -0.2370 -0.0228  0.0517
16465SOL    HW150879   2.394   4.769   7.480  0.3413 -0.4055 -0.1272
16465SOL    HW250880   2.303   4.723   7.368  0.0622 -0.0072 -0.0652
16466SOL     OW50881   3.722   4.020   5.025  0.2038 -0.1549  0.0514
16466SOL    HW150882   3.651   4.070   5.065 -0.5246  0.3597 -1.8528
16466SOL    HW250883   3.680   3.941   4.992  0.7742 -0.5012  0.1536
16467SOL     OW50884   0.212   7.585   6.394 -0.3280  0.1968 -0.5446
16467SOL    HW150885   0.229   7.609   6.303  1.1759 -0.4559 -0.4467
16467SOL    HW250886   0.254   7.500   6.405 -1.2118 -0.1110  0.5375
16468SOL     OW50887   6.675   1.497   0.515 -0.4424 -0.2482  0.4424
16468SOL    HW150888   6.601   1.500   0.575  0.6333 -0.0957  1.7991
16468SOL    HW250889   6.643   1.538   0.434 -1.8092 -0.1559  1.0276
16469SOL     OW50890   6.625   4.805   5.126  0.0771  0.1963  0.0291
16469SOL    HW150891   6.585   4.881   5.169  0.1889 -0.4637  1.3236
16469SOL    HW250892   6.623   4.827   5.033 -1.0937  1.2133  0.2781
16470SOL     OW50893   6.994   4.256   2.403 -0.2058  0.6406 -0.2518
16470SOL    HW150894   7.058   4.185   2.402  1.2287  1.8861  0.3242
16470SOL    HW250895   6.988   4.284   2.312  0.2631  0.6712 -0.2767
16471SOL     OW50896   0.318   1.123   2.899  0.2477  0.3688 -0.0441
16471SOL    HW150897   0.359   1.188   2.842  0.2993  1.4150  1.1764
16471SOL    HW250898   0.390   1.084   2.947  0.0779  0.3168  0.1686
16472SOL     OW50899   2.072   6.892   6.977  0.0472  0.4873  0.3504
16472SOL    HW150900   1.978   6.880   6.966 -0.0920  0.4893  1.4711
16472SOL    HW250901   2.099   6.822   7.037  0.4773  1.3997  1.2484
16473SOL     OW50902   8.112   0.224   0.226  0.4412  0.2698  0.3625
16473SOL    HW150903   8.066   0.305   0.206  0.9724  0.4673 -0.0359
16473SOL    HW250904   8.190   0.225   0.171  0.3053 -0.6421  0.1364
16474SOL     OW50905   6.363   3.472   6.304  0.0223  0.1109 -0.4582
16474SOL    HW150906   6.376   3.469   6.399  0.9719 -0.6540 -0.6073
16474SOL    HW250907   6.292   3.410   6.288 -0.3759  0.4984 -0.2165
16475SOL     OW50908   4.800   5.126   3.670 -0.0534 -0.2640  0.4613
16475SOL    HW150909   4.813   5.035   3.696 -0.9214 -0.6087 -0.2945
16475SOL    HW250910   4.711   5.147   3.696 -1.2987 -0.9282 -3.0238
16476SOL     OW50911   3.861   3.205   6.388 -0.4405  0.2615  0.1487
16476SOL    HW150912   3.776   3.178   6.352  0.2643 -1.1114 -0.5155
16476SOL    HW250913   3.914   3.226   6.311 -0.1338  1.0232  0.5590
16477SOL     OW50914   3.195   6.865   1.523  0.4756 -0.2976  0.4535
16477SOL    HW150915   3.243   6.943   1.497 -2.5262  1.3820 -0.2494
16477SOL    HW250916   3.143   6.893   1.599 -2.8681 -0.6903 -1.5734
16478SOL     OW50917   6.895   5.282   5.770 -0.5341  0.0308 -0.0138
16478SOL    HW150918   6.874   5.271   5.862  0.2516  1.6966  0.3869
16478SOL    HW250919   6.888   5.376   5.755  1.1886  0.0023 -1.1796
16479SOL     OW50920   2.580   5.299   6.383 -0.1364 -0.4364  0.0896
16479SOL    HW150921   2.537   5.215   6.397 -1.4031  0.3765  1.2423
16479SOL    HW250922   2.535   5.359   6.442  2.8620  0.3844  1.6352
16480SOL     OW50923   1.376   0.034   2.663  0.2175 -0.1250 -0.2927
16480SOL    HW150924   1.431  -0.043   2.670 -0.0253 -0.2942 -0.2365
16480SOL    HW250925   1.350   0.053   2.753  4.0270  2.7723  0.3401
16481SOL     OW50926   1.771   4.848   6.476 -0.1002 -0.0957 -0.2399
16481SOL    HW150927   1.709   4.776   6.471  0.4687 -0.5169 -1.5034
16481SOL    HW250928   1.784   4.862   6.570 -0.9425 -0.9986  0.0194
16482SOL     OW50929   6.930   4.664   6.811 -0.1484  0.2537  0.1179
16482SOL    HW150930   6.996   4.673   6.743 -0.5727  2.4756 -0.0424
16482SOL    HW250931   6.975   4.691   6.891 -0.7138  1.3400  0.0797
16483SOL     OW50932   0.867   4.225   4.661  0.0159 -0.1259  0.0642
16483SOL    HW150933   0.784   4.203   4.704 -1.1162  0.7055 -1.5998
16483SOL    HW250934   0.864   4.320   4.651  1.2438 -0.0741  0.1095
16484SOL     OW50935   1.911   7.137   3.551  0.3467 -0.2080 -0.5674
16484SOL    HW150936   1.867   7.057   3.526  0.3671  0.3260 -2.3571
16484SOL    HW250937   2.004   7.117   3.543  0.3474  0.0875 -1.3335
16485SOL     OW50938   1.346   4.272   7.469 -0.1737 -0.0425  0.3508
16485SOL    HW150939   1.391   4.195   7.433  0.9973  0.8533 -0.1568
16485SOL    HW250940   1.282   4.296   7.401 -1.1655 -1.0907  0.9031
16486SOL     OW50941   6.926   2.990   5.574 -0.1356 -0.2726  0.0118
16486SOL    HW150942   6.987   2.987   5.647 -1.7351 -0.6815  1.3614
16486SOL    HW250943   6.898   2.900   5.562 -0.8581 -0.0122 -0.2693
16487SOL     OW50944   6.004   4.673   6.116  0.2285 -0.0431 -0.6341
16487SOL    HW150945   5.916   4.705   6.137  0.2753 -0.0231 -0.4727
16487SOL    HW250946   6.050   4.749   6.082 -0.3928 -0.4584 -2.4853
16488SOL     OW50947   1.032   0.571   4.974  0.5160 -0.0888 -0.4892
16488SOL    HW150948   1.085   0.607   5.045  1.4100 -2.2346 -0.0065
16488SOL    HW250949   0.975   0.507   5.018  0.0931 -0.4288 -1.5200
16489SOL     OW50950   4.728   1.391   6.425  0.0841  0.3452 -0.1001
16489SOL    HW150951   4.788   1.340   6.371  0.7207  0.3431  0.5903
16489SOL    HW250952   4.715   1.473   6.377  1.5358  0.8091  0.2797
16490SOL     OW50953   0.520   8.300   6.440  0.1458 -0.0954 -0.2162
16490SOL    HW150954   0.570   8.218   6.439 -0.5216 -0.5581  2.3327
16490SOL    HW250955   0.432   8.274   6.468  0.1478  1.6207  1.4219
16491SOL     OW50956   0.171   4.694   3.709 -0.1436 -0.3065  0.0597
16491SOL    HW150957   0.260   4.728   3.716 -0.8533  1.4387  0.9997
16491SOL    HW250958   0.149   4.667   3.798 -0.5652 -0.7097 -0.1635
16492SOL     OW50959   4.593   2.105   7.354 -0.3190  0.4723 -0.4504
16492SOL    HW150960   4.683   2.073   7.359 -0.5634 -0.1516 -0.0472
16492SOL    HW250961   4.602   2.194   7.318  0.5682  0.9440  0.8604
16493SOL     OW50962   0.605   7.920   0.524 -0.5458  0.1699 -0.0374
16493SOL    HW150963   0.514   7.943   0.543 -0.8689 -1.1373  0.0382
16493SOL    HW250964   0.628   7.973   0.448 -1.4454  0.3504 -0.1874
16494SOL     OW50965   8.297   7.351   4.195 -0.2037  0.2291  0.0155
16494SOL    HW150966   8.237   7.351   4.120  0.9057 -0.0791 -0.8897
16494SOL    HW250967   8.315   7.258   4.210 -0.4096  0.2927  0.6557
16495SOL     OW50968   1.715   1.603   3.506 -0.4517 -0.1990  0.1892
16495SOL    HW150969   1.738   1.512   3.525 -0.5178 -0.5061 -1.1522
16495SOL    HW250970   1.796   1.652   3.519 -0.0236 -0.6858 -0.6033
16496SOL     OW50971   5.313   5.242   6.272 -0.0054  0.0186  0.1215
16496SOL    HW150972   5.347   5.229   6.183  0.3883  0.4653  0.2028
16496SOL    HW250973   5.251   5.171   6.285  0.5969 -0.5697 -0.1831
16497SOL     OW50974   4.669   6.726   3.800 -0.2962  0.2119  0.1099
16497SOL    HW150975   4.582   6.687   3.797 -0.4693  0.6833 -1.1894
16497SOL    HW250976   4.720   6.676   3.736 -0.4086  1.8208 -1.2737
16498SOL     OW50977   4.425   1.224   7.652  0.3507 -0.0522 -0.1286
16498SOL    HW150978   4.390   1.271   7.727  0.6053  0.2643 -0.2089
16498SOL    HW250979   4.372   1.144   7.647 -1.2671  1.0469 -1.0619
16499SOL     OW50980   5.179   4.436   2.721  0.2036  0.2648 -0.1006
16499SOL    HW150981   5.253   4.396   2.766 -0.3346  1.7712  2.2497
16499SOL    HW250982   5.122   4.362   2.699  1.0728 -0.6294  0.5987
16500SOL     OW50983   6.921   6.862   3.819  0.0649  0.3850 -0.6496
16500SOL    HW150984   6.882   6.950   3.821 -0.6906  0.0957 -1.9821
16500SOL    HW250985   6.851   6.806   3.785 -0.0217 -1.0561  1.7914
16501SOL     OW50986   5.398   2.242   7.834 -0.3634  0.2412 -0.1350
16501SOL    HW150987   5.471   2.302   7.815  0.1907 -0.0581  1.0309
16501SOL    HW250988   5.416   2.165   7.781 -0.6363  0.7673 -1.0057
16502SOL     OW50989   1.736   2.464   6.278  0.4751 -0.4577  0.0187
16502SOL    HW150990   1.821   2.495   6.307  0.6827 -0.9979 -0.0113
16502SOL    HW250991   1.712   2.397   6.341  0.1677 -0.4573 -0.0964
16503SOL     OW50992   1.908   4.930   2.342  0.1804 -0.6754 -0.6105
16503SOL    HW150993   1.992   4.884   2.334  0.1711 -0.6711 -0.7376
16503SOL    HW250994   1.909   4.995   2.272  1.0503  0.8641  0.7954
16504SOL     OW50995   8.210   0.348   8.139  0.2357 -0.0020 -0.8483
16504SOL    HW150996   8.135   0.404   8.162  0.6648  0.0808  0.3753
16504SOL    HW250997   8.265   0.404   8.084 -0.1855  0.2087 -1.0632
16505SOL     OW50998   4.869   7.227   1.918 -0.0991  0.1618  0.1281
16505SOL    HW150999   4.843   7.274   1.839 -2.7776  0.6995  1.2582
16505SOL    HW251000   4.922   7.290   1.967 -1.3914  1.1004  0.3641
16506SOL     OW51001   2.325   8.135   2.447 -0.0072 -0.0920 -0.3102
16506SOL    HW151002   2.385   8.078   2.399 -1.2617 -0.7969 -1.0751
16506SOL    HW251003   2.273   8.177   2.379 -0.0856  0.8650  0.3266
16507SOL     OW51004   7.845   1.541   2.869 -0.3295 -0.7545  0.2118
16507SOL    HW151005   7.929   1.535   2.915  0.6988  0.4561 -1.4509
16507SOL    HW251006   7.868   1.532   2.777 -1.9220  0.6000 -0.3384
16508SOL     OW51007   8.265   4.880   2.422 -0.2858 -0.4982  0.5775
16508SOL    HW151008   8.344   4.923   2.456 -0.5232 -0.6536  1.3217
16508SOL    HW251009   8.298   4.820   2.354  0.0872  0.5372 -0.1677
16509SOL     OW51010   3.778   4.485   2.662 -0.3711  0.2458 -0.1946
16509SOL    HW151011   3.772   4.580   2.669 -1.1293  0.2129 -0.2900
16509SOL    HW251012   3.719   4.462   2.590 -1.1103 -0.3928  0.5986
16510SOL     OW51013   2.576   3.931   8.074  0.5813 -0.0253  0.1164
16510SOL    HW151014   2.626   3.862   8.118  0.4557 -0.0387  0.2377
16510SOL    HW251015   2.516   3.963   8.141  0.4245 -0.0103 -0.0319
16511SOL     OW51016   7.622   1.135   3.480  0.0008 -0.1054  0.4993
16511SOL    HW151017   7.695   1.173   3.431 -0.7929 -1.3768 -1.7583
16511SOL    HW251018   7.619   1.186   3.561  1.9383  1.4711 -0.3520
16512SOL     OW51019   0.251   0.584   6.030  0.3740 -0.1514  0.4330
16512SOL    HW151020   0.198   0.657   6.061  0.6992 -0.4456  1.7041
16512SOL    HW251021   0.251   0.522   6.102 -0.6081 -1.7995 -0.9364
16513SOL     OW51022   4.808   6.517   5.482 -0.2445  0.1481  0.4633
16513SOL    HW151023   4.801   6.430   5.443  0.8678 -0.8796  2.4709
16513SOL    HW251024   4.846   6.572   5.413  3.0533 -1.9514  0.5014
16514SOL     OW51025   3.847   4.624   7.380 -0.2355 -0.1375  0.4980
16514SOL    HW151026   3.937   4.610   7.352 -0.1296  1.2794  0.0749
16514SOL    HW251027   3.820   4.540   7.417  0.9142 -0.8856 -0.3060
16515SOL     OW51028   1.893   7.941   3.541 -0.1415 -0.1165 -0.1766
16515SOL    HW151029   1.899   7.963   3.634  0.7938 -0.3718 -0.1707
16515SOL    HW251030   1.969   7.885   3.524 -1.5681 -1.9853 -0.5742
16516SOL     OW51031   2.279   7.532   4.972 -0.8978 -0.6804  0.1835
16516SOL    HW151032   2.256   7.582   4.894 -1.2640  1.1380  1.4367
16516SOL    HW251033   2.252   7.587   5.045  0.9826 -1.6261  1.6303
16517SOL     OW51034   1.601   3.300   3.067  0.1580  0.3332 -0.6998
16517SOL    HW151035   1.541   3.251   3.011 -0.3068  0.2783 -0.1534
16517SOL    HW251036   1.549   3.322   3.145  1.1618 -0.6746  0.2692
16518SOL     OW51037   6.671   0.492   6.207 -0.4090  0.3165 -0.5137
16518SOL    HW151038   6.657   0.584   6.229 -1.0039  0.7226 -2.4505
16518SOL    HW251039   6.608   0.444   6.260 -1.8085  1.2554 -1.2734
16519SOL     OW51040   0.792   6.861   0.505 -0.1108 -0.2640 -0.1733
16519SOL    HW151041   0.873   6.910   0.521 -0.4689 -0.1095  1.2023
16519SOL    HW251042   0.816   6.796   0.439  0.9357  0.2855 -0.3413
16520SOL     OW51043   4.787   3.048   1.961 -0.3252  0.0413 -0.2264
16520SOL    HW151044   4.740   3.130   1.955  1.0767  0.8964  0.1583
16520SOL    HW251045   4.735   2.995   2.022 -1.5429  0.4095 -0.9312
16521SOL     OW51046   0.210   5.690   5.109 -0.1821 -0.8812  0.1679
16521SOL    HW151047   0.212   5.631   5.033 -0.6877 -0.8928  0.1629
16521SOL    HW251048   0.127   5.670   5.153  1.1072 -2.4539  1.9775
16522SOL     OW51049   1.758   5.503   4.076  0.3953 -0.3781 -0.2749
16522SOL    HW151050   1.680   5.538   4.118 -0.0682 -1.2356 -0.4256
16522SOL    HW251051   1.770   5.416   4.114  1.9536  0.1925  0.6178
16523SOL     OW51052   4.115   7.751   3.139 -0.4378  0.4049  0.6257
16523SOL    HW151053   4.167   7.766   3.061 -1.2328  0.4918  0.1084
16523SOL    HW251054   4.179   7.744   3.210  0.3095 -0.1681 -0.1046
16524SOL     OW51055   4.346   1.634   2.561  0.3827 -0.0976 -0.1873
16524SOL    HW151056   4.401   1.635   2.639 -0.4655 -0.8238  0.4394
16524SOL    HW251057   4.397   1.586   2.496  0.2149 -1.4205  0.6235
16525SOL     OW51058   3.127   4.094   2.771  0.3422 -0.0995 -0.1803
16525SOL    HW151059   3.139   4.188   2.788 -0.3985 -0.1061  0.3830
16525SOL    HW251060   3.092   4.090   2.682 -0.5204  0.2195  0.1375
16526SOL     OW51061   6.080   6.728   2.627 -0.4213  0.2463  0.5555
16526SOL    HW151062   6.146   6.788   2.661  0.8393 -1.3971  1.0951
16526SOL    HW251063   6.054   6.765   2.543  3.0234 -0.3325 -0.8574
16527SOL     OW51064   6.770   8.084   5.992 -0.4648  0.1311 -0.2373
16527SOL    HW151065   6.689   8.105   6.039  0.0114  0.9143  0.2451
16527SOL    HW251066   6.751   8.002   5.946 -0.9827 -0.5850  1.2286
16528SOL     OW51067   3.093   2.586   3.144  0.4882  0.2003  0.1667
16528SOL    HW151068   3.004   2.608   3.171  0.0989 -0.7789 -0.3141
16528SOL    HW251069   3.083   2.545   3.058  1.2467 -1.4223  0.8364
16529SOL     OW51070   0.692   7.973   6.970  0.5308 -0.3240 -0.0229
16529SOL    HW151071   0.770   8.019   7.002  0.8723 -2.1075  1.7823
16529SOL    HW251072   0.717   7.880   6.970 -2.1161 -1.1128  2.2494
16530SOL     OW51073   3.958   7.795   4.131  0.1415 -0.3321 -0.3607
16530SOL    HW151074   4.032   7.840   4.173 -0.1858 -1.5935  1.6412
16530SOL    HW251075   3.979   7.702   4.139 -1.3274 -0.6711 -0.4012
16531SOL     OW51076   2.383   6.707   7.523 -0.2952  0.1392 -0.2638
16531SOL    HW151077   2.316   6.741   7.583  0.7579  0.3616  0.8089
16531SOL    HW251078   2.378   6.765   7.447 -0.7020  0.7387  0.2101
16532SOL     OW51079   6.866   1.611   6.282  0.6041  0.6245 -0.6058
16532SOL    HW151080   6.890   1.519   6.293  2.9912  1.0096 -2.1196
16532SOL    HW251081   6.888   1.652   6.366  1.9073  0.2537 -0.7503
16533SOL     OW51082   7.584   3.994   7.219  0.2035 -0.0494 -0.3983
16533SOL    HW151083   7.553   3.931   7.154  1.4796 -0.3054 -0.7798
16533SOL    HW251084   7.582   3.946   7.302  0.6117 -0.4221 -0.5975
16534SOL     OW51085   7.818   5.143   6.853 -0.1238 -0.0923  0.3216
16534SOL    HW151086   7.811   5.048   6.863  0.4083 -0.1264  0.3569
16534SOL    HW251087   7.834   5.157   6.760  0.5764 -0.0766  0.4474
16535SOL     OW51088   2.734   7.827   4.851  0.8350  0.0464  0.1333
16535SOL    HW151089   2.769   7.742   4.879 -0.4771 -0.7978 -0.7565
16535SOL    HW251090   2.684   7.808   4.772 -1.0124  1.3263  0.9452
16536SOL     OW51091   7.658   0.859   0.143 -0.4368 -0.3472  0.2398
16536SOL    HW151092   7.585   0.855   0.205 -1.3789  0.3071 -0.8178
16536SOL    HW251093   7.620   0.836   0.058  0.8542 -1.3143 -0.1092
16537SOL     OW51094   2.769   2.826   7.477  0.2807 -0.1708  0.0782
16537SOL    HW151095   2.803   2.895   7.420 -0.3173  0.0653 -0.0033
16537SOL    HW251096   2.815   2.747   7.451 -1.8653 -0.6377 -2.5652
16538SOL     OW51097   2.717   3.706   1.657 -0.1956 -0.2986  0.8629
16538SOL    HW151098   2.803   3.703   1.615  0.1257  0.9494  1.3838
16538SOL    HW251099   2.657   3.733   1.587  0.4436  2.4407  1.3055
16539SOL     OW51100   8.262   8.080   3.848  0.3155 -0.1832  0.0730
16539SOL    HW151101   8.199   8.146   3.875  0.6402 -0.3351  1.2157
16539SOL    HW251102   8.347   8.125   3.848  0.3179 -0.1748 -0.7380
16540SOL     OW51103   3.864   1.558   2.774 -0.2753 -0.0396  0.3465
16540SOL    HW151104   3.930   1.528   2.712 -1.1737 -1.8238  0.2239
16540SOL    HW251105   3.782   1.556   2.724 -1.0896 -1.9995  1.7313
16541SOL     OW51106   5.913   5.677   5.784 -0.0477  0.1941  0.6458
16541SOL    HW151107   5.832   5.647   5.825 -0.7253  1.4776  0.2697
16541SOL    HW251108   5.884   5.719   5.702  1.2795 -2.3639 -1.2085
16542SOL     OW51109   0.502   7.305   5.070  0.3579 -0.0795 -0.6468
16542SOL    HW151110   0.469   7.291   4.982 -0.8068 -0.3575 -0.1695
16542SOL    HW251111   0.480   7.396   5.090 -0.2721 -0.3123 -0.2686
16543SOL     OW51112   2.963   4.760   1.548 -0.2405  0.1450 -0.2842
16543SOL    HW151113   3.000   4.703   1.616 -0.2907 -1.6121 -1.6968
16543SOL    HW251114   3.033   4.771   1.485 -0.3227  1.4577 -0.1583
16544SOL     OW51115   1.505   7.777   3.034  0.2014  0.4819  0.5122
16544SOL    HW151116   1.418   7.816   3.040  0.6699  1.2688  2.3998
16544SOL    HW251117   1.536   7.802   2.947 -1.2917  0.5225 -0.0248
16545SOL     OW51118   2.197   2.346   5.841  0.1143 -0.4519 -0.0322
16545SOL    HW151119   2.232   2.286   5.776  0.7800 -1.3870  1.1565
16545SOL    HW251120   2.269   2.406   5.861  0.1791 -0.6765  0.4258
16546SOL     OW51121   7.341   7.558   8.073 -0.7578  0.1472 -0.5148
16546SOL    HW151122   7.394   7.502   8.129 -0.6949 -1.3569 -2.0377
16546SOL    HW251123   7.332   7.640   8.122  1.1946 -0.3222  0.6664
16547SOL     OW51124   6.046   1.563   8.232 -1.1414 -0.3513 -0.4092
16547SOL    HW151125   6.014   1.540   8.319  1.8748 -1.7226  0.4385
16547SOL    HW251126   5.994   1.510   8.172 -1.2490 -1.6467  0.8125
16548SOL     OW51127   6.517   1.832   8.146 -0.2716  0.0329  0.2188
16548SOL    HW151128   6.544   1.740   8.151 -0.7030 -0.0083  1.8706
16548SOL    HW251129   6.445   1.832   8.082 -1.3326 -1.0391  1.3958
16549SOL     OW51130   4.873   7.314   5.121 -0.0772 -0.3155  0.1399
16549SOL    HW151131   4.800   7.274   5.074  0.6427  0.5753 -1.7824
16549SOL    HW251132   4.951   7.269   5.088  0.3321 -0.7816  1.6715
16550SOL     OW51133   3.400   4.062   2.259 -0.4912 -0.4314 -0.3497
16550SOL    HW151134   3.445   4.138   2.298  0.4002 -1.2015  0.1355
16550SOL    HW251135   3.396   3.998   2.330  0.3023 -1.4886 -1.2478
16551SOL     OW51136   3.003   2.553   2.862  0.7381 -0.0317 -0.2061
16551SOL    HW151137   3.002   2.458   2.855  1.5338  0.0440 -1.4590
16551SOL    HW251138   2.926   2.582   2.814  0.0771 -0.0700  0.8121
16552SOL     OW51139   6.511   0.074   3.988  0.6433 -0.2596  0.0568
16552SOL    HW151140   6.538   0.123   3.911  0.2534 -0.5795 -0.2800
16552SOL    HW251141   6.583   0.013   4.004 -0.3972 -1.9613 -1.5675
16553SOL     OW51142   1.710   4.139   4.194  0.0115  0.2725  0.0531
16553SOL    HW151143   1.775   4.069   4.187 -0.8433 -0.5536  0.3896
16553SOL    HW251144   1.662   4.137   4.112  1.4132  1.9175 -0.8619
16554SOL     OW51145   1.295   5.934   3.840  0.2011  0.0798  0.6755
16554SOL    HW151146   1.363   6.000   3.852  0.7119 -0.6557  1.8967
16554SOL    HW251147   1.301   5.910   3.747  1.6189  0.0282  0.7639
16555SOL     OW51148   0.025   7.881   5.539 -1.1218 -0.4362  0.3396
16555SOL    HW151149  -0.035   7.911   5.470 -0.7037 -0.0613  0.1361
16555SOL    HW251150  -0.026   7.888   5.619 -0.2087  3.3964  0.6690
16556SOL     OW51151   5.419   2.311   3.582  0.4551  0.4971 -0.9179
16556SOL    HW151152   5.404   2.318   3.676  1.8481 -1.9419 -0.4795
16556SOL    HW251153   5.488   2.375   3.564  0.5761  0.5825 -0.1781
16557SOL     OW51154   4.886   1.728   5.545 -0.7285  0.1734 -0.2042
16557SOL    HW151155   4.967   1.743   5.594 -1.0734  1.1326  0.0890
16557SOL    HW251156   4.883   1.633   5.532 -0.0007  0.0374  0.5421
16558SOL     OW51157   1.412   6.337   7.954 -0.0277 -0.5034  0.5571
16558SOL    HW151158   1.401   6.254   8.001 -3.3366 -0.6118 -0.2563
16558SOL    HW251159   1.426   6.402   8.023 -0.9620 -1.2343  1.4560
16559SOL     OW51160   7.723   8.268   1.201 -0.6820  0.2343  0.4321
16559SOL    HW151161   7.639   8.223   1.196  0.0065 -0.9975 -0.4299
16559SOL    HW251162   7.701   8.361   1.208 -2.1470 -0.2619  2.9608
16560SOL     OW51163   4.133   4.825   5.074 -0.1633 -0.4366  0.0371
16560SOL    HW151164   4.050   4.856   5.038  0.4400  1.6298  0.3556
16560SOL    HW251165   4.138   4.734   5.046 -1.9982 -0.2676 -0.9574
16561SOL     OW51166   5.130   7.454   7.620 -0.7357  0.2710  0.1011
16561SOL    HW151167   5.074   7.531   7.617 -0.1593  0.6788 -0.3780
16561SOL    HW251168   5.136   7.425   7.528 -1.5309 -0.7679  0.3655
16562SOL     OW51169   3.040   3.535   7.214  0.1684 -0.3842 -0.4083
16562SOL    HW151170   3.128   3.529   7.178 -0.2233 -1.4449 -1.2350
16562SOL    HW251171   2.997   3.455   7.184 -0.5925 -0.6267  1.2988
16563SOL     OW51172   1.216   7.708   7.408  0.0870  0.0728  0.0812
16563SOL    HW151173   1.308   7.707   7.434 -0.1371  0.3340  0.8895
16563SOL    HW251174   1.211   7.646   7.335  0.6566 -0.8826  0.8487
16564SOL     OW51175   7.864   7.571   1.930 -0.0449 -0.2832  0.2432
16564SOL    HW151176   7.896   7.602   2.015  0.6634  3.4791 -1.3088
16564SOL    HW251177   7.922   7.613   1.866 -1.9423 -1.2981 -2.2165
16565SOL     OW51178   8.037   4.141   7.614  0.0421 -0.7806 -0.0761
16565SOL    HW151179   7.975   4.145   7.541 -0.7829 -1.2567  0.5803
16565SOL    HW251180   8.020   4.220   7.665  0.7328 -0.3646 -0.4949
16566SOL     OW51181   4.494   1.557   3.009  0.2203 -0.5499 -0.5835
16566SOL    HW151182   4.409   1.597   3.027  0.0276 -1.2131  0.0123
16566SOL    HW251183   4.508   1.570   2.915  0.4315  1.4130 -0.2958
16567SOL     OW51184   0.509   2.848   4.701  0.1980 -0.2656 -0.1590
16567SOL    HW151185   0.573   2.797   4.652  0.3716 -0.2478  0.0501
16567SOL    HW251186   0.428   2.840   4.650 -0.0213 -1.5290  0.3538
16568SOL     OW51187   0.441   6.523   2.374  0.2235 -0.1777 -0.1246
16568SOL    HW151188   0.432   6.491   2.284  3.1835 -1.4389 -0.0153
16568SOL    HW251189   0.428   6.618   2.366  0.8810 -0.2136 -1.9800
16569SOL     OW51190   2.818   6.236   7.260  0.6311  0.0180 -0.0302
16569SOL    HW151191   2.811   6.312   7.318  1.9688  0.3821 -0.3420
16569SOL    HW251192   2.748   6.250   7.195  0.2241  0.4676  0.4984
16570SOL     OW51193   7.661   4.572   3.066  0.8399  0.0237  0.4693
16570SOL    HW151194   7.728   4.589   2.999  0.5751 -0.3027  0.1248
16570SOL    HW251195   7.632   4.483   3.048  2.0810 -0.7421  2.1472
16571SOL     OW51196   0.638   4.461   0.525 -0.1768 -0.9222 -0.2338
16571SOL    HW151197   0.571   4.522   0.494  0.7687  0.9622  1.3373
16571SOL    HW251198   0.681   4.431   0.445 -2.1296 -1.2891 -1.1816
16572SOL     OW51199   1.626   7.538   1.266 -0.2267  0.1637  0.0061
16572SOL    HW151200   1.571   7.560   1.190 -0.9959  0.3421  0.6093
16572SOL    HW251201   1.609   7.446   1.282  0.5438 -0.0774 -0.5221
16573SOL     OW51202   7.169   5.557   6.923  0.6290 -0.0232  0.0732
16573SOL    HW151203   7.209   5.473   6.902  2.3164  0.0824  2.5793
16573SOL    HW251204   7.238   5.606   6.968 -0.6543  2.2986 -0.3795
16574SOL     OW51205   7.228   0.572   5.767 -0.1709  0.7273 -0.1466
16574SOL    HW151206   7.313   0.570   5.723 -0.5898 -1.0852 -0.9077
16574SOL    HW251207   7.188   0.654   5.739  0.4978  0.6323 -1.4058
16575SOL     OW51208   3.327   7.441   7.418  0.0118  0.2162 -0.0134
16575SOL    HW151209   3.346   7.361   7.368  1.0237  1.5815 -1.9023
16575SOL    HW251210   3.413   7.472   7.447 -0.2593  1.1444 -0.1851
16576SOL     OW51211   7.112   3.827   7.135  0.1558 -0.3917 -0.2185
16576SOL    HW151212   7.098   3.905   7.082  2.1959  0.4921  0.4740
16576SOL    HW251213   7.051   3.835   7.208  1.8462  1.7411  1.0588
16577SOL     OW51214   2.539   8.027   5.514 -0.2819 -0.5969 -0.2118
16577SOL    HW151215   2.472   7.961   5.498 -0.0441 -1.0631  0.6694
16577SOL    HW251216   2.491   8.101   5.551 -0.7648  0.3089 -2.5591
16578SOL     OW51217   7.883   7.318   2.645  0.2622 -0.6280 -0.2138
16578SOL    HW151218   7.945   7.369   2.594  0.2105 -0.6584 -0.3072
16578SOL    HW251219   7.923   7.312   2.732 -0.1942  0.4011  0.0674
16579SOL     OW51220   1.827   2.846   1.447  0.0581  0.0653  0.1627
16579SOL    HW151221   1.920   2.839   1.426  0.3048  0.4156  1.1262
16579SOL    HW251222   1.790   2.897   1.375  0.2525 -1.6565 -1.2060
16580SOL     OW51223   1.492   4.706   4.090  0.3466  0.2942 -0.1296
16580SOL    HW151224   1.490   4.616   4.059  1.9018  0.1768  0.0551
16580SOL    HW251225   1.561   4.748   4.038 -0.2765  1.3381 -0.1199
16581SOL     OW51226   3.200   6.704   2.818 -0.4653  0.3242 -0.4008
16581SOL    HW151227   3.274   6.754   2.784  1.2450 -1.8261  0.0283
16581SOL    HW251228   3.190   6.736   2.908 -0.2523  0.8358 -0.5522
16582SOL     OW51229   3.533   5.264   7.807  0.7286  0.3198 -0.3431
16582SOL    HW151230   3.538   5.204   7.882  1.0524  1.5683  0.6472
16582SOL    HW251231   3.603   5.236   7.749  0.1674 -0.9701 -0.4310
16583SOL     OW51232   6.114   1.530   2.368  0.2067  0.1390 -0.3983
16583SOL    HW151233   6.097   1.498   2.457  1.5169  0.4641 -0.0250
16583SOL    HW251234   6.154   1.456   2.323  0.7294  0.3834 -0.3377
16584SOL     OW51235   5.407   7.396   5.550 -0.1091 -0.0883  0.0389
16584SOL    HW151236   5.404   7.416   5.643 -0.9132  0.9823 -0.2062
16584SOL    HW251237   5.417   7.481   5.507 -1.7590 -0.3780 -0.9483
16585SOL     OW51238   4.577   4.331   2.744 -0.3430  0.6810 -1.0041
16585SOL    HW151239   4.604   4.245   2.776 -2.2604 -0.2105 -1.7180
16585SOL    HW251240   4.566   4.384   2.823 -0.2089 -0.0461 -0.4930
16586SOL     OW51241   4.192   0.956   2.406  0.4478  0.1524 -0.1628
16586SOL    HW151242   4.269   0.906   2.379  0.5622  0.7807 -1.0435
16586SOL    HW251243   4.209   0.980   2.497  0.8316 -0.5837 -0.0414
16587SOL     OW51244   6.855   4.677   2.825 -0.5050 -0.2608  0.0937
16587SOL    HW151245   6.948   4.696   2.829 -0.4976  0.1451 -1.6631
16587SOL    HW251246   6.850   4.581   2.829  0.0170 -0.3064 -0.3162
16588SOL     OW51247   5.561   7.511   1.468  0.0754  0.6749 -0.1699
16588SOL    HW151248   5.613   7.456   1.526 -0.2714  0.7013  0.1720
16588SOL    HW251249   5.470   7.489   1.489 -0.0453  0.0426 -1.3272
16589SOL     OW51250   0.054   1.903   4.651  0.1539  0.3071 -0.4435
16589SOL    HW151251   0.092   1.938   4.731  0.5652  0.7060 -0.8139
16589SOL    HW251252  -0.023   1.958   4.635 -0.4170 -0.3027  0.1322
16590SOL     OW51253   1.856   4.192   3.438  0.2229  0.1660 -0.3704
16590SOL    HW151254   1.905   4.119   3.400  1.7097  0.9066  0.1088
16590SOL    HW251255   1.794   4.218   3.369  1.1574 -0.1517 -1.3333
16591SOL     OW51256   5.646   5.472   5.030  0.2363 -0.2541 -0.0818
16591SOL    HW151257   5.610   5.540   4.972 -0.0588 -0.8261 -0.5761
16591SOL    HW251258   5.732   5.452   4.993  0.9827  0.9312  0.9529
16592SOL     OW51259   1.604   8.169   5.762 -0.4600 -0.2244 -0.6949
16592SOL    HW151260   1.541   8.174   5.690  0.5922  0.7209 -1.5762
16592SOL    HW251261   1.562   8.216   5.834 -0.9405  0.0535 -1.1485
16593SOL     OW51262   1.657   6.599   3.492 -0.6960  0.3013 -0.2325
16593SOL    HW151263   1.605   6.569   3.417 -1.7780  0.3818  0.4819
16593SOL    HW251264   1.738   6.632   3.453 -1.6214  1.1667 -1.4476
16594SOL     OW51265   5.415   4.445   7.641  0.4119 -0.0077 -0.6655
16594SOL    HW151266   5.418   4.382   7.568  4.0496 -0.7575  0.0522
16594SOL    HW251267   5.421   4.391   7.720 -1.2868  0.9674  0.1779
16595SOL     OW51268   4.945   3.834   0.677  0.1262 -0.2616 -0.0403
16595SOL    HW151269   4.951   3.909   0.736 -0.5377 -0.8574  0.8068
16595SOL    HW251270   5.035   3.819   0.647  0.3120  0.6435  0.0680
16596SOL     OW51271   7.507   3.490   3.392  0.0713  0.8095  0.1042
16596SOL    HW151272   7.541   3.475   3.304  0.4580 -0.7533  0.5052
16596SOL    HW251273   7.584   3.494   3.448 -0.2633 -0.3176  0.6644
16597SOL     OW51274   0.673   0.838   0.498  0.2174  0.7753  0.3247
16597SOL    HW151275   0.663   0.778   0.424  0.5157 -0.4904  1.3003
16597SOL    HW251276   0.719   0.914   0.461  2.9136 -1.0483 -0.1669
16598SOL     OW51277   2.737   7.938   0.157  0.4692  0.1171 -0.1741
16598SOL    HW151278   2.689   8.015   0.129  1.6421  0.3774 -1.5461
16598SOL    HW251279   2.671   7.869   0.164 -0.4239  0.9972  0.0537
16599SOL     OW51280   1.512   0.623   5.493  0.0632  0.1043 -0.1068
16599SOL    HW151281   1.441   0.645   5.554 -2.9543  1.1071 -3.7908
16599SOL    HW251282   1.552   0.707   5.471  1.8861 -0.3698  1.2837
16600SOL     OW51283   0.150   6.021   4.511  0.5472 -0.0177 -0.1741
16600SOL    HW151284   0.189   6.089   4.566 -2.0749  0.9238  0.5877
16600SOL    HW251285   0.176   6.044   4.422  1.3696  0.8249  0.2805
16601SOL     OW51286   1.965   1.666   7.951  0.0897  0.1157 -0.1551
16601SOL    HW151287   1.900   1.644   7.884  0.3458 -1.8647  0.2228
16601SOL    HW251288   2.049   1.665   7.905  0.1687 -0.3062  0.0015
16602SOL     OW51289   4.951   1.709   1.234  0.1356 -0.1250 -0.3261
16602SOL    HW151290   4.986   1.797   1.228  0.5056 -0.1065  1.7202
16602SOL    HW251291   4.924   1.687   1.145 -1.5286  2.6828 -0.5462
16603SOL     OW51292   3.532   1.879   6.954 -0.6285  0.1270 -0.0638
16603SOL    HW151293   3.541   1.830   6.873  0.0458  1.1221 -0.6079
16603SOL    HW251294   3.459   1.939   6.939 -0.5935  0.2170  0.1136
16604SOL     OW51295   2.631   3.908   6.188  0.3277  0.7142 -0.4671
16604SOL    HW151296   2.625   3.822   6.147  1.4129  0.4912 -0.1752
16604SOL    HW251297   2.694   3.956   6.133  0.3409  1.0528 -0.1601
16605SOL     OW51298   3.164   6.970   2.498  0.4572  0.2809  0.0658
16605SOL    HW151299   3.089   7.029   2.501 -0.1163 -0.5031  1.5956
16605SOL    HW251300   3.218   6.995   2.573  2.4258  1.6964 -1.7358
16606SOL     OW51301   5.427   3.460   4.066  0.3975 -0.4590  0.6798
16606SOL    HW151302   5.366   3.529   4.040 -1.1778 -1.8058  0.7044
16606SOL    HW251303   5.417   3.453   4.161  2.3308  0.8930  1.0170
16607SOL     OW51304   0.238   3.545   3.043 -0.1385  0.5865 -0.1984
16607SOL    HW151305   0.226   3.477   3.109  2.8722 -1.7707 -1.9444
16607SOL    HW251306   0.151   3.557   3.005 -0.7508 -2.3310  0.1597
16608SOL     OW51307   6.242   3.256   2.940 -0.0958  0.0860 -0.2652
16608SOL    HW151308   6.245   3.206   3.022  1.7316  1.0334  0.2774
16608SOL    HW251309   6.299   3.206   2.881 -1.0721 -0.3639 -0.8283
16609SOL     OW51310   7.573   1.434   7.075 -0.5313 -0.0248  0.5200
16609SOL    HW151311   7.506   1.503   7.076  0.0139  0.4870  1.7673
16609SOL    HW251312   7.523   1.352   7.086 -0.7655  0.5125  3.7613
16610SOL     OW51313   0.887   3.643   7.670 -0.2059  0.5474  0.8985
16610SOL    HW151314   0.911   3.552   7.653 -0.2308  0.5559  0.8184
16610SOL    HW251315   0.793   3.647   7.653 -0.3271  0.4350  1.5486
16611SOL     OW51316   3.709   4.709   2.074  0.7612 -0.4457  1.0509
16611SOL    HW151317   3.683   4.755   2.154 -0.7704 -1.1602  0.9898
16611SOL    HW251318   3.764   4.637   2.105 -0.7883 -1.4300  1.6025
16612SOL     OW51319   6.769   3.506   7.592 -0.0101 -0.0020  0.0232
16612SOL    HW151320   6.838   3.507   7.658  3.0403 -0.2478 -3.0155
16612SOL    HW251321   6.764   3.414   7.564 -1.7193 -0.0222  0.3534
16613SOL     OW51322   1.682   6.673   7.439  0.4650  0.4381 -0.2070
16613SOL    HW151323   1.646   6.636   7.358  2.0377 -0.8933 -0.3383
16613SOL    HW251324   1.725   6.598   7.481 -1.7264  0.7399  2.6799
16614SOL     OW51325   6.920   0.105   6.793 -0.8177 -0.0714 -0.7996
16614SOL    HW151326   6.911   0.063   6.708 -1.9031  0.5337 -0.9922
16614SOL    HW251327   6.831   0.117   6.825 -0.5230  1.5677 -0.5064
16615SOL     OW51328   0.705   8.239   0.847 -0.4064  0.3950  0.0924
16615SOL    HW151329   0.643   8.243   0.919  0.4925  0.1029  0.8940
16615SOL    HW251330   0.751   8.323   0.850 -0.4871  0.4508 -0.2359
16616SOL     OW51331   0.005   3.221   6.035  0.1456 -0.6150 -0.1492
16616SOL    HW151332   0.019   3.213   5.940  0.0295 -0.7577 -0.1542
16616SOL    HW251333   0.038   3.308   6.057 -1.1454 -0.0100 -0.5631
16617SOL     OW51334   6.910   2.228   8.201  0.1404 -0.3273  0.3037
16617SOL    HW151335   6.890   2.175   8.278  2.0718  0.2561  1.2315
16617SOL    HW251336   7.005   2.226   8.194  0.0488  0.3820 -1.5449
16618SOL     OW51337   8.137   3.570   7.421 -0.0519  0.3323  0.0746
16618SOL    HW151338   8.095   3.507   7.363  0.3131 -1.8026  2.0770
16618SOL    HW251339   8.145   3.525   7.505  0.9825  2.7490  1.3415
16619SOL     OW51340   0.343   3.584   4.553 -0.3025 -0.5020 -0.1153
16619SOL    HW151341   0.370   3.612   4.641 -1.1300  1.7483 -0.5502
16619SOL    HW251342   0.401   3.633   4.494  0.2391 -1.9880 -0.8359
16620SOL     OW51343   6.602   7.177   2.113  0.0208  0.1906  0.2470
16620SOL    HW151344   6.651   7.221   2.183 -1.6907  0.9680  0.9704
16620SOL    HW251345   6.546   7.115   2.159 -0.9651  0.5698 -0.4411
16621SOL     OW51346   0.248   1.623   2.379 -0.1736 -0.3445  0.3736
16621SOL    HW151347   0.183   1.656   2.316  0.0472 -0.1225  0.2636
16621SOL    HW251348   0.323   1.599   2.325  0.6155  1.3259  0.7298
16622SOL     OW51349   2.378   0.202   5.184 -0.0719  0.2067 -0.2626
16622SOL    HW151350   2.462   0.190   5.228 -0.6068  0.6401  0.9038
16622SOL    HW251351   2.397   0.263   5.112  0.8394 -0.6401 -0.7581
16623SOL     OW51352   5.556   6.703   1.042 -0.7105 -0.5411  0.1390
16623SOL    HW151353   5.639   6.694   1.089 -0.4573  3.5610  0.6984
16623SOL    HW251354   5.496   6.647   1.090  1.4194 -2.6140  0.4911
16624SOL     OW51355   0.538   3.894   4.105  0.3134 -0.0827  0.7723
16624SOL    HW151356   0.458   3.858   4.067  1.0257 -0.9949  0.0774
16624SOL    HW251357   0.595   3.909   4.029  0.7379  0.7340  1.2397
16625SOL     OW51358   0.569   1.244   2.741 -0.4827  0.1298  0.5597
16625SOL    HW151359   0.566   1.318   2.681  0.2200 -0.2623  0.0420
16625SOL    HW251360   0.649   1.257   2.791 -1.5970  1.0275  2.1613
16626SOL     OW51361   2.305   6.635   5.870 -0.5957 -0.4918 -0.0008
16626SOL    HW151362   2.322   6.641   5.964  0.9342 -1.2149 -0.2018
16626SOL    HW251363   2.212   6.653   5.860 -0.2705  2.1633  1.3777
16627SOL     OW51364   2.148   6.421   3.736  0.5954 -0.0324  0.5819
16627SOL    HW151365   2.144   6.370   3.817 -0.2002 -0.4994  0.2573
16627SOL    HW251366   2.057   6.424   3.705  0.7862  0.7707  0.0932
16628SOL     OW51367   1.224   6.087   1.061  0.0701  0.0012 -1.0230
16628SOL    HW151368   1.146   6.099   1.115 -0.4638  1.9754 -2.2073
16628SOL    HW251369   1.296   6.124   1.113 -0.3151  1.1835 -1.3290
16629SOL     OW51370   3.512   1.337   0.798  0.1804 -0.4695  0.0571
16629SOL    HW151371   3.546   1.278   0.864  0.5651  1.7607  1.9259
16629SOL    HW251372   3.426   1.302   0.775  0.0180 -1.2330  1.8057
16630SOL     OW51373   5.851   4.103   0.125 -0.2835  0.3601 -0.1543
16630SOL    HW151374   5.805   4.104   0.041  1.1344  2.3223 -0.9183
16630SOL    HW251375   5.831   4.188   0.164 -1.7841 -0.9148  2.0115
16631SOL     OW51376   1.458   5.534   2.735 -0.0853  0.3902  0.2417
16631SOL    HW151377   1.541   5.548   2.781 -1.0274 -0.5170  2.2514
16631SOL    HW251378   1.439   5.441   2.747 -1.1035  0.4482 -0.7425
16632SOL     OW51379   0.689   5.724   4.501 -0.2768 -0.1629 -0.4644
16632SOL    HW151380   0.610   5.673   4.482 -0.7569  0.3508  0.1284
16632SOL    HW251381   0.760   5.660   4.500 -0.7506 -0.6900 -0.6382
16633SOL     OW51382   7.939   3.190   3.810  0.1183  0.0579 -0.6483
16633SOL    HW151383   7.988   3.177   3.891 -0.2210 -2.6969 -0.8267
16633SOL    HW251384   7.984   3.136   3.746 -0.3114  1.2949 -2.0341
16634SOL     OW51385   4.434   3.336   7.362 -0.0264 -0.0098  0.3733
16634SOL    HW151386   4.485   3.329   7.443 -2.2309 -0.0562  1.7793
16634SOL    HW251387   4.394   3.422   7.366 -1.6595 -0.7461  0.2482
16635SOL     OW51388   6.202   2.822   3.198 -0.1016 -0.4397 -0.3865
16635SOL    HW151389   6.186   2.809   3.104  0.5528  1.3753 -0.7680
16635SOL    HW251390   6.298   2.816   3.206 -0.2677 -2.4017  0.4767
16636SOL     OW51391   0.166   6.012   7.701  0.7872  0.1921  0.0279
16636SOL    HW151392   0.092   5.951   7.699  1.3361 -0.5842  1.9470
16636SOL    HW251393   0.127   6.099   7.698 -0.0418 -0.2291 -2.0028
16637SOL     OW51394   8.116   7.862   1.598 -0.3516  0.1951 -0.2220
16637SOL    HW151395   8.131   7.919   1.523 -0.4851  1.8656  0.9971
16637SOL    HW251396   8.203   7.847   1.635 -0.4584  0.6313  0.2012
16638SOL     OW51397   5.743   8.058   1.704 -0.2374  0.2766  0.0600
16638SOL    HW151398   5.768   8.089   1.617  0.2725 -1.1423 -0.3186
16638SOL    HW251399   5.657   8.017   1.690 -0.1761  0.0894  0.2334
16639SOL     OW51400   6.954   4.637   3.692 -0.0736 -0.0190 -0.2313
16639SOL    HW151401   6.898   4.602   3.762 -0.2737 -0.6802 -0.7118
16639SOL    HW251402   6.911   4.609   3.611  0.1750  0.7066 -0.6251
16640SOL     OW51403   1.329   7.160   3.046 -0.2994  0.3516 -0.4692
16640SOL    HW151404   1.255   7.111   3.010 -0.5324 -0.6965  1.3745
16640SOL    HW251405   1.302   7.182   3.135  1.1643  0.9365 -0.1601
16641SOL     OW51406   3.357   8.063   1.586  0.0501  0.0958 -0.0587
16641SOL    HW151407   3.269   8.091   1.562  0.1634  0.9484  0.5422
16641SOL    HW251408   3.391   8.133   1.641  0.2013 -1.3732  1.7439
16642SOL     OW51409   1.035   0.346   5.738  0.3458  0.4218 -0.3885
16642SOL    HW151410   1.128   0.338   5.763  0.3822  1.0903 -0.3043
16642SOL    HW251411   1.013   0.260   5.702  1.3488  0.6567 -1.5958
16643SOL     OW51412   1.849   1.899   8.074 -0.1696 -0.0255 -0.4834
16643SOL    HW151413   1.846   1.834   8.003  0.4130  0.0206 -0.5475
16643SOL    HW251414   1.905   1.860   8.141 -0.8234 -0.1224  0.0091
16644SOL     OW51415   0.747   7.831   4.711 -0.1686  0.1264  0.9338
16644SOL    HW151416   0.659   7.860   4.737 -0.1489  1.2473 -0.1728
16644SOL    HW251417   0.806   7.892   4.754 -0.0908  1.3058 -0.7879
16645SOL     OW51418   3.061   8.107   6.550  0.8827 -0.3431 -0.5220
16645SOL    HW151419   3.055   8.147   6.637  1.0452  0.2510 -0.7828
16645SOL    HW251420   3.064   8.181   6.490  0.7803 -0.7543 -1.0368
16646SOL     OW51421   4.585   3.311   7.595 -0.4406  0.3364 -0.4694
16646SOL    HW151422   4.547   3.241   7.648 -0.5544 -0.6313 -1.8309
16646SOL    HW251423   4.612   3.377   7.660 -1.2555 -0.4960  0.7461
16647SOL     OW51424   4.692   0.281   3.632 -0.0640 -0.0974  0.1521
16647SOL    HW151425   4.639   0.259   3.708 -1.3030  0.8962 -0.4132
16647SOL    HW251426   4.713   0.196   3.592 -0.8716 -0.5141  0.6097
16648SOL     OW51427   1.711   5.697   2.386  0.1700  0.3667 -0.1451
16648SOL    HW151428   1.793   5.742   2.409  0.8762 -1.3106  0.7339
16648SOL    HW251429   1.647   5.729   2.448  0.7696 -0.1194  0.7390
16649SOL     OW51430   0.731   1.816   7.591  0.2006  0.2498  0.5698
16649SOL    HW151431   0.721   1.836   7.498 -0.2861 -0.4270  0.4770
16649SOL    HW251432   0.820   1.782   7.598  0.7563  1.6823  0.5969
16650SOL     OW51433   2.454   1.947   2.842  0.6827 -0.5629  0.7778
16650SOL    HW151434   2.508   1.914   2.914  0.9658  0.6282  1.1375
16650SOL    HW251435   2.510   2.012   2.799  0.3852 -1.0229 -0.3040
16651SOL     OW51436   2.432   5.729   3.290  0.3179 -0.0460  0.6143
16651SOL    HW151437   2.420   5.823   3.304  0.3104 -0.1898  1.6035
16651SOL    HW251438   2.344   5.692   3.297  0.5858 -0.4052  2.5126
16652SOL     OW51439   4.457   6.583   2.996  0.4185  0.2727 -0.3137
16652SOL    HW151440   4.492   6.656   2.946 -1.2662  1.7335  0.5773
16652SOL    HW251441   4.524   6.564   3.062  0.7610  1.1902 -0.3961
16653SOL     OW51442   3.125   5.503   2.823 -0.6577  0.3653 -0.5905
16653SOL    HW151443   3.092   5.434   2.881  0.8704 -0.1822 -0.3337
16653SOL    HW251444   3.071   5.496   2.745 -1.1616 -0.4959 -0.1777
16654SOL     OW51445   1.658   8.095   0.288 -0.8760  0.7927 -0.5791
16654SOL    HW151446   1.597   8.057   0.225  0.5483 -0.5015 -1.2139
16654SOL    HW251447   1.721   8.143   0.234  0.5585 -0.6252 -0.1965
16655SOL     OW51448   0.900   7.125   5.839 -0.7706 -0.7298 -0.0108
16655SOL    HW151449   0.925   7.218   5.833  2.8996 -1.6387  0.3976
16655SOL    HW251450   0.897   7.096   5.748  0.8747 -0.9036 -0.0142
16656SOL     OW51451   4.423   3.843   4.383  0.5322 -0.7536  0.0940
16656SOL    HW151452   4.341   3.793   4.374  1.5671 -2.2772 -1.2183
16656SOL    HW251453   4.420   3.906   4.311 -0.1002  0.0948  0.8598
16657SOL     OW51454   4.354   4.695   6.191  0.0671 -0.4973  0.2643
16657SOL    HW151455   4.289   4.757   6.158 -0.1141 -0.0003  1.5287
16657SOL    HW251456   4.438   4.738   6.176 -0.0884  0.3281  1.6756
16658SOL     OW51457   1.795   5.038   0.971  0.2130  0.5841  0.7284
16658SOL    HW151458   1.758   4.952   0.952 -1.4732  1.2524  0.8782
16658SOL    HW251459   1.827   5.071   0.887 -0.8472  0.5958  0.3245
16659SOL     OW51460   7.277   3.753   0.943 -0.3867  0.2348 -0.5192
16659SOL    HW151461   7.249   3.803   1.021 -0.4342  0.5612 -0.7421
16659SOL    HW251462   7.265   3.662   0.968  2.4209  0.2007  0.9376
16660SOL     OW51463   2.701   6.635   2.332 -0.1656  0.0278 -0.3022
16660SOL    HW151464   2.717   6.639   2.238  0.1571  0.8454 -0.2190
16660SOL    HW251465   2.786   6.610   2.369  0.0888  1.1498 -0.1166
16661SOL     OW51466   5.512   5.339   4.153 -0.1160  0.4100  0.6660
16661SOL    HW151467   5.577   5.273   4.127  0.0723  0.5159  0.8629
16661SOL    HW251468   5.434   5.317   4.103  0.7940  1.7210 -1.4287
16662SOL     OW51469   1.810   1.946   3.515 -0.0124  0.3050  0.2603
16662SOL    HW151470   1.833   1.984   3.600  0.1108  0.5902  0.1011
16662SOL    HW251471   1.839   1.855   3.520  0.4670  0.4580  0.3394
16663SOL     OW51472   3.695   7.874   4.230 -0.8163 -0.1984 -0.0507
16663SOL    HW151473   3.785   7.881   4.199  0.0551 -0.1349  2.3541
16663SOL    HW251474   3.652   7.952   4.196  0.2640  0.1918 -0.5421
16664SOL     OW51475   0.243   4.592   7.024 -0.3613 -0.7548 -0.2176
16664SOL    HW151476   0.214   4.651   7.093  1.0447 -0.8573  0.4744
16664SOL    HW251477   0.290   4.648   6.962  0.6566 -1.0735  0.2543
16665SOL     OW51478   2.513   0.953   7.108  0.1378 -0.0278  0.2044
16665SOL    HW151479   2.460   0.981   7.182  0.0961  1.9066 -0.5237
16665SOL    HW251480   2.572   1.027   7.091  0.6445 -0.7356 -1.2273
16666SOL     OW51481   1.507   4.941   7.339 -0.2598  0.5233 -0.5843
16666SOL    HW151482   1.434   4.879   7.349  0.0490  0.2022 -0.3224
16666SOL    HW251483   1.468   5.026   7.359 -0.3767  0.2596  0.3585
16667SOL     OW51484   5.835   2.992   0.695 -0.1711  0.1031  0.1610
16667SOL    HW151485   5.864   3.070   0.742  1.4043 -0.2124 -0.2459
16667SOL    HW251486   5.750   3.016   0.658 -0.4821  1.0372  1.4569
16668SOL     OW51487   7.770   5.932   1.384  1.2283  0.0327  0.0762
16668SOL    HW151488   7.842   5.962   1.329  1.3645 -0.8319 -0.2208
16668SOL    HW251489   7.783   5.838   1.393 -0.2120 -0.2405 -0.5072
16669SOL     OW51490   7.867   0.646   2.721  0.5469 -0.5499 -0.1565
16669SOL    HW151491   7.822   0.664   2.804  1.4584  2.6897 -0.2949
16669SOL    HW251492   7.805   0.671   2.653  0.0045 -2.6980 -0.4993
16670SOL     OW51493   1.170   0.089   1.054  0.0364 -0.3315 -0.1882
16670SOL    HW151494   1.144   0.162   0.998 -0.0515 -1.0241 -1.0743
16670SOL    HW251495   1.107   0.020   1.032  0.8119 -1.0439 -0.1841
16671SOL     OW51496   8.241   6.223   1.445  0.2622 -0.8064 -0.4575
16671SOL    HW151497   8.256   6.251   1.354  1.4595 -0.3711 -0.1442
16671SOL    HW251498   8.178   6.286   1.479  1.5129  0.4192 -0.3315
16672SOL     OW51499   2.935   1.254   2.192  0.1906 -0.2857 -0.1396
16672SOL    HW151500   2.852   1.235   2.236  0.5219 -2.1752 -0.2962
16672SOL    HW251501   2.918   1.240   2.099 -0.1549  2.4445 -0.5132
16673SOL     OW51502   3.598   0.931   1.477 -0.4312  0.5728  0.1641
16673SOL    HW151503   3.569   0.841   1.463 -1.6129  0.7921  1.1278
16673SOL    HW251504   3.628   0.961   1.391 -1.6381 -0.1723 -0.5218
16674SOL     OW51505   6.433   7.876   6.978  0.2797  0.1306  0.1122
16674SOL    HW151506   6.477   7.942   6.923  0.5090  1.0610  1.3788
16674SOL    HW251507   6.348   7.915   6.998 -0.2444 -0.6944 -0.4865
16675SOL     OW51508   6.612   0.838   2.991  0.0328 -0.3554  0.6344
16675SOL    HW151509   6.517   0.838   2.996 -0.0028 -0.5380 -0.0851
16675SOL    HW251510   6.632   0.809   2.902  0.7175  2.4299 -0.1623
16676SOL     OW51511   2.217   5.911   2.793 -0.0887  0.5824 -0.1582
16676SOL    HW151512   2.247   5.959   2.870 -0.7659  1.4870 -0.4497
16676SOL    HW251513   2.171   5.835   2.828 -0.9374  1.3236  0.3428
16677SOL     OW51514   7.628   3.194   8.082 -0.9339 -0.2763 -0.1657
16677SOL    HW151515   7.696   3.200   8.015  0.6043 -1.5400  1.2574
16677SOL    HW251516   7.634   3.276   8.130 -1.8847  0.5353 -1.3782
16678SOL     OW51517   4.435   1.433   6.781  0.4539 -0.3176 -0.0600
16678SOL    HW151518   4.465   1.343   6.776 -1.8403 -1.1083 -0.0493
16678SOL    HW251519   4.504   1.479   6.829  2.8740 -1.4789 -2.3203
16679SOL     OW51520   4.117   5.017   1.040 -0.0741  0.1879 -0.5799
16679SOL    HW151521   4.052   5.057   0.982  1.4585 -0.1003 -2.5347
16679SOL    HW251522   4.064   4.970   1.105 -1.8368  0.1507 -1.9881
16680SOL     OW51523   5.923   5.991   1.866 -0.5980  0.2067 -0.2634
16680SOL    HW151524   5.972   5.936   1.926 -0.8889  0.6445  0.3797
16680SOL    HW251525   5.987   6.055   1.835 -0.5563  0.2574 -0.0724
16681SOL     OW51526   8.006   3.238   3.199 -0.1430  0.5365 -0.1290
16681SOL    HW151527   8.098   3.241   3.172 -0.5225  1.4367 -1.3963
16681SOL    HW251528   7.993   3.316   3.252  0.3676 -0.7560  1.9565
16682SOL     OW51529   7.389   0.840   1.939 -0.4936 -0.1019  0.3006
16682SOL    HW151530   7.441   0.918   1.919 -3.2456  1.6235 -0.4268
16682SOL    HW251531   7.358   0.854   2.028  1.1840 -1.6838  1.1661
16683SOL     OW51532   1.817   6.626   5.981 -0.2796 -0.2646 -0.2913
16683SOL    HW151533   1.734   6.583   5.966 -1.3045  1.2743  0.7902
16683SOL    HW251534   1.883   6.557   5.971 -1.7420 -1.6539 -0.3898
16684SOL     OW51535   1.767   5.326   8.188  0.1030  0.5754 -0.1770
16684SOL    HW151536   1.763   5.358   8.278 -1.2083  2.1713 -0.7715
16684SOL    HW251537   1.778   5.405   8.135  1.2738 -0.3777 -1.4058
16685SOL     OW51538   8.232   2.118   7.846 -0.2177 -0.0449  0.0603
16685SOL    HW151539   8.287   2.172   7.789 -0.1854  0.0348  0.1659
16685SOL    HW251540   8.280   2.113   7.928 -0.5835  0.4096  0.3043
16686SOL     OW51541   2.382   1.210   4.452  0.0424  0.2588  0.6374
16686SOL    HW151542   2.374   1.224   4.357  2.0015 -1.9753  0.1118
16686SOL    HW251543   2.358   1.295   4.490 -1.3932  1.0215 -1.7989
16687SOL     OW51544   3.495   7.220   5.141  0.5530 -0.0347 -0.1240
16687SOL    HW151545   3.407   7.196   5.170  1.8796 -3.1720  1.5488
16687SOL    HW251546   3.542   7.237   5.222  0.8964  4.1710 -1.0912
16688SOL     OW51547   6.128   0.450   7.816  0.3004 -0.3186 -0.0071
16688SOL    HW151548   6.195   0.518   7.820 -1.0618  1.0002  0.9275
16688SOL    HW251549   6.161   0.379   7.871  2.8247 -1.4683 -2.8502
16689SOL     OW51550   0.592   3.560   5.347  0.3482 -0.3894 -0.4064
16689SOL    HW151551   0.577   3.513   5.429  1.0090  0.2716  0.1028
16689SOL    HW251552   0.505   3.567   5.308  0.0452 -0.8352  0.1673
16690SOL     OW51553   2.654   6.586   4.626 -0.0500 -0.2325 -0.7461
16690SOL    HW151554   2.630   6.588   4.719 -1.7507 -1.2742 -1.1254
16690SOL    HW251555   2.721   6.518   4.620  0.1482 -0.0813 -0.2601
16691SOL     OW51556   5.637   2.917   3.376  0.5045  0.0502 -0.0831
16691SOL    HW151557   5.730   2.904   3.356  0.3102  0.0292 -1.0020
16691SOL    HW251558   5.637   2.979   3.449  1.2232  0.6139 -0.5505
16692SOL     OW51559   0.324   5.931   7.222 -0.0052 -0.1812  0.2501
16692SOL    HW151560   0.275   5.849   7.223  0.1264 -0.2573  1.0856
16692SOL    HW251561   0.265   5.995   7.261  0.7987 -0.4300  1.9309
16693SOL     OW51562   3.020   3.853   2.299 -0.5696  0.1304  0.1441
16693SOL    HW151563   3.008   3.784   2.235 -2.1679  0.6099 -0.1092
16693SOL    HW251564   3.009   3.810   2.384 -2.1556  0.1578 -0.0287
16694SOL     OW51565   3.881   5.160   7.862  0.0094 -0.1026  0.4578
16694SOL    HW151566   3.944   5.228   7.886 -0.0770  0.8832 -1.8945
16694SOL    HW251567   3.935   5.086   7.833  0.1336  1.0233 -2.2998
16695SOL     OW51568   6.943   0.515   0.814  0.2517  0.0293 -0.2569
16695SOL    HW151569   6.906   0.434   0.849  1.0790 -0.2129  0.0582
16695SOL    HW251570   6.923   0.581   0.881  0.3187 -0.0823 -0.1262
16696SOL     OW51571   2.340   0.305   7.921  0.2364 -0.1698  0.0838
16696SOL    HW151572   2.384   0.381   7.960  1.0094 -1.5143  1.8831
16696SOL    HW251573   2.359   0.233   7.980 -1.6979 -1.4888 -0.8336
16697SOL     OW51574   7.280   6.885   7.998 -0.0645 -0.0034 -0.5859
16697SOL    HW151575   7.326   6.823   7.941  0.1316 -0.0262 -0.4017
16697SOL    HW251576   7.209   6.919   7.943 -0.3099 -0.5512 -0.6180
16698SOL     OW51577   4.820   6.931   0.852 -0.0800  0.2429 -0.0947
16698SOL    HW151578   4.765   6.963   0.924 -0.3688  1.3363 -0.7986
16698SOL    HW251579   4.881   7.003   0.835 -0.0978  0.0383 -1.0388
16699SOL     OW51580   0.941   5.093   0.886 -0.2456 -0.1822  0.0224
16699SOL    HW151581   0.904   5.166   0.936  0.5552 -0.4098  0.9552
16699SOL    HW251582   0.876   5.022   0.896 -0.7476  0.2135 -0.4126
16700SOL     OW51583   7.839   6.051   4.172  0.1549  0.6465 -0.0828
16700SOL    HW151584   7.822   6.144   4.181 -0.4610  0.6769 -1.4608
16700SOL    HW251585   7.919   6.045   4.120  0.3761  0.4076  0.2784
16701SOL     OW51586   3.846   5.518   3.614 -0.0598  0.1901 -0.1227
16701SOL    HW151587   3.850   5.606   3.650  1.1895  0.6910 -1.4141
16701SOL    HW251588   3.929   5.477   3.641 -1.2603 -1.0979  1.6954
16702SOL     OW51589   1.756   8.174   7.529  0.3162  0.0897 -0.0073
16702SOL    HW151590   1.841   8.129   7.531  1.0958  1.5305 -0.5092
16702SOL    HW251591   1.729   8.170   7.437 -0.0017 -0.0465  0.0895
16703SOL     OW51592   5.564   3.502   7.364  0.6303 -0.7418 -0.5613
16703SOL    HW151593   5.549   3.411   7.336  1.6983 -0.8678 -0.7228
16703SOL    HW251594   5.536   3.503   7.456 -1.1618 -0.7663 -1.0704
16704SOL     OW51595   7.452   1.381   2.805 -0.1058 -0.7406  0.3459
16704SOL    HW151596   7.491   1.329   2.875 -0.4772 -0.7395  0.5553
16704SOL    HW251597   7.412   1.316   2.747  1.0878 -0.8100 -0.4184
16705SOL     OW51598   2.594   7.526   1.479 -0.5322  0.0753 -0.1977
16705SOL    HW151599   2.628   7.451   1.528  0.6304  0.9928  0.4225
16705SOL    HW251600   2.512   7.494   1.441 -0.3103 -1.3515  0.4690
16706SOL     OW51601   4.335   5.740   2.547 -0.1685  0.1803  0.3355
16706SOL    HW151602   4.360   5.831   2.535  0.1274  0.3013  1.7443
16706SOL    HW251603   4.258   5.743   2.603  0.1948 -0.4415  0.8948
16707SOL     OW51604   4.487   2.247   4.843 -0.2321 -0.3261 -0.4348
16707SOL    HW151605   4.512   2.264   4.752  0.3094  0.0507 -0.2122
16707SOL    HW251606   4.556   2.191   4.877 -0.9967 -1.3751 -0.5747
16708SOL     OW51607   7.191   2.776   3.101 -0.6275  0.2945 -0.4585
16708SOL    HW151608   7.204   2.704   3.039 -0.5326  1.1295 -1.4129
16708SOL    HW251609   7.279   2.800   3.129 -0.8139 -2.7643  3.1505
16709SOL     OW51610   1.421   7.273   4.886 -0.1321 -0.0961 -0.2988
16709SOL    HW151611   1.504   7.232   4.865 -0.0444  0.1837 -0.5150
16709SOL    HW251612   1.415   7.269   4.981  0.4310  0.4609 -0.2376
16710SOL     OW51613   4.569   2.231   7.791 -0.7316  0.3486  0.3640
16710SOL    HW151614   4.478   2.221   7.817 -0.4338 -0.2713  1.2071
16710SOL    HW251615   4.612   2.264   7.870  0.1595 -1.3649  0.6160
16711SOL     OW51616   3.320   2.952   6.220 -0.4695 -0.1995 -0.4300
16711SOL    HW151617   3.355   2.867   6.247  0.2145 -0.6489 -2.6299
16711SOL    HW251618   3.296   2.940   6.128  0.2277  2.1741 -0.9496
16712SOL     OW51619   4.849   0.698   0.715 -0.1960  0.2130 -0.2707
16712SOL    HW151620   4.940   0.685   0.743  0.0153  0.9302 -0.5960
16712SOL    HW251621   4.833   0.792   0.728 -1.6540 -0.3164  2.0101
16713SOL     OW51622   2.451   0.308   3.635  0.9061 -0.1278 -0.1299
16713SOL    HW151623   2.394   0.241   3.595 -0.7720 -0.0689  2.0416
16713SOL    HW251624   2.422   0.390   3.596 -0.5509 -0.0998  0.9590
16714SOL     OW51625   2.095   0.449   2.478 -0.1140  0.4928  0.0105
16714SOL    HW151626   2.127   0.365   2.446 -2.0048 -0.6548  1.0133
16714SOL    HW251627   2.162   0.478   2.540  0.8975  0.0792 -0.8775
16715SOL     OW51628   1.775   2.788   2.289  0.2144  0.0570 -0.7968
16715SOL    HW151629   1.858   2.761   2.328  0.3944 -0.2344 -1.3806
16715SOL    HW251630   1.793   2.792   2.195 -0.5325 -0.3871 -0.9614
16716SOL     OW51631   2.267   5.627   2.127 -0.7960  0.6665  0.1111
16716SOL    HW151632   2.207   5.696   2.156 -0.5181  0.9796 -0.0517
16716SOL    HW251633   2.313   5.666   2.052 -1.7595 -0.2522 -0.9715
16717SOL     OW51634   7.253   0.824   2.992  0.3309 -0.6229 -0.2302
16717SOL    HW151635   7.310   0.748   2.978 -0.3511 -0.8851 -1.6839
16717SOL    HW251636   7.268   0.879   2.916 -1.9759 -1.0884 -1.0559
16718SOL     OW51637   7.964   3.289   0.773  0.3580 -0.2002 -0.3007
16718SOL    HW151638   7.874   3.269   0.749  0.2855  0.6594 -0.7558
16718SOL    HW251639   7.957   3.345   0.851  0.5548 -1.7474  0.8552
16719SOL     OW51640   5.826   6.104   6.027 -0.2445  0.0822  0.6709
16719SOL    HW151641   5.899   6.140   6.079  0.3177  0.2186 -0.1944
16719SOL    HW251642   5.812   6.016   6.062 -0.9976  0.7792  2.1796
16720SOL     OW51643   0.262   5.555   2.444 -0.0115  0.6927 -0.2029
16720SOL    HW151644   0.307   5.519   2.367 -1.4949 -1.0301 -0.2907
16720SOL    HW251645   0.169   5.545   2.424 -0.4178 -0.5172  2.1658
16721SOL     OW51646   0.827   6.790   3.794 -0.2242 -0.5269 -0.2127
16721SOL    HW151647   0.816   6.700   3.826  1.3162 -0.9650 -0.8753
16721SOL    HW251648   0.749   6.807   3.742 -0.2152 -1.7309 -0.6366
16722SOL     OW51649   6.041   4.444   8.109 -0.2792 -0.4993  0.5752
16722SOL    HW151650   6.116   4.461   8.166 -1.2061  0.7768  1.4418
16722SOL    HW251651   6.068   4.475   8.023  0.1368  0.0649  0.9077
16723SOL     OW51652   3.655   5.784   2.442 -0.1685  0.3474 -0.4747
16723SOL    HW151653   3.633   5.842   2.369  0.4714  0.6446 -0.4321
16723SOL    HW251654   3.682   5.702   2.401  0.8564  0.7383 -0.6026
16724SOL     OW51655   4.080   3.048   2.184  0.3496 -0.1396 -0.0301
16724SOL    HW151656   4.142   3.114   2.216  0.7974 -1.3842  1.7346
16724SOL    HW251657   4.117   3.019   2.100  1.8791 -0.4428  0.7180
16725SOL     OW51658   5.419   5.227   2.260  0.1465 -0.8797 -0.1150
16725SOL    HW151659   5.365   5.151   2.240 -0.8562 -0.1982 -0.0384
16725SOL    HW251660   5.368   5.302   2.227  1.2383 -0.2704 -0.4333
16726SOL     OW51661   0.019   4.179   2.617 -0.1536 -0.3100 -0.1139
16726SOL    HW151662  -0.051   4.145   2.562 -0.0510  1.6904 -1.5465
16726SOL    HW251663   0.067   4.101   2.645 -2.0755 -1.5881 -0.2797
16727SOL     OW51664   7.614   6.997   3.751  0.6678  0.2710 -0.6717
16727SOL    HW151665   7.684   6.933   3.765 -2.3680 -2.8936  0.6404
16727SOL    HW251666   7.571   7.004   3.836 -0.7000  2.0592 -1.4972
16728SOL     OW51667   7.662   2.109   6.847  0.4464  0.0252 -0.0699
16728SOL    HW151668   7.624   2.077   6.765  0.8193 -0.9689  0.1415
16728SOL    HW251669   7.748   2.066   6.852  0.5397  0.2945  0.7086
16729SOL     OW51670   0.314   4.763   4.366  0.6760  0.4526  0.3023
16729SOL    HW151671   0.310   4.858   4.374  2.0644  0.5672 -0.3534
16729SOL    HW251672   0.379   4.736   4.430  0.7527  0.0039  0.0369
16730SOL     OW51673   4.258   7.649   0.373 -0.3171  0.4510 -0.0632
16730SOL    HW151674   4.206   7.572   0.352 -1.7244  1.3345  0.0821
16730SOL    HW251675   4.194   7.719   0.384  0.9420  1.7139 -0.4950
16731SOL     OW51676   4.410   1.503   6.351 -0.6134  0.4178  0.4769
16731SOL    HW151677   4.356   1.577   6.376  1.2680  1.9913  0.0355
16731SOL    HW251678   4.429   1.457   6.433 -3.2789 -0.6567  0.5266
16732SOL     OW51679   5.263   6.006   7.190 -0.4320 -0.0319 -0.4599
16732SOL    HW151680   5.168   6.004   7.196 -0.4915  1.9300 -0.3758
16732SOL    HW251681   5.291   6.045   7.273  0.3586  0.7358 -1.0827
16733SOL     OW51682   7.840   1.799   8.309  0.0666 -0.2746  0.5474
16733SOL    HW151683   7.917   1.832   8.265  0.4751 -1.6475  0.2020
16733SOL    HW251684   7.872   1.728   8.365 -1.0448 -1.4233 -0.2396
16734SOL     OW51685   6.143   1.476   0.927 -0.2500 -0.3832  0.4465
16734SOL    HW151686   6.114   1.567   0.918 -1.3322 -0.7472  0.2234
16734SOL    HW251687   6.081   1.425   0.875  0.7858 -1.1817 -0.0496
16735SOL     OW51688   7.022   6.561   5.636  0.4100 -0.6699  0.4665
16735SOL    HW151689   7.100   6.615   5.649 -0.8690  0.9301  1.6530
16735SOL    HW251690   7.012   6.514   5.718  0.7917 -1.7732 -0.1137
16736SOL     OW51691   1.982   4.361   7.619 -0.2147  0.2045  0.3354
16736SOL    HW151692   2.069   4.376   7.581  0.1782 -0.9334  0.7498
16736SOL    HW251693   1.934   4.313   7.552 -0.1675 -0.1040  0.5220
16737SOL     OW51694   1.657   5.719   4.464 -0.0063  0.1776  0.1334
16737SOL    HW151695   1.647   5.688   4.374 -2.5812 -0.8584  0.7208
16737SOL    HW251696   1.594   5.792   4.471  0.5978  0.6333  0.9287
16738SOL     OW51697   2.356   1.546   2.200  0.0227  0.6069 -0.0961
16738SOL    HW151698   2.442   1.585   2.182  0.6834 -0.2921  1.0097
16738SOL    HW251699   2.312   1.609   2.257  0.0311  0.9770 -0.4995
16739SOL     OW51700   0.711   3.731   1.171 -0.1651  0.4000  0.0413
16739SOL    HW151701   0.644   3.797   1.155  0.7579  1.2830 -0.2525
16739SOL    HW251702   0.793   3.771   1.140  0.5383 -0.5585  0.6051
16740SOL     OW51703   7.232   1.369   4.898 -0.0188  0.4393 -0.1139
16740SOL    HW151704   7.152   1.359   4.847  0.4452  0.9520 -0.9458
16740SOL    HW251705   7.216   1.319   4.978 -2.0793  2.4329  0.7530
16741SOL     OW51706   6.564   5.357   7.169 -0.7892 -0.1696  0.2011
16741SOL    HW151707   6.615   5.407   7.106 -2.1645  2.0754  0.8312
16741SOL    HW251708   6.629   5.300   7.212  0.4365 -0.4224 -1.9422
16742SOL     OW51709   5.057   5.197   5.539 -0.3353  0.3457  0.0741
16742SOL    HW151710   5.139   5.237   5.565  0.7962 -2.4912  1.0179
16742SOL    HW251711   5.054   5.207   5.444  1.3549  0.0378 -0.0230
16743SOL     OW51712   6.841   0.822   1.091  0.4192 -0.2051  0.1116
16743SOL    HW151713   6.795   0.902   1.116 -0.2157 -0.4477 -0.2622
16743SOL    HW251714   6.903   0.850   1.024  2.1927  0.4672  1.9884
16744SOL     OW51715   1.218   6.945   5.813  0.3641 -0.2185 -0.2047
16744SOL    HW151716   1.294   6.896   5.843  0.6146 -0.0788 -0.6073
16744SOL    HW251717   1.200   7.006   5.884 -0.5128 -1.5035  0.7050
16745SOL     OW51718   7.669   1.858   4.320 -0.3243  0.1915  0.0616
16745SOL    HW151719   7.743   1.888   4.267 -0.9207  1.1253 -0.2565
16745SOL    HW251720   7.656   1.927   4.385 -0.6333 -0.1857  0.4045
16746SOL     OW51721   1.175   2.992   6.878 -0.1469 -0.2401  0.6258
16746SOL    HW151722   1.252   3.016   6.930  1.3816 -1.6886 -0.9197
16746SOL    HW251723   1.193   3.028   6.791 -0.8640 -1.2639  0.0541
16747SOL     OW51724   5.433   8.295   4.238 -0.3276  0.1569  0.3002
16747SOL    HW151725   5.500   8.257   4.181 -1.6917  0.4554 -1.5690
16747SOL    HW251726   5.387   8.219   4.274 -1.2579 -0.0314 -1.2349
16748SOL     OW51727   2.291   7.861   5.062  0.3976  0.4277  0.1173
16748SOL    HW151728   2.261   7.800   5.129 -0.7058 -0.5442 -1.2268
16748SOL    HW251729   2.386   7.860   5.070  0.3089 -0.1271  1.2627
16749SOL     OW51730   5.010   2.569   5.073  0.0721 -0.4208  0.0105
16749SOL    HW151731   5.105   2.575   5.059  0.3468  0.1085  1.9163
16749SOL    HW251732   4.995   2.478   5.098 -0.1932 -0.9627 -2.0678
16750SOL     OW51733   2.546   1.988   5.737 -0.2175  0.0894 -0.8353
16750SOL    HW151734   2.631   1.945   5.751 -0.5164 -0.8301 -1.8083
16750SOL    HW251735   2.563   2.052   5.668 -0.2810 -0.0170 -0.9509
16751SOL     OW51736   5.056   1.359   5.904  0.6568 -0.7244 -0.1077
16751SOL    HW151737   5.007   1.326   5.980 -0.5194  1.8918  0.3042
16751SOL    HW251738   5.077   1.280   5.854 -2.9677 -2.0488  0.3206
16752SOL     OW51739   1.985   6.385   0.464  0.0930 -0.5453  0.7393
16752SOL    HW151740   1.929   6.435   0.523  0.4715 -0.5770  1.1284
16752SOL    HW251741   1.961   6.293   0.479 -0.1057 -0.5274  0.5371
16753SOL     OW51742   5.106   1.359   4.533  0.2580 -0.1094 -0.0271
16753SOL    HW151743   5.074   1.339   4.621  0.6376  0.2774  0.1963
16753SOL    HW251744   5.201   1.365   4.542  0.4336 -1.4642 -0.7342
16754SOL     OW51745   0.010   1.122   4.157 -0.2399  0.8225 -0.2689
16754SOL    HW151746   0.099   1.134   4.190  0.1170 -0.9962 -0.5170
16754SOL    HW251747   0.020   1.118   4.062 -0.7638  1.9998 -0.3769
16755SOL     OW51748   6.375   2.211   1.970 -0.0878  0.0830  0.1056
16755SOL    HW151749   6.356   2.138   1.911 -3.2923  1.0373 -0.1653
16755SOL    HW251750   6.394   2.169   2.054 -1.9613 -1.0985 -0.0226
16756SOL     OW51751   4.063   0.759   5.295 -0.3263  0.4877 -0.2609
16756SOL    HW151752   4.023   0.711   5.222 -0.6092  0.6653 -0.2255
16756SOL    HW251753   4.030   0.849   5.285 -2.3652 -0.0339  1.5401
16757SOL     OW51754   8.275   0.012   7.055 -0.1980  0.3795 -0.3409
16757SOL    HW151755   8.245  -0.005   6.965  1.9840 -0.8398 -0.8620
16757SOL    HW251756   8.214  -0.038   7.110 -0.1614 -0.7213 -1.2774
16758SOL     OW51757   2.355   7.438   1.399 -0.5783 -0.2209  0.2050
16758SOL    HW151758   2.305   7.469   1.325 -1.7085  0.1701  1.1218
16758SOL    HW251759   2.309   7.359   1.428 -0.2554 -0.2689  0.6033
16759SOL     OW51760   3.408   0.601   4.106  0.4824  0.7076  0.0189
16759SOL    HW151761   3.447   0.647   4.032  1.1321 -0.0032 -0.0857
16759SOL    HW251762   3.360   0.528   4.066  1.5903 -0.2115  0.3562
16760SOL     OW51763   7.108   4.509   8.104 -0.3045 -0.0184  0.3712
16760SOL    HW151764   7.198   4.501   8.070  0.0142 -1.7237  1.5439
16760SOL    HW251765   7.077   4.419   8.109 -1.0415  0.3398  2.6929
16761SOL     OW51766   5.758   6.103   0.568 -0.3728  0.3120  0.7302
16761SOL    HW151767   5.670   6.064   0.573  0.3622 -1.1746  2.4546
16761SOL    HW251768   5.800   6.056   0.496 -1.0239  1.1164 -0.1866
16762SOL     OW51769   6.714   8.296   7.886  0.6843  0.4335 -0.4042
16762SOL    HW151770   6.698   8.222   7.943  1.7539  0.6112  0.1418
16762SOL    HW251771   6.629   8.340   7.878  0.9965  1.8756  3.1279
16763SOL     OW51772   5.031   3.852   4.387  0.2049 -0.3572  0.2784
16763SOL    HW151773   4.977   3.913   4.437  3.1635  0.6272  2.4229
16763SOL    HW251774   5.021   3.768   4.432  0.3113 -0.2298  0.5368
16764SOL     OW51775   3.169   4.257   3.734  0.4316  0.5255  0.1097
16764SOL    HW151776   3.096   4.208   3.774  0.9812  0.2626  0.8009
16764SOL    HW251777   3.185   4.213   3.651 -0.7425  1.0893 -0.4316
16765SOL     OW51778   4.314   3.281   2.202 -0.4441  0.3627 -0.1548
16765SOL    HW151779   4.373   3.356   2.190 -0.0835  0.1261  0.1244
16765SOL    HW251780   4.371   3.210   2.232 -1.0498  0.4541  1.2492
16766SOL     OW51781   3.156   1.597   0.965 -0.3840 -0.0164  0.1542
16766SOL    HW151782   3.206   1.522   0.997  1.0192  0.6219 -0.5204
16766SOL    HW251783   3.065   1.574   0.983  0.2822  0.0802  4.1366
16767SOL     OW51784   0.859   1.975   4.845 -0.0463 -0.1755 -0.1343
16767SOL    HW151785   0.938   1.929   4.874 -0.4654 -0.2632  0.9149
16767SOL    HW251786   0.870   1.987   4.751 -0.3447 -3.2438 -0.5975
16768SOL     OW51787   3.024   7.684   3.237 -0.5711 -0.8137 -0.0393
16768SOL    HW151788   3.114   7.656   3.219 -0.3661 -0.2809  0.1435
16768SOL    HW251789   3.018   7.682   3.332  0.6851  3.4850  0.2473
16769SOL     OW51790   1.632   4.009   3.440  0.2170  0.2712 -0.1898
16769SOL    HW151791   1.581   4.089   3.426  0.3633  0.8328  2.2010
16769SOL    HW251792   1.700   4.035   3.503  1.8786 -1.1028 -1.3670
16770SOL     OW51793   1.504   0.059   3.181 -1.0623 -0.3497 -0.0439
16770SOL    HW151794   1.516   0.015   3.266 -0.0333 -2.2935 -1.1673
16770SOL    HW251795   1.413   0.089   3.183 -0.4416  1.5287  2.6051
16771SOL     OW51796   5.199   4.805   2.865 -0.0145 -0.1912  0.1582
16771SOL    HW151797   5.210   4.763   2.780 -0.2834  1.2069 -0.5982
16771SOL    HW251798   5.110   4.782   2.893 -0.2102 -0.0158 -0.3140
16772SOL     OW51799   0.168   6.778   8.310 -0.0112 -0.0962 -0.8109
16772SOL    HW151800   0.144   6.707   8.250 -2.0300  1.5626 -2.0518
16772SOL    HW251801   0.105   6.770   8.382  1.5419 -1.2453  0.4500
16773SOL     OW51802   2.092   6.299   2.022 -0.4516 -0.0030  0.0073
16773SOL    HW151803   2.035   6.296   2.099 -0.0133 -0.0033  0.3345
16773SOL    HW251804   2.161   6.362   2.045  0.3140 -0.8449  0.0671
16774SOL     OW51805   5.273   1.692   4.624  0.2382  0.5266 -0.0365
16774SOL    HW151806   5.260   1.708   4.530  0.2501  1.4670  0.1211
16774SOL    HW251807   5.293   1.599   4.629 -2.3565 -0.0998 -0.7138
16775SOL     OW51808   4.588   1.470   4.974  0.2015 -0.0327  0.3165
16775SOL    HW151809   4.569   1.464   4.881  0.9721 -0.6515  0.1923
16775SOL    HW251810   4.512   1.513   5.012 -0.3082 -0.1839 -0.5330
16776SOL     OW51811   0.369   6.002   2.203  0.8149  0.0248  0.7670
16776SOL    HW151812   0.316   6.081   2.213 -0.4960 -0.9908  2.0462
16776SOL    HW251813   0.419   5.996   2.285  1.1981 -0.2653  0.5180
16777SOL     OW51814   8.254   2.824   0.250 -0.4162 -0.3164 -0.0053
16777SOL    HW151815   8.197   2.856   0.320 -0.3548  0.0087 -0.1040
16777SOL    HW251816   8.237   2.883   0.176 -1.3911 -1.4091 -0.6611
16778SOL     OW51817   7.826   3.288   2.837 -0.4347  0.1697  0.2991
16778SOL    HW151818   7.834   3.213   2.897  0.4977 -0.0408 -0.0861
16778SOL    HW251819   7.790   3.251   2.757  2.2601 -0.3190 -0.7299
16779SOL     OW51820   7.586   3.270   1.005  0.8644 -0.0061 -0.1639
16779SOL    HW151821   7.643   3.204   1.042 -0.3988 -0.6302  0.6746
16779SOL    HW251822   7.560   3.325   1.079 -1.0436 -0.7985 -0.2081
16780SOL     OW51823   7.157   5.608   3.787 -0.3692  0.5188  0.1673
16780SOL    HW151824   7.180   5.548   3.717  1.9271  1.0446  0.4508
16780SOL    HW251825   7.231   5.605   3.847 -1.1543  2.0426  1.2471
16781SOL     OW51826   5.546   6.549   6.679 -0.7147 -0.0670 -0.6488
16781SOL    HW151827   5.495   6.517   6.753 -0.3258 -1.1019 -0.8290
16781SOL    HW251828   5.485   6.546   6.605 -1.2980  1.5577 -0.2739
16782SOL     OW51829   3.930   1.290   3.857  0.0207 -0.2686  0.0679
16782SOL    HW151830   3.988   1.214   3.851  0.2929 -0.0141 -0.6391
16782SOL    HW251831   3.928   1.312   3.950 -0.0598 -1.1397  0.2735
16783SOL     OW51832   1.712   5.022   3.754 -0.4031  0.6494 -0.0153
16783SOL    HW151833   1.770   5.051   3.684  0.5906 -2.2338 -0.4579
16783SOL    HW251834   1.691   5.102   3.803 -0.1062  2.5148 -2.8062
16784SOL     OW51835   3.731   1.955   7.177 -0.3276 -0.1389 -0.2372
16784SOL    HW151836   3.711   1.924   7.265  0.8836  0.3738  0.2348
16784SOL    HW251837   3.660   1.922   7.122 -0.1143 -2.0373  0.6093
16785SOL     OW51838   1.722   2.701   0.310  0.1806  0.0447  0.8002
16785SOL    HW151839   1.808   2.660   0.309 -0.2440 -0.8350 -0.3640
16785SOL    HW251840   1.697   2.708   0.218 -1.5724 -0.9431  1.1824
16786SOL     OW51841   3.065   0.606   2.722  0.2699 -0.3426  0.0142
16786SOL    HW151842   3.109   0.548   2.784  3.2520  0.3576 -1.3715
16786SOL    HW251843   3.136   0.652   2.678 -1.8235  0.0757 -3.0571
16787SOL     OW51844   8.105   0.977   4.282  0.0809 -0.0814  0.1922
16787SOL    HW151845   8.171   0.915   4.312 -0.4456 -0.9586 -0.4337
16787SOL    HW251846   8.155   1.049   4.244  0.6948 -0.1221  0.9344
16788SOL     OW51847   5.374   5.185   5.567  0.2504 -0.0211  0.1626
16788SOL    HW151848   5.452   5.170   5.514  0.3151  1.4638 -0.2078
16788SOL    HW251849   5.393   5.267   5.614 -1.0360  0.3120  0.1242
16789SOL     OW51850   5.205   8.102   4.956 -0.2093 -0.0623  0.6679
16789SOL    HW151851   5.127   8.057   4.922  1.2254 -2.3413  0.3033
16789SOL    HW251852   5.272   8.088   4.890  0.8630  0.8719  1.5407
16790SOL     OW51853   6.378   1.615   2.380 -0.5417 -0.2744 -0.3409
16790SOL    HW151854   6.406   1.528   2.351 -1.2259 -0.4929 -0.3638
16790SOL    HW251855   6.283   1.615   2.365 -0.4873  0.6082 -0.6870
16791SOL     OW51856   6.884   4.741   5.240  0.0405  0.5152 -0.2696
16791SOL    HW151857   6.806   4.777   5.199 -2.3457 -0.0706  3.5106
16791SOL    HW251858   6.929   4.816   5.277 -0.1224  0.5648 -0.1746
16792SOL     OW51859   7.025   1.980   4.504  0.1066 -0.3342 -0.8366
16792SOL    HW151860   7.031   1.956   4.412  1.9467  0.8291 -1.0434
16792SOL    HW251861   7.095   1.930   4.547 -1.6839 -2.0064  0.1988
16793SOL     OW51862   3.450   8.018   5.117 -0.0153 -0.1072  0.1753
16793SOL    HW151863   3.402   7.992   5.196 -0.1521 -2.3216 -0.6046
16793SOL    HW251864   3.392   7.996   5.045  0.9264  0.0530 -0.6418
16794SOL     OW51865   7.414   6.856   1.942  0.5936 -0.0167  0.0891
16794SOL    HW151866   7.447   6.944   1.959  2.0650 -0.6514  0.5926
16794SOL    HW251867   7.352   6.867   1.870  2.5525  1.0771 -1.4748
16795SOL     OW51868   7.064   3.204   7.318  0.1220 -0.3493  0.4506
16795SOL    HW151869   7.071   3.171   7.228 -0.1979  2.4982 -0.6707
16795SOL    HW251870   7.129   3.154   7.367  0.8806 -1.3587 -1.5388
16796SOL     OW51871   6.751   6.843   7.737 -0.2582  0.1211 -0.1023
16796SOL    HW151872   6.683   6.911   7.731  0.2094  0.4982 -1.4470
16796SOL    HW251873   6.806   6.858   7.659  0.3378 -1.2785  0.0406
16797SOL     OW51874   5.538   8.161   0.806  0.4976 -0.1549  0.3406
16797SOL    HW151875   5.528   8.148   0.900  0.7709  1.9364  0.6919
16797SOL    HW251876   5.514   8.253   0.792  2.4505  0.1344 -1.3315
16798SOL     OW51877   3.260   2.301   1.886 -0.2213  0.7047 -0.4836
16798SOL    HW151878   3.178   2.279   1.840 -0.2020 -0.3268 -0.0448
16798SOL    HW251879   3.284   2.387   1.852 -1.5983  1.1068 -0.4734
16799SOL     OW51880   2.379   8.245   4.588  0.3509  0.1600  0.3751
16799SOL    HW151881   2.468   8.245   4.623  0.1319  0.6416  0.9277
16799SOL    HW251882   2.355   8.152   4.585  0.7520  0.0474  0.5178
16800SOL     OW51883   5.214   3.628   5.253  0.3734  0.0469 -0.1444
16800SOL    HW151884   5.147   3.560   5.257  1.0043 -0.6192 -0.8546
16800SOL    HW251885   5.279   3.601   5.318  0.0850  0.5740  0.3793
16801SOL     OW51886   2.465   7.855   6.437  0.1370  0.8703 -0.6531
16801SOL    HW151887   2.424   7.938   6.461  1.5548  1.7575 -1.2217
16801SOL    HW251888   2.508   7.873   6.354  1.0573 -0.2230 -0.4210
16802SOL     OW51889   4.414   1.429   8.114 -0.2999  0.3095 -0.3245
16802SOL    HW151890   4.359   1.475   8.177  1.6506  2.7436 -0.3392
16802SOL    HW251891   4.497   1.416   8.160  0.5268  0.4778 -1.7508
16803SOL     OW51892   0.058   1.342   3.559 -0.3116 -0.1002  0.1856
16803SOL    HW151893  -0.020   1.290   3.577  0.5073 -1.4414 -0.0707
16803SOL    HW251894   0.043   1.425   3.605 -1.7930 -0.4201  0.2934
16804SOL     OW51895   7.509   3.454   2.168  0.0243 -0.0417  0.3764
16804SOL    HW151896   7.427   3.454   2.216  1.3427  2.0081  2.7672
16804SOL    HW251897   7.499   3.523   2.102  0.7027  2.1065  2.4202
16805SOL     OW51898   2.796   3.865   0.714  0.1001 -0.3178  0.0708
16805SOL    HW151899   2.724   3.822   0.668 -1.0375  2.9403 -1.2964
16805SOL    HW251900   2.756   3.900   0.794  1.1709 -2.2786  1.5320
16806SOL     OW51901   3.299   0.866   4.529  0.1613 -0.6179  0.1160
16806SOL    HW151902   3.219   0.848   4.580  0.1885 -3.4861 -0.7727
16806SOL    HW251903   3.292   0.809   4.453  1.8942  0.9565 -1.2608
16807SOL     OW51904   5.118   0.314   6.715 -0.3950  0.4673  0.1819
16807SOL    HW151905   5.075   0.239   6.674  1.1164  1.1323 -2.7674
16807SOL    HW251906   5.102   0.303   6.809 -0.8913 -3.0842 -0.2570
16808SOL     OW51907   5.253   1.967   3.243 -0.3910 -0.5863  0.3055
16808SOL    HW151908   5.343   1.998   3.239  0.1007 -1.6370  2.5780
16808SOL    HW251909   5.201   2.046   3.259  0.2654 -0.1743  0.4138
16809SOL     OW51910   1.159   2.118   7.753 -0.4449  0.1589 -0.1391
16809SOL    HW151911   1.209   2.142   7.675 -0.5585  1.4905  0.1873
16809SOL    HW251912   1.077   2.083   7.719 -0.3409  0.3824 -0.6273
16810SOL     OW51913   0.292   4.471   6.613 -0.1958 -0.0921 -0.5474
16810SOL    HW151914   0.354   4.505   6.677  0.2432 -0.8788 -0.5529
16810SOL    HW251915   0.206   4.491   6.650  0.0525  0.7459 -0.4092
16811SOL     OW51916   5.977   0.704   2.847  0.1035  0.4932 -0.7427
16811SOL    HW151917   5.997   0.626   2.898 -0.2139 -0.1578 -1.6141
16811SOL    HW251918   6.006   0.777   2.903 -1.8370 -0.1158  1.1043
16812SOL     OW51919   5.278   7.255   4.775  0.4274  0.3517 -0.2359
16812SOL    HW151920   5.250   7.278   4.687 -0.9396 -0.5340 -0.0539
16812SOL    HW251921   5.258   7.332   4.828 -0.7864  0.1021 -0.3049
16813SOL     OW51922   6.993   0.213   4.428  0.3485 -0.2077  0.8782
16813SOL    HW151923   6.902   0.204   4.400  0.5385  1.9024 -0.5254
16813SOL    HW251924   7.043   0.168   4.360  0.3991 -0.8225  1.3209
16814SOL     OW51925   0.115   5.231   0.302  0.3871 -0.0742 -0.5683
16814SOL    HW151926   0.144   5.296   0.238  1.8960 -0.7184 -0.5614
16814SOL    HW251927   0.113   5.149   0.254  0.1306 -0.3081 -0.1591
16815SOL     OW51928   4.274   5.306   5.536 -0.0154  0.3615  0.4980
16815SOL    HW151929   4.280   5.317   5.441  0.9996 -0.2971  0.4737
16815SOL    HW251930   4.227   5.383   5.566 -1.9033 -0.2919 -0.7285
16816SOL     OW51931   4.470   3.663   5.282  0.4444  0.2885  0.4105
16816SOL    HW151932   4.469   3.577   5.323  0.9560  0.1152  0.0576
16816SOL    HW251933   4.407   3.714   5.333 -0.0014 -0.3422  0.5020
16817SOL     OW51934   1.311   3.138   5.233 -0.0578  0.0705  0.2166
16817SOL    HW151935   1.392   3.106   5.193 -1.3396 -1.7339 -1.0529
16817SOL    HW251936   1.332   3.146   5.326  0.7098 -3.4632  0.4262
16818SOL     OW51937   3.553   0.218   2.162 -0.0266 -0.1332  0.2731
16818SOL    HW151938   3.477   0.209   2.220  0.5952 -0.4128  1.0635
16818SOL    HW251939   3.532   0.291   2.105  0.3359  1.7105  2.4174
16819SOL     OW51940   6.849   1.299   6.071  0.5305 -0.0515 -0.6636
16819SOL    HW151941   6.798   1.357   6.015 -1.3052  0.7392  1.7309
16819SOL    HW251942   6.913   1.357   6.113  0.2811 -0.1866 -0.0948
16820SOL     OW51943   6.746   4.448   6.821 -0.4161  0.0433 -0.0114
16820SOL    HW151944   6.817   4.512   6.829 -0.2002 -0.1286 -0.5349
16820SOL    HW251945   6.785   4.375   6.772 -1.3168  0.4686 -1.3680
16821SOL     OW51946   5.971   3.657   3.523 -0.0546 -0.0485  0.2671
16821SOL    HW151947   6.003   3.676   3.611  0.8924  0.8975 -0.2672
16821SOL    HW251948   5.936   3.740   3.491 -0.9316 -0.5208 -0.0363
16822SOL     OW51949   1.258   0.220   3.522 -0.1172 -0.4556 -0.2358
16822SOL    HW151950   1.340   0.224   3.573  0.3081 -0.4855 -0.9164
16822SOL    HW251951   1.189   0.217   3.589  0.3923  0.5290  0.3530
16823SOL     OW51952   3.156   7.123   8.078 -0.2992 -0.8500 -0.0149
16823SOL    HW151953   3.200   7.095   8.159 -1.0330 -0.2232  0.6082
16823SOL    HW251954   3.228   7.141   8.017  0.2415 -1.8675  0.3227
16824SOL     OW51955   1.141   2.151   4.123 -0.4271  0.0939  0.1085
16824SOL    HW151956   1.230   2.153   4.159  0.3408 -3.0456 -1.3872
16824SOL    HW251957   1.154   2.152   4.028 -1.9868 -0.4332 -0.1258
16825SOL     OW51958   0.726   7.706   3.843 -0.3359  0.1021  0.1652
16825SOL    HW151959   0.808   7.744   3.812 -0.8404  0.8734 -0.2437
16825SOL    HW251960   0.750   7.661   3.925  0.8825 -1.4668 -1.0266
16826SOL     OW51961   4.700   0.180   1.737  0.2068 -0.3264 -0.1456
16826SOL    HW151962   4.638   0.165   1.808 -0.7319 -0.8199 -1.0601
16826SOL    HW251963   4.758   0.248   1.770  0.1358 -0.9514  1.3129
16827SOL     OW51964   8.209   1.188   2.488 -0.2270 -0.2040  0.4450
16827SOL    HW151965   8.291   1.220   2.451  0.8945 -1.2115  1.9904
16827SOL    HW251966   8.220   1.093   2.494 -1.3102 -0.3070  1.1087
16828SOL     OW51967   6.947   5.030   3.577 -0.1250 -0.3744 -0.6358
16828SOL    HW151968   6.957   5.125   3.578  0.7881 -0.4655 -1.2795
16828SOL    HW251969   6.854   5.016   3.598  0.1237  0.5866  1.2313
16829SOL     OW51970   5.577   2.605   0.889  0.5130  0.4752  0.1162
16829SOL    HW151971   5.600   2.608   0.981  1.4673  1.2877 -0.1464
16829SOL    HW251972   5.532   2.688   0.873  0.5938  0.4566 -0.2117
16830SOL     OW51973   2.416   7.301   6.683  0.2682  0.6506 -0.0605
16830SOL    HW151974   2.504   7.299   6.721 -0.2015 -1.1068  0.9611
16830SOL    HW251975   2.357   7.296   6.758 -0.6941  0.8072 -0.8026
16831SOL     OW51976   2.480   0.663   1.702  0.7235 -0.2500 -0.1132
16831SOL    HW151977   2.396   0.709   1.694  0.6058 -0.7898 -2.2023
16831SOL    HW251978   2.545   0.733   1.699  0.4398 -0.0072 -0.5828
16832SOL     OW51979   3.275   6.863   4.138 -0.2214 -0.5534  0.0294
16832SOL    HW151980   3.310   6.833   4.054  0.5443  1.9221 -0.5975
16832SOL    HW251981   3.344   6.844   4.201 -0.0524 -0.8060 -0.2292
16833SOL     OW51982   2.146   0.340   5.183 -0.7027 -0.6574 -0.0640
16833SOL    HW151983   2.070   0.286   5.206 -0.8563 -0.0791  0.8220
16833SOL    HW251984   2.221   0.286   5.204 -0.8609 -1.1364 -0.7019
16834SOL     OW51985   6.720   4.541   4.151  0.1681  0.0120 -0.3687
16834SOL    HW151986   6.743   4.505   4.237 -0.8545 -0.7119 -0.3937
16834SOL    HW251987   6.684   4.627   4.170  0.6811  0.1799 -0.1401
16835SOL     OW51988   3.082   5.026   7.115 -0.0910  0.1895 -0.1097
16835SOL    HW151989   3.025   4.949   7.106  0.4119 -0.1704 -0.2094
16835SOL    HW251990   3.047   5.073   7.191  0.7596 -1.1227  1.1076
16836SOL     OW51991   3.418   5.538   1.848 -0.3910  0.5489 -0.2299
16836SOL    HW151992   3.421   5.452   1.890  0.4078  1.0087  0.6650
16836SOL    HW251993   3.352   5.586   1.898 -1.6229  0.1198 -1.4060
16837SOL     OW51994   8.044   0.941   6.002 -0.0109  0.0553  0.0678
16837SOL    HW151995   8.072   1.017   5.951  1.0241 -1.4712 -1.6527
16837SOL    HW251996   8.121   0.885   6.006 -0.1173  0.0430  3.1742
16838SOL     OW51997   0.625   1.787   3.513 -0.1131  0.1728 -0.1916
16838SOL    HW151998   0.554   1.847   3.490  0.5196  0.4296 -1.5267
16838SOL    HW251999   0.639   1.735   3.433  1.6355  0.5628 -0.1548
16839SOL     OW52000   5.209   6.851   1.115  0.3467  0.6810 -0.5677
16839SOL    HW152001   5.143   6.890   1.172 -0.9160 -2.0287 -0.1021
16839SOL    HW252002   5.253   6.785   1.169  2.5472  1.4878 -1.2837
16840SOL     OW52003   7.706   4.772   4.691  0.0001 -0.0511  0.0287
16840SOL    HW152004   7.723   4.775   4.597 -3.1156 -0.0714 -0.5896
16840SOL    HW252005   7.633   4.833   4.704 -0.6266 -1.2183  2.2043
16841SOL     OW52006   1.266   6.753   5.195  0.1627 -0.1465  0.1615
16841SOL    HW152007   1.212   6.723   5.268  1.0658 -0.4673  0.6963
16841SOL    HW252008   1.356   6.733   5.221  0.5347  0.2561 -0.7901
16842SOL     OW52009   3.319   8.075   0.975 -0.0542  0.4798  0.2093
16842SOL    HW152010   3.232   8.054   1.009  0.6154 -1.5442  0.7244
16842SOL    HW252011   3.302   8.106   0.886 -1.3399  0.6260  0.4824
16843SOL     OW52012   0.825   7.553   4.332  0.0673 -0.4469  0.0957
16843SOL    HW152013   0.755   7.564   4.397  0.4014  1.0670  0.2172
16843SOL    HW252014   0.906   7.558   4.383  0.2907 -1.0198 -0.2019
16844SOL     OW52015   0.707   7.305   7.799 -0.3176  0.5913  0.4446
16844SOL    HW152016   0.735   7.377   7.742  0.8050 -0.6048 -0.5501
16844SOL    HW252017   0.766   7.311   7.874 -0.8951  1.3322  0.8407
16845SOL     OW52018   1.423   0.306   7.251  0.3360  0.8403 -0.1590
16845SOL    HW152019   1.498   0.247   7.254 -0.0720  0.3554  0.6755
16845SOL    HW252020   1.444   0.376   7.313  0.0552  0.6372  0.1730
16846SOL     OW52021   2.151   0.358   3.963 -0.0935 -0.4507  0.1381
16846SOL    HW152022   2.055   0.357   3.964 -0.1510  0.8004 -1.4970
16846SOL    HW252023   2.175   0.278   3.915 -0.1914 -2.2826  2.9860
16847SOL     OW52024   4.619   1.802   7.288 -0.6586 -0.0338 -0.0040
16847SOL    HW152025   4.537   1.753   7.284 -0.3027 -0.5396 -1.6026
16847SOL    HW252026   4.610   1.870   7.221 -0.2093  0.5959  0.5693
16848SOL     OW52027   4.654   2.062   6.098 -0.2246 -0.2198 -0.1968
16848SOL    HW152028   4.711   2.136   6.077 -0.7411  0.6401  1.3062
16848SOL    HW252029   4.647   2.013   6.017 -1.5717  2.5375 -1.8232
16849SOL     OW52030   5.995   8.233   1.651  0.0938  0.2934 -0.2342
16849SOL    HW152031   5.948   8.315   1.634  1.2894  0.9180 -0.6111
16849SOL    HW252032   6.049   8.252   1.728  1.3852  0.2983 -1.1181
16850SOL     OW52033   3.375   2.797   7.521  0.2452 -0.1540 -0.0148
16850SOL    HW152034   3.389   2.703   7.509 -0.8149 -0.5275  1.6061
16850SOL    HW252035   3.461   2.831   7.546  0.5554 -0.7385 -0.2782
16851SOL     OW52036   7.126   4.822   3.595  0.1618  0.8121 -0.1573
16851SOL    HW152037   7.076   4.901   3.574  0.3451  0.7667 -0.7698
16851SOL    HW252038   7.062   4.762   3.633 -0.3898  0.4992 -1.5515
16852SOL     OW52039   1.457   6.438   2.917 -0.2638  0.1060  0.5589
16852SOL    HW152040   1.388   6.390   2.962 -1.6366  2.3520  0.9331
16852SOL    HW252041   1.498   6.491   2.986 -0.6088  1.5401 -0.3167
16853SOL     OW52042   7.212   3.202   2.617  0.6643  0.0099 -0.3223
16853SOL    HW152043   7.299   3.241   2.629 -0.2037  2.0625 -0.4394
16853SOL    HW252044   7.185   3.232   2.530  0.3442 -1.6458 -0.8024
16854SOL     OW52045   7.190   4.366   5.569 -1.0165  0.1307 -0.5343
16854SOL    HW152046   7.190   4.416   5.487 -0.1643  1.0815  0.0246
16854SOL    HW252047   7.106   4.321   5.569 -1.0108  0.0728 -1.9588
16855SOL     OW52048   7.491   6.352   4.898 -0.1105 -0.2562  0.3054
16855SOL    HW152049   7.464   6.440   4.926 -0.7701  0.1277 -1.4561
16855SOL    HW252050   7.409   6.305   4.884  0.0066  0.5616 -3.9689
16856SOL     OW52051   5.912   4.591   5.141 -0.0291  0.6364  0.5607
16856SOL    HW152052   5.828   4.559   5.174  0.1531  0.9999  1.4060
16856SOL    HW252053   5.975   4.564   5.207  0.5419  0.2552 -0.1345
16857SOL     OW52054   4.805   5.783   4.573  0.5234 -0.8909  0.2221
16857SOL    HW152055   4.885   5.757   4.619 -0.5520 -1.2755  1.9310
16857SOL    HW252056   4.734   5.766   4.636 -0.9088 -0.5567 -1.2508
16858SOL     OW52057   6.006   3.692   5.172 -0.0739 -0.3138 -0.2190
16858SOL    HW152058   5.942   3.687   5.243  1.5244  3.5087  1.6077
16858SOL    HW252059   6.070   3.624   5.193 -0.8466 -0.7651  0.7379
16859SOL     OW52060   2.132   1.470   4.335 -0.1646 -0.6848  0.0906
16859SOL    HW152061   2.140   1.535   4.405  0.1109 -0.3939 -0.2058
16859SOL    HW252062   2.125   1.387   4.380  2.7178 -0.7934  0.4555
16860SOL     OW52063   6.072   8.040   2.172  0.0912 -0.1769 -0.1460
16860SOL    HW152064   6.095   8.130   2.146 -1.0189  0.9159  2.4607
16860SOL    HW252065   6.035   8.002   2.092 -1.5347  2.4627 -0.7558
16861SOL     OW52066   7.546   0.506   2.041 -0.3818 -0.7432  0.1174
16861SOL    HW152067   7.571   0.596   2.061  1.9488 -1.3123 -0.0855
16861SOL    HW252068   7.540   0.503   1.945 -1.0500 -0.6623  0.1544
16862SOL     OW52069   1.279   4.457   2.762 -0.7631 -0.1247  0.4501
16862SOL    HW152070   1.299   4.390   2.697 -1.8619  0.3212 -0.3654
16862SOL    HW252071   1.219   4.414   2.824 -0.9805 -0.0849  0.2694
16863SOL     OW52072   0.675   2.513   1.680 -0.4048 -0.1998  1.0443
16863SOL    HW152073   0.725   2.521   1.762  0.8178 -0.0496  0.2902
16863SOL    HW252074   0.658   2.419   1.672 -0.9835 -0.1586  1.7378
16864SOL     OW52075   6.886   6.322   6.988 -0.3941 -0.1236  0.1195
16864SOL    HW152076   6.879   6.407   7.031 -3.4096 -0.6121  0.7055
16864SOL    HW252077   6.977   6.316   6.961  0.4798  2.1626  2.3976
16865SOL     OW52078   2.699   5.228   5.410  0.7318  0.1823 -0.8273
16865SOL    HW152079   2.735   5.203   5.325  0.8566  0.2254 -0.7884
16865SOL    HW252080   2.776   5.256   5.461  1.0433 -2.2530  0.1661
16866SOL     OW52081   4.663   1.782   2.510  0.4007  0.8528  0.0255
16866SOL    HW152082   4.740   1.726   2.520 -1.4023 -1.6011  0.8224
16866SOL    HW252083   4.696   1.861   2.467  2.8824 -1.2349 -2.1162
16867SOL     OW52084   4.904   3.418   1.424  0.6732  0.0927  0.4644
16867SOL    HW152085   4.853   3.446   1.500 -0.3646 -1.6009  0.4170
16867SOL    HW252086   4.874   3.476   1.353  1.1261  1.1998  1.1623
16868SOL     OW52087   6.829   2.542   5.181 -0.2778 -0.0802  0.4822
16868SOL    HW152088   6.906   2.539   5.237  0.4621  0.6246 -0.4790
16868SOL    HW252089   6.764   2.488   5.226 -0.0501  1.3330  2.5049
16869SOL     OW52090   6.171   7.083   0.523 -0.7338  0.1767  0.6428
16869SOL    HW152091   6.158   7.076   0.618  1.8313  0.5451  1.0767
16869SOL    HW252092   6.221   7.164   0.512 -0.3835 -0.2395 -0.9581
16870SOL     OW52093   1.717   5.426   0.145 -0.1726 -0.2130 -0.5013
16870SOL    HW152094   1.679   5.514   0.143 -1.2483 -0.6841 -0.7278
16870SOL    HW252095   1.795   5.435   0.201  0.8163  1.3047 -2.0763
16871SOL     OW52096   6.052   0.868   6.914 -0.3292 -0.3272  0.0133
16871SOL    HW152097   5.958   0.859   6.905 -0.3666  0.2169 -0.1723
16871SOL    HW252098   6.064   0.951   6.960  0.0791  0.0859 -0.8081
16872SOL     OW52099   1.161   0.826   4.018 -0.3131  0.0330 -0.2962
16872SOL    HW152100   1.167   0.915   4.052  2.0135 -0.2016 -0.0293
16872SOL    HW252101   1.252   0.798   4.007 -0.9996 -2.6770  0.5598
16873SOL     OW52102   0.277   6.733   2.781 -0.3346 -0.0572 -0.7958
16873SOL    HW152103   0.213   6.763   2.717  0.5745 -0.5336 -1.9341
16873SOL    HW252104   0.301   6.645   2.752  0.2626 -0.1814  0.0569
16874SOL     OW52105   0.822   1.003   3.629  0.1287  0.3456 -0.2323
16874SOL    HW152106   0.850   0.983   3.718 -0.6975  0.1311 -0.0159
16874SOL    HW252107   0.891   0.968   3.573  0.4693  0.1583  0.3068
16875SOL     OW52108   5.182   2.304   6.005 -0.2025 -0.0343 -0.0726
16875SOL    HW152109   5.237   2.249   6.060  0.4446 -0.1204 -0.7995
16875SOL    HW252110   5.097   2.305   6.049  0.0256 -0.9115  0.3942
16876SOL     OW52111   3.393   1.472   0.451  0.1571  0.6820  0.0546
16876SOL    HW152112   3.328   1.427   0.505 -0.0337 -0.8144 -1.3950
16876SOL    HW252113   3.341   1.532   0.397 -0.1561 -1.1949 -1.7816
16877SOL     OW52114   4.549   8.160   5.155 -0.0904  0.1676  0.1846
16877SOL    HW152115   4.455   8.159   5.138 -0.3072  0.7056  1.3095
16877SOL    HW252116   4.589   8.180   5.070 -0.9013 -1.5727 -0.6329
16878SOL     OW52117   7.353   0.540   2.643 -0.1890  0.5718  0.2801
16878SOL    HW152118   7.406   0.562   2.566 -0.0793  1.2579  0.5459
16878SOL    HW252119   7.287   0.610   2.647  0.2476  0.9361  1.2212
16879SOL     OW52120   4.838   0.401   2.387 -0.0307  0.1270 -0.3118
16879SOL    HW152121   4.859   0.424   2.297  1.0211  0.2240 -0.0498
16879SOL    HW252122   4.905   0.337   2.412 -1.2940 -1.1698 -0.1389
16880SOL     OW52123   7.497   2.269   6.376 -0.5917  0.4000 -0.2106
16880SOL    HW152124   7.554   2.248   6.302 -1.8687  1.2438 -1.4582
16880SOL    HW252125   7.506   2.364   6.386 -1.0568  0.4017  0.2002
16881SOL     OW52126   7.215   5.031   0.126  0.2075 -0.5811 -0.3749
16881SOL    HW152127   7.308   5.055   0.131  0.7240 -2.6973  0.7859
16881SOL    HW252128   7.182   5.049   0.214 -0.4290 -0.1168 -0.7038
16882SOL     OW52129   6.268   7.746   2.154 -0.4822 -0.0240  0.2775
16882SOL    HW152130   6.243   7.793   2.075  1.0972 -1.3161 -1.0150
16882SOL    HW252131   6.193   7.689   2.173 -0.1576 -0.9796 -1.2868
16883SOL     OW52132   2.538   3.737   3.349  0.2200  0.1699 -0.0311
16883SOL    HW152133   2.507   3.720   3.438 -0.0060 -1.5096 -0.4149
16883SOL    HW252134   2.460   3.728   3.294  0.6174 -0.1257 -0.5498
16884SOL     OW52135   0.267   6.657   5.334  1.0055 -0.5654  0.6564
16884SOL    HW152136   0.318   6.725   5.376  0.7853  1.0003 -1.5027
16884SOL    HW252137   0.317   6.635   5.255 -1.0555  0.1871 -0.8925
16885SOL     OW52138   5.214   4.943   8.292  0.2627 -0.3906  0.1845
16885SOL    HW152139   5.294   4.912   8.334 -1.1287 -1.5297  2.0270
16885SOL    HW252140   5.159   4.975   8.363 -0.9344  0.4033 -1.0618
16886SOL     OW52141   5.955   3.855   7.790  0.5820  0.0950 -0.1138
16886SOL    HW152142   6.042   3.860   7.750  0.9635 -0.3066  0.6591
16886SOL    HW252143   5.907   3.793   7.736  1.0626 -0.3673 -0.0077
16887SOL     OW52144   1.069   5.505   0.144  0.2289  0.4674 -0.2643
16887SOL    HW152145   1.058   5.525   0.237  2.8870  2.0908 -0.2246
16887SOL    HW252146   1.042   5.585   0.099 -3.1144 -1.0542 -1.0683
16888SOL     OW52147   3.940   4.887   5.333  0.0345 -0.1219 -0.0153
16888SOL    HW152148   3.975   4.960   5.283 -1.4186  0.8825  0.3839
16888SOL    HW252149   3.898   4.831   5.268  0.9244 -0.4702 -0.2929
16889SOL     OW52150   6.632   3.498   1.693 -0.6229  0.3076 -0.6358
16889SOL    HW152151   6.623   3.482   1.599  0.1431  0.4949 -0.7400
16889SOL    HW252152   6.601   3.417   1.734 -1.6383  0.4914 -1.0238
16890SOL     OW52153   2.564   7.204   6.227  0.5623 -0.0699 -0.4043
16890SOL    HW152154   2.642   7.149   6.228  0.5109 -0.2352  3.2858
16890SOL    HW252155   2.587   7.280   6.280 -0.7443  1.4444 -1.9644
16891SOL     OW52156   8.017   8.078   8.274  0.0110 -0.1551  0.0053
16891SOL    HW152157   8.048   8.149   8.330 -1.3335  0.1777  0.3379
16891SOL    HW252158   7.926   8.063   8.301  0.8754 -3.4207  1.4248
16892SOL     OW52159   1.134   4.860   5.091 -0.6182 -0.2799 -0.1482
16892SOL    HW152160   1.180   4.849   5.175 -1.3238 -0.1758  0.2577
16892SOL    HW252161   1.105   4.772   5.069 -0.7582 -0.2482 -0.0922
16893SOL     OW52162   2.980   4.843   4.899 -0.5417 -0.0931  0.5432
16893SOL    HW152163   2.907   4.877   4.847 -0.2242 -0.7097 -0.3097
16893SOL    HW252164   3.043   4.811   4.834  0.3264  0.1030  1.2826
16894SOL     OW52165   7.222   3.143   5.383 -0.5249 -0.3738  0.1659
16894SOL    HW152166   7.309   3.177   5.360 -1.0547  1.8544  1.3402
16894SOL    HW252167   7.170   3.154   5.304 -0.6029  1.3014  0.4346
16895SOL     OW52168   2.238   3.522   3.670  0.6409 -0.1424 -0.0141
16895SOL    HW152169   2.155   3.551   3.633 -0.6623 -0.9431  2.1704
16895SOL    HW252170   2.255   3.437   3.629 -1.0858 -1.2998  1.5929
16896SOL     OW52171   1.686   8.161   6.919 -0.4817 -0.9045  0.3748
16896SOL    HW152172   1.640   8.087   6.879 -1.4524 -1.0214  1.6702
16896SOL    HW252173   1.747   8.121   6.981  0.4032 -0.6935 -0.3581
16897SOL     OW52174   5.924   2.891   6.059  0.0181  0.2006  0.7607
16897SOL    HW152175   5.946   2.804   6.091  1.4220  0.3679  0.2827
16897SOL    HW252176   5.983   2.950   6.106  1.5300  0.5332 -1.4891
16898SOL     OW52177   5.544   6.777   3.030 -0.5641  0.0355  0.4317
16898SOL    HW152178   5.514   6.803   2.943  0.9469  1.9861  0.4637
16898SOL    HW252179   5.468   6.734   3.069 -0.7439 -2.4273 -2.4372
16899SOL     OW52180   7.481   4.734   6.334 -1.0290  0.5218  0.7648
16899SOL    HW152181   7.515   4.661   6.282 -0.0450  1.2856  0.3159
16899SOL    HW252182   7.405   4.766   6.286  0.6357  2.0575 -0.9182
16900SOL     OW52183   4.331   7.553   3.014 -0.3287 -0.3201  0.5155
16900SOL    HW152184   4.281   7.501   2.951 -0.6505  1.5254 -0.7807
16900SOL    HW252185   4.421   7.550   2.981 -0.5730  1.0010 -0.2646
16901SOL     OW52186   5.408   5.026   5.009 -0.0143  0.0728  0.3590
16901SOL    HW152187   5.434   4.941   4.972 -0.0722  0.3936 -0.4357
16901SOL    HW252188   5.470   5.088   4.971  0.2524  0.3317  1.2283
16902SOL     OW52189   7.496   6.848   4.373 -0.4574  0.1911  0.6098
16902SOL    HW152190   7.585   6.880   4.385 -0.1952 -0.3857  0.2688
16902SOL    HW252191   7.440   6.922   4.394  0.1023  0.5221  0.9360
16903SOL     OW52192   0.112   2.214   5.935 -0.5042  0.2195 -0.3491
16903SOL    HW152193   0.118   2.151   6.006 -2.9490 -0.3609 -0.6212
16903SOL    HW252194   0.180   2.278   5.954  1.2888 -1.8835  0.5226
16904SOL     OW52195   3.104   2.285   4.781  0.0131 -0.0451  0.6103
16904SOL    HW152196   3.117   2.190   4.786 -1.4267 -0.3415 -0.8419
16904SOL    HW252197   3.103   2.314   4.872 -1.1784 -1.6847  1.1516
16905SOL     OW52198   4.478   4.871   6.580 -0.1475  0.1546  0.4602
16905SOL    HW152199   4.523   4.799   6.537  0.4732  1.6404 -1.4771
16905SOL    HW252200   4.515   4.874   6.668 -0.9754 -2.5420  0.9288
16906SOL     OW52201   3.203   4.893   5.175  0.6373 -0.5577 -0.0479
16906SOL    HW152202   3.171   4.822   5.120 -0.9439  0.6070 -0.6527
16906SOL    HW252203   3.285   4.860   5.211  1.3788 -1.5873 -2.5885
16907SOL     OW52204   7.443   0.058   6.901 -0.5097 -0.3431  0.4638
16907SOL    HW152205   7.472  -0.031   6.882  0.9759  0.5482 -1.6176
16907SOL    HW252206   7.353   0.062   6.868 -1.1985 -1.5535  2.1334
16908SOL     OW52207   4.321   8.219   1.459  0.3515  0.2735 -0.0461
16908SOL    HW152208   4.262   8.172   1.518  0.2263  0.2061 -0.2230
16908SOL    HW252209   4.266   8.285   1.417  0.7568  1.2397  0.9396
16909SOL     OW52210   1.469   3.490   1.787 -0.2990 -0.0853 -0.1287
16909SOL    HW152211   1.453   3.583   1.806  3.5819  0.6104  0.2302
16909SOL    HW252212   1.396   3.444   1.827 -1.4580  2.7113  1.1075
16910SOL     OW52213   2.627   3.853   4.464 -0.1980  0.5437 -0.5105
16910SOL    HW152214   2.692   3.786   4.486  0.3688  0.5956 -1.9977
16910SOL    HW252215   2.677   3.935   4.467 -0.3567  0.6566 -0.9782
16911SOL     OW52216   5.374   7.610   1.862 -0.8016  0.4391  0.9419
16911SOL    HW152217   5.328   7.533   1.829  1.1221 -0.2231 -0.2958
16911SOL    HW252218   5.358   7.610   1.956 -3.0643  0.0845  0.5777
16912SOL     OW52219   3.667   2.285   3.838  0.2850  0.2151  0.3358
16912SOL    HW152220   3.601   2.355   3.829  0.1119 -0.1437 -1.3763
16912SOL    HW252221   3.748   2.332   3.856  0.1792  0.8767 -0.8613
16913SOL     OW52222   6.686   0.941   0.822  0.0246 -0.1086 -0.1721
16913SOL    HW152223   6.761   0.992   0.791 -1.4615  2.3378  0.1617
16913SOL    HW252224   6.628   0.935   0.747  1.3773 -3.7665 -1.0555
16914SOL     OW52225   7.880   0.870   4.171 -0.1179  1.0088 -0.2381
16914SOL    HW152226   7.960   0.896   4.216 -0.2863  0.8716  0.1389
16914SOL    HW252227   7.816   0.855   4.241  0.9747 -3.9172 -0.1370
16915SOL     OW52228   6.207   0.721   4.690 -0.3090  0.5910 -0.2216
16915SOL    HW152229   6.142   0.758   4.750 -1.8302 -0.1825 -1.3548
16915SOL    HW252230   6.221   0.632   4.721  0.6096  0.9298  0.3364
16916SOL     OW52231   3.399   4.989   7.824 -0.1590 -0.0917 -0.4004
16916SOL    HW152232   3.313   4.953   7.805 -0.2965  1.3145 -2.6469
16916SOL    HW252233   3.460   4.936   7.773  0.0716  0.2657 -0.4989
16917SOL     OW52234   4.269   1.973   0.613  0.1011 -0.1369 -0.3392
16917SOL    HW152235   4.343   1.977   0.673  0.3801  1.5805 -0.7824
16917SOL    HW252236   4.207   1.914   0.655  1.8589 -1.8726 -0.1177
16918SOL     OW52237   0.834   6.873   0.119 -0.3007 -0.2830 -0.3337
16918SOL    HW152238   0.766   6.925   0.161  1.3826 -0.2275  2.4772
16918SOL    HW252239   0.815   6.783   0.146 -0.2252 -0.4758 -0.9188
16919SOL     OW52240   4.611   3.509   6.250 -0.8302  0.1882  0.4322
16919SOL    HW152241   4.581   3.441   6.310 -0.5922  0.2782  0.6541
16919SOL    HW252242   4.696   3.535   6.285 -0.5709  0.0492 -0.1006
16920SOL     OW52243   3.463   5.702   0.851  0.4247 -0.5976  0.7549
16920SOL    HW152244   3.521   5.669   0.783  0.1949 -1.3304  0.9112
16920SOL    HW252245   3.387   5.644   0.849  0.3248 -0.5025  1.4946
16921SOL     OW52246   0.622   0.327   3.279  0.1134  0.5698  0.4186
16921SOL    HW152247   0.584   0.414   3.265 -2.1518 -0.6050 -1.0703
16921SOL    HW252248   0.609   0.310   3.373 -3.8548 -0.0753 -0.1488
16922SOL     OW52249   8.172   5.290   3.929 -0.5119  0.1925 -0.3494
16922SOL    HW152250   8.141   5.322   4.014 -1.0876  0.0281 -0.4949
16922SOL    HW252251   8.112   5.219   3.907  0.5095 -0.7147 -0.2204
16923SOL     OW52252   1.281   8.041   7.748  0.3446 -0.2148 -0.1204
16923SOL    HW152253   1.305   7.966   7.694 -1.2566 -1.1931  0.4993
16923SOL    HW252254   1.248   8.003   7.829 -0.5551  1.1525  0.1662
16924SOL     OW52255   3.090   7.959   2.538 -0.1071  0.6574 -0.5379
16924SOL    HW152256   3.165   8.011   2.511  0.5176 -0.5516 -1.1650
16924SOL    HW252257   3.127   7.874   2.563 -1.4046 -0.4170 -2.1953
16925SOL     OW52258   6.394   3.526   5.686  0.3609  0.4616 -0.2003
16925SOL    HW152259   6.308   3.502   5.720  0.7123 -1.4401 -0.6024
16925SOL    HW252260   6.378   3.604   5.633 -0.8795  0.9314  0.8300
16926SOL     OW52261   3.231   4.796   7.347 -0.6686 -0.1650 -0.0153
16926SOL    HW152262   3.186   4.790   7.262 -0.1802 -0.2311 -0.2729
16926SOL    HW252263   3.249   4.889   7.358 -2.0651  0.0331  0.7240
16927SOL     OW52264   5.785   1.319   0.849  0.2251 -0.1688 -0.1103
16927SOL    HW152265   5.727   1.249   0.820  1.3483 -0.9871 -0.3946
16927SOL    HW252266   5.774   1.321   0.944 -1.8679  1.1132 -0.3528
16928SOL     OW52267   2.114   4.244   4.684  0.1882  0.1781 -0.5650
16928SOL    HW152268   2.176   4.178   4.652  0.0711 -0.3554  0.2756
16928SOL    HW252269   2.038   4.192   4.712  0.1690  0.6648  0.2750
16929SOL     OW52270   8.120   3.407   6.813  0.1605 -0.0322  0.2784
16929SOL    HW152271   8.110   3.317   6.845  0.1732  0.0310  0.4583
16929SOL    HW252272   8.181   3.448   6.874 -0.1106  0.2009  0.3937
16930SOL     OW52273   8.291   2.433   5.794 -0.3477  0.6450  0.0254
16930SOL    HW152274   8.364   2.371   5.789  0.1265  1.2714 -1.0602
16930SOL    HW252275   8.252   2.417   5.880  1.7930  1.0962  1.1318
16931SOL     OW52276   5.885   4.226   3.932 -0.1445 -0.1941 -0.7237
16931SOL    HW152277   5.893   4.318   3.910  2.8556 -0.4274 -0.8177
16931SOL    HW252278   5.903   4.180   3.850 -0.5628 -0.8818 -0.4362
16932SOL     OW52279   3.397   4.885   1.992 -0.2109 -0.6814 -0.1256
16932SOL    HW152280   3.325   4.827   2.016 -0.6807  0.0924  0.3582
16932SOL    HW252281   3.396   4.953   2.059  1.0710 -0.7517 -0.0288
16933SOL     OW52282   4.276   6.288   4.573  0.5769 -0.0392 -0.4449
16933SOL    HW152283   4.290   6.337   4.492 -1.6032  0.9035 -0.2895
16933SOL    HW252284   4.339   6.325   4.634 -0.1589  1.7220 -0.7116
16934SOL     OW52285   5.647   0.374   3.367  0.1749  0.0413 -0.5390
16934SOL    HW152286   5.590   0.393   3.293  0.5483  0.3740 -0.7418
16934SOL    HW252287   5.601   0.409   3.443 -0.0721 -0.0406 -0.6525
16935SOL     OW52288   4.978   4.636   7.578 -0.3357  0.0814  0.1832
16935SOL    HW152289   5.065   4.664   7.607 -0.9296  2.0438  0.1761
16935SOL    HW252290   4.931   4.617   7.660  0.5001 -2.3501  0.1410
16936SOL     OW52291   6.726   4.612   0.157  0.0634 -0.6054  0.2166
16936SOL    HW152292   6.788   4.598   0.229 -0.2288 -0.3747  0.5150
16936SOL    HW252293   6.742   4.540   0.097  0.1101 -0.9633  0.6587
16937SOL     OW52294   6.890   3.120   3.789 -0.2692  0.0387  0.0162
16937SOL    HW152295   6.972   3.133   3.742 -0.7800 -0.6530 -1.0920
16937SOL    HW252296   6.850   3.044   3.747 -2.1335  1.1972 -0.3983
16938SOL     OW52297   3.832   5.848   4.655  0.0910  0.1487  0.9110
16938SOL    HW152298   3.820   5.805   4.739 -2.2172  0.8689  0.9838
16938SOL    HW252299   3.827   5.942   4.674  0.2936  0.3400  0.0737
16939SOL     OW52300   5.065   2.893   4.827 -0.7170  0.4879  0.2117
16939SOL    HW152301   5.012   2.816   4.810  0.2308 -0.1240 -0.0543
16939SOL    HW252302   5.145   2.859   4.868  0.7892  1.0042 -2.1179
16940SOL     OW52303   4.369   0.948   5.436 -0.0668 -0.3316 -0.6361
16940SOL    HW152304   4.355   1.001   5.357  0.1355 -0.5792 -0.8354
16940SOL    HW252305   4.327   0.999   5.506  1.9425  1.1323 -0.4428
16941SOL     OW52306   1.229   2.351   2.111 -0.0697  0.4592 -0.6722
16941SOL    HW152307   1.312   2.397   2.125 -0.7257  1.2015  0.8836
16941SOL    HW252308   1.210   2.363   2.018 -0.0477  2.9948 -0.3755
16942SOL     OW52309   7.448   0.036   6.555 -0.3485 -0.7180  0.0318
16942SOL    HW152310   7.494  -0.032   6.605  0.5250  1.0897  1.7401
16942SOL    HW252311   7.429   0.104   6.619 -0.0718  1.2202 -1.8933
16943SOL     OW52312   3.797   6.354   5.468 -0.1671  0.1216 -0.1020
16943SOL    HW152313   3.711   6.390   5.448  0.6691  2.7400  0.7609
16943SOL    HW252314   3.853   6.387   5.398  0.0535 -2.1466 -1.0578
16944SOL     OW52315   6.947   6.991   2.730  0.3346 -0.4937 -0.1629
16944SOL    HW152316   6.860   6.970   2.697  0.5789 -0.7500 -0.6515
16944SOL    HW252317   6.981   6.908   2.762  0.2629 -0.3264  0.3456
16945SOL     OW52318   1.844   2.689   7.489 -0.3622  0.3122  0.5884
16945SOL    HW152319   1.858   2.633   7.566 -2.3050  0.0457  0.7736
16945SOL    HW252320   1.758   2.664   7.457  0.8921 -0.4244 -2.4228
16946SOL     OW52321   0.437   0.484   5.167 -0.1179 -0.1416  0.7892
16946SOL    HW152322   0.491   0.411   5.198  0.7463  0.6693  1.2227
16946SOL    HW252323   0.499   0.540   5.120 -1.1619 -0.7199 -1.3407
16947SOL     OW52324   4.067   5.388   3.757  0.3132  0.0381  0.4503
16947SOL    HW152325   4.108   5.320   3.810  4.0393  0.2900 -1.9420
16947SOL    HW252326   4.082   5.469   3.807  0.3919 -0.2251  0.8574
16948SOL     OW52327   5.139   5.714   6.938  0.2745 -0.3277 -0.4328
16948SOL    HW152328   5.131   5.795   6.887 -0.9749 -0.0104  0.2606
16948SOL    HW252329   5.207   5.734   7.003 -0.8456  0.5555  0.4763
16949SOL     OW52330   0.476   4.663   0.398  0.5066 -0.3088 -0.3146
16949SOL    HW152331   0.553   4.715   0.376  0.3864 -0.5956 -1.4266
16949SOL    HW252332   0.418   4.724   0.444  1.8007 -0.3392  1.3997
16950SOL     OW52333   1.299   7.969   5.536 -0.4409 -0.1907 -0.5544
16950SOL    HW152334   1.341   7.901   5.588  1.0110  0.8455 -0.3361
16950SOL    HW252335   1.205   7.953   5.545 -0.1667 -0.7344  1.4069
16951SOL     OW52336   8.030   6.792   5.743 -0.6992  0.3547 -0.1245
16951SOL    HW152337   8.089   6.739   5.796  0.7549  1.3571 -0.6899
16951SOL    HW252338   8.017   6.873   5.793 -2.0991 -0.1149  0.2795
16952SOL     OW52339   5.356   1.084   6.359 -0.5551  0.5308 -0.4829
16952SOL    HW152340   5.316   1.124   6.283 -0.1342 -0.0270 -1.0063
16952SOL    HW252341   5.306   1.117   6.434 -0.6533  1.4628 -0.9612
16953SOL     OW52342   2.895   7.955   6.932  0.3231  0.5034 -0.7540
16953SOL    HW152343   2.850   7.963   7.016 -0.4267 -0.1699 -1.0845
16953SOL    HW252344   2.843   7.891   6.883 -0.4687  2.4710 -2.5354
16954SOL     OW52345   3.904   1.662   1.322  0.2038 -0.3353  0.1250
16954SOL    HW152346   3.844   1.700   1.385 -1.0559 -2.1201  0.0400
16954SOL    HW252347   3.898   1.719   1.245 -0.5143  0.1582  0.5469
16955SOL     OW52348   5.402   7.611   8.102  0.1492  0.5283 -0.1080
16955SOL    HW152349   5.461   7.590   8.174  1.3063  1.9026 -0.6213
16955SOL    HW252350   5.349   7.684   8.135  0.4756  0.9620 -0.5382
16956SOL     OW52351   6.579   5.420   5.518 -0.2472 -0.5293 -0.4388
16956SOL    HW152352   6.601   5.458   5.433  2.1556 -0.7793  0.0548
16956SOL    HW252353   6.590   5.326   5.507  0.6705 -0.5178  0.3096
16957SOL     OW52354   5.106   3.619   0.522 -0.1241  0.5334 -0.0397
16957SOL    HW152355   5.082   3.604   0.614 -0.1882  0.3780 -0.0826
16957SOL    HW252356   5.147   3.538   0.494 -0.1952  0.5450 -0.1789
16958SOL     OW52357   0.544   7.515   3.622  0.0570 -0.3880  0.3138
16958SOL    HW152358   0.461   7.479   3.590  0.8395 -2.2207  0.2353
16958SOL    HW252359   0.520   7.565   3.700 -1.3432  0.6347 -0.7551
16959SOL     OW52360   0.607   7.599   4.470 -0.2331 -0.7667  0.0165
16959SOL    HW152361   0.620   7.653   4.548  1.2784 -2.3475  0.9009
16959SOL    HW252362   0.562   7.657   4.408 -0.2339  0.9390  1.5543
16960SOL     OW52363   7.882   5.898   6.690 -0.2675 -0.0002 -0.3259
16960SOL    HW152364   7.872   5.887   6.784 -0.8912 -1.4940 -0.5432
16960SOL    HW252365   7.976   5.896   6.675 -0.1459  0.6825  0.2988
16961SOL     OW52366   1.276   0.327   2.498 -0.1394  0.6683 -0.1285
16961SOL    HW152367   1.352   0.283   2.535  1.1807  0.7796 -2.6174
16961SOL    HW252368   1.300   0.420   2.498 -0.1012  0.6623 -1.2778
16962SOL     OW52369   2.055   8.125   7.559 -0.7158  0.1983  0.4001
16962SOL    HW152370   2.072   8.153   7.649  1.6843 -0.2020  0.1235
16962SOL    HW252371   2.125   8.061   7.541 -0.8578  0.6668 -1.9121
16963SOL     OW52372   0.210   1.292   3.139  0.6307 -0.4683 -0.1065
16963SOL    HW152373   0.251   1.276   3.224  0.3091 -0.2807  0.0851
16963SOL    HW252374   0.125   1.250   3.144  0.6927 -0.6333 -0.4123
16964SOL     OW52375   3.516   8.227   2.992  0.0258 -0.2477  0.1243
16964SOL    HW152376   3.450   8.159   2.981  0.5156 -0.6209 -0.5215
16964SOL    HW252377   3.468   8.309   2.983 -0.0717 -0.5136 -2.0581
16965SOL     OW52378   5.625   7.480   2.391  0.3650  0.2207  0.6757
16965SOL    HW152379   5.665   7.412   2.445  0.0244  0.4498  1.2296
16965SOL    HW252380   5.561   7.434   2.337  0.0847  0.1047  1.1008
16966SOL     OW52381   0.155   0.047   2.169  0.3526 -0.3118  0.0152
16966SOL    HW152382   0.148  -0.036   2.218  0.9215 -1.5537 -1.9772
16966SOL    HW252383   0.064   0.069   2.149  0.0400  0.6861  2.3811
16967SOL     OW52384   2.115   0.857   1.500  0.5115  0.0340  0.3936
16967SOL    HW152385   2.151   0.831   1.585 -2.3183 -1.2744  1.2391
16967SOL    HW252386   2.049   0.922   1.521  0.8122  0.7886 -0.9468
16968SOL     OW52387   3.601   3.884   7.990  0.3698 -0.3278 -0.5104
16968SOL    HW152388   3.527   3.924   8.034  0.1122 -0.1105 -1.1325
16968SOL    HW252389   3.675   3.896   8.050 -0.1303 -0.6854  0.1742
16969SOL     OW52390   7.715   3.126   0.483  1.0830 -0.3263 -0.2001
16969SOL    HW152391   7.709   3.215   0.447 -1.2550  0.3412  1.7111
16969SOL    HW252392   7.699   3.137   0.577  0.7796 -2.7657  0.0668
16970SOL     OW52393   1.416   2.242   0.635 -0.0317  0.1714  0.1853
16970SOL    HW152394   1.465   2.241   0.553 -1.1146  0.2131 -0.4724
16970SOL    HW252395   1.365   2.161   0.633  0.2658 -0.0431  1.0271
16971SOL     OW52396   3.422   4.314   1.350  0.3080 -0.8620 -0.1893
16971SOL    HW152397   3.399   4.261   1.274 -0.4585 -0.2835 -0.3740
16971SOL    HW252398   3.354   4.382   1.352  1.5018  0.3476 -0.2124
16972SOL     OW52399   7.580   3.429   5.939 -0.5317  0.0248  0.9064
16972SOL    HW152400   7.502   3.373   5.942 -0.7345  0.2647  0.2605
16972SOL    HW252401   7.623   3.404   5.856 -1.3763  1.8227 -0.0991
16973SOL     OW52402   0.564   6.251   6.403 -0.5851  0.0601  0.1335
16973SOL    HW152403   0.532   6.327   6.451  2.0776  2.5462 -1.8589
16973SOL    HW252404   0.648   6.230   6.444  0.3588  0.4251 -1.5631
16974SOL     OW52405   0.362   4.238   7.503  0.2364 -0.1476 -0.5818
16974SOL    HW152406   0.280   4.225   7.550  0.4341 -1.2568 -0.5341
16974SOL    HW252407   0.349   4.195   7.418  0.8236 -0.4886 -0.5027
16975SOL     OW52408   3.103   7.799   1.576 -0.9366 -0.0965  0.2040
16975SOL    HW152409   3.031   7.749   1.614  0.8431 -0.7275  2.8775
16975SOL    HW252410   3.102   7.882   1.624 -1.1783  0.7661 -1.2471
16976SOL     OW52411   1.994   2.314   6.606  0.6531  0.4384  0.4219
16976SOL    HW152412   1.998   2.304   6.511  1.4220 -3.0685  0.7551
16976SOL    HW252413   2.059   2.251   6.639 -0.8870  0.2985  3.3049
16977SOL     OW52414   5.373   6.110   7.415  0.2776 -0.1481  0.8648
16977SOL    HW152415   5.459   6.115   7.458  0.8421  1.2348 -0.3849
16977SOL    HW252416   5.354   6.200   7.390  0.3307 -1.0422 -2.5372
16978SOL     OW52417   1.729   0.355   6.481 -0.1142  0.2826  0.0523
16978SOL    HW152418   1.715   0.334   6.574 -1.6462  0.5606 -0.1012
16978SOL    HW252419   1.730   0.270   6.437  0.0406  0.1863  0.2409
16979SOL     OW52420   3.993   2.709   8.128 -0.3154  0.2671 -0.5652
16979SOL    HW152421   4.002   2.711   8.223 -1.3048  3.2889 -0.4830
16979SOL    HW252422   3.923   2.646   8.112  1.4682 -2.0972  0.4861
16980SOL     OW52423   4.908   6.690   1.764 -0.2818  0.7941 -0.1920
16980SOL    HW152424   4.977   6.698   1.830  0.7539 -0.4417 -1.1021
16980SOL    HW252425   4.829   6.670   1.814  0.5939 -0.6352  0.6484
16981SOL     OW52426   3.381   1.731   0.637 -0.1144 -0.1644  0.3608
16981SOL    HW152427   3.388   1.793   0.565 -0.5026  0.5399  0.9316
16981SOL    HW252428   3.408   1.781   0.715 -0.0429 -0.8183  0.7625
16982SOL     OW52429   0.092   0.712   3.537  0.2518 -0.7184 -0.0984
16982SOL    HW152430   0.012   0.666   3.562 -0.7844  0.1753 -1.6918
16982SOL    HW252431   0.155   0.690   3.606 -1.6271 -0.7285  1.6511
16983SOL     OW52432   7.911   1.852   0.348 -0.3191  0.2165  0.0443
16983SOL    HW152433   7.894   1.908   0.272  1.6236 -0.3865 -0.8690
16983SOL    HW252434   7.945   1.771   0.310 -2.0134 -1.1856  1.4161
16984SOL     OW52435   4.482   2.745   5.586 -0.1449 -0.1972  0.4164
16984SOL    HW152436   4.505   2.659   5.551 -1.6420 -1.3171  2.1018
16984SOL    HW252437   4.387   2.742   5.597 -0.2591  1.8451  0.0608
16985SOL     OW52438   2.447   7.410   3.281  0.2862 -0.5019 -0.3003
16985SOL    HW152439   2.533   7.421   3.323 -0.4148 -2.9093  1.9232
16985SOL    HW252440   2.402   7.493   3.296  2.1385  0.7108 -1.3199
16986SOL     OW52441   5.515   3.188   5.921 -0.2556 -0.3287  0.2781
16986SOL    HW152442   5.517   3.248   5.996  0.0919 -0.3319  0.2711
16986SOL    HW252443   5.502   3.245   5.845  0.3201 -0.2358  0.2457
16987SOL     OW52444   7.004   1.478   1.726 -0.4112  0.5729 -0.1859
16987SOL    HW152445   6.967   1.390   1.728 -1.4430  0.9949 -0.3862
16987SOL    HW252446   7.021   1.499   1.818 -0.6663  0.3759 -0.0937
16988SOL     OW52447   4.104   0.070   4.935 -0.8606 -0.6011  0.4061
16988SOL    HW152448   4.159   0.051   4.858 -0.5140  0.8734  0.2829
16988SOL    HW252449   4.023   0.105   4.899 -0.1190  1.5375  0.7384
16989SOL     OW52450   2.017   2.958   6.499  0.0443  0.1342  0.2635
16989SOL    HW152451   2.052   3.027   6.443  1.2284 -2.3394 -2.1814
16989SOL    HW252452   1.969   3.004   6.568 -2.3429  3.3109 -3.3335
16990SOL     OW52453   1.570   2.462   6.739 -1.1203  0.2984 -0.6092
16990SOL    HW152454   1.629   2.387   6.731 -0.0760  0.9635  0.6910
16990SOL    HW252455   1.591   2.518   6.664  1.2161  1.4173  0.8288
16991SOL     OW52456   7.440   7.373   5.646 -0.3314 -0.0355  0.3512
16991SOL    HW152457   7.531   7.359   5.620  0.0592  3.8533 -0.7058
16991SOL    HW252458   7.401   7.418   5.571 -3.2011 -1.7129  0.7584
16992SOL     OW52459   0.005   3.227   7.065  0.3098  0.5151 -0.1513
16992SOL    HW152460   0.059   3.164   7.018  0.8461  1.3858 -0.7208
16992SOL    HW252461  -0.085   3.197   7.051  0.5234  0.2429 -0.9657
16993SOL     OW52462   7.402   4.036   7.503 -0.0492  0.0619 -0.0893
16993SOL    HW152463   7.451   3.958   7.477  0.1254  0.8759 -2.2743
16993SOL    HW252464   7.329   4.002   7.556  1.0673 -1.4015  0.5462
16994SOL     OW52465   1.682   0.239   7.157 -0.2534 -0.1622  0.3125
16994SOL    HW152466   1.730   0.213   7.079 -0.0093 -1.2204  0.8014
16994SOL    HW252467   1.749   0.245   7.225 -0.4545  0.8117  0.4279
16995SOL     OW52468   8.298   3.620   2.923  0.1870 -0.5548  0.3342
16995SOL    HW152469   8.257   3.559   2.861 -0.2919 -1.7055  1.7556
16995SOL    HW252470   8.238   3.694   2.928 -0.5424 -1.1516  0.5782
16996SOL     OW52471   2.220   4.119   3.230  0.4789 -0.1358  0.3624
16996SOL    HW152472   2.233   4.133   3.136 -0.8048  1.9350  0.4452
16996SOL    HW252473   2.288   4.172   3.272 -0.6384  1.1691  0.5990
16997SOL     OW52474   4.897   5.972   1.420 -0.0934 -0.8437 -0.0740
16997SOL    HW152475   4.902   5.953   1.514  1.5193  2.8931  0.6842
16997SOL    HW252476   4.819   6.026   1.411 -0.1757 -1.0957 -0.8567
16998SOL     OW52477   4.153   3.218   5.266  0.6719  0.1124 -0.5565
16998SOL    HW152478   4.242   3.207   5.300  0.7498 -2.1492 -1.4085
16998SOL    HW252479   4.097   3.196   5.340  0.8267  0.2732 -0.3902
16999SOL     OW52480   1.013   4.106   0.171 -0.4481  0.4313  0.0289
16999SOL    HW152481   1.024   4.194   0.208  2.4862 -0.6995  2.0841
16999SOL    HW252482   1.069   4.106   0.094  1.9136 -0.4663  1.6748
17000SOL     OW52483   7.187   5.323   1.013  0.0400  0.1694  0.4090
17000SOL    HW152484   7.225   5.326   1.101  1.1303 -0.6810 -0.0228
17000SOL    HW252485   7.229   5.394   0.966  1.7932 -1.3246 -0.3297
17001SOL     OW52486   8.303   3.928   5.292 -0.2261  0.1967 -0.4233
17001SOL    HW152487   8.217   3.964   5.268 -0.1220  0.8132  0.1146
17001SOL    HW252488   8.340   3.993   5.351 -0.7543 -1.5575  1.9476
17002SOL     OW52489   5.482   7.094   3.663  0.3541 -0.0144  0.1635
17002SOL    HW152490   5.463   7.000   3.674  1.2738 -0.2503 -0.1924
17002SOL    HW252491   5.421   7.123   3.596  0.5668 -0.5354 -0.2635
17003SOL     OW52492   2.214   5.753   5.863 -0.7142 -0.1604  0.1144
17003SOL    HW152493   2.223   5.848   5.868 -0.1784 -0.1854 -0.2372
17003SOL    HW252494   2.276   5.720   5.928  0.5063 -0.3041 -1.0913
17004SOL     OW52495   0.644   2.871   1.384  0.2877 -0.2634 -0.2820
17004SOL    HW152496   0.550   2.864   1.364  0.3698 -0.7721 -0.4756
17004SOL    HW252497   0.655   2.963   1.410  0.1692  0.4100 -2.5090
17005SOL     OW52498   1.795   6.591   2.691  0.0084  0.4822 -0.0891
17005SOL    HW152499   1.841   6.520   2.736 -0.4085  1.2956  1.7070
17005SOL    HW252500   1.802   6.570   2.598  3.5332  0.2928  0.1363
17006SOL     OW52501   6.775   1.413   7.338 -0.0772  0.0202  0.0356
17006SOL    HW152502   6.708   1.346   7.330  0.7328 -0.8775  0.6577
17006SOL    HW252503   6.727   1.496   7.342 -1.2169 -0.7068  1.7967
17007SOL     OW52504   6.851   2.112   7.964  0.2567  0.0420  0.1602
17007SOL    HW152505   6.828   2.028   8.005  0.5000 -0.7978 -1.4003
17007SOL    HW252506   6.866   2.171   8.038  2.8310 -1.9953  1.3536
17008SOL     OW52507   5.085   3.047   6.785 -0.5939  0.3751 -0.4223
17008SOL    HW152508   5.116   3.010   6.702  2.4632 -1.0381  1.2661
17008SOL    HW252509   5.043   2.973   6.829  2.8098 -0.4559  1.6367
17009SOL     OW52510   6.002   7.329   7.243 -0.4104 -0.6805  0.3461
17009SOL    HW152511   5.943   7.287   7.180 -2.1511  0.4532  1.1818
17009SOL    HW252512   6.033   7.408   7.198 -1.0971 -0.2437  0.6280
17010SOL     OW52513   6.335   2.626   4.535  0.2510  0.2766 -0.5738
17010SOL    HW152514   6.395   2.591   4.468  0.1551 -1.8367  0.4269
17010SOL    HW252515   6.253   2.579   4.522 -0.3542  1.1798 -0.1296
17011SOL     OW52516   4.007   0.779   1.545  0.2193 -0.0419  0.7029
17011SOL    HW152517   4.078   0.757   1.606 -0.2797  0.0161  1.3028
17011SOL    HW252518   4.027   0.868   1.517 -0.1100  0.3063  1.5667
17012SOL     OW52519   7.201   4.557   6.024 -0.0330  0.2230  0.3859
17012SOL    HW152520   7.246   4.514   5.951 -0.0145 -1.1301  1.1647
17012SOL    HW252521   7.124   4.597   5.984  0.2138 -0.1238 -0.4504
17013SOL     OW52522   6.808   7.681   1.876 -0.0072 -0.0087 -0.1528
17013SOL    HW152523   6.774   7.770   1.866  2.7063  0.8910 -1.8123
17013SOL    HW252524   6.893   7.683   1.833  1.2531 -2.7247  2.0958
17014SOL     OW52525   3.675   0.987   4.971 -0.1593  0.2816  0.5388
17014SOL    HW152526   3.770   0.994   4.966 -0.1744 -0.3127 -1.2855
17014SOL    HW252527   3.644   1.023   4.888 -1.3776 -1.5361  0.1695
17015SOL     OW52528   2.215   2.671   0.261  0.1780 -0.6864  0.3431
17015SOL    HW152529   2.267   2.596   0.291  0.1853 -1.3833 -1.3807
17015SOL    HW252530   2.274   2.719   0.203 -0.2223  0.0087  0.5100
17016SOL     OW52531   3.559   4.128   7.228 -0.3872 -0.0120  0.3532
17016SOL    HW152532   3.514   4.085   7.300 -0.1269  0.9734  1.1248
17016SOL    HW252533   3.646   4.149   7.263 -0.0393 -0.0753 -0.4499
17017SOL     OW52534   2.326   3.124   8.033  0.0859  0.0139 -0.1358
17017SOL    HW152535   2.400   3.132   7.972 -0.0273  1.1392 -0.1454
17017SOL    HW252536   2.252   3.162   7.985  0.0692  1.2235  0.8329
17018SOL     OW52537   5.269   4.586   7.261  0.4166 -0.5117  0.2518
17018SOL    HW152538   5.186   4.611   7.221  0.4244  1.0279  1.1545
17018SOL    HW252539   5.245   4.541   7.342  0.4592  0.2249  0.6777
17019SOL     OW52540   3.182   4.152   1.265  0.1953 -1.1424 -0.0242
17019SOL    HW152541   3.204   4.070   1.309  1.4911 -0.9354 -0.2573
17019SOL    HW252542   3.177   4.129   1.172 -1.9315 -1.4566  0.1461
17020SOL     OW52543   2.235   3.359   1.669 -0.3043 -0.1213  0.4712
17020SOL    HW152544   2.300   3.325   1.731 -1.2164  0.9096  2.0426
17020SOL    HW252545   2.170   3.290   1.662 -0.5380  0.0133  1.2076
17021SOL     OW52546   6.271   3.580   1.608 -0.0139 -0.2051 -0.5271
17021SOL    HW152547   6.273   3.486   1.590 -0.3604 -0.3834  0.3353
17021SOL    HW252548   6.341   3.593   1.673  2.7564  0.7856 -3.5733
17022SOL     OW52549   7.356   5.563   7.417  0.3454 -0.7142 -0.3874
17022SOL    HW152550   7.380   5.629   7.352  0.6100 -0.0496  0.3672
17022SOL    HW252551   7.422   5.494   7.407  1.4486  0.2073  0.3664
17023SOL     OW52552   2.434   2.890   8.072  0.1468 -0.5939 -0.6284
17023SOL    HW152553   2.389   2.816   8.112  1.2402 -1.0690 -0.2317
17023SOL    HW252554   2.378   2.966   8.089 -0.7681 -1.2566 -0.6669
17024SOL     OW52555   4.781   7.193   3.056  0.3281 -0.0562 -0.0768
17024SOL    HW152556   4.849   7.260   3.070 -0.4893  0.7570  0.0994
17024SOL    HW252557   4.735   7.221   2.977 -0.7196  0.2017  0.6078
17025SOL     OW52558   7.856   2.764   1.913  0.5793 -0.3994  0.9580
17025SOL    HW152559   7.833   2.856   1.929  1.7750  0.2597 -0.8931
17025SOL    HW252560   7.922   2.745   1.980 -0.6131 -0.3331  2.1811
17026SOL     OW52561   5.581   1.761   5.289  0.2108 -0.1520 -0.2581
17026SOL    HW152562   5.541   1.805   5.364  0.5874 -1.5853  0.8041
17026SOL    HW252563   5.650   1.706   5.327 -0.5862 -2.0557 -1.4622
17027SOL     OW52564   1.515   7.941   0.993  0.3132  0.2177  0.5062
17027SOL    HW152565   1.457   7.958   1.068 -0.1003  0.5245  0.1164
17027SOL    HW252566   1.478   7.993   0.922  0.5633 -0.2762  0.0152
17028SOL     OW52567   6.839   7.516   5.154  0.4216 -0.0772 -0.4539
17028SOL    HW152568   6.858   7.445   5.094  3.2020  0.9828 -0.9354
17028SOL    HW252569   6.873   7.594   5.110  1.3438  0.9051  1.8894
17029SOL     OW52570   2.312   0.814   4.262  0.0351 -0.0487  0.8605
17029SOL    HW152571   2.303   0.886   4.325 -1.8551 -0.0966  0.6685
17029SOL    HW252572   2.269   0.846   4.183  1.0817 -0.5739  0.0618
17030SOL     OW52573   1.855   6.725   7.679 -0.7973 -0.0151 -0.6415
17030SOL    HW152574   1.828   6.808   7.718 -0.3752 -0.6531  1.0529
17030SOL    HW252575   1.778   6.694   7.633 -1.9131 -0.1562  1.2692
17031SOL     OW52576   4.824   3.584   2.910  0.6369  0.3901 -0.0332
17031SOL    HW152577   4.778   3.626   2.983  0.0455  0.1540 -0.2610
17031SOL    HW252578   4.762   3.519   2.877  1.1077  0.1271 -0.4041
17032SOL     OW52579   1.050   0.927   0.698 -0.2106 -0.1038  0.2885
17032SOL    HW152580   1.042   0.950   0.790  1.7851  0.8896  0.2513
17032SOL    HW252581   1.020   1.005   0.651 -0.9621 -0.5042  0.0993
17033SOL     OW52582   6.544   0.109   5.147  0.1249 -0.1226 -0.0107
17033SOL    HW152583   6.614   0.171   5.129  1.0652 -0.8105  1.2444
17033SOL    HW252584   6.588   0.026   5.163 -0.9650 -0.5487  0.8950
17034SOL     OW52585   0.498   7.967   5.174  0.0490  0.0818  0.5300
17034SOL    HW152586   0.584   7.956   5.216  0.4601 -3.8104 -1.1444
17034SOL    HW252587   0.437   7.920   5.231 -0.9042  2.1604  1.2848
17035SOL     OW52588   1.980   0.726   7.516 -0.4952  0.1203  0.2708
17035SOL    HW152589   1.977   0.645   7.464 -1.7112  0.5739 -0.3886
17035SOL    HW252590   1.959   0.699   7.605 -3.9653  0.1235 -0.4912
17036SOL     OW52591   6.531   7.360   7.824 -0.3513  0.1500 -0.6284
17036SOL    HW152592   6.605   7.357   7.885  0.9852  0.2051 -2.2023
17036SOL    HW252593   6.459   7.320   7.872  1.1039 -1.3184  0.3984
17037SOL     OW52594   0.684   6.062   0.057  0.1094 -0.0402  0.1515
17037SOL    HW152595   0.755   6.036   0.116  1.0888  0.0268 -0.9729
17037SOL    HW252596   0.729   6.099  -0.019 -1.0840 -1.5758 -1.3335
17038SOL     OW52597   6.000   7.658   6.640 -0.3492 -0.0137 -0.5044
17038SOL    HW152598   6.040   7.586   6.688  0.8763  0.9483 -0.0445
17038SOL    HW252599   6.014   7.638   6.548 -0.1754 -0.4485 -0.3812
17039SOL     OW52600   6.315   8.248   6.551 -0.0337 -0.2982  0.4194
17039SOL    HW152601   6.340   8.160   6.581 -0.5805 -1.2966 -1.9034
17039SOL    HW252602   6.310   8.240   6.456  0.5936  2.4669  0.1138
17040SOL     OW52603   5.174   7.404   0.826 -0.7374  0.2018 -0.1312
17040SOL    HW152604   5.212   7.439   0.746  0.3632 -0.3949  0.1335
17040SOL    HW252605   5.221   7.323   0.842 -1.3627  0.0174  0.7959
17041SOL     OW52606   0.959   6.412   5.226 -0.4661 -0.4857  0.5628
17041SOL    HW152607   1.042   6.390   5.184 -0.8409 -0.2573 -0.3090
17041SOL    HW252608   0.919   6.328   5.245 -0.9658 -0.5906 -0.8981
17042SOL     OW52609   6.911   3.273   4.289 -0.3705  0.4250  0.0640
17042SOL    HW152610   6.974   3.207   4.318  0.5294  0.5801 -1.5006
17042SOL    HW252611   6.877   3.240   4.206  1.5151  2.8017 -1.7346
17043SOL     OW52612   2.878   2.942   2.527  0.4647 -0.0088 -0.2511
17043SOL    HW152613   2.790   2.938   2.490  0.1809  0.8444  0.3347
17043SOL    HW252614   2.916   2.856   2.507 -0.4934 -0.3744 -0.5099
17044SOL     OW52615   2.041   8.239   5.438 -0.2884 -0.4032  0.4435
17044SOL    HW152616   2.095   8.215   5.363  0.0274 -1.9293  1.1293
17044SOL    HW252617   1.954   8.257   5.401 -0.2925 -1.7507 -0.2275
17045SOL     OW52618   1.757   5.293   3.474  0.3042 -0.3049 -0.2472
17045SOL    HW152619   1.722   5.352   3.407 -1.3515 -0.4449  0.4845
17045SOL    HW252620   1.714   5.209   3.457  0.3622 -0.5065  0.5963
17046SOL     OW52621   7.635   0.924   3.946 -0.6115 -0.3842  0.2505
17046SOL    HW152622   7.609   0.912   3.854 -0.4857 -1.7068  0.3817
17046SOL    HW252623   7.680   1.009   3.947  0.1855 -0.7776 -1.0905
17047SOL     OW52624   7.737   4.826   5.955  0.3229 -0.4363  0.5409
17047SOL    HW152625   7.751   4.920   5.944 -0.1461 -0.3991  0.2202
17047SOL    HW252626   7.643   4.814   5.941  0.4334 -0.9954  0.2462
17048SOL     OW52627   4.917   1.949   7.475  0.0535  0.0424 -0.3335
17048SOL    HW152628   4.893   2.007   7.402 -4.6748  0.1872  1.2098
17048SOL    HW252629   4.979   2.001   7.527 -0.0797  1.6768 -1.7633
17049SOL     OW52630   2.604   2.513   7.095  0.0785 -0.2215  0.2809
17049SOL    HW152631   2.683   2.528   7.148 -0.3935 -1.6824  1.4442
17049SOL    HW252632   2.552   2.592   7.106  0.7599  0.1904  0.6096
17050SOL     OW52633   1.557   3.214   7.759 -0.1970 -0.2792 -0.2731
17050SOL    HW152634   1.506   3.187   7.836 -1.4051  1.9103 -0.2719
17050SOL    HW252635   1.594   3.132   7.726 -1.7430 -1.6146  1.1496
17051SOL     OW52636   6.108   2.964   0.367  0.5516  0.1902  0.4434
17051SOL    HW152637   6.197   2.945   0.396  0.8909  0.2849 -0.5045
17051SOL    HW252638   6.119   3.006   0.281 -0.5304 -2.9710 -1.3273
17052SOL     OW52639   7.365   0.944   4.039 -0.2894  0.3118  0.2369
17052SOL    HW152640   7.446   0.969   3.993 -1.6756  0.6569 -2.1425
17052SOL    HW252641   7.354   1.011   4.106  0.8787  0.8378 -0.0767
17053SOL     OW52642   1.434   3.199   3.719  0.2557 -0.1272 -0.1998
17053SOL    HW152643   1.514   3.253   3.719  0.1740 -0.0061 -0.0268
17053SOL    HW252644   1.363   3.262   3.731  0.1178 -0.2146 -0.5651
17054SOL     OW52645   3.530   3.299   3.902 -0.2825  0.1012  0.5271
17054SOL    HW152646   3.614   3.257   3.885 -0.5351 -0.6389  1.0971
17054SOL    HW252647   3.541   3.389   3.869  0.6187 -0.0848  0.3110
17055SOL     OW52648   5.286   1.181   5.580  0.3038 -0.1103 -0.3143
17055SOL    HW152649   5.302   1.276   5.586 -0.5452  0.0230 -0.1138
17055SOL    HW252650   5.330   1.155   5.499  0.3647  0.4928 -0.4782
17056SOL     OW52651   2.996   6.472   1.740 -0.4555 -0.0327 -0.4095
17056SOL    HW152652   3.064   6.410   1.767 -0.1975  0.8735  1.0396
17056SOL    HW252653   3.038   6.558   1.744 -0.4257  0.1848 -3.6386
17057SOL     OW52654   3.963   6.006   4.152 -0.3450  0.2804  0.0856
17057SOL    HW152655   4.020   5.933   4.177  1.6501  1.3315 -1.2376
17057SOL    HW252656   3.908   6.021   4.229  1.3759 -0.5812  1.5226
17058SOL     OW52657   4.583   4.781   1.457 -0.4074  0.4667  0.5662
17058SOL    HW152658   4.613   4.864   1.493  0.5324  0.0556  0.7264
17058SOL    HW252659   4.646   4.759   1.389 -1.3821  0.5312 -0.3791
17059SOL     OW52660   7.117   6.354   1.213  0.8254 -0.3128  0.0612
17059SOL    HW152661   7.117   6.263   1.186  0.8090  0.3658 -2.3053
17059SOL    HW252662   7.027   6.384   1.196  1.4605  0.7824 -1.4564
17060SOL     OW52663   8.206   5.469   7.721  0.1507  0.3688  0.4378
17060SOL    HW152664   8.175   5.424   7.643 -1.6275  0.4293  1.0863
17060SOL    HW252665   8.285   5.422   7.747 -0.1253 -0.6146 -0.4923
17061SOL     OW52666   7.672   5.562   1.667 -0.2181  0.1920  0.5086
17061SOL    HW152667   7.710   5.649   1.676  0.9747 -0.2640 -0.0188
17061SOL    HW252668   7.578   5.575   1.682 -0.2908  1.8552 -1.2330
17062SOL     OW52669   5.565   7.091   0.617 -0.0910  0.2090 -0.8864
17062SOL    HW152670   5.531   7.006   0.587  2.1357 -0.4299 -1.7205
17062SOL    HW252671   5.640   7.068   0.671 -0.3443  1.6259  0.0782
17063SOL     OW52672   1.730   7.142   1.828  0.6702 -0.3508 -0.2949
17063SOL    HW152673   1.790   7.069   1.814 -0.6437 -1.2491 -1.2989
17063SOL    HW252674   1.647   7.101   1.854  0.5361  0.8864  1.3673
17064SOL     OW52675   4.448   4.018   4.163 -0.0983  0.0890 -0.1642
17064SOL    HW152676   4.443   3.969   4.081 -1.0746 -1.5596  0.8601
17064SOL    HW252677   4.391   4.094   4.150  1.7222  1.2104 -1.8990
17065SOL     OW52678   6.818   4.107   1.558  0.0155 -0.2387  0.7488
17065SOL    HW152679   6.852   4.062   1.636 -0.2977 -0.4314  0.7714
17065SOL    HW252680   6.850   4.197   1.568 -0.7965 -0.0332  1.5752
17066SOL     OW52681   7.116   6.334   6.800 -0.6529 -0.6228  0.5042
17066SOL    HW152682   7.139   6.417   6.759  0.6683 -0.6887  1.0936
17066SOL    HW252683   7.196   6.306   6.844 -1.9720 -0.6963  2.9169
17067SOL     OW52684   6.004   3.477   0.920  0.3758 -0.0957  0.1960
17067SOL    HW152685   6.063   3.534   0.870  1.5817 -0.5795  1.0602
17067SOL    HW252686   6.004   3.513   1.008 -0.2076 -0.4176  0.3298
17068SOL     OW52687   1.489   5.223   4.732  0.2562  0.1902 -0.5488
17068SOL    HW152688   1.551   5.217   4.659  0.0330  1.6547 -0.8760
17068SOL    HW252689   1.538   5.193   4.808  1.5911  1.9472 -0.6860
17069SOL     OW52690   2.069   3.766   4.261 -0.3537 -0.0837 -0.1016
17069SOL    HW152691   2.084   3.769   4.167 -0.7123  1.0988 -0.1372
17069SOL    HW252692   2.030   3.852   4.282  1.2528  0.3259  1.3682
17070SOL     OW52693   3.210   2.334   6.519  0.0250  0.0745  0.2416
17070SOL    HW152694   3.138   2.276   6.546 -1.0247  1.2627  0.0569
17070SOL    HW252695   3.232   2.383   6.598 -0.3732  0.7573 -0.0683
17071SOL     OW52696   7.995   8.065   7.949 -0.1493  0.2979 -0.7293
17071SOL    HW152697   8.042   8.147   7.932  0.5319  0.0769  0.0563
17071SOL    HW252698   8.014   8.046   8.040  0.2372 -1.0842 -1.0931
17072SOL     OW52699   6.854   0.707   7.511  0.4340 -0.2324  0.1694
17072SOL    HW152700   6.804   0.686   7.432 -1.0837  0.3584  0.9625
17072SOL    HW252701   6.799   0.768   7.559  2.0880  0.7162  0.8903
17073SOL     OW52702   6.527   0.744   0.979 -0.2418  0.0273 -0.2011
17073SOL    HW152703   6.537   0.688   1.055 -0.5214 -0.5687 -0.6000
17073SOL    HW252704   6.614   0.780   0.964 -0.2854  0.5018  0.6674
17074SOL     OW52705   7.748   2.239   1.059  0.3708  0.0458  0.0147
17074SOL    HW152706   7.733   2.334   1.057  1.4469  0.2035 -1.5785
17074SOL    HW252707   7.841   2.231   1.083  0.5344 -0.5580 -0.7940
17075SOL     OW52708   7.896   4.002   6.099  1.0316  0.1921  0.5793
17075SOL    HW152709   7.831   3.949   6.145  0.1710  0.7483  0.0096
17075SOL    HW252710   7.937   3.941   6.037  0.8489 -0.0844  0.7288
17076SOL     OW52711   2.783   8.130   5.601  0.4494  0.5819  0.4195
17076SOL    HW152712   2.698   8.103   5.568  0.7718  1.4839 -1.1927
17076SOL    HW252713   2.837   8.051   5.598 -0.0393  0.2458  0.4983
17077SOL     OW52714   7.772   2.808   4.801  0.5011  0.6261 -0.2593
17077SOL    HW152715   7.860   2.846   4.796  0.1463  1.5743  0.4704
17077SOL    HW252716   7.762   2.758   4.720  1.6518  0.6388 -0.4134
17078SOL     OW52717   4.834   5.680   5.031 -0.6850  1.0540 -0.6003
17078SOL    HW152718   4.855   5.751   5.092 -1.9282  0.0012  1.1033
17078SOL    HW252719   4.889   5.607   5.060 -0.5561  0.8528 -1.3602
17079SOL     OW52720   3.430   2.332   7.665 -0.3618 -0.4894 -0.0305
17079SOL    HW152721   3.345   2.307   7.701  0.0588  1.0558  2.1666
17079SOL    HW252722   3.492   2.271   7.704 -0.0485  0.5028  1.0635
17080SOL     OW52723   6.633   3.852   4.997  0.1610 -0.1616  0.1021
17080SOL    HW152724   6.700   3.821   4.935 -0.1611 -0.5024 -0.0791
17080SOL    HW252725   6.553   3.808   4.969  0.1955 -0.9915  1.2975
17081SOL     OW52726   6.758   2.796   7.219  0.3509  0.0157  0.1102
17081SOL    HW152727   6.822   2.848   7.268  1.2920 -1.3629  0.3994
17081SOL    HW252728   6.676   2.842   7.230  1.0235  1.0287  0.9885
17082SOL     OW52729   5.647   0.064   1.036  0.0358  0.4368 -0.6687
17082SOL    HW152730   5.589   0.129   1.075  0.4914  0.8526 -0.6725
17082SOL    HW252731   5.663   0.000   1.106 -1.2957 -0.2791 -0.9996
17083SOL     OW52732   5.797   0.090   0.795  0.0457 -0.0677  0.1254
17083SOL    HW152733   5.857   0.146   0.845  0.2550 -0.4869  0.3464
17083SOL    HW252734   5.728   0.068   0.858 -1.0393  1.4750 -0.4915
17084SOL     OW52735   2.523   7.013   5.933  0.1114 -0.2329  0.1108
17084SOL    HW152736   2.431   6.995   5.913 -0.5708  2.2024  0.8942
17084SOL    HW252737   2.558   6.929   5.963 -1.4258 -1.5662 -1.7058
17085SOL     OW52738   4.288   4.845   4.081  0.2359  0.2214  0.2820
17085SOL    HW152739   4.255   4.918   4.133 -0.0706  1.6034 -1.7961
17085SOL    HW252740   4.383   4.848   4.094  0.2306  1.0102  0.1792
17086SOL     OW52741   2.075   1.084   1.277  0.2767 -0.1553 -0.5628
17086SOL    HW152742   2.144   1.120   1.332 -0.3266 -1.9377  1.4095
17086SOL    HW252743   2.097   0.991   1.268 -0.6868 -0.2866 -1.7512
17087SOL     OW52744   4.777   0.982   0.754 -0.2388  0.0671 -0.1381
17087SOL    HW152745   4.808   1.037   0.682 -0.2717 -1.1456 -1.1014
17087SOL    HW252746   4.805   1.027   0.833 -1.7697  2.3619 -0.8483
17088SOL     OW52747   4.490   4.407   3.586 -0.3183  0.1809  1.1243
17088SOL    HW152748   4.508   4.327   3.537 -2.1146 -0.3863  1.3804
17088SOL    HW252749   4.549   4.402   3.662 -0.1180 -0.6817  0.9170
17089SOL     OW52750   4.103   7.899   5.718 -0.1585  0.5750 -0.5592
17089SOL    HW152751   4.084   7.985   5.682  1.2522 -0.0695 -2.9399
17089SOL    HW252752   4.037   7.841   5.678  0.2325  0.1756 -0.6297
17090SOL     OW52753   2.845   0.803   3.677  0.0749  0.1824  0.1229
17090SOL    HW152754   2.797   0.726   3.708  0.7769 -0.5323 -0.5405
17090SOL    HW252755   2.898   0.830   3.752  0.1491 -0.2439  0.2261
17091SOL     OW52756   4.076   8.116   3.116 -0.0283 -0.5605  0.1062
17091SOL    HW152757   4.135   8.122   3.041 -2.1940  1.1873 -1.5190
17091SOL    HW252758   3.999   8.166   3.091 -0.5987  0.5711  3.7345
17092SOL     OW52759   7.389   2.874   1.973  0.1731  0.2572  0.0945
17092SOL    HW152760   7.476   2.893   1.938  0.8989 -0.4892  1.4411
17092SOL    HW252761   7.396   2.787   2.012 -1.1906  0.1617  0.1760
17093SOL     OW52762   2.160   4.912   2.658 -0.3322 -0.1024 -0.0207
17093SOL    HW152763   2.227   4.967   2.616 -0.5763 -0.0373 -0.3227
17093SOL    HW252764   2.101   4.973   2.700 -0.1175 -0.1657  0.3823
17094SOL     OW52765   7.702   5.790   2.621 -0.1663 -0.1478 -0.1031
17094SOL    HW152766   7.654   5.841   2.555  1.7876  0.9467 -0.7265
17094SOL    HW252767   7.647   5.714   2.637 -2.2921  1.2498 -0.5045
17095SOL     OW52768   1.545   6.331   7.440  0.2489  0.0169  0.5291
17095SOL    HW152769   1.638   6.346   7.424  0.3499  0.4645  1.4783
17095SOL    HW252770   1.526   6.383   7.518 -0.8048 -0.0521  0.3241
17096SOL     OW52771   4.953   7.467   2.645  0.3035  0.1407 -0.4426
17096SOL    HW152772   4.904   7.424   2.576  2.6598 -0.3533 -1.8868
17096SOL    HW252773   5.017   7.522   2.599  2.9531 -1.3712  1.2391
17097SOL     OW52774   7.610   2.481   4.611  0.4474 -0.0966 -0.8318
17097SOL    HW152775   7.577   2.417   4.674 -2.9918  1.6956 -0.7094
17097SOL    HW252776   7.682   2.525   4.658 -0.0130 -0.9097  0.6714
17098SOL     OW52777   2.351   0.260   8.300  0.4549  0.1432  0.2411
17098SOL    HW152778   2.422   0.284   8.360  1.2197 -1.6927  0.1029
17098SOL    HW252779   2.391   0.199   8.239 -0.7732  0.6090 -1.0584
17099SOL     OW52780   6.260   4.299   4.066 -0.2829 -0.1071  0.3000
17099SOL    HW152781   6.343   4.330   4.101  0.1751 -1.9251  0.8917
17099SOL    HW252782   6.248   4.347   3.984  2.4325 -1.4040 -0.9122
17100SOL     OW52783   4.263   5.800   6.907 -0.1310 -0.4272  0.4054
17100SOL    HW152784   4.208   5.805   6.829  1.4898  1.1941 -0.6687
17100SOL    HW252785   4.244   5.879   6.956  0.7819 -0.1559  0.3345
17101SOL     OW52786   4.757   3.331   2.842  0.4464  0.2033  0.2847
17101SOL    HW152787   4.844   3.341   2.803  0.1587 -2.0697 -1.0150
17101SOL    HW252788   4.703   3.293   2.772 -0.7333 -1.5325  2.0904
17102SOL     OW52789   0.910   6.917   3.543  0.0819  0.2129  0.5047
17102SOL    HW152790   0.942   6.880   3.461  1.6396 -0.0093  1.2046
17102SOL    HW252791   0.815   6.916   3.534  0.2199 -0.5410 -0.9730
17103SOL     OW52792   2.856   2.135   3.009  0.0610 -0.6640  0.7322
17103SOL    HW152793   2.940   2.158   3.048  0.5428 -1.2196  0.0429
17103SOL    HW252794   2.823   2.063   3.063  1.7802 -2.9671 -1.1502
17104SOL     OW52795   7.386   5.517   5.505 -0.0754 -0.3193  0.0224
17104SOL    HW152796   7.479   5.513   5.526 -0.2448  1.5141  1.1918
17104SOL    HW252797   7.349   5.438   5.545  0.8023 -0.5320  0.4263
17105SOL     OW52798   0.431   7.846   8.072 -0.0302 -0.1593  0.0309
17105SOL    HW152799   0.480   7.876   7.995  0.3186  0.8020  0.6084
17105SOL    HW252800   0.479   7.884   8.146 -0.4781 -0.9090  0.7051
17106SOL     OW52801   7.556   2.633   0.477 -0.4500  0.2137 -0.2878
17106SOL    HW152802   7.626   2.677   0.428 -0.1542  0.0810  0.0120
17106SOL    HW252803   7.502   2.592   0.410  0.3852 -0.6121 -0.4588
17107SOL     OW52804   3.000   4.381   5.904  0.3539  0.5042  0.3773
17107SOL    HW152805   2.993   4.422   5.990  3.0655  2.3827 -0.2406
17107SOL    HW252806   2.921   4.409   5.858 -1.0485 -0.3971  2.1307
17108SOL     OW52807   7.505   4.989   5.484 -0.5225 -0.1453  0.5143
17108SOL    HW152808   7.497   5.077   5.448  0.6729  0.1556  0.9557
17108SOL    HW252809   7.585   4.992   5.536 -0.8938 -1.2769  1.1605
17109SOL     OW52810   6.201   4.941   3.156  0.1839  0.4162 -0.1514
17109SOL    HW152811   6.144   4.913   3.084 -0.1669  0.3583  0.1441
17109SOL    HW252812   6.155   5.016   3.195  0.0698  0.0655  0.3941
17110SOL     OW52813   4.814   5.202   2.775 -0.6217  0.0773  0.2425
17110SOL    HW152814   4.788   5.124   2.725  1.1538 -0.2437 -0.2220
17110SOL    HW252815   4.788   5.275   2.719 -1.4554 -0.2115  0.2518
17111SOL     OW52816   2.805   8.276   3.208 -0.6174 -0.0698 -0.2112
17111SOL    HW152817   2.795   8.370   3.196  1.2327  0.1743 -0.0913
17111SOL    HW252818   2.857   8.248   3.133  0.4166 -0.6578  0.7098
17112SOL     OW52819   2.551   6.973   1.128 -0.0773  0.3870 -0.4768
17112SOL    HW152820   2.484   6.973   1.060 -0.2154 -0.3182 -0.3491
17112SOL    HW252821   2.623   7.024   1.091 -0.6901  1.1755 -0.6006
17113SOL     OW52822   1.001   1.771   0.108  0.2420  0.4327 -0.3048
17113SOL    HW152823   1.087   1.730   0.122 -0.3295 -0.5007  0.4817
17113SOL    HW252824   0.982   1.755   0.015  0.3204 -0.5110 -0.1601
17114SOL     OW52825   8.194   1.457   2.639  0.1656  0.1595  0.5918
17114SOL    HW152826   8.164   1.372   2.607 -3.2511  0.6044  2.4532
17114SOL    HW252827   8.271   1.436   2.693 -0.0375 -1.6098  0.2339
17115SOL     OW52828   2.395   4.029   6.027 -0.3317  0.6578 -0.0761
17115SOL    HW152829   2.343   3.949   6.014 -0.1424  0.5025  0.1114
17115SOL    HW252830   2.473   3.999   6.073  0.6690  0.6470 -1.7691
17116SOL     OW52831   1.098   3.660   6.737  0.5138 -0.4091  0.2069
17116SOL    HW152832   1.073   3.569   6.724 -0.6306 -0.0654 -0.0464
17116SOL    HW252833   1.055   3.708   6.666  0.6564  0.4008  0.6539
17117SOL     OW52834   0.466   5.887   4.265 -0.4677  0.1339  0.2090
17117SOL    HW152835   0.476   5.969   4.312  2.3823 -0.7762  1.3214
17117SOL    HW252836   0.553   5.869   4.229 -0.8241 -2.7235  0.6101
17118SOL     OW52837   8.166   5.513   5.052 -0.5585 -0.1993 -0.2773
17118SOL    HW152838   8.117   5.505   5.134 -0.8443  0.4735 -0.3760
17118SOL    HW252839   8.240   5.453   5.061 -0.4241  0.0968  0.5903
17119SOL     OW52840   1.599   3.083   7.158  0.1140 -0.5861  0.0566
17119SOL    HW152841   1.527   3.020   7.153  0.5824 -1.1204 -0.0133
17119SOL    HW252842   1.678   3.029   7.156  0.6477  0.1484 -3.8909
17120SOL     OW52843   7.196   5.405   3.046 -0.2416 -0.3461 -0.9125
17120SOL    HW152844   7.276   5.437   3.004  0.3416 -1.2529 -0.5269
17120SOL    HW252845   7.201   5.310   3.036 -1.0012 -0.4431 -0.4089
17121SOL     OW52846   1.179   1.001   2.680  0.8949 -0.2900 -0.4740
17121SOL    HW152847   1.134   1.029   2.601  1.4964  2.6114  0.1437
17121SOL    HW252848   1.109   0.982   2.743  0.4631 -0.0206 -0.8728
17122SOL     OW52849   4.656   5.183   4.485 -0.3690 -0.5782  0.0945
17122SOL    HW152850   4.623   5.193   4.396 -0.4204 -0.4557  0.1267
17122SOL    HW252851   4.737   5.234   4.486 -1.5557  1.3529  0.7726
17123SOL     OW52852   0.909   5.596   4.173  0.2099  0.2382  0.2148
17123SOL    HW152853   0.935   5.671   4.226  0.5533 -0.6423  1.3277
17123SOL    HW252854   0.992   5.559   4.141  0.0328  0.4542 -0.5033
17124SOL     OW52855   5.634   1.411   3.828 -0.2436  0.1310 -0.3517
17124SOL    HW152856   5.654   1.497   3.792 -2.7224  0.1593 -1.7095
17124SOL    HW252857   5.582   1.430   3.906  0.6953 -0.1049  0.3433
17125SOL     OW52858   8.273   5.253   1.101  0.1222  0.1319 -0.1085
17125SOL    HW152859   8.265   5.278   1.193  1.0509  1.3901 -0.3571
17125SOL    HW252860   8.184   5.227   1.075 -0.4002  1.0040  0.7898
17126SOL     OW52861   1.329   2.551   0.179  0.3230  0.4860  0.1190
17126SOL    HW152862   1.288   2.468   0.156  1.0447  0.0308  0.4715
17126SOL    HW252863   1.398   2.562   0.114  2.5470 -0.9314  2.1883
17127SOL     OW52864   3.034   5.417   1.219  0.6017  1.0103  0.6687
17127SOL    HW152865   2.950   5.437   1.177  0.2315  0.2106  1.0177
17127SOL    HW252866   3.031   5.464   1.302 -0.7342 -1.3332  1.9880
17128SOL     OW52867   0.546   6.471   8.120 -0.3812 -0.3246  0.3304
17128SOL    HW152868   0.488   6.540   8.151 -0.1024 -1.0971  2.6652
17128SOL    HW252869   0.493   6.420   8.059 -0.8680  1.3947 -0.7041
17129SOL     OW52870   5.454   2.930   1.611 -0.1820  0.1059 -0.0572
17129SOL    HW152871   5.441   2.968   1.524  0.0784 -0.7137 -0.4598
17129SOL    HW252872   5.366   2.916   1.644 -0.2835  2.3884  0.6913
17130SOL     OW52873   8.154   7.787   4.852 -0.6634  0.7910  0.0521
17130SOL    HW152874   8.163   7.695   4.828 -1.6252  0.5897  0.4384
17130SOL    HW252875   8.237   7.827   4.825 -0.5395 -0.0269 -0.8317
17131SOL     OW52876   8.049   6.337   4.979 -0.6849 -0.3084  0.2421
17131SOL    HW152877   8.072   6.317   5.070 -1.4327  0.1403  0.5344
17131SOL    HW252878   8.022   6.252   4.943 -1.5885 -0.2648  0.7993
17132SOL     OW52879   7.839   4.335   6.919  0.9410 -0.1978 -1.1114
17132SOL    HW152880   7.816   4.427   6.905 -0.2738 -0.5137 -1.2615
17132SOL    HW252881   7.930   4.328   6.890  1.9896  1.5691  1.5229
17133SOL     OW52882   4.908   2.451   0.182  0.3424 -0.3238  0.1595
17133SOL    HW152883   4.929   2.529   0.233 -0.8548 -0.7685  1.3605
17133SOL    HW252884   4.979   2.444   0.117  0.7883  1.3907  0.4483
17134SOL     OW52885   3.539   4.586   5.629  0.1699  0.0797  0.4700
17134SOL    HW152886   3.621   4.622   5.596 -0.0190 -0.2009 -0.3165
17134SOL    HW252887   3.475   4.607   5.561 -0.2184 -0.5210  0.6492
17135SOL     OW52888   5.231   2.299   2.901  0.3848  0.3122  0.1491
17135SOL    HW152889   5.176   2.261   2.970 -0.0644  1.7294  0.5775
17135SOL    HW252890   5.176   2.296   2.823  0.1301  0.6449  0.3155
17136SOL     OW52891   2.649   7.764   1.347  0.2170  0.5715  0.0173
17136SOL    HW152892   2.644   7.690   1.407 -1.8476  1.6182  1.2027
17136SOL    HW252893   2.742   7.768   1.322  0.6812 -1.3173  1.2999
17137SOL     OW52894   0.384   5.007   5.691  0.1087 -0.4449 -0.6654
17137SOL    HW152895   0.339   5.085   5.657 -0.0063 -0.0720  0.3415
17137SOL    HW252896   0.442   4.981   5.619  0.5574  0.8848 -0.8142
17138SOL     OW52897   5.096   0.597   0.724 -0.9248 -0.1920  0.0788
17138SOL    HW152898   5.118   0.512   0.686  1.8084 -0.2183  1.5456
17138SOL    HW252899   5.141   0.661   0.668 -3.2332  0.3555 -1.2121
17139SOL     OW52900   5.219   1.708   1.053  0.3421 -0.1305 -0.3559
17139SOL    HW152901   5.290   1.769   1.071  0.3420 -0.5661  1.1897
17139SOL    HW252902   5.140   1.762   1.049  0.2314 -0.1123  1.7929
17140SOL     OW52903   5.059   4.983   1.868  0.1631 -0.0880 -0.2019
17140SOL    HW152904   5.047   4.909   1.928  0.0469  1.3151  1.5156
17140SOL    HW252905   4.970   5.003   1.837 -0.2119  1.2303  1.6446
17141SOL     OW52906   6.460   7.964   4.542 -0.0839 -0.7861  0.1157
17141SOL    HW152907   6.396   8.000   4.481 -0.6245  0.8813  1.6480
17141SOL    HW252908   6.421   7.881   4.571 -0.5975 -0.7659 -0.4920
17142SOL     OW52909   2.076   3.237   1.944  0.3506  0.8277  0.5116
17142SOL    HW152910   2.000   3.181   1.928 -1.1779  2.3684  2.2382
17142SOL    HW252911   2.073   3.303   1.875  2.3110 -1.2676 -1.6964
17143SOL     OW52912   3.459   2.454   6.921 -0.7413  0.3730  0.9825
17143SOL    HW152913   3.482   2.369   6.885 -2.3339  0.2552  0.2221
17143SOL    HW252914   3.542   2.488   6.955 -0.1044 -1.4867  1.3508
17144SOL     OW52915   8.023   6.578   6.594 -0.1006  0.3653  0.1001
17144SOL    HW152916   7.951   6.518   6.614  0.2266  0.0715  0.3908
17144SOL    HW252917   8.036   6.569   6.500  0.2224 -0.3349  0.2045
17145SOL     OW52918   6.826   2.812   3.879  0.4330 -0.1505 -0.5949
17145SOL    HW152919   6.762   2.797   3.949  0.0569 -0.3024 -0.9666
17145SOL    HW252920   6.910   2.820   3.924  0.1147  0.2960 -0.0847
17146SOL     OW52921   1.963   1.718   3.527  0.1539 -0.0045 -0.3189
17146SOL    HW152922   2.017   1.750   3.599 -0.4093  0.2376  0.0037
17146SOL    HW252923   2.021   1.662   3.475  0.7827  0.4843 -0.1390
17147SOL     OW52924   1.745   5.786   6.402  0.3359 -0.4157  0.3139
17147SOL    HW152925   1.821   5.749   6.447  0.7247 -0.7074 -0.5582
17147SOL    HW252926   1.733   5.872   6.440  0.2435 -0.9250  1.4434
17148SOL     OW52927   2.233   0.695   4.024  0.3097  0.0958  0.2513
17148SOL    HW152928   2.313   0.687   3.972 -1.1648  1.1840 -2.2941
17148SOL    HW252929   2.185   0.613   4.007 -0.6501  0.8946 -0.9928
17149SOL     OW52930   5.924   5.784   3.616 -0.6330  0.2507 -0.1332
17149SOL    HW152931   5.865   5.859   3.621 -2.0608 -0.9314  1.3543
17149SOL    HW252932   6.000   5.809   3.668 -2.6947 -0.6670  3.5044
17150SOL     OW52933   3.983   1.312   4.827  0.0329 -0.1271  0.2603
17150SOL    HW152934   3.966   1.399   4.790  0.8232  0.2189  0.6993
17150SOL    HW252935   4.078   1.304   4.827  0.0041 -0.5946  1.1207
17151SOL     OW52936   2.226   6.190   8.151 -0.2882 -0.5255  0.3160
17151SOL    HW152937   2.249   6.277   8.185 -1.3258 -0.8537  1.9293
17151SOL    HW252938   2.140   6.172   8.189 -0.9661 -1.4295 -1.5934
17152SOL     OW52939   7.515   3.586   8.145 -0.1506 -0.2077  0.4451
17152SOL    HW152940   7.601   3.627   8.135 -1.1040  1.7654  0.1420
17152SOL    HW252941   7.505   3.532   8.067  0.4475  0.2795  0.0265
17153SOL     OW52942   3.529   3.598   7.976 -0.3671  0.3247 -0.0161
17153SOL    HW152943   3.541   3.688   7.945  0.4184  0.4997  0.7728
17153SOL    HW252944   3.618   3.568   7.997 -0.4334 -1.1633 -1.6737
17154SOL     OW52945   2.930   7.728   5.553  0.1429  0.3430  0.2615
17154SOL    HW152946   2.963   7.800   5.500 -0.0480  1.2782  1.3934
17154SOL    HW252947   2.930   7.761   5.643 -0.6559 -0.8012  0.7109
17155SOL     OW52948   1.791   0.009   0.656 -0.0871  0.2834  0.0215
17155SOL    HW152949   1.880  -0.024   0.644 -0.9615 -2.3475  0.3904
17155SOL    HW252950   1.799   0.073   0.727  1.6768  0.9394 -0.7294
17156SOL     OW52951   1.888   5.585   6.496  0.1176  0.0731  0.3279
17156SOL    HW152952   1.863   5.501   6.534  2.2491 -0.2713  1.0343
17156SOL    HW252953   1.907   5.565   6.405  2.7395 -0.6812  0.9946
17157SOL     OW52954   0.461   5.506   6.427 -0.2371 -0.0852  0.1226
17157SOL    HW152955   0.490   5.476   6.341  0.4084  0.9380 -0.0243
17157SOL    HW252956   0.477   5.600   6.426  2.1732 -0.4238  2.3044
17158SOL     OW52957   6.537   5.850   0.991 -0.7324  0.3212  0.0778
17158SOL    HW152958   6.548   5.910   0.917 -1.2931  0.4787  0.1227
17158SOL    HW252959   6.551   5.763   0.953 -2.3308  0.3013 -0.5044
17159SOL     OW52960   2.676   4.529   2.976 -0.1673 -0.4240 -0.1209
17159SOL    HW152961   2.585   4.537   3.004 -0.8880 -2.6683 -1.6371
17159SOL    HW252962   2.728   4.540   3.056 -1.8802 -1.2814  1.1211
17160SOL     OW52963   6.206   0.156   3.292  0.2527  0.1249 -0.1805
17160SOL    HW152964   6.128   0.113   3.257  0.6025 -0.1361 -0.6427
17160SOL    HW252965   6.248   0.090   3.347  0.1312  0.2782  0.0992
17161SOL     OW52966   1.273   5.368   7.843  0.2235  0.1980  0.0251
17161SOL    HW152967   1.219   5.361   7.765 -1.1585  2.3123  0.7423
17161SOL    HW252968   1.218   5.331   7.913  0.5617  0.3520  0.3736
17162SOL     OW52969   6.752   2.098   0.072  0.2841 -0.0252 -0.3789
17162SOL    HW152970   6.755   2.003   0.077 -1.2106 -0.2727 -3.0461
17162SOL    HW252971   6.659   2.119   0.081  0.6106  1.1782  0.2485
17163SOL     OW52972   2.512   3.755   6.828  0.5405  0.2261  0.7158
17163SOL    HW152973   2.525   3.729   6.737 -4.9797 -0.6647  0.0108
17163SOL    HW252974   2.549   3.682   6.879  0.8362 -0.7494 -0.8533
17164SOL     OW52975   1.488   7.566   3.600 -0.1063  0.0425 -0.2335
17164SOL    HW152976   1.410   7.607   3.563  0.0359 -0.4713 -1.1108
17164SOL    HW252977   1.459   7.531   3.684 -0.4205  1.2556  0.1833
17165SOL     OW52978   6.247   4.064   7.549 -0.5304 -0.2385  0.2914
17165SOL    HW152979   6.228   4.028   7.462 -0.4140  0.6083 -0.0859
17165SOL    HW252980   6.324   4.120   7.536 -0.1528 -0.5776  1.0548
17166SOL     OW52981   1.539   1.680   2.961 -0.4469 -0.3091  0.2721
17166SOL    HW152982   1.601   1.752   2.948  0.2962 -1.1100 -0.7449
17166SOL    HW252983   1.564   1.641   3.045  0.5906 -0.7632 -0.2327
17167SOL     OW52984   7.527   7.498   7.377  0.2453 -0.2337  0.4347
17167SOL    HW152985   7.608   7.465   7.416  0.7714  1.4107  0.7415
17167SOL    HW252986   7.545   7.501   7.283 -0.2232 -1.9328  0.2599
17168SOL     OW52987   5.789   2.929   2.598  0.0628  0.0429 -0.5264
17168SOL    HW152988   5.710   2.978   2.576 -0.6649 -1.0443 -0.4010
17168SOL    HW252989   5.834   2.983   2.663 -1.4497 -0.1277  0.6770
17169SOL     OW52990   3.872   1.113   7.790  0.0331  0.9768 -0.0981
17169SOL    HW152991   3.851   1.125   7.882 -1.4477  2.3165 -0.5863
17169SOL    HW252992   3.899   1.021   7.783  0.2258  0.8927  1.6732
17170SOL     OW52993   1.967   7.354   2.007  0.0464 -0.3071  0.0345
17170SOL    HW152994   1.901   7.304   2.056  0.0372 -0.0863  0.2468
17170SOL    HW252995   2.037   7.291   1.990 -0.2074 -0.5340 -0.1639
17171SOL     OW52996   1.144   1.508   7.243  0.6681 -0.0661  0.2452
17171SOL    HW152997   1.110   1.593   7.270  0.2265 -0.7937  2.0928
17171SOL    HW252998   1.239   1.520   7.238  0.5328  0.7557 -0.3409
17172SOL     OW52999   7.607   6.124   7.375 -0.0940  0.0831 -0.3121
17172SOL    HW153000   7.525   6.113   7.423 -0.7775 -1.8371 -1.8593
17172SOL    HW253001   7.617   6.219   7.366  0.4412  0.5555  4.1833
17173SOL     OW53002   6.599   6.198   1.133  0.0348  0.1421  0.4012
17173SOL    HW153003   6.566   6.282   1.100 -1.8532 -0.9654 -0.6603
17173SOL    HW253004   6.547   6.182   1.212 -0.4169 -0.5459 -0.0279
17174SOL     OW53005   6.359   7.831   0.519  0.3340  0.4244 -0.8997
17174SOL    HW153006   6.286   7.874   0.474  0.0882  0.8260 -0.1190
17174SOL    HW253007   6.404   7.782   0.450  0.0230  1.1277 -1.6053
17175SOL     OW53008   1.972   7.462   6.495 -0.2196 -0.4206 -0.1175
17175SOL    HW153009   1.889   7.504   6.517 -0.3049 -0.7860  0.2557
17175SOL    HW253010   1.952   7.406   6.420  0.1523  1.1099 -1.3898
17176SOL     OW53011   2.250   8.309   5.013  0.1576 -0.3733 -0.6450
17176SOL    HW153012   2.336   8.286   4.978  0.5065  0.1969 -0.1734
17176SOL    HW253013   2.269   8.367   5.086 -0.5461 -2.1137  0.9545
17177SOL     OW53014   5.020   6.928   6.444 -0.7964 -0.1751  0.5484
17177SOL    HW153015   5.101   6.946   6.492  0.3285 -1.3038 -0.8667
17177SOL    HW253016   4.986   7.014   6.422 -1.1931  0.3654  3.0811
17178SOL     OW53017   0.273   4.652   2.550 -0.5164  0.0636 -0.2155
17178SOL    HW153018   0.189   4.698   2.549 -0.1900  0.6653 -0.2937
17178SOL    HW253019   0.330   4.708   2.603  0.1882  0.3088 -1.2155
17179SOL     OW53020   2.055   5.530   1.447  0.6512 -0.0745  0.3694
17179SOL    HW153021   2.083   5.584   1.373  1.5175 -1.2594 -0.1766
17179SOL    HW253022   1.978   5.484   1.416  0.4704  0.1284  0.5165
17180SOL     OW53023   2.604   5.618   3.484 -0.4318 -0.0691  0.1080
17180SOL    HW153024   2.577   5.649   3.571 -0.7659 -1.2356  0.4286
17180SOL    HW253025   2.528   5.634   3.428 -0.1983  0.7322  0.0086
17181SOL     OW53026   3.617   4.551   6.397 -0.2735 -0.4894  0.1821
17181SOL    HW153027   3.637   4.501   6.476 -0.5021 -0.7150  0.0955
17181SOL    HW253028   3.624   4.642   6.424  1.3968 -0.5578  0.0315
17182SOL     OW53029   6.778   5.959   5.180  0.2074  0.1742  0.0988
17182SOL    HW153030   6.743   6.009   5.106 -2.8985 -0.8819  0.7767
17182SOL    HW253031   6.840   5.898   5.141  0.8533  1.6581 -1.2405
17183SOL     OW53032   6.703   3.595   2.127 -0.1639 -0.2942 -0.7735
17183SOL    HW153033   6.684   3.578   2.219  0.1534  1.3576 -0.3958
17183SOL    HW253034   6.745   3.514   2.096 -1.3481 -1.3004  0.2065
17184SOL     OW53035   5.931   6.270   0.673 -0.3919 -0.0839 -0.0094
17184SOL    HW153036   5.866   6.214   0.631 -1.9780  1.0107  0.9444
17184SOL    HW253037   5.995   6.209   0.709 -1.5280 -1.2428  0.0901
17185SOL     OW53038   2.321   0.728   2.400 -0.2243  0.2157 -0.7519
17185SOL    HW153039   2.285   0.676   2.328 -2.3004  0.2795  0.2249
17185SOL    HW253040   2.276   0.812   2.393 -0.7036  0.1007  0.8327
17186SOL     OW53041   2.494   7.108   3.382 -0.0498 -0.1287  0.0045
17186SOL    HW153042   2.466   7.196   3.360  0.9401  0.2903  0.3808
17186SOL    HW253043   2.485   7.102   3.478  0.1869 -0.3216  0.0174
17187SOL     OW53044   4.678   3.379   0.702  0.5171 -0.2229 -0.0207
17187SOL    HW153045   4.712   3.458   0.745  0.7149 -0.4077  0.1621
17187SOL    HW253046   4.584   3.381   0.721  0.1038  1.2419 -2.0444
17188SOL     OW53047   1.502   7.163   4.041  0.2406  0.4140  0.5817
17188SOL    HW153048   1.569   7.207   3.989 -1.4909  1.2321 -1.0042
17188SOL    HW253049   1.525   7.070   4.036  0.0822  0.4847 -1.6687
17189SOL     OW53050   8.280   0.994   1.414  0.2294  0.2142 -0.1381
17189SOL    HW153051   8.218   1.036   1.354  0.6517  0.0439 -0.6958
17189SOL    HW253052   8.224   0.950   1.478 -0.2186  2.3238  0.9581
17190SOL     OW53053   4.104   8.284   4.005 -0.0719  0.2026 -0.4594
17190SOL    HW153054   4.152   8.203   4.021 -1.3456 -0.6025 -0.6519
17190SOL    HW253055   4.095   8.289   3.910 -2.1859 -0.7433 -0.3310
17191SOL     OW53056   5.534   0.744   0.696  0.2066 -0.3910  0.2059
17191SOL    HW153057   5.563   0.818   0.749 -1.4574  0.4340 -0.0080
17191SOL    HW253058   5.615   0.704   0.666  1.1479  1.3424  0.3305
17192SOL     OW53059   4.900   6.008   4.719  0.0622  0.4752  0.1394
17192SOL    HW153060   4.844   5.962   4.657 -0.5617 -0.4895  1.4106
17192SOL    HW253061   4.961   6.057   4.664 -1.1070  0.4070 -1.2473
17193SOL     OW53062   5.267   4.234   1.591 -0.3042  0.2184 -0.0675
17193SOL    HW153063   5.192   4.252   1.535  0.4828  0.8615 -0.9288
17193SOL    HW253064   5.338   4.216   1.530  0.4937  0.6388  0.7303
17194SOL     OW53065   7.265   2.197   1.439 -0.0433  0.7549 -0.1895
17194SOL    HW153066   7.234   2.160   1.357  1.3775 -0.8861 -0.0118
17194SOL    HW253067   7.232   2.287   1.439 -0.6107  0.5672 -2.2346
17195SOL     OW53068   1.306   7.474   1.437 -0.3713 -0.5404 -0.1095
17195SOL    HW153069   1.359   7.506   1.364  0.3916  1.4814  1.2904
17195SOL    HW253070   1.233   7.536   1.442 -0.3121 -0.5563  0.9585
17196SOL     OW53071   0.238   6.617   1.621  0.4819 -0.5428  0.5615
17196SOL    HW153072   0.142   6.615   1.619  0.4779 -1.0817  1.1301
17196SOL    HW253073   0.260   6.598   1.713  1.1249 -0.1333  0.4934
17197SOL     OW53074   0.285   4.171   7.894  0.5010 -0.1368  0.0170
17197SOL    HW153075   0.267   4.250   7.945  0.2757  0.2792 -0.6946
17197SOL    HW253076   0.240   4.186   7.811  0.0004 -1.2448  0.0712
17198SOL     OW53077   5.824   3.492   2.391 -0.3582 -0.2764  0.1750
17198SOL    HW153078   5.753   3.556   2.397 -0.6169 -0.2012 -2.7214
17198SOL    HW253079   5.792   3.415   2.438 -1.5092  0.4918  0.6681
17199SOL     OW53080   1.584   7.475   7.507  0.0517  0.1502  0.5151
17199SOL    HW153081   1.646   7.425   7.560 -2.2627 -0.8584  2.3732
17199SOL    HW253082   1.545   7.410   7.448  1.1253  0.8832 -1.0289
17200SOL     OW53083   0.942   3.121   6.072  0.0852 -0.3052 -0.7702
17200SOL    HW153084   0.868   3.135   6.131 -0.9133 -0.6801 -1.9077
17200SOL    HW253085   0.989   3.047   6.110  0.2349  0.3370  0.3046
17201SOL     OW53086   2.221   1.841   4.087 -0.7507 -0.5330 -0.2298
17201SOL    HW153087   2.157   1.911   4.071  2.3674  2.5671  0.2678
17201SOL    HW253088   2.302   1.872   4.045  1.3424 -2.8099  1.9381
17202SOL     OW53089   5.189   5.446   8.077 -0.3268  0.0144  1.0369
17202SOL    HW153090   5.245   5.522   8.093  0.4641 -0.4311  0.3837
17202SOL    HW253091   5.222   5.408   7.996 -1.7955 -0.0431  0.4513
17203SOL     OW53092   7.675   6.850   0.676 -0.2049 -0.0689 -0.2954
17203SOL    HW153093   7.586   6.882   0.657 -0.4900 -0.7892 -0.2018
17203SOL    HW253094   7.662   6.759   0.703  0.4571  0.1810  0.8921
17204SOL     OW53095   4.455   1.850   5.884 -0.4076  0.2687  0.4257
17204SOL    HW153096   4.548   1.862   5.865 -0.3122 -1.7445 -0.5236
17204SOL    HW253097   4.449   1.853   5.979  0.1969  3.2740  0.4004
17205SOL     OW53098   1.055   3.364   2.158  0.1472  0.1743 -0.0060
17205SOL    HW153099   1.009   3.404   2.084  1.0530  0.7093 -0.2976
17205SOL    HW253100   1.065   3.272   2.133  0.4769  0.3608 -0.5774
17206SOL     OW53101   6.936   6.546   6.133 -0.2305  0.2299 -0.3771
17206SOL    HW153102   6.970   6.457   6.134 -0.5185  0.1175  0.3553
17206SOL    HW253103   7.012   6.601   6.153 -0.4835 -0.0276  1.3691
17207SOL     OW53104   4.433   5.535   3.805 -0.5185  0.4180 -0.5843
17207SOL    HW153105   4.494   5.598   3.767 -0.8042  0.5179 -0.8904
17207SOL    HW253106   4.409   5.478   3.732  1.2279 -1.2609  0.1154
17208SOL     OW53107   2.576   6.317   3.414 -0.0574  0.5593 -0.4810
17208SOL    HW153108   2.614   6.247   3.361 -0.3404  0.9642 -1.2341
17208SOL    HW253109   2.615   6.397   3.379  0.2288  0.7775  0.3436
17209SOL     OW53110   7.062   4.855   1.432 -0.6355 -0.0994  0.1648
17209SOL    HW153111   7.157   4.863   1.435 -0.6213 -0.1480 -0.1372
17209SOL    HW253112   7.038   4.882   1.343 -0.9317  0.2007  0.3367
17210SOL     OW53113   4.715   5.544   4.010 -0.6706 -0.4898 -0.0608
17210SOL    HW153114   4.719   5.638   4.026 -1.1820  0.3230 -4.1353
17210SOL    HW253115   4.804   5.521   3.981 -1.2842 -0.6987 -1.7837
17211SOL     OW53116   1.308   7.360   1.678  0.2889  0.1570 -0.8085
17211SOL    HW153117   1.388   7.397   1.715  1.1519 -0.8399 -1.6328
17211SOL    HW253118   1.311   7.384   1.585 -1.0302  1.2374 -0.5838
17212SOL     OW53119   1.017   6.145   1.240 -0.0194  0.0590 -0.1880
17212SOL    HW153120   1.017   6.130   1.334  1.1798 -1.3639 -0.3913
17212SOL    HW253121   0.925   6.153   1.217 -0.3488 -0.1625  1.0317
17213SOL     OW53122   7.747   2.397   0.379 -0.1818 -0.1310 -0.2640
17213SOL    HW153123   7.709   2.440   0.455 -1.4791  0.4769 -1.2494
17213SOL    HW253124   7.841   2.412   0.388 -0.2379 -0.8472  1.6883
17214SOL     OW53125   0.395   4.450   2.947 -0.0173  0.2624 -0.0553
17214SOL    HW153126   0.440   4.405   3.019  1.1514  0.8942 -0.3817
17214SOL    HW253127   0.340   4.383   2.907 -2.1458  0.3465  2.6082
17215SOL     OW53128   0.997   1.894   8.105 -0.3532 -1.0148  0.0134
17215SOL    HW153129   0.991   1.816   8.161  0.2739 -0.6760  0.5591
17215SOL    HW253130   0.923   1.886   8.045  0.7179 -2.9537 -1.1102
17216SOL     OW53131   1.460   5.287   3.379  0.2219 -0.5512 -0.1020
17216SOL    HW153132   1.365   5.294   3.373  0.4419  3.0549 -0.1745
17216SOL    HW253133   1.476   5.253   3.468 -1.0976 -1.5395 -0.2245
17217SOL     OW53134   8.138   2.063   4.672  0.0285 -0.1217  0.3474
17217SOL    HW153135   8.062   2.084   4.726 -0.3629  1.0291 -0.6156
17217SOL    HW253136   8.108   1.994   4.613 -0.7215  1.3181 -0.9924
17218SOL     OW53137   7.458   1.726   1.661 -0.2865 -0.5117 -0.1000
17218SOL    HW153138   7.438   1.648   1.714 -4.5161  0.7086  0.3218
17218SOL    HW253139   7.485   1.792   1.725  0.8698 -0.8993 -0.1840
17219SOL     OW53140   0.492   5.417   6.139  0.8087  0.0267 -0.2856
17219SOL    HW153141   0.506   5.323   6.150 -0.1650 -0.0405  0.4564
17219SOL    HW253142   0.414   5.423   6.083  1.5411  0.3947 -1.2796
17220SOL     OW53143   6.966   1.322   4.756 -0.0889  0.1601  0.1402
17220SOL    HW153144   7.001   1.236   4.732 -1.0370 -0.0880 -0.3449
17220SOL    HW253145   6.872   1.314   4.744 -0.0492  1.7395 -1.3575
17221SOL     OW53146   2.216   0.491   0.510 -0.4099  0.5797 -0.0870
17221SOL    HW153147   2.298   0.453   0.479 -0.0206  0.3841  1.1539
17221SOL    HW253148   2.200   0.450   0.595 -2.6225 -0.5578 -0.9986
17222SOL     OW53149   7.805   4.655   4.933 -0.2736  0.0079 -0.1996
17222SOL    HW153150   7.895   4.686   4.943 -0.2839  0.3483 -1.1327
17222SOL    HW253151   7.780   4.683   4.845 -1.3600  0.0918  0.1360
17223SOL     OW53152   4.481   2.926   1.322  0.8771  0.9574 -0.0677
17223SOL    HW153153   4.437   2.874   1.389  1.0007  1.4319  0.3764
17223SOL    HW253154   4.411   2.954   1.264  0.9084 -0.4765 -0.8456
17224SOL     OW53155   5.162   7.779   6.949  0.0933  0.3136  0.1489
17224SOL    HW153156   5.162   7.781   6.853 -1.0821  1.0305  0.1518
17224SOL    HW253157   5.252   7.757   6.973 -0.0322 -1.6773 -1.1496
17225SOL     OW53158   2.790   5.748   2.093 -0.0447  0.1324 -0.3147
17225SOL    HW153159   2.730   5.821   2.106  0.3054  0.4805 -0.5944
17225SOL    HW253160   2.877   5.788   2.101  0.1441 -0.3699  0.1263
17226SOL     OW53161   7.785   0.260   7.736  0.4302  0.4955  0.0355
17226SOL    HW153162   7.842   0.294   7.805  0.1853  1.7132 -0.3452
17226SOL    HW253163   7.750   0.338   7.694  0.5233 -0.2382 -1.4257
17227SOL     OW53164   3.092   7.127   1.947 -0.2738 -0.1082  0.4485
17227SOL    HW153165   3.163   7.167   1.997  0.0463  1.3712 -1.1013
17227SOL    HW253166   3.015   7.182   1.966 -0.6243 -0.7615  0.9096
17228SOL     OW53167   6.686   0.685   6.759  0.6977  0.2897  1.0355
17228SOL    HW153168   6.643   0.764   6.726 -1.3537 -1.3728 -0.3094
17228SOL    HW253169   6.647   0.671   6.845  1.7563  1.2391  1.6950
17229SOL     OW53170   6.482   7.488   5.546  0.0923 -0.5434 -0.7216
17229SOL    HW153171   6.573   7.472   5.571 -0.5562 -0.7344  1.5728
17229SOL    HW253172   6.479   7.468   5.452  2.7881  1.1183 -1.2107
17230SOL     OW53173   7.493   3.077   2.882  0.8245  0.2297 -0.3017
17230SOL    HW153174   7.411   3.080   2.932  0.9128  0.7869 -0.1823
17230SOL    HW253175   7.477   3.012   2.814 -0.0636  1.0079 -0.8657
17231SOL     OW53176   2.453   1.410   1.626 -0.1794  0.2628 -0.0797
17231SOL    HW153177   2.386   1.401   1.694  0.3190  0.9239  0.5025
17231SOL    HW253178   2.446   1.329   1.575 -0.4009 -0.3437  0.8956
17232SOL     OW53179   7.199   0.128   0.821 -0.4113  0.2996 -0.0338
17232SOL    HW153180   7.117   0.142   0.774 -0.4012  1.0775  0.1736
17232SOL    HW253181   7.237   0.050   0.780 -1.4372 -0.2864  0.1342
17233SOL     OW53182   5.152   1.293   7.018  0.0368 -0.0588 -0.5916
17233SOL    HW153183   5.221   1.282   7.084  1.2912 -0.2828 -1.9211
17233SOL    HW253184   5.103   1.211   7.021  0.9402 -0.6143 -0.8868
17234SOL     OW53185   3.764   0.088   5.606  0.1770  0.4019 -0.3672
17234SOL    HW153186   3.706   0.029   5.655 -0.3167  0.9063 -0.3345
17234SOL    HW253187   3.706   0.131   5.543  0.6154  0.5325 -0.6802
17235SOL     OW53188   5.021   2.729   3.424  0.0783  0.3877  0.1898
17235SOL    HW153189   5.034   2.823   3.418 -0.3638  0.5423  1.5106
17235SOL    HW253190   4.954   2.718   3.492  2.5295 -1.0219  2.4965
17236SOL     OW53191   3.964   5.677   4.480 -0.2911  0.8349 -0.6456
17236SOL    HW153192   3.922   5.744   4.535 -0.8217 -0.9447  1.1635
17236SOL    HW253193   3.900   5.606   4.476  1.6412 -0.9791  0.2840
17237SOL     OW53194   0.657   3.550   6.866  0.1737 -0.0486 -1.1089
17237SOL    HW153195   0.671   3.459   6.838  0.1372 -0.3915 -0.0490
17237SOL    HW253196   0.656   3.545   6.962 -1.0239  0.8962 -1.0708
17238SOL     OW53197   6.364   3.654   3.941 -0.0314  0.1514 -0.2396
17238SOL    HW153198   6.344   3.563   3.916 -0.7917  0.5493 -1.1251
17238SOL    HW253199   6.371   3.652   4.036 -2.0861 -0.4558 -0.0764
17239SOL     OW53200   2.248   2.299   2.432  0.0454  0.0572  0.7824
17239SOL    HW153201   2.273   2.266   2.518  0.0869 -1.6480  0.1321
17239SOL    HW253202   2.326   2.344   2.400  0.8974 -1.5923  0.5258
17240SOL     OW53203   5.894   7.691   6.039 -0.1943  0.1326  0.2971
17240SOL    HW153204   5.911   7.754   6.109 -2.3760 -0.0737  1.0603
17240SOL    HW253205   5.916   7.738   5.959  2.6426  0.2676  1.1101
17241SOL     OW53206   2.705   7.754   7.524  0.8626 -0.1188 -0.1033
17241SOL    HW153207   2.773   7.690   7.544  1.3433  0.2987 -0.3718
17241SOL    HW253208   2.647   7.710   7.462 -0.9351 -1.6100  2.5367
17242SOL     OW53209   3.064   5.875   2.234  0.2258 -0.2245 -0.3252
17242SOL    HW153210   3.051   5.884   2.328 -1.6410 -1.6164 -0.4393
17242SOL    HW253211   3.071   5.965   2.203 -3.2518  0.4293  0.6026
17243SOL     OW53212   7.687   4.882   6.615  0.5714  0.0721  0.3187
17243SOL    HW153213   7.738   4.899   6.694  0.8030 -1.0483  0.4086
17243SOL    HW253214   7.732   4.810   6.571 -0.4857 -0.4108  0.0001
17244SOL     OW53215   1.876   2.751   2.711  0.0253 -0.1387 -0.1594
17244SOL    HW153216   1.912   2.817   2.770 -2.5228  1.9658 -0.8258
17244SOL    HW253217   1.847   2.680   2.768  0.0869  0.6454  0.8636
17245SOL     OW53218   2.653   7.043   6.834  0.0463 -0.1266 -0.3628
17245SOL    HW153219   2.641   7.126   6.881 -0.1404 -0.0479 -0.5508
17245SOL    HW253220   2.565   7.007   6.826  0.3083 -1.1133  1.1184
17246SOL     OW53221   1.938   5.896   6.736  0.1006 -0.0821 -0.0972
17246SOL    HW153222   1.997   5.965   6.766 -1.4098  2.1382 -2.0112
17246SOL    HW253223   1.985   5.854   6.664  0.6322 -0.4352  0.4503
17247SOL     OW53224   2.894   5.337   3.133 -0.5908 -0.7367 -0.6981
17247SOL    HW153225   2.891   5.283   3.212  0.0960 -0.8678 -0.7599
17247SOL    HW253226   2.958   5.294   3.077 -0.8734 -0.4894 -1.2170
17248SOL     OW53227   2.356   5.988   4.440  0.2352 -0.4778 -0.2910
17248SOL    HW153228   2.437   5.969   4.392  0.7250 -4.6998  1.9239
17248SOL    HW253229   2.386   6.022   4.525 -0.2306 -2.1979  0.5931
17249SOL     OW53230   6.387   5.606   5.483 -0.3248 -0.4404  0.1984
17249SOL    HW153231   6.443   5.529   5.492 -0.4237 -0.7327 -1.4487
17249SOL    HW253232   6.298   5.571   5.481 -0.4717 -0.1297  1.0854
17250SOL     OW53233   2.076   6.507   2.399  0.4465 -0.1986 -0.0099
17250SOL    HW153234   2.036   6.579   2.447  0.4576 -0.2989  0.1515
17250SOL    HW253235   2.070   6.432   2.459  0.3431 -0.3553 -0.2141
17251SOL     OW53236   4.022   2.439   7.633  0.3023  0.2471 -0.3257
17251SOL    HW153237   3.929   2.465   7.634  0.4380  0.7201 -0.0183
17251SOL    HW253238   4.024   2.359   7.684  0.3128  1.0891  1.0108
17252SOL     OW53239   3.429   8.075   7.346  0.0355 -0.0783 -0.0684
17252SOL    HW153240   3.444   7.984   7.372  1.0041 -0.1578 -0.8967
17252SOL    HW253241   3.335   8.079   7.327 -0.0501 -0.8466  0.1819
17253SOL     OW53242   0.816   6.740   5.290 -0.3677 -0.0181  0.0262
17253SOL    HW153243   0.729   6.763   5.257  0.0229  1.5791  0.0645
17253SOL    HW253244   0.802   6.719   5.383 -0.7931 -0.3208 -0.1060
17254SOL     OW53245   0.911   7.423   5.767 -0.5640  0.3455  0.2697
17254SOL    HW153246   0.864   7.420   5.684 -1.4563  0.0959  0.7761
17254SOL    HW253247   0.959   7.505   5.765  0.1991 -0.1217 -0.9110
17255SOL     OW53248   2.232   1.276   8.085 -0.0624  0.3823 -0.1984
17255SOL    HW153249   2.176   1.206   8.052  0.8937 -1.1167  1.2493
17255SOL    HW253250   2.299   1.288   8.018  1.2879 -1.9452  0.6621
17256SOL     OW53251   0.297   1.117   3.508 -0.0735  0.0743  0.0110
17256SOL    HW153252   0.380   1.070   3.503 -0.1534 -0.1613  0.8797
17256SOL    HW253253   0.320   1.209   3.497  0.3846  0.0768  0.9933
17257SOL     OW53254   7.211   8.222   3.246 -0.4102  0.1063  0.6902
17257SOL    HW153255   7.132   8.168   3.252  1.2069 -2.3666  0.1949
17257SOL    HW253256   7.217   8.246   3.154  1.7742 -3.4127 -0.1532
17258SOL     OW53257   0.783   4.068   0.971  0.3357  0.2116  0.1281
17258SOL    HW153258   0.772   4.030   0.883 -1.3327 -1.4238  1.0057
17258SOL    HW253259   0.733   4.149   0.969 -0.9399 -0.5730  0.0205
17259SOL     OW53260   6.786   5.949   4.601 -0.2506 -0.5649  0.3191
17259SOL    HW153261   6.878   5.923   4.603  0.0467  0.3702 -0.4514
17259SOL    HW253262   6.750   5.903   4.525  0.1226  0.7547 -0.6718
17260SOL     OW53263   5.542   6.504   7.900  0.7818 -0.3904 -0.1469
17260SOL    HW153264   5.624   6.521   7.947 -0.6788  0.5894  2.1830
17260SOL    HW253265   5.535   6.409   7.897  0.7780 -0.4738  1.9207
17261SOL     OW53266   0.571   1.068   3.044 -0.2814  0.0178 -0.2110
17261SOL    HW153267   0.655   1.076   2.999 -0.3118  1.2965 -0.0683
17261SOL    HW253268   0.584   0.998   3.108  0.2879 -0.6290 -1.0360
17262SOL     OW53269   0.660   1.408   2.216  0.2984 -0.0705  0.2066
17262SOL    HW153270   0.687   1.425   2.126 -0.4132  0.9140  0.1783
17262SOL    HW253271   0.626   1.491   2.247 -2.8958 -1.3043  0.1737
17263SOL     OW53272   0.037   3.142   2.908  0.5614 -0.1337 -0.1052
17263SOL    HW153273   0.127   3.148   2.874  0.3099  0.2532 -0.7153
17263SOL    HW253274   0.002   3.063   2.868  0.0447  0.6784 -1.2923
17264SOL     OW53275   5.511   0.256   3.077  0.3832 -0.0533  0.2870
17264SOL    HW153276   5.563   0.182   3.105  2.3832  0.7455 -1.2081
17264SOL    HW253277   5.563   0.299   3.009 -0.9975  2.3523  0.6575
17265SOL     OW53278   4.948   0.035   1.971  0.0279 -0.1357  0.5106
17265SOL    HW153279   5.025   0.019   1.916 -1.2709  1.2915 -1.7545
17265SOL    HW253280   4.923  -0.051   2.003  1.1278 -0.9219 -0.7068
17266SOL     OW53281   5.268   6.542   3.400 -0.3923 -0.3016  0.2514
17266SOL    HW153282   5.342   6.498   3.442 -0.9366 -1.6302 -0.1667
17266SOL    HW253283   5.290   6.635   3.405  0.9922 -0.6415  0.7271
17267SOL     OW53284   7.735   3.248   1.726 -0.3330 -0.7031 -0.3598
17267SOL    HW153285   7.727   3.269   1.819  1.1756 -1.9223  0.0769
17267SOL    HW253286   7.763   3.330   1.685  2.0075 -0.8941  0.7622
17268SOL     OW53287   0.953   6.937   6.037 -0.5602 -0.0382  0.3639
17268SOL    HW153288   0.983   6.997   6.106  0.3542  0.7847 -0.7096
17268SOL    HW253289   0.943   6.993   5.960 -0.3022 -1.1646 -0.5002
17269SOL     OW53290   6.116   3.325   6.915 -0.1153  0.1374 -0.0261
17269SOL    HW153291   6.067   3.289   6.841 -2.1961  1.5432  0.6028
17269SOL    HW253292   6.139   3.414   6.888  1.0330 -0.0947  0.1665
17270SOL     OW53293   6.761   3.223   4.944 -0.4086  0.4433 -0.4201
17270SOL    HW153294   6.777   3.145   4.890 -2.2970  0.8266 -1.5982
17270SOL    HW253295   6.681   3.202   4.992  0.4876  0.6727  1.1840
17271SOL     OW53296   7.579   1.183   2.952  0.2397 -0.2330  0.9572
17271SOL    HW153297   7.635   1.149   2.882 -2.2785  0.8681 -1.7057
17271SOL    HW253298   7.559   1.105   3.005  1.2510 -1.3172 -0.2014
17272SOL     OW53299   7.485   3.715   1.557  0.9566  0.2178 -0.1428
17272SOL    HW153300   7.539   3.688   1.482 -1.1423  2.0551 -2.3670
17272SOL    HW253301   7.404   3.666   1.547  0.5447  0.6920  0.8085
17273SOL     OW53302   6.141   5.791   0.715  0.4055 -0.0886  0.2438
17273SOL    HW153303   6.144   5.714   0.772  1.1436 -0.3549 -0.1391
17273SOL    HW253304   6.048   5.811   0.706  0.2635 -0.2825  1.2203
17274SOL     OW53305   8.151   2.032   6.017 -0.4215  0.0131 -0.3105
17274SOL    HW153306   8.108   2.080   5.946  1.0720 -0.8821 -1.8538
17274SOL    HW253307   8.227   2.085   6.039 -1.1302  0.5188  0.9546
17275SOL     OW53308   1.089   5.583   5.593 -0.0206  0.0256 -0.3880
17275SOL    HW153309   1.011   5.609   5.542  0.3274 -0.1774 -1.0324
17275SOL    HW253310   1.072   5.617   5.681 -0.7699  0.1232 -0.5631
17276SOL     OW53311   2.119   6.033   4.661  0.2847  0.1554  0.3810
17276SOL    HW153312   2.191   5.991   4.614 -0.3758 -1.3199  0.6457
17276SOL    HW253313   2.040   6.004   4.616 -0.2329  0.5609  1.0047
17277SOL     OW53314   6.092   4.029   0.336  0.2613 -0.7676 -0.7468
17277SOL    HW153315   6.014   4.072   0.300  1.4347  0.9785 -1.2778
17277SOL    HW253316   6.063   3.990   0.418 -0.6303  1.9902  0.3038
17278SOL     OW53317   0.007   3.373   0.005 -0.0882 -0.1018  0.2441
17278SOL    HW153318   0.038   3.288   0.037 -1.7166 -0.8718 -0.1704
17278SOL    HW253319   0.087   3.425  -0.007  0.8892 -1.4285  0.8993
17279SOL     OW53320   7.149   8.035   1.834  0.0719 -0.4299 -0.1305
17279SOL    HW153321   7.217   8.078   1.782 -0.4641  1.4095  0.6590
17279SOL    HW253322   7.090   7.997   1.768 -0.6557  1.9648 -0.9014
17280SOL     OW53323   3.959   3.733   2.672  0.2576 -0.0850 -0.4043
17280SOL    HW153324   4.003   3.720   2.756  0.6922 -0.3134 -0.6707
17280SOL    HW253325   3.913   3.817   2.682 -0.4446 -0.5638  0.3881
17281SOL     OW53326   6.425   1.288   6.033  0.0352  0.0901  0.4404
17281SOL    HW153327   6.482   1.237   6.090 -2.1567 -1.2585  1.4893
17281SOL    HW253328   6.434   1.378   6.064  1.2096 -0.1774  0.8897
17282SOL     OW53329   1.500   2.797   0.414 -0.4879 -0.1614  0.1024
17282SOL    HW153330   1.573   2.760   0.365 -1.6234 -1.5178 -0.5694
17282SOL    HW253331   1.525   2.785   0.506  0.3165 -0.2281 -0.1175
17283SOL     OW53332   1.732   3.005   4.843  0.2711  0.4958 -0.4362
17283SOL    HW153333   1.691   2.953   4.774 -1.5176  0.9100  0.2957
17283SOL    HW253334   1.770   3.080   4.797  0.2753  0.0813 -1.1170
17284SOL     OW53335   4.761   8.201   6.375  0.1909 -0.7045 -0.1995
17284SOL    HW153336   4.746   8.166   6.287 -1.0139  2.0422 -1.1412
17284SOL    HW253337   4.855   8.217   6.380  0.0589  0.6040 -1.5933
17285SOL     OW53338   1.907   5.012   5.288 -0.4513 -0.0524  0.0072
17285SOL    HW153339   1.826   5.033   5.334 -1.5942 -0.8173 -1.6488
17285SOL    HW253340   1.913   5.077   5.218 -0.5592 -1.1000 -0.9834
17286SOL     OW53341   5.874   3.202   8.121  0.7572 -0.3952 -0.3015
17286SOL    HW153342   5.839   3.118   8.152  0.5987 -0.3057 -0.2370
17286SOL    HW253343   5.796   3.252   8.096  0.7929  0.0716  0.5100
17287SOL     OW53344   3.527   3.479   2.455 -0.2009  0.0102 -0.2777
17287SOL    HW153345   3.521   3.462   2.361 -0.4648 -1.1672 -0.0560
17287SOL    HW253346   3.473   3.556   2.469  0.0767  0.3739 -1.1343
17288SOL     OW53347   8.210   2.555   3.557 -0.1418 -0.7604 -0.3205
17288SOL    HW153348   8.195   2.483   3.495  0.9503  0.0952 -1.6016
17288SOL    HW253349   8.139   2.616   3.541 -0.4818 -1.0590  0.0404
17289SOL     OW53350   6.463   7.596   4.258  0.1741 -0.1815  0.3137
17289SOL    HW153351   6.398   7.525   4.256  0.9779 -0.9154 -1.6088
17289SOL    HW253352   6.548   7.550   4.263  0.8486  0.4717 -3.4569
17290SOL     OW53353   7.032   1.705   5.050  0.4987 -0.6393 -0.3094
17290SOL    HW153354   7.008   1.643   5.119  1.3178 -0.6188 -0.0011
17290SOL    HW253355   6.975   1.781   5.066  0.6941 -0.6273  0.3537
17291SOL     OW53356   0.138   4.584   0.567 -0.4209 -0.3619  0.3744
17291SOL    HW153357   0.125   4.556   0.658  2.8993 -1.0310  0.7094
17291SOL    HW253358   0.132   4.503   0.516  0.7857 -0.4499  0.3650
17292SOL     OW53359   8.291   2.968   3.759  0.0299  0.2269 -0.7781
17292SOL    HW153360   8.333   2.904   3.701  0.4239  1.7418 -2.2031
17292SOL    HW253361   8.343   2.964   3.839  1.1660  0.0179 -1.4985
17293SOL     OW53362   0.659   5.947   0.781  0.3618 -0.5567  0.4756
17293SOL    HW153363   0.685   5.861   0.813  0.4743 -0.0441  1.8172
17293SOL    HW253364   0.656   6.002   0.860  0.5286  0.7224 -0.3899
17294SOL     OW53365   3.854   3.411   2.970  0.0427 -0.1284  0.2712
17294SOL    HW153366   3.901   3.387   2.890 -1.8012  0.3370 -0.9677
17294SOL    HW253367   3.767   3.437   2.941 -0.3982  0.8635  2.3538
17295SOL     OW53368   3.127   5.732   7.124 -0.6976 -0.8259  0.1270
17295SOL    HW153369   3.064   5.749   7.054 -0.5967 -0.2540  0.1710
17295SOL    HW253370   3.079   5.752   7.205 -0.7398 -1.2573  0.2098
17296SOL     OW53371   5.822   5.727   1.746  0.3293 -0.1318 -0.2490
17296SOL    HW153372   5.907   5.683   1.751  0.0990 -0.8664 -2.3155
17296SOL    HW253373   5.769   5.683   1.813  1.3532 -0.1365  0.5785
17297SOL     OW53374   7.013   5.360   6.748 -0.1441 -0.8000 -0.0735
17297SOL    HW153375   6.964   5.292   6.703 -1.3484 -2.1244  3.0505
17297SOL    HW253376   6.960   5.439   6.736 -1.1592 -1.4295  0.1816
17298SOL     OW53377   1.873   0.305   3.768 -0.2145 -0.1304 -0.0433
17298SOL    HW153378   1.882   0.212   3.749 -1.9884  0.2371 -2.9244
17298SOL    HW253379   1.824   0.308   3.851 -1.7978 -1.7765 -0.8832
17299SOL     OW53380   3.783   1.147   3.528  0.5925  0.1645 -0.1086
17299SOL    HW153381   3.874   1.128   3.553  0.4407  1.2181  1.2931
17299SOL    HW253382   3.763   1.230   3.572 -0.7913  0.3531 -1.0652
17300SOL     OW53383   0.543   5.382   5.402 -0.4755  0.1908  0.0695
17300SOL    HW153384   0.567   5.392   5.310 -1.2016 -1.6534 -0.3354
17300SOL    HW253385   0.609   5.322   5.437  1.4428  3.0217  1.4545
17301SOL     OW53386   0.438   0.156   2.172 -0.5308 -0.2174 -0.0815
17301SOL    HW153387   0.447   0.225   2.105 -0.5265  0.6419  0.7976
17301SOL    HW253388   0.359   0.109   2.146 -1.6095  1.3058  0.3489
17302SOL     OW53389   4.593   4.398   4.470 -0.4659  0.2063  0.3870
17302SOL    HW153390   4.665   4.453   4.501  0.2666 -0.1201 -0.6904
17302SOL    HW253391   4.601   4.318   4.522  1.6475 -0.9222 -1.5252
17303SOL     OW53392   2.440   0.524   4.862 -0.2706  0.4672 -0.7484
17303SOL    HW153393   2.394   0.570   4.933  2.2501  0.6864  0.7711
17303SOL    HW253394   2.427   0.431   4.880  1.5583  0.5045  0.8179
17304SOL     OW53395   7.010   7.273   0.592 -0.1826 -0.2930  0.1129
17304SOL    HW153396   7.030   7.364   0.570 -0.2874 -0.5472 -1.1035
17304SOL    HW253397   6.927   7.256   0.547  1.0504 -1.7025 -1.6928
17305SOL     OW53398   6.671   1.074   4.551 -0.0851 -0.0738  0.4198
17305SOL    HW153399   6.706   1.113   4.471 -0.6251 -1.1628 -0.3530
17305SOL    HW253400   6.658   1.148   4.610  1.7003  0.5804  0.0337
17306SOL     OW53401   4.957   1.872   4.881 -0.8640  0.0802 -0.0045
17306SOL    HW153402   4.960   1.789   4.835  4.1086 -0.6223  1.3391
17306SOL    HW253403   4.906   1.854   4.960  2.9822 -2.7487  1.9919
17307SOL     OW53404   3.320   6.886   7.892  0.1113  0.5589 -0.0899
17307SOL    HW153405   3.277   6.804   7.915  0.1541  0.1226 -1.5097
17307SOL    HW253406   3.296   6.901   7.800  1.7734  1.0724 -0.4623
17308SOL     OW53407   0.612   5.345   7.951 -0.1100  0.1792 -0.1772
17308SOL    HW153408   0.591   5.265   8.000  1.7728 -0.3146 -0.1685
17308SOL    HW253409   0.707   5.348   7.948 -0.1624  1.9664 -0.9578
17309SOL     OW53410   3.342   0.793   7.547 -0.1307  0.5841  0.3175
17309SOL    HW153411   3.264   0.809   7.600 -1.1537  1.8768 -1.5049
17309SOL    HW253412   3.371   0.880   7.519 -0.2150 -0.0868 -2.0184
17310SOL     OW53413   7.423   2.153   3.579 -0.0707  0.4874  0.4971
17310SOL    HW153414   7.436   2.144   3.485  1.3768  1.7609  0.5772
17310SOL    HW253415   7.510   2.145   3.617 -0.7108 -0.6153  1.7945
17311SOL     OW53416   6.798   7.258   0.372  0.0317  0.2577 -0.2190
17311SOL    HW153417   6.785   7.167   0.398 -0.0989  0.7703  1.5441
17311SOL    HW253418   6.856   7.253   0.295  0.3801 -1.2749  0.1293
17312SOL     OW53419   7.579   4.507   6.238  0.2637 -0.0969 -0.1082
17312SOL    HW153420   7.558   4.465   6.155  2.0407  2.9656 -2.1795
17312SOL    HW253421   7.662   4.468   6.265  0.6884  0.3351 -0.7910
17313SOL     OW53422   6.319   8.262   0.694 -0.8109  0.7624  0.5309
17313SOL    HW153423   6.329   8.319   0.618  0.8310  1.9216  1.5934
17313SOL    HW253424   6.390   8.199   0.686  0.4272  1.9332  1.9818
17314SOL     OW53425   1.991   0.469   7.430 -0.2313  0.0106  0.1354
17314SOL    HW153426   2.018   0.500   7.343  1.9847  0.3143  0.8981
17314SOL    HW253427   1.951   0.383   7.414  1.2925 -0.4944 -1.0411
17315SOL     OW53428   6.289   7.520   7.156 -0.0927 -0.2862 -0.1333
17315SOL    HW153429   6.201   7.551   7.136  0.4555  1.5939  0.2669
17315SOL    HW253430   6.281   7.480   7.243 -0.7565 -1.1233 -0.5676
17316SOL     OW53431   3.627   7.898   6.208 -0.3831 -0.4001 -0.6998
17316SOL    HW153432   3.594   7.867   6.124 -1.3793  0.0022 -0.4672
17316SOL    HW253433   3.585   7.983   6.220  2.1446  0.9504 -1.2160
17317SOL     OW53434   5.482   7.467   3.729 -0.2563 -0.1135  0.1966
17317SOL    HW153435   5.408   7.497   3.782 -0.9632 -1.9492  0.2834
17317SOL    HW253436   5.541   7.427   3.792  0.7736  1.2079  0.1056
17318SOL     OW53437   0.836   5.673   5.018 -0.0786 -0.2333 -0.0253
17318SOL    HW153438   0.799   5.722   4.944 -0.4056  2.6983  1.9880
17318SOL    HW253439   0.855   5.740   5.083 -2.7545 -3.0781  3.8770
17319SOL     OW53440   4.654   6.195   3.080 -0.2822 -0.3944 -0.2776
17319SOL    HW153441   4.670   6.101   3.083  1.8655 -0.0042  1.2804
17319SOL    HW253442   4.712   6.227   3.011  0.8243  0.1266  0.8856
17320SOL     OW53443   6.784   5.512   4.429 -0.2704 -0.3147 -0.8372
17320SOL    HW153444   6.716   5.469   4.481 -0.7390 -0.7091 -1.7558
17320SOL    HW253445   6.781   5.468   4.344  0.5406  0.2561 -1.1755
17321SOL     OW53446   6.954   1.039   2.046  0.1842 -0.0554  0.4265
17321SOL    HW153447   6.966   1.095   1.969 -1.5896 -0.4176 -0.1349
17321SOL    HW253448   6.991   1.090   2.118  0.9175  0.7414 -0.4947
17322SOL     OW53449   1.414   0.079   0.747  0.0459  0.0709  0.1508
17322SOL    HW153450   1.397   0.023   0.823  0.0173 -0.9084 -0.5659
17322SOL    HW253451   1.332   0.077   0.698  0.7439 -0.9960 -0.9828
17323SOL     OW53452   4.310   3.076   2.960 -0.2291  0.1078  0.2403
17323SOL    HW153453   4.340   3.085   2.869  1.3445 -0.9598  0.6355
17323SOL    HW253454   4.274   3.162   2.982 -1.4419  0.1197 -1.6796
17324SOL     OW53455   0.746   2.238   4.866 -0.1469 -0.4436  0.2520
17324SOL    HW153456   0.802   2.165   4.892  0.0717 -0.5244 -0.4366
17324SOL    HW253457   0.690   2.202   4.797 -0.4893 -0.1424  0.3730
17325SOL     OW53458   0.843   7.132   1.893 -0.1623  0.4283  0.2848
17325SOL    HW153459   0.927   7.088   1.907 -0.4093 -0.5245 -1.1337
17325SOL    HW253460   0.819   7.110   1.803 -1.8045  0.9250  0.5884
17326SOL     OW53461   3.300   3.651   2.478 -0.5000  0.0048  0.2174
17326SOL    HW153462   3.306   3.630   2.571  1.1213 -0.4081  0.0299
17326SOL    HW253463   3.209   3.631   2.455 -1.1693  0.9792  1.9104
17327SOL     OW53464   2.441   6.821   6.341 -0.0168 -0.2619  0.1537
17327SOL    HW153465   2.390   6.870   6.405 -0.4239 -0.6626  0.1410
17327SOL    HW253466   2.517   6.877   6.322 -0.6722  0.5201 -0.1520
17328SOL     OW53467   5.818   5.182   4.351  0.2088 -0.2021  0.4483
17328SOL    HW153468   5.772   5.244   4.407 -1.8685 -1.2254 -0.0593
17328SOL    HW253469   5.808   5.217   4.263 -1.7837 -1.7189  0.0547
17329SOL     OW53470   5.822   1.572   3.993 -0.7500  0.5762  0.0673
17329SOL    HW153471   5.806   1.489   3.949 -0.3727  1.3941 -1.6462
17329SOL    HW253472   5.780   1.637   3.937  2.5273  1.9857 -0.8649
17330SOL     OW53473   8.300   3.426   6.389  0.0380 -0.2454 -0.3866
17330SOL    HW153474   8.268   3.485   6.320  0.0077 -1.3355 -1.3188
17330SOL    HW253475   8.395   3.435   6.386  0.0452 -0.4176 -0.6899
17331SOL     OW53476   2.940   6.089   3.137 -0.0258 -0.4847  0.1843
17331SOL    HW153477   2.950   6.164   3.078  2.1160  0.1711  1.3223
17331SOL    HW253478   2.977   6.015   3.088 -2.4645 -0.9481 -1.0845
17332SOL     OW53479   7.917   7.171   4.316 -0.6602  0.1414 -0.6310
17332SOL    HW153480   7.963   7.130   4.243 -1.7750 -0.3944 -1.0521
17332SOL    HW253481   7.921   7.265   4.296  1.3371  0.1982  0.0065
17333SOL     OW53482   0.250   1.660   6.478 -0.0938 -0.1458 -0.3123
17333SOL    HW153483   0.272   1.719   6.551 -1.8601  1.0375 -0.6873
17333SOL    HW253484   0.325   1.666   6.419  1.1785 -0.8145  1.2306
17334SOL     OW53485   1.758   7.675   5.430 -0.1764 -0.0759  0.0894
17334SOL    HW153486   1.692   7.624   5.478 -0.1540 -0.3766 -0.1956
17334SOL    HW253487   1.785   7.742   5.491 -0.2856 -0.3443  0.4352
17335SOL     OW53488   4.093   7.053   4.611  0.0513  0.1481  0.0398
17335SOL    HW153489   4.073   6.983   4.549 -0.8465  0.0521  0.4303
17335SOL    HW253490   4.188   7.058   4.611  0.0485  0.3443 -1.5636
17336SOL     OW53491   7.410   7.648   5.990 -0.0741 -0.0143  0.3268
17336SOL    HW153492   7.375   7.674   6.076 -1.1665 -1.1392  0.2422
17336SOL    HW253493   7.332   7.644   5.934  0.4392 -0.7275 -0.3399
17337SOL     OW53494   1.651   4.013   7.770  0.2475 -0.1671 -0.9474
17337SOL    HW153495   1.584   4.009   7.702  0.3473  0.7082 -1.0952
17337SOL    HW253496   1.701   3.932   7.759  0.5575  0.1885 -2.2116
17338SOL     OW53497   2.227   1.388   6.102  0.0966  0.4385 -0.6010
17338SOL    HW153498   2.174   1.313   6.128  0.1951  1.0509  1.4283
17338SOL    HW253499   2.228   1.384   6.006 -2.0939 -0.6275 -0.6191
17339SOL     OW53500   4.074   7.540   0.730  0.1932 -0.4740  0.3005
17339SOL    HW153501   4.009   7.566   0.795  0.9324  3.4870 -0.4049
17339SOL    HW253502   4.156   7.534   0.779  0.0788 -1.2675  0.4042
17340SOL     OW53503   5.240   4.263   6.269  0.0649 -0.2748 -0.6626
17340SOL    HW153504   5.261   4.262   6.362  0.9129 -3.0600 -0.8437
17340SOL    HW253505   5.325   4.269   6.225 -0.3493  1.3820 -1.2862
17341SOL     OW53506   1.891   1.259   1.758 -0.2031  0.3074  0.6376
17341SOL    HW153507   1.879   1.255   1.663 -0.6964 -1.2295  0.7580
17341SOL    HW253508   1.820   1.316   1.789  0.0955  0.9969  0.0721
17342SOL     OW53509   7.722   4.889   0.489 -0.2584 -0.4646  0.2748
17342SOL    HW153510   7.745   4.966   0.437  0.9044  0.4499  2.0891
17342SOL    HW253511   7.748   4.815   0.435 -2.7606  0.3122 -2.1621
17343SOL     OW53512   5.004   3.581   4.425 -0.5198 -0.2648  0.1343
17343SOL    HW153513   4.946   3.506   4.441  1.4147 -2.2146 -1.5771
17343SOL    HW253514   5.049   3.596   4.508  1.1338 -2.8936 -0.2204
17344SOL     OW53515   7.953   0.897   4.902 -0.0490 -0.1572  0.5504
17344SOL    HW153516   7.883   0.896   4.968 -0.4220 -0.8791  0.1539
17344SOL    HW253517   7.928   0.967   4.842  0.3556  0.5865  1.2334
17345SOL     OW53518   7.637   2.043   0.593  0.8752  0.6045 -0.2079
17345SOL    HW153519   7.671   2.109   0.654  1.2969 -2.9109  3.6380
17345SOL    HW253520   7.542   2.048   0.604  0.8871  0.7835 -0.1734
17346SOL     OW53521   1.100   0.651   5.487  0.2564 -0.0492 -0.2239
17346SOL    HW153522   1.053   0.579   5.530  0.4705  0.8882  1.6161
17346SOL    HW253523   1.039   0.724   5.487 -1.0476 -0.9371 -4.6702
17347SOL     OW53524   6.735   2.843   5.120 -0.2000  0.3994  0.4097
17347SOL    HW153525   6.730   2.810   5.031 -0.5236 -0.1946  0.6454
17347SOL    HW253526   6.746   2.765   5.174  1.3106  0.8546  0.7816
17348SOL     OW53527   1.121   6.461   8.046  0.3741 -0.0318  0.2623
17348SOL    HW153528   1.203   6.510   8.045  0.5169 -0.2670 -0.7282
17348SOL    HW253529   1.056   6.523   8.011  0.5499 -0.5142 -0.9644
17349SOL     OW53530   2.710   1.135   2.318 -0.0094 -0.4923  0.6717
17349SOL    HW153531   2.614   1.140   2.315  0.1617  2.9453 -0.7107
17349SOL    HW253532   2.732   1.165   2.406 -0.0939  1.1662  0.1343
17350SOL     OW53533   5.572   0.002   1.428 -0.2169 -0.0829  0.3064
17350SOL    HW153534   5.658  -0.019   1.393  0.0542 -1.4659  1.7664
17350SOL    HW253535   5.589   0.061   1.502 -0.7040  1.7443 -0.9939
17351SOL     OW53536   6.368   2.114   0.479 -0.4082 -0.4028  0.2832
17351SOL    HW153537   6.298   2.088   0.420 -0.2872 -2.2184  0.9162
17351SOL    HW253538   6.324   2.165   0.547 -0.6739  0.9053 -0.8432
17352SOL     OW53539   6.675   5.157   5.474  0.3933 -0.2359 -0.0852
17352SOL    HW153540   6.681   5.063   5.489  0.0130 -0.3378 -0.5605
17352SOL    HW253541   6.754   5.179   5.425  1.1911 -0.0551  1.2438
17353SOL     OW53542   1.880   4.424   5.621  0.2207 -0.9242  0.6360
17353SOL    HW153543   1.971   4.447   5.603  0.0245 -0.9225 -0.3890
17353SOL    HW253544   1.885   4.351   5.682  0.9135 -1.1817  0.2760
17354SOL     OW53545   4.299   6.057   4.151  0.5144  0.9438 -0.4411
17354SOL    HW153546   4.221   6.008   4.175 -0.4945  1.6244 -2.1864
17354SOL    HW253547   4.307   6.125   4.217 -1.0535  1.5787 -0.8947
17355SOL     OW53548   6.279   0.901   2.727  0.7720 -0.3480  0.3628
17355SOL    HW153549   6.184   0.893   2.719  0.9171 -0.8107 -1.0123
17355SOL    HW253550   6.292   0.988   2.766 -0.2611 -0.9528  2.1298
17356SOL     OW53551   2.480   2.574   5.263  0.1790  0.1367  0.4230
17356SOL    HW153552   2.506   2.666   5.272  0.3030  0.2252 -0.7611
17356SOL    HW253553   2.562   2.525   5.272  0.3598  0.2471 -0.6066
17357SOL     OW53554   5.616   0.256   0.658 -0.5950  0.4628 -0.0846
17357SOL    HW153555   5.669   0.192   0.705 -1.5173  0.0870  0.4564
17357SOL    HW253556   5.655   0.340   0.680  0.6798  0.0888 -0.8738
17358SOL     OW53557   3.253   1.165   1.028 -0.2764  0.4245  0.0465
17358SOL    HW153558   3.306   1.224   1.082 -1.1005  1.4000 -0.1836
17358SOL    HW253559   3.213   1.223   0.963 -1.3678 -0.3315  0.0331
17359SOL     OW53560   2.588   3.762   6.509 -0.4393  0.3660  0.8004
17359SOL    HW153561   2.678   3.789   6.527 -0.3636  0.4413  0.3334
17359SOL    HW253562   2.588   3.667   6.524  0.0359  0.1595 -0.3760
17360SOL     OW53563   7.213   7.662   3.784  0.1745 -0.2202 -0.5368
17360SOL    HW153564   7.263   7.649   3.865  1.4513  1.0355 -1.1266
17360SOL    HW253565   7.127   7.625   3.804  0.5742 -0.2093  1.2992
17361SOL     OW53566   2.191   6.018   5.863 -0.6528  0.4586  0.4826
17361SOL    HW153567   2.194   6.110   5.836  0.2503  0.1673 -0.4243
17361SOL    HW253568   2.122   6.015   5.930  0.0261  1.9815  1.2621
17362SOL     OW53569   2.731   3.064   4.568 -0.3423 -0.2031  0.3057
17362SOL    HW153570   2.772   2.990   4.614  2.2523  0.3343 -1.0438
17362SOL    HW253571   2.655   3.027   4.525 -1.4162 -1.2254  2.9863
17363SOL     OW53572   0.077   6.100   2.569 -0.1742 -0.2128 -0.4174
17363SOL    HW153573   0.075   6.136   2.657  1.6538 -0.3564 -0.2898
17363SOL    HW253574   0.169   6.076   2.555 -0.5658 -0.8225 -2.0992
17364SOL     OW53575   5.543   1.358   7.578  0.0928 -0.1582  0.5771
17364SOL    HW153576   5.454   1.394   7.584 -0.6038 -1.6858 -0.3239
17364SOL    HW253577   5.567   1.340   7.669  0.6429  2.9122  1.1174
17365SOL     OW53578   6.282   0.246   0.788 -0.0510  0.5312 -0.2418
17365SOL    HW153579   6.264   0.170   0.734  0.2029 -0.4176  1.0021
17365SOL    HW253580   6.223   0.314   0.755  1.4578  0.5686 -3.0033
17366SOL     OW53581   3.680   7.056   2.785 -0.2009  0.2124  0.5741
17366SOL    HW153582   3.739   7.082   2.856 -0.0402  0.1701  0.4585
17366SOL    HW253583   3.726   6.983   2.742 -0.8174 -0.5015  1.1259
17367SOL     OW53584   0.585   6.869   5.255  0.3701  0.1589  0.2449
17367SOL    HW153585   0.617   6.950   5.214  0.0862  1.5759  2.7080
17367SOL    HW253586   0.513   6.898   5.311 -2.2774 -2.3568 -1.7121
17368SOL     OW53587   0.582   2.565   7.487  0.2454  0.1265  0.2710
17368SOL    HW153588   0.634   2.643   7.508  1.7497 -0.2451 -1.8796
17368SOL    HW253589   0.622   2.494   7.538  0.8339  0.1516 -0.1603
17369SOL     OW53590   1.927   1.546   5.891 -0.0226 -0.5726  0.2632
17369SOL    HW153591   1.996   1.585   5.944 -0.3441  0.2005  0.1228
17369SOL    HW253592   1.973   1.505   5.817  0.0575  3.4336 -2.0454
17370SOL     OW53593   5.894   5.422   4.902  0.5316  0.0338 -0.5404
17370SOL    HW153594   5.949   5.348   4.928  0.8475  0.7134  0.8003
17370SOL    HW253595   5.902   5.426   4.807  0.5537 -1.6133 -0.6393
17371SOL     OW53596   0.157   8.179   7.726 -0.0541  0.2747  0.4837
17371SOL    HW153597   0.128   8.218   7.644  0.0948  0.1046  0.3489
17371SOL    HW253598   0.156   8.252   7.789  1.6937  0.8714 -0.1286
17372SOL     OW53599   3.064   2.604   4.839  0.3179  0.1867 -0.1986
17372SOL    HW153600   3.131   2.631   4.776  0.7355 -0.2509  0.0614
17372SOL    HW253601   2.996   2.563   4.785  1.2864 -1.3930 -0.2280
17373SOL     OW53602   2.091   2.404   2.205  0.4068 -0.2990  0.0765
17373SOL    HW153603   2.156   2.384   2.272  0.5177 -1.6869 -0.4196
17373SOL    HW253604   2.011   2.422   2.254  0.3815 -1.7131  0.5649
17374SOL     OW53605   3.706   5.326   3.466 -0.6751  0.2960  0.5582
17374SOL    HW153606   3.739   5.387   3.531  0.6149  1.2881 -0.9966
17374SOL    HW253607   3.613   5.348   3.457 -0.2504  1.9292  0.1157
17375SOL     OW53608   5.176   3.631   7.281  0.2235  0.6532 -0.7220
17375SOL    HW153609   5.256   3.607   7.234  1.1846  1.6343  0.3834
17375SOL    HW253610   5.199   3.712   7.326 -1.5645  1.2153 -0.8158
17376SOL     OW53611   0.728   5.248   4.485 -0.1511 -0.1248  0.0996
17376SOL    HW153612   0.636   5.239   4.460 -0.2163  0.7626  0.0088
17376SOL    HW253613   0.776   5.196   4.420 -0.7299 -2.2817  1.3443
17377SOL     OW53614   1.160   2.843   7.153  0.2089  0.0422 -0.5794
17377SOL    HW153615   1.168   2.840   7.058 -0.8573  0.0926 -0.6745
17377SOL    HW253616   1.249   2.858   7.184  0.8896 -1.8821 -1.4909
17378SOL     OW53617   7.229   0.164   3.813 -0.1757  0.1236 -0.3198
17378SOL    HW153618   7.278   0.196   3.737  0.3261  0.0952 -0.0130
17378SOL    HW253619   7.187   0.083   3.782 -1.2131  0.9154 -1.0063
17379SOL     OW53620   3.683   2.633   6.945 -0.1075 -0.6374 -0.2711
17379SOL    HW153621   3.622   2.701   6.973 -1.5174 -2.4341  1.2013
17379SOL    HW253622   3.706   2.656   6.855 -4.2980 -0.7644 -1.4744
17380SOL     OW53623   6.152   5.578   0.878 -0.0394  0.1056  0.5891
17380SOL    HW153624   6.228   5.520   0.880 -0.0600 -0.0404 -1.6451
17380SOL    HW253625   6.078   5.520   0.863 -0.2204  0.5298 -0.2465
17381SOL     OW53626   2.588   4.589   5.051  0.0353 -0.3326 -0.2214
17381SOL    HW153627   2.681   4.608   5.057  0.3844 -1.9568 -0.2393
17381SOL    HW253628   2.563   4.560   5.139 -0.5075  0.3048 -0.1565
17382SOL     OW53629   1.099   5.782   1.118  0.0573  0.1673  0.0156
17382SOL    HW153630   1.173   5.729   1.090 -1.2695 -0.8730 -1.5844
17382SOL    HW253631   1.124   5.872   1.094  1.2404 -0.0370  0.4520
17383SOL     OW53632   7.683   3.226   3.745  0.0774 -0.1749 -0.0962
17383SOL    HW153633   7.773   3.226   3.777  0.2146  0.7261 -0.4478
17383SOL    HW253634   7.633   3.271   3.813 -0.3666 -1.9408  0.7618
17384SOL     OW53635   1.930   8.235   3.990  0.2709  0.0308  0.0521
17384SOL    HW153636   1.894   8.216   4.077  1.0030  1.2167  0.6367
17384SOL    HW253637   2.018   8.269   4.008 -1.0030  4.0650 -0.8691
17385SOL     OW53638   0.813   2.619   3.774  0.0339  0.2479  0.6541
17385SOL    HW153639   0.908   2.617   3.788  0.0386 -1.3133  0.5531
17385SOL    HW253640   0.801   2.664   3.691  0.8503 -1.3609 -0.3653
17386SOL     OW53641   7.447   6.473   4.089  0.0091 -0.0936  0.2712
17386SOL    HW153642   7.411   6.552   4.130  0.8422 -0.2862  1.4211
17386SOL    HW253643   7.371   6.417   4.074 -0.3012 -0.1499  1.8895
17387SOL     OW53644   2.435   0.925   3.266  0.1913  0.3735 -0.6589
17387SOL    HW153645   2.506   0.921   3.329  0.2265  1.6646 -0.6019
17387SOL    HW253646   2.358   0.893   3.315  0.1849  1.5053  0.1001
17388SOL     OW53647   7.490   4.389   6.018 -0.3184 -0.1392 -0.1347
17388SOL    HW153648   7.476   4.296   6.036 -0.6628 -0.2013 -0.7129
17388SOL    HW253649   7.413   4.416   5.969  0.5083  0.0597 -1.3735
17389SOL     OW53650   4.990   2.702   0.762 -0.3666 -0.1250 -0.0188
17389SOL    HW153651   4.913   2.696   0.706  0.2315 -0.2466 -0.8279
17389SOL    HW253652   4.954   2.724   0.848 -1.4229 -1.5522 -0.0689
17390SOL     OW53653   7.886   4.261   3.340  0.2071  0.3010 -0.0934
17390SOL    HW153654   7.921   4.198   3.404  1.6593 -1.0283 -2.1628
17390SOL    HW253655   7.957   4.322   3.325  0.5171 -0.4716 -1.8221
17391SOL     OW53656   2.277   2.044   4.714  0.4073  0.2324  0.6265
17391SOL    HW153657   2.276   2.086   4.628 -1.2985  2.0956  1.5111
17391SOL    HW253658   2.358   2.076   4.755 -0.4078  1.9558  0.9315
17392SOL     OW53659   7.221   4.827   1.713 -0.5588  0.2094  0.3276
17392SOL    HW153660   7.236   4.869   1.629 -1.4439 -0.9011 -0.3935
17392SOL    HW253661   7.257   4.739   1.703 -1.3018 -0.1627  0.8809
17393SOL     OW53662   1.774   7.009   2.437 -0.0097 -0.0949 -0.3591
17393SOL    HW153663   1.820   7.092   2.451  0.4859 -0.1639 -1.5292
17393SOL    HW253664   1.840   6.951   2.399 -1.0712 -0.1636 -2.1673
17394SOL     OW53665   4.591   3.063   1.593 -0.3336 -0.2511  0.6897
17394SOL    HW153666   4.639   2.989   1.629  0.0410  0.0977  0.9255
17394SOL    HW253667   4.616   3.065   1.501  0.5038  0.2219  0.9166
17395SOL     OW53668   2.641   8.208   0.039 -0.2320  0.2989  0.0274
17395SOL    HW153669   2.666   8.276   0.101  1.4134 -0.2165 -0.0447
17395SOL    HW253670   2.549   8.191   0.058 -0.6010  2.3748  0.1807
17396SOL     OW53671   5.071   8.126   6.326  0.0028 -0.1035  0.2927
17396SOL    HW153672   5.025   8.042   6.327 -1.9311  0.9285  1.6618
17396SOL    HW253673   5.140   8.116   6.391 -0.9794 -0.2423  1.3328
17397SOL     OW53674   4.967   4.521   8.042 -0.0936 -0.2178 -0.0240
17397SOL    HW153675   5.002   4.570   8.116 -1.8361 -0.4792  1.0174
17397SOL    HW253676   4.910   4.455   8.082 -0.4423 -0.8665 -1.5601
17398SOL     OW53677   0.890   2.360   2.950  0.1462  0.1429  0.1030
17398SOL    HW153678   0.828   2.318   3.010  0.4649 -0.3766  0.0712
17398SOL    HW253679   0.923   2.288   2.896  2.5808  0.0223  1.6785
17399SOL     OW53680   4.343   4.733   5.258  0.1828 -1.2603 -0.0948
17399SOL    HW153681   4.409   4.759   5.194  1.1809 -0.4172  1.2169
17399SOL    HW253682   4.266   4.785   5.236  0.8121 -0.3061 -0.0665
17400SOL     OW53683   6.876   2.510   0.481  0.6970 -0.2409  0.2816
17400SOL    HW153684   6.962   2.478   0.510  1.2591  0.4121 -0.6147
17400SOL    HW253685   6.856   2.582   0.541  1.9753  1.2750 -1.0747
17401SOL     OW53686   1.072   5.669   2.466  0.5134  0.3553  0.2002
17401SOL    HW153687   1.106   5.582   2.446 -0.8450  0.1471 -1.3441
17401SOL    HW253688   0.988   5.652   2.509 -1.5707  0.8496 -3.4415
17402SOL     OW53689   2.502   4.223   1.043 -0.1788  0.1094 -0.1499
17402SOL    HW153690   2.568   4.158   1.016  1.9162  1.4549  1.5747
17402SOL    HW253691   2.513   4.295   0.982  0.8117  0.8544  0.8977
17403SOL     OW53692   0.502   6.862   8.119 -0.2882  0.0000  0.2133
17403SOL    HW153693   0.580   6.911   8.146 -0.8413  0.5610  0.8171
17403SOL    HW253694   0.504   6.783   8.174  1.1097 -1.1556 -1.4123
17404SOL     OW53695   3.789   7.119   0.796  0.4684  0.3781 -0.4673
17404SOL    HW153696   3.710   7.158   0.832  1.0935  0.2843  1.0491
17404SOL    HW253697   3.789   7.029   0.830  0.8874  0.1718 -1.0004
17405SOL     OW53698   6.011   6.002   5.652  0.4651  0.0756  0.1388
17405SOL    HW153699   6.078   6.052   5.606 -0.5716  1.0731 -0.3281
17405SOL    HW253700   6.051   5.977   5.735  1.0007  1.6982  0.3769
17406SOL     OW53701   0.521   6.070   1.698  0.5462  0.1875 -0.0516
17406SOL    HW153702   0.496   6.018   1.775  1.7704 -0.0603  0.1856
17406SOL    HW253703   0.603   6.113   1.723 -0.0621  1.6542 -0.5232
17407SOL     OW53704   2.350   4.385   6.752 -0.0536 -0.1481  0.0973
17407SOL    HW153705   2.348   4.290   6.743  4.1570 -0.4130  0.8442
17407SOL    HW253706   2.366   4.418   6.664  2.1570 -0.4161  0.3623
17408SOL     OW53707   2.027   0.601   7.993  0.6413  0.3352  0.0491
17408SOL    HW153708   1.983   0.627   7.912 -0.3896  1.7374  1.0141
17408SOL    HW253709   1.957   0.600   8.059  1.5534 -0.2615  1.0295
17409SOL     OW53710   5.624   7.368   0.916  0.6996  0.8372  0.1878
17409SOL    HW153711   5.705   7.417   0.929  0.4291  1.2920  0.1905
17409SOL    HW253712   5.560   7.434   0.889  0.4565  0.4017 -0.3190
17410SOL     OW53713   2.854   1.149   1.926 -0.5193 -0.0780 -0.2510
17410SOL    HW153714   2.765   1.177   1.947 -0.5114  0.7787 -1.2714
17410SOL    HW253715   2.852   1.136   1.831  0.0359 -1.5855 -0.0730
17411SOL     OW53716   1.735   3.311   4.266 -0.0964  0.1311 -0.0702
17411SOL    HW153717   1.785   3.392   4.273 -0.5853  0.4034  0.2665
17411SOL    HW253718   1.792   3.244   4.304 -0.3702  0.5931  1.1445
17412SOL     OW53719   7.846   8.126   3.361  0.5070 -0.4080  0.0287
17412SOL    HW153720   7.775   8.159   3.416  0.5507 -0.5652  0.1814
17412SOL    HW253721   7.803   8.092   3.283  0.4116 -0.5345  0.1365
17413SOL     OW53722   4.379   2.971   8.229 -0.1378  0.0498  0.5911
17413SOL    HW153723   4.408   2.912   8.159 -1.1997 -1.8590  1.7096
17413SOL    HW253724   4.428   2.941   8.306 -0.4462  0.8602  1.1043
17414SOL     OW53725   7.043   7.679   1.735 -0.0797  0.2595 -0.6061
17414SOL    HW153726   7.066   7.762   1.693  0.5630  0.8673  0.9230
17414SOL    HW253727   7.050   7.614   1.665  1.7615  1.1327 -1.2544
17415SOL     OW53728   4.949   0.857   5.422 -0.2577  0.4837  0.3345
17415SOL    HW153729   4.883   0.788   5.428  0.8567 -0.5291  1.2079
17415SOL    HW253730   4.974   0.875   5.512 -0.0636  1.5875  0.0704
17416SOL     OW53731   1.297   8.152   0.890 -0.7682 -0.2949 -0.0623
17416SOL    HW153732   1.327   8.160   0.980  0.3920  2.6076 -0.6698
17416SOL    HW253733   1.204   8.173   0.893 -0.7327 -0.2182  0.4678
17417SOL     OW53734   1.487   5.153   0.898 -0.4944 -0.4404 -0.3569
17417SOL    HW153735   1.546   5.218   0.860 -1.5027  0.2536 -0.7674
17417SOL    HW253736   1.400   5.181   0.870 -1.1981 -0.4015  1.7603
17418SOL     OW53737   3.603   5.795   3.555  0.2749  0.3361 -0.1245
17418SOL    HW153738   3.634   5.750   3.633  2.4853  0.3724 -0.9393
17418SOL    HW253739   3.663   5.869   3.544 -2.1285  2.3943  0.1091
17419SOL     OW53740   0.877   0.246   7.190  0.6452  0.1258 -0.3330
17419SOL    HW153741   0.815   0.232   7.261 -0.0810 -1.6220 -1.2825
17419SOL    HW253742   0.893   0.158   7.154  2.7382  0.6993 -0.8677
17420SOL     OW53743   6.629   1.301   2.043  0.2504  0.2269  0.4686
17420SOL    HW153744   6.718   1.327   2.020  0.6150 -0.4747  1.0556
17420SOL    HW253745   6.624   1.209   2.017 -0.7804  0.6427 -0.9089
17421SOL     OW53746   5.657   4.100   3.191 -0.1929 -0.7295 -0.2047
17421SOL    HW153747   5.658   4.134   3.101 -1.0355 -1.7384 -0.6062
17421SOL    HW253748   5.598   4.025   3.188 -1.1955 -0.0602  1.4537
17422SOL     OW53749   7.346   4.031   0.795 -0.3043 -0.5073 -0.3316
17422SOL    HW153750   7.392   4.006   0.875 -2.7688 -1.6157  0.7649
17422SOL    HW253751   7.266   4.073   0.826 -0.8769 -0.1929 -2.2215
17423SOL     OW53752   6.406   4.603   5.240 -0.0889  0.6094 -0.4366
17423SOL    HW153753   6.468   4.549   5.289  0.4426  0.6593 -1.0402
17423SOL    HW253754   6.413   4.571   5.150 -0.2872  1.2127 -0.6682
17424SOL     OW53755   6.549   4.584   4.922  0.0206 -0.4171 -0.1995
17424SOL    HW153756   6.554   4.624   5.009 -0.2699 -0.5154 -0.1377
17424SOL    HW253757   6.490   4.510   4.933 -0.6691  0.0548 -0.6656
17425SOL     OW53758   7.119   5.267   5.133  0.0173  0.2153  0.1071
17425SOL    HW153759   7.114   5.359   5.107  0.5141  0.0393 -0.6247
17425SOL    HW253760   7.076   5.219   5.062 -0.5466 -0.0895  0.6514
17426SOL     OW53761   4.378   2.968   7.829  0.2549  0.2517 -0.2622
17426SOL    HW153762   4.345   3.010   7.750 -1.5934  0.5522  0.6510
17426SOL    HW253763   4.300   2.948   7.881  1.2207 -2.6001  0.1854
17427SOL     OW53764   0.600   0.130   1.765 -0.0819  0.2237  0.1411
17427SOL    HW153765   0.615   0.113   1.859 -0.6018 -0.0790  0.1735
17427SOL    HW253766   0.521   0.183   1.763 -0.8612 -0.9366 -0.1998
17428SOL     OW53767   0.955   3.343   5.603  0.2670 -0.1699 -0.7233
17428SOL    HW153768   0.918   3.303   5.525 -1.0451  0.0470 -0.2357
17428SOL    HW253769   0.957   3.437   5.584 -2.0829  0.1297  0.2728
17429SOL     OW53770   4.469   1.429   0.440 -0.7223 -0.4615  0.4227
17429SOL    HW153771   4.386   1.471   0.415 -0.0639  0.4376 -0.3173
17429SOL    HW253772   4.467   1.427   0.536 -1.7629 -0.7927  0.4044
17430SOL     OW53773   7.901   7.768   4.003 -0.0541  0.4065 -0.0542
17430SOL    HW153774   7.894   7.674   3.985  0.5587 -0.0815  2.1052
17430SOL    HW253775   7.979   7.795   3.955  0.6731 -0.5350  0.5668
17431SOL     OW53776   5.032   8.268   2.382 -0.3638 -0.2075  0.1692
17431SOL    HW153777   5.097   8.337   2.369  1.7224 -1.9740  0.9000
17431SOL    HW253778   5.073   8.208   2.444 -2.9791 -1.0403  1.1532
17432SOL     OW53779   4.986   3.353   3.525  0.0118 -0.8704  0.1964
17432SOL    HW153780   5.070   3.308   3.534  1.7470  2.0354 -1.0346
17432SOL    HW253781   4.943   3.311   3.451  0.7634 -1.7854  0.2797
17433SOL     OW53782   1.857   1.955   2.207 -0.5083  0.0748  0.6294
17433SOL    HW153783   1.873   2.025   2.271 -0.5530 -0.1926  0.9332
17433SOL    HW253784   1.854   2.000   2.123 -3.5155  0.8626  1.0957
17434SOL     OW53785   2.839   5.750   0.161  0.6152  0.0927  0.6618
17434SOL    HW153786   2.835   5.770   0.255  0.1211  0.8451  0.4873
17434SOL    HW253787   2.843   5.836   0.119 -1.7000 -0.1290 -0.1123
17435SOL     OW53788   7.719   6.274   7.635 -0.1397  0.0255  0.3498
17435SOL    HW153789   7.713   6.206   7.568  0.6361  0.0055  0.2951
17435SOL    HW253790   7.744   6.226   7.714 -1.0203  0.0521  0.6461
17436SOL     OW53791   0.113   4.424   4.125 -0.6733  0.2100  0.7269
17436SOL    HW153792   0.054   4.499   4.121 -0.4112  0.4099  0.5919
17436SOL    HW253793   0.114   4.388   4.036  0.6018  1.1351  0.3492
17437SOL     OW53794   4.623   0.857   5.730 -0.0028 -0.3765  0.8459
17437SOL    HW153795   4.687   0.871   5.800  2.0566 -1.4315 -0.7758
17437SOL    HW253796   4.626   0.937   5.678  0.3160 -0.5704  0.5564
17438SOL     OW53797   8.262   0.784   4.438  0.1425  0.1565 -0.1068
17438SOL    HW153798   8.340   0.755   4.486 -1.4144  0.3623  2.6926
17438SOL    HW253799   8.206   0.824   4.506 -0.9995  2.9613 -2.5804
17439SOL     OW53800   0.962   5.890   3.994  0.3057  0.1293 -0.1532
17439SOL    HW153801   0.982   5.955   3.927  1.0161  0.1824  0.1099
17439SOL    HW253802   1.016   5.916   4.069  1.0975 -1.1475 -0.2696
17440SOL     OW53803   2.831   2.966   0.787 -0.2385 -0.7411 -0.5471
17440SOL    HW153804   2.744   2.926   0.779  0.2255 -1.6742 -0.9330
17440SOL    HW253805   2.866   2.963   0.698 -0.7383  1.7578 -0.8667
17441SOL     OW53806   7.548   3.572   6.716  0.4679  0.1075  0.0606
17441SOL    HW153807   7.509   3.630   6.650  0.2723  0.1256  0.1901
17441SOL    HW253808   7.589   3.502   6.666  0.2376  0.0704 -0.0778
17442SOL     OW53809   4.682   0.370   5.302  0.3795 -0.0692 -0.1856
17442SOL    HW153810   4.618   0.326   5.246  0.6407  1.2554 -1.5577
17442SOL    HW253811   4.638   0.381   5.386 -0.4387 -1.0189 -0.4804
17443SOL     OW53812   1.311   5.706   4.380 -0.1309  0.1432  0.0000
17443SOL    HW153813   1.224   5.740   4.362  0.3128  0.8755 -0.8174
17443SOL    HW253814   1.353   5.774   4.433 -0.5305 -0.8372  1.6074
17444SOL     OW53815   4.777   0.059   2.249  0.2653  0.1212  0.1039
17444SOL    HW153816   4.849   0.017   2.297  0.2826  0.1531  0.1063
17444SOL    HW253817   4.720  -0.013   2.223  1.4076 -0.1424 -1.7775
17445SOL     OW53818   3.642   3.178   4.359  0.1444  0.5989 -0.2885
17445SOL    HW153819   3.717   3.236   4.347 -1.3449  2.5407 -0.4765
17445SOL    HW253820   3.641   3.160   4.453  1.2612 -0.0555 -0.3856
17446SOL     OW53821   3.408   6.968   5.952  0.4841  0.2635  0.3086
17446SOL    HW153822   3.368   6.951   5.867 -0.4075  1.8186  0.3995
17446SOL    HW253823   3.471   7.039   5.936  2.2947 -1.2673  0.4267
17447SOL     OW53824   0.886   8.154   7.010 -0.1315  0.5113 -0.3472
17447SOL    HW153825   0.890   8.193   7.097  1.2719  1.0608 -0.6459
17447SOL    HW253826   0.835   8.217   6.958 -0.4091  0.4994 -0.0879
17448SOL     OW53827   5.560   2.223   5.681  0.2538  0.3628 -0.2527
17448SOL    HW153828   5.612   2.228   5.761 -0.3401  0.7306  0.1183
17448SOL    HW253829   5.480   2.178   5.707  0.0140  0.5745 -0.6170
17449SOL     OW53830   1.793   1.774   6.982 -0.0001 -0.4223  0.2213
17449SOL    HW153831   1.812   1.701   7.040  0.1188 -0.8469 -0.3492
17449SOL    HW253832   1.877   1.793   6.938  0.2506  0.7830  1.1793
17450SOL     OW53833   6.532   4.064   3.586  0.1996  0.5669  0.6322
17450SOL    HW153834   6.487   4.105   3.513 -1.1903 -0.3569  0.9667
17450SOL    HW253835   6.482   4.091   3.663  1.1202  0.7848  1.1678
17451SOL     OW53836   1.086   0.494   1.368 -0.1131  0.1595 -0.1296
17451SOL    HW153837   1.037   0.436   1.311 -0.9319  0.7959 -0.0832
17451SOL    HW253838   1.147   0.437   1.415 -1.2525 -0.7246  0.2767
17452SOL     OW53839   5.247   2.999   2.759 -0.1323 -0.2891  0.0800
17452SOL    HW153840   5.265   2.920   2.709  0.0821 -1.4499  1.9614
17452SOL    HW253841   5.327   3.050   2.753  0.5504 -1.2660  0.7648
17453SOL     OW53842   0.555   7.553   4.047 -0.0437 -0.1517 -0.6860
17453SOL    HW153843   0.520   7.540   4.136 -0.5891 -0.6876 -0.9770
17453SOL    HW253844   0.569   7.465   4.014 -0.1523  0.0519 -1.2668
17454SOL     OW53845   1.402   3.172   5.480 -0.4094  0.1116  0.1123
17454SOL    HW153846   1.482   3.217   5.452 -0.9640  1.2629  0.3499
17454SOL    HW253847   1.358   3.234   5.538 -0.4509 -1.3211  1.6750
17455SOL     OW53848   1.511   1.770   4.310 -0.0788 -0.2033  0.7072
17455SOL    HW153849   1.437   1.742   4.365 -1.7278  2.6396  0.0125
17455SOL    HW253850   1.486   1.857   4.280  3.2105  0.4328 -0.2651
17456SOL     OW53851   5.585   4.844   4.909  0.5401  0.5562 -0.1581
17456SOL    HW153852   5.666   4.892   4.890 -0.9542  2.5073 -1.7677
17456SOL    HW253853   5.547   4.826   4.823 -1.9870  1.8914  0.6426
17457SOL     OW53854   1.731   8.207   0.010 -0.0462  0.1371  0.4985
17457SOL    HW153855   1.763   8.275  -0.051  2.2957 -1.5035 -0.1430
17457SOL    HW253856   1.797   8.202   0.078 -1.0346 -0.3743  1.4402
17458SOL     OW53857   1.871   0.089   1.827  0.0743 -0.4461  0.6219
17458SOL    HW153858   1.820   0.167   1.848  0.7520  0.0729  0.3451
17458SOL    HW253859   1.957   0.122   1.801  0.0392 -1.2257 -0.5385
17459SOL     OW53860   3.166   3.503   0.441 -0.5502 -0.3361 -0.2568
17459SOL    HW153861   3.097   3.457   0.489 -0.9978  0.4549 -0.1270
17459SOL    HW253862   3.118   3.569   0.389 -0.0706 -1.1069 -1.6983
17460SOL     OW53863   3.335   2.987   1.932 -1.1339  0.0517  0.0002
17460SOL    HW153864   3.280   2.934   1.873 -0.4333 -0.3937 -0.2664
17460SOL    HW253865   3.376   2.923   1.989 -2.0892  0.5160  1.2314
17461SOL     OW53866   3.166   7.915   7.001  0.0939 -0.4354 -0.2412
17461SOL    HW153867   3.197   7.902   6.911 -2.5375 -2.2440 -0.9391
17461SOL    HW253868   3.077   7.948   6.990  0.5348  1.4756  1.7203
17462SOL     OW53869   1.959   2.555   0.266  0.0807  0.8916 -0.1750
17462SOL    HW153870   1.974   2.474   0.314  1.1118  0.2115 -1.5869
17462SOL    HW253871   2.046   2.595   0.258  0.0295  0.7162 -1.9021
17463SOL     OW53872   2.832   2.207   0.205  0.2831  0.0419 -0.4254
17463SOL    HW153873   2.860   2.194   0.296 -0.3174  1.1453 -0.0705
17463SOL    HW253874   2.809   2.300   0.201 -2.4625 -0.6230 -0.9345
17464SOL     OW53875   6.744   0.398   5.380  0.4857 -0.2478 -0.0610
17464SOL    HW153876   6.825   0.427   5.421 -0.9285  0.1774  2.5303
17464SOL    HW253877   6.695   0.479   5.364  0.6263 -0.4769 -1.8344
17465SOL     OW53878   7.983   5.159   7.734  0.4744  0.3406 -0.7562
17465SOL    HW153879   7.978   5.108   7.653 -1.5180  1.3551 -1.2953
17465SOL    HW253880   8.074   5.191   7.736  0.3120  1.0420 -3.0724
17466SOL     OW53881   8.300   7.462   6.165 -0.2667  0.6489  0.1814
17466SOL    HW153882   8.326   7.496   6.079  1.1741 -0.1158  0.2948
17466SOL    HW253883   8.239   7.391   6.145  0.9475 -0.2818 -0.2713
17467SOL     OW53884   7.677   0.824   0.432  0.0223 -0.3837  0.1052
17467SOL    HW153885   7.695   0.917   0.422  1.8267 -0.5752  1.4604
17467SOL    HW253886   7.727   0.782   0.362 -0.4624 -0.3801 -0.2480
17468SOL     OW53887   0.194   6.953   3.963  0.1037 -0.2227  0.2099
17468SOL    HW153888   0.218   6.978   3.873  1.6426 -1.3656  0.2838
17468SOL    HW253889   0.234   7.021   4.018  0.3287 -0.2761  0.1137
17469SOL     OW53890   4.746   1.404   2.372 -0.4038 -0.1275  0.2263
17469SOL    HW153891   4.779   1.395   2.283  1.1459 -1.8849  0.9405
17469SOL    HW253892   4.800   1.471   2.412 -0.3598 -0.1331  0.1759
17470SOL     OW53893   3.276   8.181   7.673  0.3879 -0.4195 -0.4067
17470SOL    HW153894   3.250   8.090   7.658 -0.0449 -0.4124  0.3065
17470SOL    HW253895   3.337   8.200   7.601  0.3458 -1.2137 -0.6602
17471SOL     OW53896   3.493   5.922   7.702 -0.0680  0.0178  0.3979
17471SOL    HW153897   3.406   5.929   7.663 -0.1993  0.6186  0.8014
17471SOL    HW253898   3.477   5.917   7.796  0.2510 -1.4328  0.3941
17472SOL     OW53899   1.382   0.356   5.332 -0.5873 -0.3197  0.0580
17472SOL    HW153900   1.357   0.425   5.270 -1.4831  0.4371  1.2582
17472SOL    HW253901   1.413   0.403   5.409  1.6451 -1.2653 -0.2271
17473SOL     OW53902   6.994   5.240   4.559  0.0580  0.4180 -0.8354
17473SOL    HW153903   7.010   5.240   4.464  0.3162 -1.6393 -0.8140
17473SOL    HW253904   7.003   5.149   4.585 -1.6189  0.7221  0.9241
17474SOL     OW53905   2.481   6.902   2.923 -1.0988  0.5395  0.0309
17474SOL    HW153906   2.515   6.974   2.871  1.1371 -1.6548 -1.6486
17474SOL    HW253907   2.541   6.895   2.997 -0.3387 -0.6019 -0.6741
17475SOL     OW53908   1.265   2.878   1.007  0.5467 -0.2677  0.1459
17475SOL    HW153909   1.302   2.838   1.086 -0.4201 -0.2076  0.6410
17475SOL    HW253910   1.195   2.934   1.040 -0.2896 -0.7446 -0.8131
17476SOL     OW53911   1.569   0.587   7.971 -1.0654  0.4432  0.8579
17476SOL    HW153912   1.608   0.598   7.884  0.2670  1.4140  1.5534
17476SOL    HW253913   1.474   0.588   7.955 -0.8931  2.9094 -0.3499
17477SOL     OW53914   7.723   1.452   1.451 -0.1537 -0.0687 -0.3569
17477SOL    HW153915   7.697   1.425   1.363  2.0852  0.8291 -1.3297
17477SOL    HW253916   7.817   1.436   1.455 -0.2613 -0.4015  2.0146
17478SOL     OW53917   6.623   6.689   2.708  0.2212  0.6723  0.1328
17478SOL    HW153918   6.581   6.610   2.740  0.4490 -0.2038 -1.6829
17478SOL    HW253919   6.687   6.658   2.644 -0.2866  2.3730 -1.2292
17479SOL     OW53920   3.832   0.213   3.424 -0.4225  0.2967 -0.1271
17479SOL    HW153921   3.784   0.132   3.404  0.9179 -0.6710  0.5219
17479SOL    HW253922   3.764   0.276   3.446 -1.6256 -0.0115 -2.8658
17480SOL     OW53923   7.741   7.814   2.751  0.3010  0.0233  0.4093
17480SOL    HW153924   7.721   7.824   2.658 -0.7480  0.8569  0.7197
17480SOL    HW253925   7.828   7.773   2.752 -0.1339 -0.9985 -0.9378
17481SOL     OW53926   5.455   7.781   6.947 -0.0551  0.0312 -0.1319
17481SOL    HW153927   5.484   7.849   6.886  2.9376  0.7958  2.0135
17481SOL    HW253928   5.460   7.700   6.897 -0.1337  0.9325 -1.6291
17482SOL     OW53929   7.302   5.646   5.747 -0.0985  0.4249 -0.1564
17482SOL    HW153930   7.309   5.741   5.735  0.7278  0.3554 -0.2429
17482SOL    HW253931   7.324   5.609   5.662  1.4711  0.0908  0.3836
17483SOL     OW53932   1.631   0.289   7.764 -0.2816  0.0720 -0.1788
17483SOL    HW153933   1.688   0.294   7.840  0.8177 -1.3837 -0.8619
17483SOL    HW253934   1.668   0.218   7.711 -2.0754 -0.1551 -1.1898
17484SOL     OW53935   4.730   4.128   0.549 -0.2691  0.6138  0.1147
17484SOL    HW153936   4.800   4.154   0.609  2.1926 -1.5312 -1.7609
17484SOL    HW253937   4.775   4.099   0.470 -3.3108 -0.5019 -1.2663
17485SOL     OW53938   3.417   3.904   0.069 -0.9802 -0.0525 -0.6301
17485SOL    HW153939   3.470   3.836   0.111  0.4131  0.7715 -0.9987
17485SOL    HW253940   3.337   3.909   0.121 -0.0378 -0.2787  0.8568
17486SOL     OW53941   7.473   4.225   8.137 -0.4600  0.2990 -0.2999
17486SOL    HW153942   7.483   4.197   8.046 -0.0072 -0.1210 -0.1214
17486SOL    HW253943   7.397   4.176   8.169  0.8429 -1.3537  0.2617
17487SOL     OW53944   2.046   7.537   2.650  0.8139 -0.1147  0.2002
17487SOL    HW153945   1.978   7.473   2.633  1.2014 -0.2266 -0.9880
17487SOL    HW253946   2.019   7.581   2.730  0.1518 -1.2300  0.5904
17488SOL     OW53947   5.483   4.533   7.000 -0.6933  0.3535 -0.2489
17488SOL    HW153948   5.568   4.576   6.984  0.1432 -0.0575  2.7079
17488SOL    HW253949   5.447   4.517   6.913  1.3608  2.3561 -1.5156
17489SOL     OW53950   5.464   7.138   5.479  0.5331 -0.1453 -0.1502
17489SOL    HW153951   5.467   7.233   5.483  1.2969 -0.2265  1.6899
17489SOL    HW253952   5.441   7.111   5.568 -1.9851 -1.6089 -1.1889
17490SOL     OW53953   5.830   4.955   5.189  0.2508  0.0974 -0.3201
17490SOL    HW153954   5.838   5.048   5.167 -0.0127  0.2499  0.2178
17490SOL    HW253955   5.856   4.909   5.109 -0.2125  0.6400 -0.7900
17491SOL     OW53956   5.550   6.305   4.353  0.0220 -0.0851  0.0942
17491SOL    HW153957   5.455   6.292   4.355 -0.0392  0.0025 -1.7125
17491SOL    HW253958   5.572   6.334   4.441 -1.4558 -1.3316  0.9009
17492SOL     OW53959   8.134   6.259   3.107  0.3028 -0.7374  0.2128
17492SOL    HW153960   8.132   6.343   3.153 -0.0315 -2.1284  2.7824
17492SOL    HW253961   8.053   6.258   3.056  1.1293  1.2286 -1.2115
17493SOL     OW53962   6.407   1.179   4.646  0.3503 -0.1390  0.0030
17493SOL    HW153963   6.435   1.216   4.562  0.8183  1.3869  0.7971
17493SOL    HW253964   6.319   1.215   4.660 -0.0043 -0.9425 -0.1556
17494SOL     OW53965   6.083   0.259   7.072  0.0572  0.1597  0.5743
17494SOL    HW153966   5.987   0.260   7.069  0.0525 -0.7287  0.2508
17494SOL    HW253967   6.109   0.225   6.986  0.6626  0.4077  0.6569
17495SOL     OW53968   6.672   0.191   5.738 -0.4741 -0.1417  0.7541
17495SOL    HW153969   6.759   0.153   5.725  0.1273  0.4927  2.7058
17495SOL    HW253970   6.688   0.286   5.742 -1.3836  0.0422  0.1831
17496SOL     OW53971   2.357   7.869   5.388  0.1013  0.2421 -0.0644
17496SOL    HW153972   2.310   7.789   5.366  2.0513 -0.7289 -0.7387
17496SOL    HW253973   2.416   7.884   5.314  2.4497  0.2142  1.7400
17497SOL     OW53974   3.419   7.424   4.571  0.7973  0.0724 -0.0469
17497SOL    HW153975   3.415   7.517   4.591  1.5714  0.0558  0.1929
17497SOL    HW253976   3.396   7.418   4.478  1.6606  0.5879 -0.2915
17498SOL     OW53977   7.653   7.029   7.273  0.2085 -0.2164  0.3065
17498SOL    HW153978   7.563   7.063   7.277  0.3780  0.5148 -1.6187
17498SOL    HW253979   7.664   6.982   7.355 -1.8960 -0.1897  0.6380
17499SOL     OW53980   2.820   3.872   7.801 -0.0601 -0.4997  0.2356
17499SOL    HW153981   2.791   3.911   7.719  2.7284  0.4292 -0.3593
17499SOL    HW253982   2.811   3.778   7.787 -2.0155 -0.2829 -0.1667
17500SOL     OW53983   2.029   1.378   8.290 -0.4140 -0.2988 -0.0982
17500SOL    HW153984   1.980   1.365   8.208 -0.6221  1.8808 -0.3388
17500SOL    HW253985   2.117   1.404   8.261  0.4158 -2.4405  0.3664
17501SOL     OW53986   5.925   7.106   4.837  0.0318 -0.0417 -0.0057
17501SOL    HW153987   5.976   7.050   4.778  0.8483 -0.1501  0.7833
17501SOL    HW253988   5.840   7.115   4.794  0.0101 -1.5798 -0.3357
17502SOL     OW53989   7.766   4.152   5.475 -0.1656 -0.0625 -0.1979
17502SOL    HW153990   7.733   4.238   5.500  1.6490  0.1053  1.7439
17502SOL    HW253991   7.818   4.123   5.550 -0.4562 -2.7062 -0.9746
17503SOL     OW53992   3.422   2.401   4.282 -0.1621  0.4189 -0.0966
17503SOL    HW153993   3.435   2.381   4.374 -0.7015 -1.0808 -0.3271
17503SOL    HW253994   3.435   2.317   4.237  0.5226  1.2156 -1.4311
17504SOL     OW53995   5.493   6.883   2.454  0.1825 -0.0938  0.1653
17504SOL    HW153996   5.405   6.920   2.439  0.7241  1.2055  0.1080
17504SOL    HW253997   5.541   6.905   2.375  1.3079  1.4792  1.2598
17505SOL     OW53998   2.384   8.084   8.075  0.1873  0.1298 -0.3631
17505SOL    HW153999   2.353   8.045   7.994 -2.2999 -0.9393  1.0458
17505SOL    HW254000   2.307   8.126   8.113  1.8962  2.9574  0.1768
17506SOL     OW54001   3.148   6.979   6.351 -0.1033  0.9280 -0.3779
17506SOL    HW154002   3.157   6.939   6.265 -1.2044  1.2974 -0.6669
17506SOL    HW254003   3.055   6.999   6.359 -0.0542  0.6826  0.9889
17507SOL     OW54004   7.370   7.959   8.237 -0.3688  0.0789  0.1382
17507SOL    HW154005   7.314   8.017   8.185  0.8010 -0.4198 -1.7060
17507SOL    HW254006   7.456   7.964   8.196 -0.5114 -3.9115 -0.8688
17508SOL     OW54007   8.001   7.383   5.882  0.3878  0.3379 -0.3605
17508SOL    HW154008   8.076   7.367   5.826 -0.0744 -1.0392 -0.6025
17508SOL    HW254009   7.989   7.478   5.881  2.0983  0.5631 -0.3332
17509SOL     OW54010   1.978   2.984   7.174 -0.0054  0.7105 -0.1102
17509SOL    HW154011   2.014   3.045   7.239  0.8116 -0.5024  0.5863
17509SOL    HW254012   1.918   2.929   7.223 -0.8460  1.0225 -0.7697
17510SOL     OW54013   2.740   6.102   3.312 -0.7446  0.4222  0.0082
17510SOL    HW154014   2.797   6.109   3.235 -1.0703 -0.0552 -0.2795
17510SOL    HW254015   2.690   6.022   3.297  0.1528 -0.4097  1.3578
17511SOL     OW54016   1.560   1.307   3.140 -0.4195  0.1719  1.1257
17511SOL    HW154017   1.652   1.309   3.165  0.0195 -0.1423 -0.4117
17511SOL    HW254018   1.530   1.397   3.153  0.9608  1.0396 -1.4270
17512SOL     OW54019   2.793   5.285   3.416 -0.4406 -0.2372 -0.0334
17512SOL    HW154020   2.771   5.198   3.383  0.3620 -0.8891  1.1109
17512SOL    HW254021   2.756   5.288   3.504  1.3991 -0.2532  0.7758
17513SOL     OW54022   0.281   5.139   6.631  0.5862  0.4967 -0.0291
17513SOL    HW154023   0.315   5.193   6.560  0.3661  0.0842 -0.4547
17513SOL    HW254024   0.302   5.049   6.604 -2.1372  0.1194 -1.0301
17514SOL     OW54025   7.934   2.995   3.360  0.1589  0.1778  0.4019
17514SOL    HW154026   7.976   3.054   3.299  0.0092 -1.8544 -1.7329
17514SOL    HW254027   7.843   3.026   3.366  0.1148  0.2382 -0.6050
17515SOL     OW54028   4.403   3.461   7.893 -0.0800  0.5274  0.3449
17515SOL    HW154029   4.443   3.390   7.843  0.0770  0.4862  0.5240
17515SOL    HW254030   4.341   3.418   7.951 -0.4757  0.6049 -0.0240
17516SOL     OW54031   6.342   1.880   1.801 -0.0649 -0.0037 -0.6199
17516SOL    HW154032   6.366   1.789   1.817 -0.6013 -0.2128 -0.9700
17516SOL    HW254033   6.390   1.904   1.721  0.3583  0.1342 -0.3232
17517SOL     OW54034   5.285   3.826   5.079 -0.5209 -0.4193 -0.1968
17517SOL    HW154035   5.258   3.742   5.116 -0.0961 -0.9772 -1.1404
17517SOL    HW254036   5.343   3.803   5.007 -0.4547  0.6900 -0.5059
17518SOL     OW54037   0.013   1.579   2.852 -0.1847 -0.1325 -0.2502
17518SOL    HW154038   0.005   1.655   2.910 -1.1806 -0.1604 -0.3450
17518SOL    HW254039  -0.070   1.576   2.805  0.2272 -0.7143 -0.9458
17519SOL     OW54040   8.281   7.322   3.091  0.3265  0.4855  0.2370
17519SOL    HW154041   8.309   7.359   3.007 -2.9204 -1.5225 -1.8481
17519SOL    HW254042   8.215   7.382   3.123  0.8864  0.7490  0.9052
17520SOL     OW54043   2.728   4.486   7.379  0.1973 -0.3748 -0.1596
17520SOL    HW154044   2.802   4.426   7.365  0.4747 -0.3213  0.9666
17520SOL    HW254045   2.651   4.429   7.377  0.4915 -0.8659  1.3314
17521SOL     OW54046   4.672   4.172   6.335  0.0861  0.0773  0.2181
17521SOL    HW154047   4.643   4.198   6.248 -0.9042 -1.3456  0.0914
17521SOL    HW254048   4.610   4.213   6.395  0.2381  0.3266  0.2068
17522SOL     OW54049   5.853   1.829   7.294 -0.4166 -0.2372  0.1571
17522SOL    HW154050   5.897   1.890   7.235  0.6844  0.2847  1.4909
17522SOL    HW254051   5.863   1.744   7.251  2.7742 -0.2837  0.8689
17523SOL     OW54052   8.127   0.061   7.474 -0.2863 -0.0380 -0.2182
17523SOL    HW154053   8.078   0.105   7.405  0.4531  0.6532 -0.3168
17523SOL    HW254054   8.067  -0.004   7.510 -0.8462 -0.0366 -1.1556
17524SOL     OW54055   4.564   4.748   3.240  0.0161 -0.1107  0.0573
17524SOL    HW154056   4.500   4.716   3.304 -0.8681  1.3783 -0.0727
17524SOL    HW254057   4.548   4.842   3.234  1.7900  0.1775 -0.4691
17525SOL     OW54058   2.148   3.924   4.050  0.5361 -0.0906  0.7389
17525SOL    HW154059   2.188   3.870   3.982  0.6997  0.6413  0.2404
17525SOL    HW254060   2.221   3.950   4.107  0.1575 -2.0005  2.1130
17526SOL     OW54061   2.114   7.088   5.605  0.8726  0.2014 -0.4785
17526SOL    HW154062   2.146   7.004   5.572  0.8342 -0.3555  0.8572
17526SOL    HW254063   2.191   7.129   5.645  0.6308  0.2647 -0.0702
17527SOL     OW54064   5.564   1.442   6.270  0.6130 -0.1440  0.7501
17527SOL    HW154065   5.594   1.439   6.179  0.4790 -1.2186  0.7361
17527SOL    HW254066   5.587   1.356   6.306  0.3728  0.1577  1.6352
17528SOL     OW54067   5.750   7.379   3.800 -0.2271  0.3313  0.3276
17528SOL    HW154068   5.824   7.371   3.862 -0.6886  0.1526  0.8598
17528SOL    HW254069   5.791   7.378   3.714  0.3298 -0.7425  0.5876
17529SOL     OW54070   7.412   2.310   7.432 -0.5056  0.1083  0.1408
17529SOL    HW154071   7.392   2.360   7.353 -0.3470  0.4340  0.3080
17529SOL    HW254072   7.480   2.248   7.404  0.3539  0.9687  0.2902
17530SOL     OW54073   4.753   2.146   2.903 -0.7615  0.0448  0.6527
17530SOL    HW154074   4.756   2.120   2.995 -0.1735 -0.4338  0.5054
17530SOL    HW254075   4.818   2.089   2.860 -1.1037  0.1920 -0.0718
17531SOL     OW54076   6.137   5.545   3.748  0.6051 -0.2258  0.3690
17531SOL    HW154077   6.223   5.504   3.744  0.6318 -0.0901 -0.5542
17531SOL    HW254078   6.149   5.631   3.707 -0.5632 -1.2718 -2.3304
17532SOL     OW54079   2.849   7.331   3.468  0.0456 -0.7897 -0.1976
17532SOL    HW154080   2.898   7.357   3.547  1.1062 -1.1403 -0.7359
17532SOL    HW254081   2.880   7.242   3.449  0.3076 -0.4508 -1.4054
17533SOL     OW54082   5.727   4.691   2.683 -0.0027  0.2659  0.2335
17533SOL    HW154083   5.804   4.713   2.631  2.8972 -1.4643  3.6436
17533SOL    HW254084   5.694   4.776   2.713  1.0733  0.9600 -0.4954
17534SOL     OW54085   2.009   0.154   2.751  0.4982  0.1518 -0.1078
17534SOL    HW154086   2.078   0.217   2.731  1.0385 -1.1872 -2.6301
17534SOL    HW254087   2.017   0.087   2.684 -1.8947 -1.1500  0.8388
17535SOL     OW54088   7.300   6.629   3.194  0.3689  1.0298 -0.2392
17535SOL    HW154089   7.260   6.713   3.170  0.3847  0.8671 -0.8339
17535SOL    HW254090   7.322   6.639   3.287 -2.1534  0.6871  0.4194
17536SOL     OW54091   1.255   2.059   0.128 -0.7613  0.1595 -0.0581
17536SOL    HW154092   1.254   2.148   0.092  1.6088  0.8440  1.4739
17536SOL    HW254093   1.200   2.009   0.068 -0.5449  2.2290 -2.0736
17537SOL     OW54094   5.543   7.852   0.523  0.0763  0.0605 -0.0819
17537SOL    HW154095   5.624   7.801   0.526  0.6754  0.9929 -0.1818
17537SOL    HW254096   5.540   7.887   0.434  0.0703  0.8347  0.2222
17538SOL     OW54097   3.317   0.367   1.507  0.3556 -0.0164 -0.1534
17538SOL    HW154098   3.303   0.460   1.521 -2.4947 -0.6133  1.5652
17538SOL    HW254099   3.410   0.353   1.524  1.1698  2.7395 -2.0532
17539SOL     OW54100   2.712   2.296   0.432 -0.0420 -0.1900 -0.0727
17539SOL    HW154101   2.643   2.254   0.380 -2.2755  2.5585  0.5018
17539SOL    HW254102   2.705   2.254   0.518  0.3481 -1.3228 -0.5896
17540SOL     OW54103   7.547   4.012   5.158 -0.5253  0.5262 -0.1235
17540SOL    HW154104   7.481   3.944   5.151 -0.1818  0.0388  1.1540
17540SOL    HW254105   7.497   4.092   5.173 -0.8433  0.1234  1.0631
17541SOL     OW54106   4.328   5.484   5.914 -0.4217  0.1119 -0.0570
17541SOL    HW154107   4.360   5.395   5.928 -2.4350 -0.6691 -0.2632
17541SOL    HW254108   4.270   5.501   5.988  1.0834  1.8212  0.7705
17542SOL     OW54109   7.494   4.386   7.108 -0.0485  0.5449  0.6784
17542SOL    HW154110   7.441   4.311   7.133 -0.9208  0.9680  0.1236
17542SOL    HW254111   7.471   4.402   7.016  0.4996  1.1810  0.6490
17543SOL     OW54112   6.628   6.642   8.147 -0.5423  0.0922  0.8956
17543SOL    HW154113   6.632   6.646   8.051 -0.1921  2.4841  0.9797
17543SOL    HW254114   6.581   6.561   8.166  0.8304 -1.2582 -1.2599
17544SOL     OW54115   0.153   6.275   5.613  0.0404 -0.3298 -0.1202
17544SOL    HW154116   0.124   6.188   5.639  0.7780 -0.8789 -1.1482
17544SOL    HW254117   0.229   6.293   5.669  0.0004 -0.4089 -0.0402
17545SOL     OW54118   6.168   0.166   1.484 -0.2473  0.1404  0.0289
17545SOL    HW154119   6.106   0.181   1.556 -2.2651 -1.3530 -1.3222
17545SOL    HW254120   6.185   0.253   1.449 -1.7388  0.5842  0.3427
17546SOL     OW54121   3.116   0.160   4.316  0.0558  0.1165 -0.1289
17546SOL    HW154122   3.139   0.080   4.364  1.0602  0.7987  0.5434
17546SOL    HW254123   3.177   0.226   4.349  1.2235  0.4529 -2.8039
17547SOL     OW54124   2.629   1.680   4.348 -0.4541  0.3180  0.0675
17547SOL    HW154125   2.702   1.619   4.357  0.9381  1.5558 -2.2732
17547SOL    HW254126   2.610   1.681   4.254 -2.7087  0.9001  0.5059
17548SOL     OW54127   4.970   1.658   4.288  0.2750  0.1298  0.0524
17548SOL    HW154128   4.983   1.709   4.368  1.3721 -0.2240  0.1034
17548SOL    HW254129   5.030   1.696   4.225 -0.9420  0.7278 -0.7669
17549SOL     OW54130   6.407   6.856   4.697  0.6146 -0.4134 -0.1438
17549SOL    HW154131   6.472   6.925   4.712 -0.1081  0.1792  0.2534
17549SOL    HW254132   6.424   6.792   4.766 -0.1056  0.3993  0.8018
17550SOL     OW54133   7.555   5.136   6.498  0.4119 -0.5353 -0.7944
17550SOL    HW154134   7.472   5.120   6.452 -0.1105 -4.0220  1.2139
17550SOL    HW254135   7.608   5.058   6.481  1.4413 -0.4432  1.7612
17551SOL     OW54136   0.161   6.099   5.892  0.2098 -0.0128 -0.0627
17551SOL    HW154137   0.147   6.060   5.806  0.9185 -0.2627 -0.0678
17551SOL    HW254138   0.214   6.034   5.939 -1.1011 -0.3748  0.9360
17552SOL     OW54139   3.421   3.742   1.371 -0.0743 -0.7238 -0.3883
17552SOL    HW154140   3.498   3.702   1.412  0.7690  0.7756 -0.4504
17552SOL    HW254141   3.431   3.721   1.278  1.0147  0.5966 -0.5990
17553SOL     OW54142   8.257   8.278   4.189 -0.4408  0.0127  0.1087
17553SOL    HW154143   8.346   8.311   4.173 -0.4731 -0.3959 -0.9816
17553SOL    HW254144   8.209   8.353   4.222  0.2917  0.2531  0.6565
17554SOL     OW54145   3.820   6.769   1.817  0.1648 -0.2966  0.2455
17554SOL    HW154146   3.862   6.835   1.871  0.5611 -1.1731  1.0303
17554SOL    HW254147   3.743   6.813   1.780  1.8540  1.3902 -1.3872
17555SOL     OW54148   5.950   2.600   6.044  0.1894 -0.3492  0.0428
17555SOL    HW154149   5.908   2.579   5.961 -0.4020 -0.6172  0.4122
17555SOL    HW254150   6.006   2.524   6.062  0.4077 -0.2399 -0.1635
17556SOL     OW54151   7.418   4.484   8.154  0.4085  0.4668 -0.2642
17556SOL    HW154152   7.437   4.392   8.138  2.3545  0.7580  0.1871
17556SOL    HW254153   7.431   4.526   8.069  0.2799  0.4297 -0.3006
17557SOL     OW54154   5.642   3.641   5.120 -0.2410  0.5027  0.3720
17557SOL    HW154155   5.640   3.685   5.034  1.2880  1.5881  0.8649
17557SOL    HW254156   5.696   3.698   5.174 -1.9774  0.3162  2.3555
17558SOL     OW54157   5.865   5.858   6.241  0.0348  0.6037  0.4528
17558SOL    HW154158   5.835   5.932   6.294 -0.7859  1.4255 -1.0929
17558SOL    HW254159   5.798   5.790   6.255  1.1277 -0.1146  2.3770
17559SOL     OW54160   0.417   7.031   7.159  0.5951  0.0549 -0.4814
17559SOL    HW154161   0.392   7.041   7.250  1.6205 -2.3619  0.1161
17559SOL    HW254162   0.439   7.120   7.130  2.9529  0.5281  2.4431
17560SOL     OW54163   4.819   0.762   7.297 -0.2215 -0.1056  0.1784
17560SOL    HW154164   4.796   0.819   7.370 -0.0685  0.9486 -0.5640
17560SOL    HW254165   4.840   0.678   7.336 -0.1092  0.4591  1.3425
17561SOL     OW54166   4.255   5.867   2.771 -0.1054  0.5025 -0.0252
17561SOL    HW154167   4.286   5.957   2.782  1.8014 -0.1853  0.5212
17561SOL    HW254168   4.175   5.861   2.823  0.6025  1.4668  1.1867
17562SOL     OW54169   1.979   0.053   3.016  0.2842 -0.1320  0.1028
17562SOL    HW154170   2.056   0.076   3.068 -0.0411  1.5079 -0.1069
17562SOL    HW254171   1.992   0.098   2.933 -0.9054  0.1668  0.0678
17563SOL     OW54172   1.624   2.269   1.604  0.5019 -0.4883 -0.0653
17563SOL    HW154173   1.706   2.255   1.651  1.9881 -1.8944 -3.0174
17563SOL    HW254174   1.618   2.364   1.593  2.2649 -0.4580 -0.7945
17564SOL     OW54175   1.036   2.668   5.120 -0.6169 -0.1343 -0.0307
17564SOL    HW154176   1.065   2.719   5.045 -0.3225  1.4337  1.1364
17564SOL    HW254177   1.089   2.588   5.117 -0.0307  0.2880 -1.0032
17565SOL     OW54178   5.681   5.880   1.546  0.7795 -0.8901  0.3920
17565SOL    HW154179   5.754   5.934   1.516  0.3700  0.8428  2.3984
17565SOL    HW254180   5.713   5.837   1.625 -0.3479 -0.0412  1.3445
17566SOL     OW54181   5.077   3.421   7.086  0.2826 -0.6230  0.3542
17566SOL    HW154182   5.172   3.417   7.080  0.2905  0.5284 -0.4474
17566SOL    HW254183   5.057   3.387   7.173  1.4455 -0.5911  0.6412
17567SOL     OW54184   6.353   5.112   7.789 -0.0797 -0.1112  0.7683
17567SOL    HW154185   6.260   5.132   7.775 -0.7811 -1.9608  2.5231
17567SOL    HW254186   6.397   5.152   7.714 -1.9874  3.0420  1.1955
17568SOL     OW54187   4.578   1.656   2.252 -0.4613 -0.0963 -0.5897
17568SOL    HW154188   4.611   1.578   2.295 -1.3672  0.3696  0.9957
17568SOL    HW254189   4.579   1.723   2.321 -1.2855  0.8368 -1.4779
17569SOL     OW54190   2.417   3.779   7.490 -0.0270  0.1133 -0.1284
17569SOL    HW154191   2.395   3.829   7.568 -0.5174  2.3068 -1.6343
17569SOL    HW254192   2.401   3.839   7.417  0.9550 -1.6966 -1.8919
17570SOL     OW54193   4.673   4.779   7.855  0.0800 -0.0838  0.4019
17570SOL    HW154194   4.613   4.744   7.790 -0.3464  1.0015  0.2023
17570SOL    HW254195   4.642   4.868   7.871  0.5667 -0.1173  1.6085
17571SOL     OW54196   1.788   2.145   1.968 -0.2225 -0.4523 -0.1890
17571SOL    HW154197   1.762   2.080   1.902 -2.1830  0.2677 -0.1477
17571SOL    HW254198   1.716   2.147   2.030  0.3039  1.0068  0.3980
17572SOL     OW54199   0.514   4.714   5.130 -0.3033 -1.0615  0.0900
17572SOL    HW154200   0.572   4.709   5.054 -1.0885 -1.2207 -0.5046
17572SOL    HW254201   0.529   4.633   5.177  0.0752 -1.0322  0.0205
17573SOL     OW54202   0.903   6.403   1.837 -0.3108 -0.0638  0.2564
17573SOL    HW154203   0.901   6.494   1.808 -0.2656 -0.7900 -2.1232
17573SOL    HW254204   0.820   6.392   1.883 -1.1323  0.7247 -0.9778
17574SOL     OW54205   7.375   5.108   5.946 -0.6074 -0.1532 -0.1175
17574SOL    HW154206   7.471   5.104   5.949 -0.5585  1.2019  0.2133
17574SOL    HW254207   7.354   5.198   5.968 -2.0259 -0.8116  1.2702
17575SOL     OW54208   7.926   0.378   4.820  0.5427 -0.0217 -0.0517
17575SOL    HW154209   7.867   0.436   4.772 -0.0958  0.1154  0.8918
17575SOL    HW254210   8.013   0.416   4.808 -0.0035  1.7042  1.4167
17576SOL     OW54211   6.338   1.093   2.368  0.4030  0.5886 -0.1019
17576SOL    HW154212   6.258   1.058   2.406  0.8978  0.5429  0.9092
17576SOL    HW254213   6.384   1.017   2.334  0.5500  0.4919  0.3212
17577SOL     OW54214   4.778   3.857   7.927 -0.1580  0.0778 -0.3583
17577SOL    HW154215   4.715   3.794   7.963 -1.2071  2.2109  1.5994
17577SOL    HW254216   4.855   3.848   7.982 -0.1133  0.1497 -0.4101
17578SOL     OW54217   1.257   3.564   6.938  0.1460 -0.0604 -0.1167
17578SOL    HW154218   1.186   3.588   6.879 -1.0620 -2.4286  0.3113
17578SOL    HW254219   1.322   3.521   6.881 -0.2137 -0.7372 -0.0254
17579SOL     OW54220   7.197   1.307   1.096  0.0196 -0.8427  0.0009
17579SOL    HW154221   7.221   1.350   1.178 -1.8698  1.1777 -0.4638
17579SOL    HW254222   7.265   1.332   1.035  0.3472 -0.6998  0.4208
17580SOL     OW54223   7.614   3.413   7.198  0.3621 -0.0571 -0.4391
17580SOL    HW154224   7.658   3.333   7.226  0.3328  0.3738  0.8553
17580SOL    HW254225   7.670   3.449   7.129  0.8339 -0.7090 -0.3960
17581SOL     OW54226   4.161   6.519   4.126 -0.1693 -0.2329  0.2839
17581SOL    HW154227   4.073   6.552   4.146  0.0500 -0.0590  0.9517
17581SOL    HW254228   4.219   6.593   4.141  0.2572 -0.7635  1.2458
17582SOL     OW54229   8.021   3.603   2.573  0.0067  0.2154  0.3862
17582SOL    HW154230   7.952   3.621   2.637 -1.0866 -0.8097 -0.4659
17582SOL    HW254231   8.052   3.689   2.545  0.1057  0.6751  1.8699
17583SOL     OW54232   4.282   0.818   6.299 -0.3754 -0.1168 -0.4602
17583SOL    HW154233   4.314   0.810   6.389 -1.3019 -1.1420 -0.2137
17583SOL    HW254234   4.358   0.850   6.249 -0.0369  1.0522  0.7857
17584SOL     OW54235   0.023   3.635   1.833 -0.1160 -0.4883 -0.7329
17584SOL    HW154236   0.072   3.716   1.849  0.1642 -0.2552 -2.6979
17584SOL    HW254237   0.086   3.577   1.791  0.0016 -2.1575  1.6353
17585SOL     OW54238   8.033   7.335   2.908  0.1819  0.4751 -0.0555
17585SOL    HW154239   8.124   7.346   2.880  1.4123 -0.2538  3.4007
17585SOL    HW254240   8.028   7.386   2.989 -1.8322 -1.4779  1.0701
17586SOL     OW54241   7.537   2.690   5.909 -0.0874  0.5860  0.0085
17586SOL    HW154242   7.534   2.717   5.817 -1.0205  0.0408 -0.1286
17586SOL    HW254243   7.581   2.605   5.908  0.8716  1.0661  0.1976
17587SOL     OW54244   4.819   5.390   7.331  0.3287  0.6219  0.4943
17587SOL    HW154245   4.868   5.340   7.266 -0.3891  1.2995 -0.5983
17587SOL    HW254246   4.886   5.433   7.384  0.9386  1.1245 -0.6554
17588SOL     OW54247   4.778   0.959   4.199  0.0599 -0.7273 -0.0784
17588SOL    HW154248   4.792   0.910   4.118 -0.1314 -1.1830  0.1640
17588SOL    HW254249   4.851   1.021   4.203  0.8482 -1.6540  0.1128
17589SOL     OW54250   7.103   5.778   5.479 -0.1867 -0.3178 -0.0896
17589SOL    HW154251   7.139   5.829   5.552  0.1560  1.0622 -1.1988
17589SOL    HW254252   7.083   5.843   5.412  0.0796 -1.6346 -1.4737
17590SOL     OW54253   7.234   7.883   2.824 -0.2619 -0.1077  0.4409
17590SOL    HW154254   7.234   7.871   2.729  0.0617 -1.9373  0.6498
17590SOL    HW254255   7.172   7.955   2.839  1.1829  1.5292 -1.2863
17591SOL     OW54256   3.911   0.699   0.925  0.1563 -0.1998 -0.3025
17591SOL    HW154257   3.965   0.774   0.950 -0.0769  0.3397 -1.3546
17591SOL    HW254258   3.896   0.651   1.006 -1.2846  1.9416  0.7309
17592SOL     OW54259   6.430   2.539   5.399  0.0413 -0.6298 -0.2665
17592SOL    HW154260   6.470   2.514   5.315  0.9871  1.6953 -0.5430
17592SOL    HW254261   6.342   2.570   5.375  0.0412 -0.6679 -0.3182
17593SOL     OW54262   3.034   3.844   1.117  0.4409 -0.3950 -0.7188
17593SOL    HW154263   2.975   3.772   1.138 -0.3553  0.3721 -0.2523
17593SOL    HW254264   3.119   3.816   1.149 -0.1234 -0.6063  0.6206
17594SOL     OW54265   7.811   6.867   4.338  0.2294  0.1252 -0.5566
17594SOL    HW154266   7.856   6.952   4.333 -1.4011  0.9535 -1.5943
17594SOL    HW254267   7.868   6.814   4.393  1.1547  1.9725  0.3385
17595SOL     OW54268   7.169   8.241   2.974  0.8086  0.3059 -0.0183
17595SOL    HW154269   7.196   8.167   2.920 -0.7551 -0.2439 -0.0874
17595SOL    HW254270   7.079   8.260   2.945  1.4213  2.6622 -0.4717
17596SOL     OW54271   1.735   2.248   7.745  0.0944  0.7481  0.1606
17596SOL    HW154272   1.774   2.161   7.754  1.4787  1.3399  0.0808
17596SOL    HW254273   1.668   2.251   7.813  2.1590  0.7360  2.2789
17597SOL     OW54274   0.947   0.379   2.241 -0.3235 -0.0205  0.0937
17597SOL    HW154275   0.854   0.399   2.234 -0.4206 -0.3154  0.4938
17597SOL    HW254276   0.959   0.354   2.333  0.2698  0.6013  0.1871
17598SOL     OW54277   8.144   2.539   3.968 -0.2599  0.2858  0.0407
17598SOL    HW154278   8.119   2.621   3.927  2.0678  0.4192 -1.1935
17598SOL    HW254279   8.160   2.561   4.060 -1.0913  0.8866  0.0430
17599SOL     OW54280   3.890   2.591   7.121 -0.0414  0.7512  0.4203
17599SOL    HW154281   3.869   2.651   7.192 -0.0088  0.9416  0.2699
17599SOL    HW254282   3.817   2.599   7.060 -0.3762  0.1182  0.7364
17600SOL     OW54283   1.397   6.435   0.903  0.4306 -0.2120 -0.2565
17600SOL    HW154284   1.472   6.431   0.962 -0.3196  1.5145  0.8502
17600SOL    HW254285   1.426   6.491   0.830 -0.0554  1.1590  0.5941
17601SOL     OW54286   0.175   4.973   2.564 -0.2514  0.3934  0.3361
17601SOL    HW154287   0.246   4.974   2.501 -1.0673  1.6699 -0.5814
17601SOL    HW254288   0.137   5.061   2.560 -2.2378 -0.4326  0.3900
17602SOL     OW54289   7.622   2.498   2.608  0.2051 -0.5014 -0.0473
17602SOL    HW154290   7.580   2.525   2.690  0.7860  0.6643 -0.1239
17602SOL    HW254291   7.672   2.575   2.581  2.6109 -1.9514  0.1631
17603SOL     OW54292   6.379   4.326   1.950 -0.4250 -0.1532  0.6305
17603SOL    HW154293   6.363   4.289   1.863  0.4790 -0.1902  0.4789
17603SOL    HW254294   6.299   4.374   1.970 -0.3039  0.6049 -0.6069
17604SOL     OW54295   6.974   1.425   7.527 -0.0727  0.5112  0.0517
17604SOL    HW154296   7.028   1.501   7.502  2.1045 -0.8283  0.5148
17604SOL    HW254297   6.913   1.414   7.454  0.6936  1.7158 -0.7919
17605SOL     OW54298   4.934   6.609   3.970  0.0855 -0.1791 -0.3940
17605SOL    HW154299   4.852   6.606   4.020  0.6150 -1.3012  0.4508
17605SOL    HW254300   4.957   6.702   3.967 -0.5767  0.0233  0.4554
17606SOL     OW54301   7.308   1.560   7.126 -0.3606 -0.2523  0.3626
17606SOL    HW154302   7.356   1.639   7.103 -0.3963 -0.2813  0.1919
17606SOL    HW254303   7.218   1.579   7.102  0.1951 -1.7043 -3.1282
17607SOL     OW54304   1.439   3.517   0.340 -0.0126  0.0072  0.2350
17607SOL    HW154305   1.392   3.435   0.354 -0.2204 -0.3300 -2.2117
17607SOL    HW254306   1.375   3.586   0.358 -0.4564 -0.3911  0.1714
17608SOL     OW54307   6.423   5.650   3.025  0.5878  0.3118  0.0238
17608SOL    HW154308   6.401   5.558   3.044  0.0884  0.3284 -0.4464
17608SOL    HW254309   6.482   5.646   2.950 -1.0544  0.4668 -1.3058
17609SOL     OW54310   7.718   5.895   8.243 -0.5805  0.5716  0.4486
17609SOL    HW154311   7.725   5.867   8.152 -2.6066 -0.2451  0.5073
17609SOL    HW254312   7.804   5.879   8.281 -0.2742 -0.8962 -0.8396
17610SOL     OW54313   0.015   1.374   5.097  0.0166 -0.2930  0.3029
17610SOL    HW154314   0.054   1.287   5.086 -1.7359 -0.8810 -1.5989
17610SOL    HW254315   0.042   1.423   5.020  1.9741  1.2815  1.9390
17611SOL     OW54316   1.153   7.237   1.885  0.2233  0.3458 -0.5699
17611SOL    HW154317   1.184   7.277   1.804 -0.6219  2.6925  0.2054
17611SOL    HW254318   1.209   7.276   1.953 -1.7032  1.5274  0.3884
17612SOL     OW54319   4.946   3.056   2.335 -0.2029 -0.3212  0.4758
17612SOL    HW154320   4.995   2.991   2.284  0.9893  1.3118 -0.5418
17612SOL    HW254321   4.965   3.034   2.426  2.5446  0.2994  0.1092
17613SOL     OW54322   5.427   4.924   3.741  0.3394  0.2749  0.1888
17613SOL    HW154323   5.491   4.947   3.809 -0.3580  0.9151  0.6464
17613SOL    HW254324   5.420   4.829   3.745 -0.0302  0.3418  1.3435
17614SOL     OW54325   0.712   0.826   1.539  0.6900  0.7071  0.7593
17614SOL    HW154326   0.713   0.735   1.509  1.1684  0.8842  0.2308
17614SOL    HW254327   0.804   0.846   1.558  0.5661  1.0273  1.0210
17615SOL     OW54328   3.292   1.506   7.480 -0.4973 -0.7063 -0.4375
17615SOL    HW154329   3.327   1.505   7.391 -1.8297 -4.0352 -1.0312
17615SOL    HW254330   3.214   1.561   7.474  0.3540  0.4627 -0.9243
17616SOL     OW54331   1.777   3.875   0.107  0.1780  0.4206  0.8749
17616SOL    HW154332   1.686   3.876   0.078 -0.3854 -0.3518  2.5928
17616SOL    HW254333   1.808   3.964   0.088 -1.1275  0.8949  0.8842
17617SOL     OW54334   1.882   2.421   1.992  0.0761  0.1055  0.2236
17617SOL    HW154335   1.837   2.337   1.984  0.4412 -0.2471  1.7316
17617SOL    HW254336   1.963   2.401   2.038  1.0287  1.0053 -1.0225
17618SOL     OW54337   5.785   7.584   1.718 -0.0356 -0.1066 -0.1214
17618SOL    HW154338   5.764   7.636   1.796  0.3460  0.7472 -0.5905
17618SOL    HW254339   5.880   7.581   1.716 -0.0438 -1.7401  0.4974
17619SOL     OW54340   4.963   5.384   7.755  0.1276 -0.0415  0.2367
17619SOL    HW154341   4.950   5.351   7.845  1.5626  0.5782  0.6824
17619SOL    HW254342   4.903   5.458   7.748 -0.9872 -0.9245  0.2132
17620SOL     OW54343   5.541   5.313   3.078  0.0198  0.7842  0.2082
17620SOL    HW154344   5.537   5.408   3.086 -2.1279  0.7854 -0.4777
17620SOL    HW254345   5.458   5.282   3.116  0.6462 -0.8052  0.3411
17621SOL     OW54346   3.162   4.523   1.369  0.6533 -0.2622 -0.1974
17621SOL    HW154347   3.097   4.470   1.322  0.7552 -1.3276  0.8330
17621SOL    HW254348   3.160   4.489   1.459  0.7789  1.4436  0.4651
17622SOL     OW54349   3.745   0.352   1.244  0.1280 -0.4198 -0.6390
17622SOL    HW154350   3.675   0.304   1.199  0.6684 -0.8229 -1.0514
17622SOL    HW254351   3.784   0.287   1.302  1.0913 -0.5754 -1.4568
17623SOL     OW54352   0.587   8.003   2.610  0.0715 -0.7620  0.3341
17623SOL    HW154353   0.580   7.967   2.698 -0.9097  0.6340  0.8574
17623SOL    HW254354   0.681   8.010   2.594  0.2623 -0.5628  1.4852
17624SOL     OW54355   2.494   5.789   1.797  0.5473  0.1684  0.1555
17624SOL    HW154356   2.543   5.708   1.807 -0.4947 -0.8767 -2.5268
17624SOL    HW254357   2.408   5.761   1.765 -0.3782  2.2360  0.7075
17625SOL     OW54358   6.510   2.500   7.791  0.1478  0.2325  0.0783
17625SOL    HW154359   6.476   2.530   7.876  0.6765  0.4123  0.2295
17625SOL    HW254360   6.580   2.561   7.771 -0.5008  0.6689 -0.8735
17626SOL     OW54361   4.636   4.870   5.181  0.3594  0.0983  0.3099
17626SOL    HW154362   4.673   4.793   5.223  2.2242  0.1856 -1.1022
17626SOL    HW254363   4.665   4.865   5.090  0.2861  2.3034  0.1233
17627SOL     OW54364   8.098   3.484   0.156  0.4099 -0.8027 -0.6032
17627SOL    HW154365   8.144   3.559   0.119 -0.2261  0.6230  1.4083
17627SOL    HW254366   8.142   3.407   0.120 -0.1692  0.5042 -4.2536
17628SOL     OW54367   1.928   4.592   0.580  0.2811  0.1116  0.2046
17628SOL    HW154368   1.992   4.650   0.539 -0.0200  0.7953  0.7143
17628SOL    HW254369   1.960   4.580   0.669  0.0136 -0.0273  0.2826
17629SOL     OW54370   3.939   2.967   5.686  0.2391  0.3230  0.3704
17629SOL    HW154371   3.979   3.016   5.759  1.4943 -1.1571  0.6952
17629SOL    HW254372   3.869   2.916   5.727  1.3197 -0.9532  0.6583
17630SOL     OW54373   7.035   0.155   1.140  0.0201  0.6977  0.3860
17630SOL    HW154374   6.967   0.199   1.191 -0.4391 -0.1127  0.4641
17630SOL    HW254375   7.116   0.173   1.189 -0.1261  1.6246  0.3111
17631SOL     OW54376   1.730   3.847   7.038 -0.4241  0.3461 -0.2077
17631SOL    HW154377   1.658   3.785   7.046 -0.1225  0.0942  0.6335
17631SOL    HW254378   1.696   3.918   6.983 -1.2243  0.1117 -0.0110
17632SOL     OW54379   7.057   4.292   6.624  0.1065 -0.1153 -0.0950
17632SOL    HW154380   7.140   4.280   6.669 -0.1095  1.1061  0.6543
17632SOL    HW254381   7.077   4.348   6.549  0.3483 -1.6190 -1.1669
17633SOL     OW54382   7.277   2.326   2.591 -1.2059  0.1274 -0.6722
17633SOL    HW154383   7.260   2.238   2.623 -0.1962  0.0336 -0.3879
17633SOL    HW254384   7.304   2.313   2.500 -1.0389  0.1426 -0.6245
17634SOL     OW54385   5.234   5.497   3.807 -0.2616 -0.1904 -0.1059
17634SOL    HW154386   5.216   5.521   3.898  0.1687 -0.6575  0.1010
17634SOL    HW254387   5.264   5.406   3.811 -1.3838 -0.6089 -0.8357
17635SOL     OW54388   1.068   1.192   0.151 -0.2075  0.4320 -0.0830
17635SOL    HW154389   1.081   1.115   0.096  0.9433  0.3264  0.3189
17635SOL    HW254390   1.102   1.265   0.100  0.0593  0.4593  0.1315
17636SOL     OW54391   5.719   3.177   7.180  0.1405  0.1245  0.4809
17636SOL    HW154392   5.783   3.178   7.109 -1.1088  0.9814 -0.6382
17636SOL    HW254393   5.730   3.091   7.221  1.4380 -0.0516 -0.1971
17637SOL     OW54394   4.548   6.688   7.533  0.5726  0.3902 -0.0548
17637SOL    HW154395   4.540   6.772   7.487 -1.1921  0.3599  0.1779
17637SOL    HW254396   4.589   6.630   7.468 -1.1611  0.5665 -1.3433
17638SOL     OW54397   5.533   3.386   5.737 -0.0315  0.4229 -0.1640
17638SOL    HW154398   5.514   3.471   5.777  0.3625  1.2751 -1.7875
17638SOL    HW254399   5.627   3.388   5.719 -0.2940  0.2147 -1.5628
17639SOL     OW54400   0.675   6.113   6.954  0.4839  0.3018  0.0810
17639SOL    HW154401   0.717   6.040   7.000 -0.1649 -1.0522 -1.4383
17639SOL    HW254402   0.585   6.084   6.940  0.4961  0.9628 -1.4647
17640SOL     OW54403   5.255   2.642   1.710  0.1430 -0.2209 -0.0957
17640SOL    HW154404   5.198   2.687   1.648 -0.6891 -1.3580 -0.1672
17640SOL    HW254405   5.200   2.572   1.747  0.0951  1.4158  3.1007
17641SOL     OW54406   2.938   2.768   1.652 -0.0407 -0.4351 -0.0342
17641SOL    HW154407   2.938   2.675   1.671  2.6101 -1.1767 -3.0478
17641SOL    HW254408   3.016   2.802   1.696 -1.4602  0.5813  1.7746
17642SOL     OW54409   4.022   1.160   5.781  0.3189  0.0041 -0.2026
17642SOL    HW154410   4.005   1.072   5.748  0.3339  0.4643 -1.4673
17642SOL    HW254411   4.079   1.200   5.715 -0.1548  1.1615  0.0741
17643SOL     OW54412   2.670   4.161   6.832  0.0125  0.2418  0.2538
17643SOL    HW154413   2.702   4.195   6.916  1.6925  1.1735 -0.7274
17643SOL    HW254414   2.749   4.129   6.788 -1.1118 -2.1456 -0.1535
17644SOL     OW54415   6.115   7.058   6.928 -0.3332  0.4527  0.3331
17644SOL    HW154416   6.059   7.069   7.005  0.0328 -0.6865  0.7816
17644SOL    HW254417   6.188   7.118   6.942  0.0932 -0.2488  1.2438
17645SOL     OW54418   3.856   6.981   3.863  0.1938 -0.0859 -0.6365
17645SOL    HW154419   3.938   6.966   3.910  0.8113  0.2594 -1.5912
17645SOL    HW254420   3.798   7.021   3.929  1.3155  1.1621 -0.3736
17646SOL     OW54421   1.534   2.326   6.130  0.6616  0.7650  0.0646
17646SOL    HW154422   1.539   2.416   6.163  0.8303  1.5141 -1.9551
17646SOL    HW254423   1.620   2.289   6.147  0.5300  0.9099  1.0883
17647SOL     OW54424   0.033   3.015   4.458  0.1825 -0.0301  0.1531
17647SOL    HW154425   0.006   3.009   4.549 -0.5283 -2.0468 -0.1726
17647SOL    HW254426   0.106   2.953   4.450 -1.3619 -1.7475 -1.1893
17648SOL     OW54427   6.712   3.013   5.799  0.1712  0.6694  0.6155
17648SOL    HW154428   6.770   3.001   5.725  0.4209  0.3663  0.8604
17648SOL    HW254429   6.736   3.099   5.835  0.3029  0.6474  0.5771
17649SOL     OW54430   6.380   7.032   3.795  0.2229 -0.3970  0.0649
17649SOL    HW154431   6.385   7.075   3.881 -0.0978  0.2295 -0.2308
17649SOL    HW254432   6.452   6.968   3.797  1.8171  1.3398 -0.1678
17650SOL     OW54433   4.074   7.790   4.506  0.6476 -0.2405 -0.0983
17650SOL    HW154434   4.007   7.844   4.466  0.3781 -0.7204 -0.2895
17650SOL    HW254435   4.026   7.719   4.548  1.1190 -1.2957 -1.3257
17651SOL     OW54436   4.465   2.676   7.654  0.4377 -0.0461  0.4914
17651SOL    HW154437   4.439   2.756   7.609 -0.3819 -0.7359 -0.2887
17651SOL    HW254438   4.387   2.651   7.704  0.4714 -0.6926  0.2300
17652SOL     OW54439   7.159   3.726   5.323 -0.1005 -0.4236 -0.4171
17652SOL    HW154440   7.096   3.713   5.252  0.8816 -1.9390 -1.0461
17652SOL    HW254441   7.194   3.813   5.309 -0.4841 -0.4141 -1.3444
17653SOL     OW54442   1.143   7.641   6.533 -0.7245  0.1693  0.5524
17653SOL    HW154443   1.088   7.661   6.609  0.0692  1.6790  0.7362
17653SOL    HW254444   1.112   7.701   6.465 -0.1628  0.1302  0.2629
17654SOL     OW54445   4.268   3.326   3.040 -0.2021  0.2310 -0.1829
17654SOL    HW154446   4.328   3.389   3.000 -1.5708  1.4598 -0.3579
17654SOL    HW254447   4.259   3.356   3.131 -1.5851  0.8641 -0.5155
17655SOL     OW54448   1.362   2.171   4.251 -0.3796 -0.0082  0.0816
17655SOL    HW154449   1.371   2.210   4.338  0.2918 -0.0305  0.0264
17655SOL    HW254450   1.440   2.116   4.241 -0.2824  0.2576 -0.6661
17656SOL     OW54451   5.680   6.475   3.640  0.1105 -0.1662 -0.2689
17656SOL    HW154452   5.617   6.545   3.655 -0.5964 -1.0028  0.8146
17656SOL    HW254453   5.761   6.519   3.615 -0.5091  0.9955 -0.2344
17657SOL     OW54454   1.422   5.114   1.149 -0.6718 -0.1491 -0.5401
17657SOL    HW154455   1.327   5.111   1.148 -0.7220  1.4312 -0.9690
17657SOL    HW254456   1.447   5.131   1.058 -0.0981  2.1861  0.0310
17658SOL     OW54457   2.125   5.807   1.029  0.0812 -0.3663 -0.2726
17658SOL    HW154458   2.097   5.744   1.095 -0.2374 -1.0019 -1.0095
17658SOL    HW254459   2.177   5.871   1.077 -1.5486  0.1010  0.8732
17659SOL     OW54460   2.389   1.066   7.343  0.0505 -0.4588  0.3394
17659SOL    HW154461   2.368   1.065   7.437  0.6414  0.9967  0.4998
17659SOL    HW254462   2.322   1.123   7.305  0.8639  0.3832  0.1484
17660SOL     OW54463   7.351   0.592   7.291 -0.7419 -0.1117 -0.8477
17660SOL    HW154464   7.361   0.668   7.349 -2.7648 -0.5359  0.0878
17660SOL    HW254465   7.366   0.628   7.203 -3.3870  1.7640 -0.5860
17661SOL     OW54466   8.112   3.435   8.143 -0.2675 -0.5351  0.3760
17661SOL    HW154467   8.199   3.426   8.182 -0.4703  0.5567  1.0930
17661SOL    HW254468   8.119   3.510   8.084 -0.3684 -1.2613 -0.5744
17662SOL     OW54469   0.329   7.019   7.422 -0.5960 -0.0914  0.0178
17662SOL    HW154470   0.377   7.045   7.501 -1.8285 -1.6903  1.3309
17662SOL    HW254471   0.238   7.016   7.449 -1.1089 -0.1104 -1.6457
17663SOL     OW54472   7.751   2.121   3.591 -0.3777 -0.6433 -0.0093
17663SOL    HW154473   7.839   2.086   3.579 -0.0647 -0.3207  1.2357
17663SOL    HW254474   7.765   2.209   3.626 -1.1858 -0.6063  0.2452
17664SOL     OW54475   7.160   4.121   5.938  0.0501 -0.4646 -0.2424
17664SOL    HW154476   7.138   4.033   5.910  0.7965 -0.6884 -0.1282
17664SOL    HW254477   7.075   4.164   5.952 -0.3156 -0.9560 -0.9233
17665SOL     OW54478   2.705   3.424   1.233 -0.0687  0.2170 -0.0303
17665SOL    HW154479   2.668   3.342   1.200  1.5727 -0.2071 -0.8812
17665SOL    HW254480   2.660   3.492   1.184  0.6066 -0.3095 -1.4216
17666SOL     OW54481   5.295   0.238   0.906  0.6722  0.0147 -0.2084
17666SOL    HW154482   5.374   0.224   0.958  0.9988 -0.4962 -0.8483
17666SOL    HW254483   5.225   0.245   0.971  1.1885  0.1268  0.3400
17667SOL     OW54484   2.073   3.642   5.020  0.9275 -1.0387  0.5858
17667SOL    HW154485   2.098   3.700   5.092  3.1744 -1.7492  0.4446
17667SOL    HW254486   1.980   3.623   5.035  1.0681 -0.2488  2.6424
17668SOL     OW54487   3.166   1.734   4.518  0.1875 -0.3673  0.1289
17668SOL    HW154488   3.150   1.698   4.605 -1.9004 -0.2872 -0.1938
17668SOL    HW254489   3.154   1.829   4.529  0.0535 -0.3428 -0.2134
17669SOL     OW54490   6.456   3.319   6.709  0.4871  0.2154 -0.0568
17669SOL    HW154491   6.474   3.274   6.791  1.4768  2.5514  1.0616
17669SOL    HW254492   6.526   3.384   6.702 -0.6768  1.3254 -1.7874
17670SOL     OW54493   5.539   2.911   6.437  0.6657  0.2860  0.2193
17670SOL    HW154494   5.606   2.936   6.373  0.7517  2.0197  0.9587
17670SOL    HW254495   5.507   2.827   6.406  1.7904  0.3725 -1.2531
17671SOL     OW54496   6.377   2.562   7.319 -0.1225  0.0877 -0.0233
17671SOL    HW154497   6.284   2.544   7.329  0.4197 -2.4323  0.7745
17671SOL    HW254498   6.403   2.510   7.243  0.8737 -0.2000  0.5099
17672SOL     OW54499   2.348   3.612   3.191 -0.1464 -0.5129  0.1290
17672SOL    HW154500   2.259   3.585   3.217 -0.1212 -1.9877 -1.2231
17672SOL    HW254501   2.339   3.634   3.098  0.7079  0.2200  0.2267
17673SOL     OW54502   2.364   6.641   2.854  0.2139 -0.1280 -0.0680
17673SOL    HW154503   2.401   6.723   2.887 -0.1859 -1.6809  4.5795
17673SOL    HW254504   2.269   6.652   2.864  0.1596 -1.1038  0.5375
17674SOL     OW54505   0.173   0.146   3.695 -0.2524 -0.0292  0.4613
17674SOL    HW154506   0.091   0.194   3.706 -0.4478 -0.4015  0.6201
17674SOL    HW254507   0.238   0.199   3.741 -0.4816  0.0403  0.7033
17675SOL     OW54508   8.033   2.387   1.999  0.3508  0.2866 -0.0906
17675SOL    HW154509   7.952   2.355   1.960 -0.4385  0.7664  1.1085
17675SOL    HW254510   8.004   2.444   2.070  1.7275 -0.9132  1.4814
17676SOL     OW54511   3.613   2.470   6.495  0.4169  0.2891 -0.4398
17676SOL    HW154512   3.702   2.436   6.491  1.5029  2.8828  0.2959
17676SOL    HW254513   3.622   2.563   6.476 -2.5921  0.0098 -3.7155
17677SOL     OW54514   1.835   4.815   1.816 -0.1213  0.1253 -0.0644
17677SOL    HW154515   1.883   4.884   1.861  1.7827 -1.6374  0.7003
17677SOL    HW254516   1.787   4.770   1.886  0.7442 -0.9575 -0.1511
17678SOL     OW54517   2.514   3.261   2.464  0.0925 -0.0875  0.2686
17678SOL    HW154518   2.606   3.284   2.478  0.2630 -0.6017  0.0256
17678SOL    HW254519   2.467   3.307   2.533  0.6254 -0.4662  0.8957
17679SOL     OW54520   8.198   0.523   3.640 -0.4230 -0.0869  0.4329
17679SOL    HW154521   8.221   0.468   3.565 -0.9148 -0.0218  0.2332
17679SOL    HW254522   8.122   0.574   3.610  1.0842  1.9716  0.0080
17680SOL     OW54523   6.032   4.437   5.877 -0.2500  0.4825  0.1606
17680SOL    HW154524   6.025   4.485   5.794 -1.2191  1.3911  0.7572
17680SOL    HW254525   6.039   4.505   5.944  3.3694 -0.2510  0.6466
17681SOL     OW54526   0.658   6.599   7.024  0.1697  0.8225 -0.2485
17681SOL    HW154527   0.586   6.633   6.971 -1.1383  0.7244  1.4271
17681SOL    HW254528   0.641   6.504   7.028  0.3610  0.8084  0.2003
17682SOL     OW54529   3.228   5.214   0.699  0.3676 -0.2221 -0.2572
17682SOL    HW154530   3.150   5.210   0.643  1.6752  0.6789 -2.2213
17682SOL    HW254531   3.221   5.298   0.744 -1.6438 -1.7669  2.4444
17683SOL     OW54532   6.801   5.503   6.584 -0.3875 -0.3695 -0.3951
17683SOL    HW154533   6.756   5.426   6.620  0.2062 -1.2723 -1.5351
17683SOL    HW254534   6.748   5.530   6.510 -1.2090  1.0371  0.6879
17684SOL     OW54535   4.203   0.343   6.532  0.1798 -0.1577 -0.3418
17684SOL    HW154536   4.230   0.376   6.618  0.3469 -1.2896  0.0515
17684SOL    HW254537   4.158   0.416   6.491  0.7667  0.6388  0.4093
17685SOL     OW54538   0.362   3.391   3.609 -0.0041 -0.2078 -0.0620
17685SOL    HW154539   0.437   3.408   3.667  0.3968 -0.2665 -0.5538
17685SOL    HW254540   0.288   3.431   3.653  0.5373  0.9262 -0.1519
17686SOL     OW54541   1.787   0.140   3.476  0.2620  0.0994 -0.5940
17686SOL    HW154542   1.694   0.138   3.453 -0.1115  0.5547  0.8167
17686SOL    HW254543   1.792   0.093   3.560  1.0976  1.3060  0.0386
17687SOL     OW54544   1.495   2.990   3.151  0.5181 -0.2664 -0.2552
17687SOL    HW154545   1.405   2.960   3.143  0.5640 -0.9710  1.5667
17687SOL    HW254546   1.505   3.055   3.082 -1.7870  0.7749  0.3316
17688SOL     OW54547   3.124   2.141   8.183 -0.3506  0.1351 -0.2301
17688SOL    HW154548   3.034   2.117   8.159  0.8364 -1.6601 -3.0914
17688SOL    HW254549   3.134   2.231   8.151 -1.4016  0.6919  0.9518
17689SOL     OW54550   7.034   0.847   2.830  0.0922 -0.2032  0.3808
17689SOL    HW154551   7.011   0.937   2.807 -0.2390 -0.3136  0.2788
17689SOL    HW254552   7.085   0.855   2.910  1.1508  0.1729 -0.3288
17690SOL     OW54553   2.988   7.852   5.786  0.4683  0.0053 -0.2685
17690SOL    HW154554   3.062   7.903   5.821  0.2567 -0.9933  1.6581
17690SOL    HW254555   2.913   7.879   5.838 -0.1751 -0.3708 -0.9853
17691SOL     OW54556   3.049   1.259   3.956  0.0880  0.3002  0.1499
17691SOL    HW154557   2.990   1.305   4.016 -1.3167 -1.8414  0.4317
17691SOL    HW254558   3.001   1.182   3.928  2.4505 -1.0753 -0.2675
17692SOL     OW54559   5.407   6.766   5.110  0.0950 -0.4391  0.5304
17692SOL    HW154560   5.340   6.820   5.151  0.6359 -0.5468  1.5631
17692SOL    HW254561   5.410   6.686   5.162  0.3693 -0.8271 -0.0696
17693SOL     OW54562   1.917   0.580   4.560 -0.6280 -0.5274  0.4020
17693SOL    HW154563   1.980   0.585   4.487  0.0341  1.6728  1.0760
17693SOL    HW254564   1.940   0.655   4.616 -2.8353 -0.6309  1.4901
17694SOL     OW54565   5.252   1.547   7.601  0.1143 -0.3610  0.0688
17694SOL    HW154566   5.249   1.507   7.515  0.3973  1.8185 -0.9881
17694SOL    HW254567   5.160   1.565   7.622  0.1459  0.4070 -0.4229
17695SOL     OW54568   8.297   1.043   6.624 -0.1041 -0.1214  0.4693
17695SOL    HW154569   8.249   1.057   6.543  0.1731  1.2298  0.5253
17695SOL    HW254570   8.234   1.002   6.684 -0.6051 -0.1669 -0.0911
17696SOL     OW54571   2.147   1.179   2.459  0.3994 -0.0081  0.6433
17696SOL    HW154572   2.107   1.225   2.385  0.9879 -1.0629 -0.3344
17696SOL    HW254573   2.113   1.225   2.536 -0.7831  0.6443 -0.2462
17697SOL     OW54574   7.113   3.174   4.048 -0.1395  0.0727  0.2562
17697SOL    HW154575   7.019   3.194   4.056 -0.3344 -0.7959  0.1434
17697SOL    HW254576   7.128   3.105   4.112  0.1497 -0.7059 -0.6521
17698SOL     OW54577   6.487   7.842   1.908  0.3771 -0.0797  0.0636
17698SOL    HW154578   6.478   7.886   1.992 -2.0281  0.2154 -0.3136
17698SOL    HW254579   6.568   7.876   1.872  0.7779  0.7657  1.6997
17699SOL     OW54580   0.197   1.470   5.275  0.0115 -0.5229  0.4196
17699SOL    HW154581   0.117   1.456   5.326  0.1427  0.8207  1.0164
17699SOL    HW254582   0.171   1.448   5.185 -0.9305 -0.4515  0.6611
17700SOL     OW54583   6.708   5.211   4.876  0.6976 -0.0111  0.3794
17700SOL    HW154584   6.679   5.211   4.968 -0.6736 -1.4036 -0.0394
17700SOL    HW254585   6.659   5.282   4.836 -1.1397 -1.4538  0.0034
17701SOL     OW54586   0.841   5.810   2.892  0.1172  0.1398 -0.3878
17701SOL    HW154587   0.853   5.902   2.869 -1.4131  0.3504 -0.3725
17701SOL    HW254588   0.747   5.800   2.906  0.6233 -0.6054  3.0403
17702SOL     OW54589   0.920   2.973   6.518  0.5045  0.1829  0.2080
17702SOL    HW154590   0.829   2.956   6.496  1.2686 -0.1196 -2.8883
17702SOL    HW254591   0.940   2.911   6.588 -1.5493  0.0234  0.6758
17703SOL     OW54592   4.246   4.509   2.266 -0.1958  0.2438 -0.5238
17703SOL    HW154593   4.337   4.532   2.284 -0.6965  1.1166  1.0002
17703SOL    HW254594   4.245   4.413   2.263  0.4280  0.1663  1.3563
17704SOL     OW54595   3.058   1.697   1.266  0.4976  0.7677  0.2818
17704SOL    HW154596   2.978   1.701   1.214 -0.1513 -2.4085  0.9823
17704SOL    HW254597   3.128   1.691   1.202 -0.4197 -5.6280 -0.4449
17705SOL     OW54598   5.860   1.052   5.166 -0.3365  0.0929  0.4373
17705SOL    HW154599   5.912   1.009   5.235  0.1658 -0.3667 -0.2173
17705SOL    HW254600   5.789   1.095   5.213  1.4761  1.9958  1.5028
17706SOL     OW54601   0.941   1.123   6.744 -0.6331  0.4441 -0.9425
17706SOL    HW154602   0.982   1.142   6.660  0.1816  0.6025 -0.5142
17706SOL    HW254603   0.923   1.029   6.742  2.4093 -0.1907  0.0175
17707SOL     OW54604   8.108   5.315   2.694  0.2728 -0.4897  0.0300
17707SOL    HW154605   8.017   5.343   2.687  0.4893  0.1243 -0.4046
17707SOL    HW254606   8.103   5.225   2.725 -0.5169 -0.7977 -0.9536
17708SOL     OW54607   7.596   7.016   5.896  0.1118 -0.4296  0.0517
17708SOL    HW154608   7.691   7.006   5.883  0.2804  1.1611 -0.0287
17708SOL    HW254609   7.588   7.046   5.986 -0.3974 -1.6877  0.4271
17709SOL     OW54610   5.246   2.076   6.774 -0.2291 -0.0900  0.2828
17709SOL    HW154611   5.331   2.068   6.817  0.6959  0.7831 -1.2947
17709SOL    HW254612   5.268   2.091   6.682 -2.1299 -2.1176 -0.5543
17710SOL     OW54613   3.215   4.684   2.239 -0.2271 -0.3977  0.2109
17710SOL    HW154614   3.175   4.768   2.264  0.4018  0.3309 -1.1694
17710SOL    HW254615   3.142   4.622   2.241 -0.8914  0.3667  0.3277
17711SOL     OW54616   2.557   1.619   6.458  0.1633 -0.4781  0.2839
17711SOL    HW154617   2.479   1.654   6.416  2.0323  1.5614 -1.6671
17711SOL    HW254618   2.530   1.535   6.495 -3.7818  1.6509  2.5476
17712SOL     OW54619   6.454   3.673   1.807  0.2644 -0.8923  0.1392
17712SOL    HW154620   6.498   3.737   1.863 -0.6359  0.5768 -0.7838
17712SOL    HW254621   6.522   3.643   1.747  0.6914 -0.7598  0.5525
17713SOL     OW54622   7.728   3.154   4.821  0.2847  0.6091  0.3876
17713SOL    HW154623   7.700   3.230   4.872  0.2422  0.8912 -0.0479
17713SOL    HW254624   7.789   3.108   4.877  0.0660  0.7958  0.7781
17714SOL     OW54625   6.060   4.467   3.352 -0.5020 -0.0716  0.0932
17714SOL    HW154626   5.972   4.436   3.331  0.1618 -1.8550 -0.1227
17714SOL    HW254627   6.091   4.507   3.271 -0.7894 -0.2217 -0.0945
17715SOL     OW54628   4.417   3.963   0.996 -0.5904 -0.0394  0.3263
17715SOL    HW154629   4.338   3.909   0.990 -1.3353  0.8749  1.6559
17715SOL    HW254630   4.401   4.020   1.071  2.0633 -1.0305  1.6950
17716SOL     OW54631   0.834   6.367   8.301 -0.2815  0.0150  0.1666
17716SOL    HW154632   0.854   6.336   8.213 -0.4603  1.6594 -0.4660
17716SOL    HW254633   0.751   6.415   8.292  0.0903  0.8550  1.0809
17717SOL     OW54634   1.871   0.988   7.390  0.3098 -0.0231 -0.0926
17717SOL    HW154635   1.779   0.989   7.417  0.1626 -2.0254 -0.4271
17717SOL    HW254636   1.904   0.904   7.422  2.0361  0.6925  0.0527
17718SOL     OW54637   4.375   2.742   1.553 -0.0782 -0.1196 -0.0936
17718SOL    HW154638   4.312   2.715   1.486  0.2975 -1.6479  0.1573
17718SOL    HW254639   4.438   2.669   1.558  1.2643  1.0287  0.2155
17719SOL     OW54640   0.991   1.509   6.893 -0.1843 -0.0406  0.1152
17719SOL    HW154641   0.959   1.577   6.952  0.5278 -0.0428  0.5160
17719SOL    HW254642   0.950   1.528   6.809  1.5840  2.0920 -0.2967
17720SOL     OW54643   7.188   2.315   5.780 -0.1577  0.0924  0.2115
17720SOL    HW154644   7.109   2.261   5.783 -0.6311  0.7941  0.4914
17720SOL    HW254645   7.257   2.255   5.751 -0.9376 -0.3463 -0.7473
17721SOL     OW54646   1.282   3.888   2.228  0.3844  0.2848 -0.5482
17721SOL    HW154647   1.262   3.807   2.275  1.1353  0.4075  0.0007
17721SOL    HW254648   1.343   3.861   2.159 -1.8031 -0.1317 -2.3776
17722SOL     OW54649   3.744   7.408   4.682  0.2414  0.4390 -0.0941
17722SOL    HW154650   3.703   7.346   4.742 -1.0017 -1.0378 -2.3907
17722SOL    HW254651   3.677   7.475   4.668 -0.0550 -0.0415 -1.0126
17723SOL     OW54652   3.103   7.221   5.851 -0.1494  0.2507 -0.7328
17723SOL    HW154653   3.186   7.240   5.809 -0.0738  0.5813 -0.4436
17723SOL    HW254654   3.127   7.193   5.940 -0.3616  0.7595 -0.5098
17724SOL     OW54655   3.480   4.637   8.312 -0.1410 -0.2023  0.2233
17724SOL    HW154656   3.458   4.710   8.255 -0.5574 -0.6680 -0.2113
17724SOL    HW254657   3.557   4.667   8.361 -0.6659  0.7540  0.4746
17725SOL     OW54658   3.138   5.985   4.584  0.6979  0.4873 -0.2617
17725SOL    HW154659   3.128   6.040   4.662  0.3919 -1.0193  0.7876
17725SOL    HW254660   3.075   6.021   4.522 -0.7653  0.2414  1.0448
17726SOL     OW54661   8.108   7.229   6.622 -0.6653 -0.2603  0.4437
17726SOL    HW154662   8.189   7.245   6.573 -0.9556  0.0366  0.0635
17726SOL    HW254663   8.095   7.135   6.616 -0.1884 -0.3529  0.7603
17727SOL     OW54664   8.021   5.084   3.226  0.1616 -0.2373 -0.0410
17727SOL    HW154665   8.102   5.066   3.179 -0.3673  1.3731 -1.6235
17727SOL    HW254666   8.030   5.036   3.309  2.8016  0.0914 -0.0944
17728SOL     OW54667   7.765   6.535   2.260  0.3580  0.0228  0.3182
17728SOL    HW154668   7.731   6.607   2.207  2.8206  1.4846  0.6565
17728SOL    HW254669   7.687   6.490   2.292 -1.2144  1.8520 -0.8483
17729SOL     OW54670   5.373   0.188   0.396 -0.6782 -0.0204 -0.5687
17729SOL    HW154671   5.284   0.220   0.381 -0.8202 -0.0709  0.1760
17729SOL    HW254672   5.379   0.109   0.342 -0.9322  0.2407 -0.9821
17730SOL     OW54673   1.655   6.430   4.604  0.6658  0.2720 -0.2641
17730SOL    HW154674   1.654   6.479   4.686  0.4833 -1.1553  0.6032
17730SOL    HW254675   1.731   6.373   4.610 -0.0950 -0.7928 -0.5029
17731SOL     OW54676   2.360   6.997   5.350 -0.4658 -0.0470 -0.4020
17731SOL    HW154677   2.326   6.908   5.357 -0.0677 -0.2946 -1.6065
17731SOL    HW254678   2.437   6.997   5.408 -0.4780 -0.4712 -0.3816
17732SOL     OW54679   7.231   6.796   2.154  0.1708 -0.4038  0.4561
17732SOL    HW154680   7.307   6.811   2.098 -0.0667 -0.6193  0.0732
17732SOL    HW254681   7.163   6.763   2.095 -0.4304  0.4090  0.6808
17733SOL     OW54682   6.647   2.694   0.163  0.7433  0.1012  0.0302
17733SOL    HW154683   6.667   2.779   0.124 -2.7341  0.4604 -1.1786
17733SOL    HW254684   6.637   2.711   0.256  3.0164  0.4200  0.2365
17734SOL     OW54685   4.837   5.584   0.690  0.1834  0.0219  0.3100
17734SOL    HW154686   4.782   5.629   0.626 -4.8453 -2.7221  2.3673
17734SOL    HW254687   4.875   5.511   0.642 -1.0598 -0.2207 -0.3500
17735SOL     OW54688   6.515   8.104   7.645  0.7633 -0.7755 -0.3464
17735SOL    HW154689   6.473   8.023   7.673 -0.7802 -0.1320 -0.7280
17735SOL    HW254690   6.496   8.166   7.715 -0.1597 -0.1000 -1.1777
17736SOL     OW54691   3.927   5.944   2.441 -0.4194 -0.2680 -0.7417
17736SOL    HW154692   3.916   5.879   2.371 -2.6119  0.2266 -0.9188
17736SOL    HW254693   3.883   5.905   2.516  1.6007 -0.6251  0.2815
17737SOL     OW54694   3.005   3.383   0.591 -0.5678  0.1589  0.4887
17737SOL    HW154695   3.078   3.392   0.653  0.6088  2.1006 -1.0988
17737SOL    HW254696   3.006   3.291   0.565  2.6090  0.5691 -1.0034
17738SOL     OW54697   3.060   4.641   0.275  0.5637  0.5206 -0.2876
17738SOL    HW154698   3.073   4.661   0.367  2.3219  0.3995 -0.4930
17738SOL    HW254699   3.142   4.666   0.233  1.0522 -2.5869 -1.2846
17739SOL     OW54700   1.834   3.868   6.149  0.4453 -0.3680  0.4451
17739SOL    HW154701   1.850   3.775   6.131  2.0503  0.0553 -0.4082
17739SOL    HW254702   1.898   3.891   6.216  0.1683  0.1656  0.5299
17740SOL     OW54703   2.648   5.579   1.754  0.1347 -0.5590 -0.2687
17740SOL    HW154704   2.690   5.495   1.773  0.0582 -0.2437  1.3633
17740SOL    HW254705   2.720   5.635   1.724  0.6806 -0.4193  1.2390
17741SOL     OW54706   7.729   7.038   2.120  0.2037  0.6225 -0.0592
17741SOL    HW154707   7.793   7.033   2.192  0.9413 -2.4668 -0.8345
17741SOL    HW254708   7.779   7.076   2.047 -0.3630  3.1465  0.8318
17742SOL     OW54709   5.210   6.557   5.609  0.1505 -0.3204 -0.1027
17742SOL    HW154710   5.168   6.473   5.588 -1.6078  0.3970  0.4610
17742SOL    HW254711   5.137   6.617   5.625  1.4009  1.0861  0.4379
17743SOL     OW54712   8.138   4.369   2.045 -0.2627 -1.0352 -0.5605
17743SOL    HW154713   8.167   4.366   1.954 -1.2873  0.4209 -0.9498
17743SOL    HW254714   8.059   4.315   2.047 -0.4482 -0.7679 -0.6184
17744SOL     OW54715   7.500   5.713   8.296 -0.0588  0.3672 -0.4143
17744SOL    HW154716   7.542   5.635   8.260  1.5483  1.0784 -0.1276
17744SOL    HW254717   7.570   5.759   8.342 -0.5586  2.9324 -2.1166
17745SOL     OW54718   5.471   3.993   4.629 -0.0021  0.3357  0.2176
17745SOL    HW154719   5.468   3.995   4.534 -0.9768 -2.4367  0.1470
17745SOL    HW254720   5.522   4.071   4.653 -1.4648  2.2086 -2.4413
17746SOL     OW54721   0.258   0.170   0.725 -0.1554 -0.7539 -0.1142
17746SOL    HW154722   0.166   0.181   0.749  0.1879  1.5679  0.2593
17746SOL    HW254723   0.260   0.187   0.631  0.1910  1.3800  0.2521
17747SOL     OW54724   6.848   3.156   4.050 -0.1583 -0.0202  0.0514
17747SOL    HW154725   6.796   3.077   4.066  0.1833 -0.1911  0.3295
17747SOL    HW254726   6.877   3.148   3.959  1.0927 -0.9354  0.5229
17748SOL     OW54727   6.347   4.881   2.880  0.4981 -0.0576 -0.0777
17748SOL    HW154728   6.287   4.915   2.946 -1.8187  2.4243 -3.3027
17748SOL    HW254729   6.414   4.949   2.870 -0.0730  0.3293 -1.4006
17749SOL     OW54730   0.521   4.277   2.645 -0.1575  0.5542  0.1139
17749SOL    HW154731   0.607   4.292   2.606  0.8347 -1.4214  1.4598
17749SOL    HW254732   0.521   4.328   2.726 -0.5461  1.1469 -0.2548
17750SOL     OW54733   1.584   4.925   5.133  0.0381 -0.6239  0.0573
17750SOL    HW154734   1.564   4.898   5.222  1.0771 -1.3395  0.0847
17750SOL    HW254735   1.560   5.018   5.130 -4.2504 -1.6721 -0.2557
17751SOL     OW54736   6.358   1.393   6.993  0.2406 -0.6067  0.2785
17751SOL    HW154737   6.281   1.418   7.045  1.6355  1.0435  1.6504
17751SOL    HW254738   6.406   1.333   7.050  0.3838 -0.9824 -0.2400
17752SOL     OW54739   4.020   8.096   0.475 -0.4541 -0.5232  0.2943
17752SOL    HW154740   4.108   8.129   0.491 -0.2655 -0.7921 -0.1706
17752SOL    HW254741   3.963   8.172   0.486 -0.3683 -0.7620  2.5060
17753SOL     OW54742   5.730   8.110   6.841 -0.4032 -0.7523  0.7489
17753SOL    HW154743   5.788   8.131   6.914 -0.2911 -1.1755  0.7880
17753SOL    HW254744   5.744   8.181   6.778  1.3569 -1.6370  0.0734
17754SOL     OW54745   0.663   4.145   1.275 -0.2641 -0.0608 -0.4913
17754SOL    HW154746   0.685   4.200   1.200 -0.9413  0.6957 -0.1319
17754SOL    HW254747   0.683   4.199   1.351  0.2748 -0.7761 -0.1172
17755SOL     OW54748   1.642   0.552   7.707 -0.3484 -0.0080  0.2336
17755SOL    HW154749   1.653   0.458   7.715 -1.0554 -0.2884 -1.8035
17755SOL    HW254750   1.597   0.564   7.624  0.8377  2.1970 -0.1376
17756SOL     OW54751   2.788   6.443   8.231  0.1113  0.2448  0.2362
17756SOL    HW154752   2.869   6.401   8.200 -0.1709 -0.1224 -0.0112
17756SOL    HW254753   2.817   6.526   8.268  0.7422 -0.3972  1.2092
17757SOL     OW54754   3.717   3.449   0.680  0.3668  0.0686  0.1397
17757SOL    HW154755   3.778   3.375   0.683 -0.6547 -0.8435 -0.9809
17757SOL    HW254756   3.675   3.449   0.766  0.6236 -0.4353  0.2661
17758SOL     OW54757   0.163   2.625   1.504 -0.3892  0.2540 -1.0102
17758SOL    HW154758   0.193   2.661   1.421 -1.1571  0.6946 -1.1001
17758SOL    HW254759   0.087   2.571   1.480 -0.0967 -0.2969 -0.7027
17759SOL     OW54760   4.000   4.578   2.391 -0.3670 -0.0983 -0.2246
17759SOL    HW154761   4.005   4.659   2.442  1.1389 -0.7284  0.6385
17759SOL    HW254762   4.087   4.568   2.353 -0.9172 -0.6576 -1.3691
17760SOL     OW54763   7.791   2.595   6.967  0.4424  0.2134 -0.0603
17760SOL    HW154764   7.754   2.512   6.937 -0.0099 -0.5195  2.4428
17760SOL    HW254765   7.861   2.613   6.905  0.3196 -1.8784 -0.8508
17761SOL     OW54766   0.596   1.108   1.965 -0.1108 -0.2382  0.3140
17761SOL    HW154767   0.534   1.143   2.029  0.1511  0.4882  0.1675
17761SOL    HW254768   0.676   1.158   1.979  0.7930 -1.8824  1.2185
17762SOL     OW54769   6.598   3.135   8.005  0.2315 -0.5388  0.1933
17762SOL    HW154770   6.630   3.225   8.012  0.2650 -0.5553  0.2498
17762SOL    HW254771   6.510   3.137   8.043 -0.9457  0.1040 -2.3805
17763SOL     OW54772   2.044   5.425   2.064  0.1012  0.3236  0.3028
17763SOL    HW154773   2.126   5.454   2.024 -1.0469 -0.2646 -2.5280
17763SOL    HW254774   1.990   5.504   2.069  0.3081  0.4315  0.8757
17764SOL     OW54775   0.008   7.835   2.695  0.0277  0.0959  0.1765
17764SOL    HW154776  -0.085   7.855   2.685 -0.0979 -0.7732 -0.4885
17764SOL    HW254777   0.030   7.865   2.783 -0.5597  1.5127 -0.1571
17765SOL     OW54778   5.349   5.259   7.323  0.1132  0.3916  0.1727
17765SOL    HW154779   5.371   5.255   7.416  1.4575  0.6132 -0.1320
17765SOL    HW254780   5.341   5.168   7.296 -2.2019  0.3238  0.9292
17766SOL     OW54781   0.701   1.790   2.420  0.1728 -0.4365 -0.6190
17766SOL    HW154782   0.696   1.885   2.431  0.3756 -0.3862 -0.9420
17766SOL    HW254783   0.772   1.763   2.478  1.1440 -0.1904 -1.6649
17767SOL     OW54784   0.973   5.076   5.195  0.1989  0.6101  0.7007
17767SOL    HW154785   1.008   5.160   5.164  1.1783 -0.2002 -0.4548
17767SOL    HW254786   1.025   5.010   5.149  0.0345 -0.6453  2.2670
17768SOL     OW54787   4.836   5.580   6.288 -0.1378  0.4510 -0.1583
17768SOL    HW154788   4.903   5.531   6.240 -0.3924 -1.5685  1.5131
17768SOL    HW254789   4.886   5.637   6.347  0.1449 -0.2828  0.3222
17769SOL     OW54790   1.497   4.028   5.864 -0.0044  0.2523  0.0873
17769SOL    HW154791   1.415   4.007   5.820  0.3512  1.5107 -1.1912
17769SOL    HW254792   1.563   3.978   5.817  0.2702  0.9823 -0.2962
17770SOL     OW54793   0.872   5.184   4.910 -0.5508 -0.0307  0.2787
17770SOL    HW154794   0.917   5.200   4.993  1.9286 -2.8226 -0.4398
17770SOL    HW254795   0.923   5.232   4.845 -1.3731  0.5962  0.0893
17771SOL     OW54796   2.691   1.969   3.189 -0.2874  0.1134 -0.1014
17771SOL    HW154797   2.645   1.893   3.153 -0.2848 -0.0622  0.2648
17771SOL    HW254798   2.769   1.932   3.231 -0.3075  0.3120  0.1121
17772SOL     OW54799   4.593   7.560   2.986 -0.4473  0.0345 -0.5200
17772SOL    HW154800   4.638   7.550   3.070 -1.2099 -4.2621 -0.4996
17772SOL    HW254801   4.655   7.524   2.922 -1.1514  0.2952 -1.3532
17773SOL     OW54802   4.596   5.818   7.863 -0.1007 -0.6219 -0.0632
17773SOL    HW154803   4.563   5.866   7.939 -0.8137 -0.8963 -0.1956
17773SOL    HW254804   4.598   5.727   7.891  1.1289 -0.5412  0.1447
17774SOL     OW54805   7.513   1.859   6.802  0.0931  0.0284 -0.5000
17774SOL    HW154806   7.512   1.917   6.726 -0.1122  1.3713  0.5139
17774SOL    HW254807   7.606   1.847   6.823  0.1033  0.9763  0.0215
17775SOL     OW54808   6.346   2.358   8.198  0.4234 -0.1709 -0.2104
17775SOL    HW154809   6.393   2.436   8.168 -0.4046  0.9358  1.2851
17775SOL    HW254810   6.401   2.284   8.170  2.0118  1.0115 -0.2840
17776SOL     OW54811   5.344   0.627   1.230  0.2368 -0.0605 -0.0967
17776SOL    HW154812   5.258   0.669   1.239  1.2716  1.6642  2.4049
17776SOL    HW254813   5.395   0.687   1.177  0.5756 -0.0045  0.2943
17777SOL     OW54814   8.285   7.033   0.789 -0.7072 -0.4655 -0.1392
17777SOL    HW154815   8.284   6.940   0.813  1.4324 -0.7646 -1.1243
17777SOL    HW254816   8.237   7.036   0.706 -0.5493 -0.7196 -0.2392
17778SOL     OW54817   2.979   0.699   8.207  0.0210  0.0632  0.0939
17778SOL    HW154818   3.012   0.787   8.227 -2.5919  1.3205 -0.8907
17778SOL    HW254819   3.020   0.676   8.124  0.1047  0.6963 -0.0456
17779SOL     OW54820   7.246   2.264   6.494  0.0328 -0.9636 -0.2680
17779SOL    HW154821   7.323   2.228   6.451  0.9876 -2.2025  2.3317
17779SOL    HW254822   7.264   2.357   6.502  2.4269 -1.5788  2.4268
17780SOL     OW54823   7.373   7.780   0.306 -0.5425  0.1161 -0.0019
17780SOL    HW154824   7.410   7.850   0.251  0.6210  0.1360  0.7749
17780SOL    HW254825   7.290   7.759   0.265 -0.9471  2.0074 -0.2209
17781SOL     OW54826   4.352   7.468   4.378  0.1661 -0.4295 -0.4647
17781SOL    HW154827   4.259   7.461   4.359  0.0039  0.2358  0.0826
17781SOL    HW254828   4.372   7.391   4.431 -0.4284  0.2554  0.7947
17782SOL     OW54829   5.705   0.972   3.048 -0.4693  0.1800 -0.4207
17782SOL    HW154830   5.766   0.907   3.083  0.1190  0.7724 -0.3550
17782SOL    HW254831   5.759   1.047   3.026 -1.3893  1.3274  1.1664
17783SOL     OW54832   5.921   5.581   1.208  0.3634 -0.1679 -0.2483
17783SOL    HW154833   5.832   5.563   1.177  0.0089 -0.1182  0.7509
17783SOL    HW254834   5.976   5.564   1.131 -0.6668  1.4622 -1.3776
17784SOL     OW54835   2.077   8.250   6.380  0.5852 -0.1409  0.2488
17784SOL    HW154836   2.026   8.239   6.300  0.7105 -0.5447  0.2251
17784SOL    HW254837   2.145   8.313   6.357  0.7232 -0.3861 -0.0063
17785SOL     OW54838   0.458   0.510   7.674  0.2579 -0.7015  0.4144
17785SOL    HW154839   0.467   0.556   7.591  0.3941 -0.0486  0.7882
17785SOL    HW254840   0.433   0.421   7.650  0.1127 -0.4613 -0.3151
17786SOL     OW54841   3.149   5.430   3.278  0.2323 -0.1259  0.3503
17786SOL    HW154842   3.080   5.462   3.337  0.8219  1.5252  0.1776
17786SOL    HW254843   3.149   5.493   3.206  1.8056 -0.2263  0.2527
17787SOL     OW54844   5.281   3.739   0.114  0.4741  0.0012  0.0569
17787SOL    HW154845   5.222   3.763   0.042 -0.2550  0.8542  0.9257
17787SOL    HW254846   5.340   3.814   0.122 -1.2049  1.1920  2.1445
17788SOL     OW54847   0.809   5.493   4.413  0.3581 -0.2783  0.1687
17788SOL    HW154848   0.805   5.509   4.318 -0.0756  0.0602  0.2415
17788SOL    HW254849   0.788   5.400   4.423  2.0336 -0.7212 -0.1944
17789SOL     OW54850   7.025   3.471   7.280 -0.0378  0.0516  0.0533
17789SOL    HW154851   7.039   3.376   7.286 -1.8674 -0.3094 -1.1167
17789SOL    HW254852   7.090   3.500   7.217  1.0764 -0.2889  1.0245
17790SOL     OW54853   2.072   2.182   3.879  0.2949 -0.4458  0.3864
17790SOL    HW154854   2.050   2.203   3.969 -0.1210 -1.4765  0.5341
17790SOL    HW254855   2.068   2.266   3.833  0.1956  0.0316  1.2535
17791SOL     OW54856   1.829   0.632   4.084  0.7078  0.3119  0.2733
17791SOL    HW154857   1.791   0.658   4.167  1.9285  0.0234  0.9271
17791SOL    HW254858   1.860   0.542   4.098  1.2739  0.3993 -0.3697
17792SOL     OW54859   4.721   1.635   1.730 -0.0926 -0.6569  0.3774
17792SOL    HW154860   4.670   1.678   1.799 -0.4519 -1.7867  0.8298
17792SOL    HW254861   4.671   1.557   1.708 -0.5652  0.2857 -2.0034
17793SOL     OW54862   5.069   6.319   2.602  0.1879  0.1081 -0.0030
17793SOL    HW154863   5.058   6.397   2.548  0.4170  0.1999  0.0831
17793SOL    HW254864   5.161   6.295   2.592  0.4587  0.6732  1.0985
17794SOL     OW54865   4.794   3.880   2.639 -0.4070  0.3246  0.0863
17794SOL    HW154866   4.864   3.884   2.704 -1.4287 -1.5395  1.3496
17794SOL    HW254867   4.839   3.864   2.556  0.5819 -3.0475  1.1892
17795SOL     OW54868   6.461   5.853   6.173 -0.5413 -0.8406 -0.4761
17795SOL    HW154869   6.446   5.800   6.094 -0.4025 -0.0862 -1.0152
17795SOL    HW254870   6.556   5.860   6.179 -0.5906  1.1537 -1.6355
17796SOL     OW54871   5.585   0.758   1.716 -0.1786 -0.1094  0.1427
17796SOL    HW154872   5.542   0.810   1.784 -0.7463 -0.0747 -0.2315
17796SOL    HW254873   5.516   0.743   1.650  0.1107 -0.9069  0.0086
17797SOL     OW54874   7.427   4.401   0.329  0.1918  0.4126  0.4030
17797SOL    HW154875   7.424   4.488   0.368  0.5042 -1.4930  5.0481
17797SOL    HW254876   7.362   4.350   0.377  0.4584 -2.1266 -1.7665
17798SOL     OW54877   3.648   0.545   0.934 -0.2918  0.1334  0.1026
17798SOL    HW154878   3.707   0.568   1.006  0.5177  0.2806 -0.5958
17798SOL    HW254879   3.638   0.627   0.885 -1.5473  0.2485  0.5501
17799SOL     OW54880   0.399   1.459   1.621  0.0311  0.4610 -0.1063
17799SOL    HW154881   0.332   1.499   1.677 -1.6687 -0.1236 -1.6689
17799SOL    HW254882   0.365   1.371   1.602  1.4286  0.0233 -0.6034
17800SOL     OW54883   3.476   2.306   0.379  0.2200  0.4442  0.3633
17800SOL    HW154884   3.439   2.242   0.318  0.4794 -0.9795  1.6650
17800SOL    HW254885   3.568   2.311   0.355  0.6668 -1.3086  1.6260
17801SOL     OW54886   3.554   2.225   1.700  0.2576  0.1387  0.4370
17801SOL    HW154887   3.593   2.292   1.756 -0.8385  0.6469  0.6187
17801SOL    HW254888   3.542   2.149   1.756 -3.3594  1.5296  1.6785
17802SOL     OW54889   2.518   8.089   6.612  0.0311  0.3305 -0.5801
17802SOL    HW154890   2.486   8.179   6.617 -0.9539 -0.0527  0.1965
17802SOL    HW254891   2.613   8.097   6.607 -0.0334  1.4007 -0.1657
17803SOL     OW54892   0.832   1.283   2.416  0.8728 -0.1730 -0.3664
17803SOL    HW154893   0.752   1.283   2.364  0.6975 -0.0001 -0.0941
17803SOL    HW254894   0.898   1.320   2.357  0.7437 -0.2708 -0.5726
17804SOL     OW54895   4.633   7.180   3.310 -0.1443 -0.8578  0.3715
17804SOL    HW154896   4.671   7.166   3.223 -1.8932  0.6574 -0.6589
17804SOL    HW254897   4.551   7.226   3.294  0.8366  1.9613  2.9836
17805SOL     OW54898   6.206   7.791   0.223 -0.1109 -0.2835  0.1249
17805SOL    HW154899   6.270   7.720   0.211  1.2406  1.0360 -0.6595
17805SOL    HW254900   6.171   7.806   0.135 -2.2186 -1.6085  0.6928
17806SOL     OW54901   6.824   7.149   4.070  0.4805 -0.3337  0.1568
17806SOL    HW154902   6.735   7.160   4.101  0.5279 -2.6768  1.2520
17806SOL    HW254903   6.816   7.098   3.989  0.6103  2.6169 -1.7863
17807SOL     OW54904   1.049   0.100   2.818 -0.1518 -0.3051  0.0189
17807SOL    HW154905   1.043   0.073   2.910 -1.0873 -1.0075 -0.2522
17807SOL    HW254906   1.079   0.022   2.772 -0.4800 -0.1835 -0.3986
17808SOL     OW54907   4.413   2.889   3.151 -0.3111 -0.5328  0.0838
17808SOL    HW154908   4.439   2.944   3.224 -0.0116  1.0116 -1.1485
17808SOL    HW254909   4.377   2.950   3.087 -0.1176 -1.7857 -1.2516
17809SOL     OW54910   8.216   1.992   5.069  0.4481  0.1223 -0.8933
17809SOL    HW154911   8.225   2.083   5.040  1.1099  0.0727 -0.8462
17809SOL    HW254912   8.261   1.989   5.153  0.2525 -0.2031 -0.8010
17810SOL     OW54913   4.024   0.694   6.072 -1.2289  0.0908  0.4866
17810SOL    HW154914   4.035   0.787   6.093  0.3064 -0.1416  0.7883
17810SOL    HW254915   4.089   0.677   6.003 -1.0679 -0.8937  0.8662
17811SOL     OW54916   3.724   7.712   6.684  0.1467  0.4526  0.4989
17811SOL    HW154917   3.654   7.777   6.694  0.5264  1.0773 -0.8236
17811SOL    HW254918   3.762   7.731   6.599  0.1571 -1.6392  0.0180
17812SOL     OW54919   7.297   2.060   4.809  0.5125 -0.2675 -0.0659
17812SOL    HW154920   7.332   2.003   4.877 -0.2865 -0.8027 -0.0900
17812SOL    HW254921   7.258   2.134   4.857 -1.2658 -1.3209  0.1487
17813SOL     OW54922   0.225   2.603   6.261 -0.3344 -0.0265  0.3299
17813SOL    HW154923   0.178   2.634   6.338 -0.9426  1.0651 -0.4658
17813SOL    HW254924   0.166   2.620   6.188 -0.2675 -2.1992 -0.2430
17814SOL     OW54925   4.954   5.338   7.099 -0.0627 -0.6203  0.4395
17814SOL    HW154926   5.046   5.317   7.082 -0.3022 -2.0311  0.7499
17814SOL    HW254927   4.945   5.430   7.075  1.2320 -0.6917 -0.3704
17815SOL     OW54928   2.159   1.923   3.661 -0.3042  0.2483 -0.5345
17815SOL    HW154929   2.205   1.978   3.725  0.8707 -0.8634 -0.3960
17815SOL    HW254930   2.201   1.943   3.578 -0.1328 -0.1377 -0.5448
17816SOL     OW54931   2.242   0.508   1.605 -0.1508 -0.3329 -0.4210
17816SOL    HW154932   2.313   0.560   1.644  0.0957 -0.8889 -0.1263
17816SOL    HW254933   2.162   0.552   1.633 -0.0542 -1.6319  2.0791
17817SOL     OW54934   8.128   2.312   1.377 -0.7868 -0.8738 -0.3990
17817SOL    HW154935   8.158   2.228   1.413  0.6510  0.0189  0.5335
17817SOL    HW254936   8.106   2.364   1.454 -2.9897 -0.8376 -1.0120
17818SOL     OW54937   4.242   8.253   0.566  0.5662  0.1919  0.1722
17818SOL    HW154938   4.262   8.347   0.575  1.9251 -0.0259 -0.4644
17818SOL    HW254939   4.319   8.209   0.602 -0.6462 -0.7020  1.7494
17819SOL     OW54940   3.123   5.227   0.180 -0.2181  0.0138  0.6615
17819SOL    HW154941   3.031   5.253   0.175 -0.1370  0.3148  0.6986
17819SOL    HW254942   3.122   5.132   0.168 -0.5858 -0.0603  1.2486
17820SOL     OW54943   0.078   5.104   2.894  0.3265 -0.2705  0.0627
17820SOL    HW154944   0.101   5.106   2.802 -0.0849 -0.8762 -0.0554
17820SOL    HW254945   0.055   5.194   2.915  1.4018  0.0649 -0.1716
17821SOL     OW54946   3.674   3.837   7.003 -0.1934  0.2367  0.0426
17821SOL    HW154947   3.627   3.755   7.013  0.1030 -0.0439 -0.8913
17821SOL    HW254948   3.725   3.846   7.085 -1.2827  0.1831  0.7333
17822SOL     OW54949   6.664   5.889   7.917  0.0876  0.1234 -0.5054
17822SOL    HW154950   6.625   5.848   7.994  0.0929 -0.6055 -0.8806
17822SOL    HW254951   6.607   5.964   7.898  1.2743  1.5521  1.4297
17823SOL     OW54952   3.823   0.734   4.866 -0.2452  0.2625 -0.0386
17823SOL    HW154953   3.745   0.744   4.813  1.3529 -0.3574 -2.5666
17823SOL    HW254954   3.892   0.778   4.816  1.6032 -1.6417  0.7782
17824SOL     OW54955   3.699   1.879   1.471  0.3575  0.4950  0.1587
17824SOL    HW154956   3.604   1.869   1.474  0.4952 -0.5374  1.1704
17824SOL    HW254957   3.714   1.973   1.485 -0.4429  0.4323  1.5342
17825SOL     OW54958   5.301   1.999   2.745 -0.4051  0.2203 -0.2911
17825SOL    HW154959   5.379   1.964   2.789 -0.5385  1.4958  0.9948
17825SOL    HW254960   5.230   1.984   2.807 -0.9596  0.2327 -0.9228
17826SOL     OW54961   3.236   0.399   8.071  0.0919 -0.1890 -0.1474
17826SOL    HW154962   3.205   0.312   8.094 -1.1728  0.1150 -0.6377
17826SOL    HW254963   3.231   0.449   8.153 -0.8357 -0.1248 -0.2288
17827SOL     OW54964   3.008   7.350   6.217 -0.0693  0.0684 -0.4249
17827SOL    HW154965   2.983   7.433   6.257 -0.0821  0.1816 -0.6696
17827SOL    HW254966   2.963   7.349   6.133 -1.7267 -1.0887  0.4317
17828SOL     OW54967   2.538   1.394   7.425  0.5062  0.0891  0.0356
17828SOL    HW154968   2.450   1.424   7.404  0.4597  0.9876  1.4440
17828SOL    HW254969   2.525   1.308   7.466  0.2656  0.2910  0.3864
17829SOL     OW54970   2.882   0.090   2.057  0.5623  0.1352  0.6179
17829SOL    HW154971   2.814   0.049   2.110  1.7225 -1.1825  1.1266
17829SOL    HW254972   2.850   0.179   2.040 -1.1307 -0.3761  1.0903
17830SOL     OW54973   5.961   0.266   0.932  0.0660  0.0850  0.1751
17830SOL    HW154974   6.000   0.239   1.014  0.6877 -1.0818 -0.4928
17830SOL    HW254975   5.882   0.315   0.957  0.3143 -0.1688  1.4489
17831SOL     OW54976   1.940   6.269   5.680 -0.2451  0.0247 -0.1372
17831SOL    HW154977   2.000   6.342   5.667 -0.6786  0.4099  0.0107
17831SOL    HW254978   1.967   6.204   5.615 -0.3787  0.6429 -0.8199
17832SOL     OW54979   3.821   2.792   0.311 -0.5825 -0.1901  0.4029
17832SOL    HW154980   3.812   2.877   0.269 -0.1001 -0.5553 -0.4412
17832SOL    HW254981   3.745   2.742   0.281  0.0770 -0.6493 -0.5086
17833SOL     OW54982   1.497   2.647   5.856  0.0496 -0.3100  0.0774
17833SOL    HW154983   1.572   2.664   5.913  1.9904 -2.6300 -1.6697
17833SOL    HW254984   1.486   2.728   5.807  1.4116  0.0766  0.3688
17834SOL     OW54985   1.373   5.122   1.712 -0.5833  0.0645 -1.0424
17834SOL    HW154986   1.420   5.106   1.630 -1.3838  0.8777 -1.6720
17834SOL    HW254987   1.339   5.211   1.703  0.5094  0.6874  0.7680
17835SOL     OW54988   2.677   1.853   3.822  0.3449  0.6051 -0.4575
17835SOL    HW154989   2.669   1.870   3.728 -1.4565 -0.9559 -0.6231
17835SOL    HW254990   2.757   1.898   3.848  1.1498  0.6243 -2.8501
17836SOL     OW54991   2.135   5.811   6.205  0.4966  0.1547  0.0790
17836SOL    HW154992   2.146   5.779   6.294 -0.5790  1.1138  0.5654
17836SOL    HW254993   2.142   5.733   6.150 -1.0790 -0.7726  1.1716
17837SOL     OW54994   0.401   4.802   2.199 -0.0226  0.2647  0.6739
17837SOL    HW154995   0.408   4.709   2.219  1.4382  0.2257  0.0284
17837SOL    HW254996   0.363   4.806   2.112  0.5633  0.2567  0.4183
17838SOL     OW54997   4.058   3.420   4.528  0.5228  0.0350  0.1485
17838SOL    HW154998   4.054   3.514   4.508  1.8291  0.4061  1.5377
17838SOL    HW254999   4.139   3.410   4.578  0.3638 -1.8350  0.0513
17839SOL     OW55000   0.297   8.291   0.027  0.0889 -0.0667  0.1816
17839SOL    HW155001   0.211   8.249   0.026 -0.1915  0.4857  1.0403
17839SOL    HW255002   0.355   8.225   0.066 -0.0272 -0.2733  0.0054
17840SOL     OW55003   2.175   6.841   5.566  0.4134 -0.0753  0.2625
17840SOL    HW155004   2.251   6.817   5.619  0.2644 -0.6577  0.2240
17840SOL    HW255005   2.187   6.793   5.484  0.9344  1.2648 -0.4650
17841SOL     OW55006   4.414   7.536   1.669  0.3405  0.0536 -0.1033
17841SOL    HW155007   4.335   7.486   1.689  0.1155  0.4794  0.0681
17841SOL    HW255008   4.472   7.473   1.626  0.4967 -0.6516  1.1094
17842SOL     OW55009   7.167   5.346   2.404 -0.4730 -0.3890 -0.2739
17842SOL    HW155010   7.159   5.401   2.482 -1.1498  0.1110 -0.6912
17842SOL    HW255011   7.079   5.309   2.392 -1.0623  1.5805 -2.2948
17843SOL     OW55012   5.836   6.764   4.472  0.8034 -0.1579 -0.0116
17843SOL    HW155013   5.810   6.856   4.478  0.3622 -0.2504 -0.3931
17843SOL    HW255014   5.753   6.716   4.468  0.9802 -0.7512  2.3828
17844SOL     OW55015   4.740   5.001   1.816  0.4124  0.4638  0.0685
17844SOL    HW155016   4.705   5.012   1.728 -0.1008 -0.0104  0.2139
17844SOL    HW255017   4.686   5.059   1.871  0.1240  0.0496  0.2240
17845SOL     OW55018   4.219   0.759   6.854 -0.0582  0.6093 -0.4439
17845SOL    HW155019   4.222   0.848   6.889 -0.5690  0.0543  1.0722
17845SOL    HW255020   4.125   0.742   6.843  0.0410  0.2638 -0.7386
17846SOL     OW55021   5.428   6.844   3.773  0.8461  0.3310 -1.0817
17846SOL    HW155022   5.473   6.780   3.828  1.0225 -0.0221 -1.6334
17846SOL    HW255023   5.337   6.843   3.803  0.7284 -0.5917 -1.4765
17847SOL     OW55024   1.916   8.039   4.650 -0.2606  0.5662  0.6298
17847SOL    HW155025   1.968   7.975   4.699 -0.9283  0.4241  1.1564
17847SOL    HW255026   1.876   8.094   4.717  2.2996  3.1354  0.1252
17848SOL     OW55027   2.664   3.716   2.359 -0.1071 -0.2839  0.1358
17848SOL    HW155028   2.699   3.665   2.286 -1.2849  0.9987 -1.3720
17848SOL    HW255029   2.714   3.687   2.435  2.0527 -0.7277 -1.4026
17849SOL     OW55030   6.859   2.341   2.688 -0.5575  0.9310  0.6206
17849SOL    HW155031   6.832   2.282   2.619  1.0951 -0.6594  1.3089
17849SOL    HW255032   6.917   2.404   2.645 -1.5277  1.4631  0.0842
17850SOL     OW55033   4.183   4.434   4.084 -0.1027 -0.4822  0.1941
17850SOL    HW155034   4.241   4.472   4.150  2.4572 -1.5303 -1.3657
17850SOL    HW255035   4.158   4.509   4.030 -0.8338  0.1072  1.3364
17851SOL     OW55036   7.586   1.443   2.337  0.0923 -0.2599  0.4498
17851SOL    HW155037   7.530   1.478   2.406 -1.1114 -0.2015 -0.5233
17851SOL    HW255038   7.554   1.353   2.324 -0.7009  0.2232 -1.0539
17852SOL     OW55039   7.875   3.881   0.469  0.6326  0.1208 -0.1773
17852SOL    HW155040   7.901   3.901   0.379  1.4359 -1.6824 -0.3631
17852SOL    HW255041   7.957   3.878   0.518  0.3025 -0.0633  0.3650
17853SOL     OW55042   2.762   7.561   4.180  0.0411  0.1607 -0.4171
17853SOL    HW155043   2.721   7.644   4.155 -0.4724  0.3190  0.8724
17853SOL    HW255044   2.803   7.579   4.264  0.8710 -0.6077 -0.6505
17854SOL     OW55045   4.730   7.767   6.368 -0.7940  0.2006 -0.1814
17854SOL    HW155046   4.651   7.805   6.407  0.1846  1.1177  0.9327
17854SOL    HW255047   4.802   7.820   6.403  0.7051 -3.2028  2.0366
17855SOL     OW55048   1.504   5.176   5.195  0.6591  0.1818  0.5920
17855SOL    HW155049   1.421   5.176   5.243  1.7562 -0.9305  2.5604
17855SOL    HW255050   1.550   5.253   5.228  0.8652  0.1722  0.3246
17856SOL     OW55051   1.198   2.430   0.629  0.1668 -0.8330  0.2605
17856SOL    HW155052   1.125   2.376   0.601  0.4076 -1.5963  1.0690
17856SOL    HW255053   1.271   2.369   0.640  0.9549 -0.0736 -0.6034
17857SOL     OW55054   6.549   0.758   2.718 -0.4620 -0.3327 -0.2819
17857SOL    HW155055   6.474   0.816   2.704 -0.0065 -0.0080 -1.4419
17857SOL    HW255056   6.515   0.670   2.700 -1.0019 -0.3797  0.9014
17858SOL     OW55057   0.855   2.108   5.381  0.3135 -0.3006 -0.2881
17858SOL    HW155058   0.781   2.051   5.362  1.5791 -2.0520 -0.1585
17858SOL    HW255059   0.861   2.166   5.305 -1.5248  0.2262 -0.0356
17859SOL     OW55060   5.593   3.761   7.400  0.3443  0.1208  0.2092
17859SOL    HW155061   5.579   3.667   7.385 -2.5322  0.4394  0.5035
17859SOL    HW255062   5.640   3.766   7.483  0.6270 -1.0689  0.1254
17860SOL     OW55063   7.269   1.235   3.943 -0.7255 -0.4103  0.2391
17860SOL    HW155064   7.339   1.261   4.002 -1.3240 -1.6898  1.5575
17860SOL    HW255065   7.214   1.177   3.996 -1.0632 -1.9027 -1.6953
17861SOL     OW55066   2.160   6.813   1.407 -0.2710 -0.1410  0.1833
17861SOL    HW155067   2.124   6.863   1.333 -1.5684 -1.4440 -0.1099
17861SOL    HW255068   2.250   6.843   1.415 -0.6592  1.3414 -0.7626
17862SOL     OW55069   0.068   3.339   0.594 -0.3433 -0.2211 -0.2715
17862SOL    HW155070  -0.016   3.320   0.553 -1.6441  2.0925  1.1684
17862SOL    HW255071   0.045   3.387   0.674  2.3062 -0.4384  0.6811
17863SOL     OW55072   0.131   5.060   2.064 -0.5761  0.0097 -0.2728
17863SOL    HW155073   0.102   5.071   2.155 -0.1404 -0.5152 -0.0665
17863SOL    HW255074   0.220   5.094   2.063  0.4398 -2.5388  0.1515
17864SOL     OW55075   2.740   7.872   5.960  0.1605  0.6050 -0.0921
17864SOL    HW155076   2.750   7.777   5.971 -1.8633  0.2787 -0.8384
17864SOL    HW255077   2.679   7.881   5.887  1.0412  2.5137 -0.6252
17865SOL     OW55078   8.310   1.256   2.209 -0.5632 -0.3514  0.0255
17865SOL    HW155079   8.294   1.194   2.137  1.0871 -0.0792 -0.5983
17865SOL    HW255080   8.223   1.273   2.245 -1.1732 -2.2131 -0.4746
17866SOL     OW55081   7.747   0.697   2.468 -0.2855 -0.7491  0.2960
17866SOL    HW155082   7.711   0.614   2.437  1.2279 -1.1109 -0.5612
17866SOL    HW255083   7.671   0.754   2.478 -0.8895 -0.5087 -4.3994
17867SOL     OW55084   5.132   1.783   2.637  0.4298  0.6442  0.2646
17867SOL    HW155085   5.163   1.781   2.546  1.1963  0.7267  0.5223
17867SOL    HW255086   5.147   1.873   2.666 -1.5932  1.1382 -0.1275
17868SOL     OW55087   2.777   6.963   5.007 -0.7086  0.1280  0.0439
17868SOL    HW155088   2.737   6.932   4.926 -0.6784 -0.4484  0.2499
17868SOL    HW255089   2.751   7.055   5.013  0.5559  0.5821 -1.3942
17869SOL     OW55090   0.027   5.895   1.357 -0.1072 -0.1970  0.0961
17869SOL    HW155091   0.096   5.835   1.330  0.7748  0.7212  0.2874
17869SOL    HW255092   0.061   5.937   1.436 -1.6472 -1.0800  1.2488
17870SOL     OW55093   6.420   1.152   0.339  0.2208  1.5161 -0.4109
17870SOL    HW155094   6.462   1.066   0.345 -3.1013 -0.1138  0.5557
17870SOL    HW255095   6.447   1.186   0.254  1.7313 -0.3963 -0.7249
17871SOL     OW55096   3.668   3.363   3.401 -0.1664  0.3385 -0.5581
17871SOL    HW155097   3.620   3.368   3.319 -1.8101 -2.7174  0.1214
17871SOL    HW255098   3.600   3.367   3.469  0.9357  0.4152  0.5550
17872SOL     OW55099   7.971   7.596   7.085  0.2762  0.3079  0.1852
17872SOL    HW155100   8.034   7.537   7.044  0.1517  0.2188  0.1230
17872SOL    HW255101   8.022   7.643   7.151  0.1722 -0.5081  0.8561
17873SOL     OW55102   0.112   7.021   1.972 -0.2545  0.0583 -0.5491
17873SOL    HW155103   0.137   6.980   1.889  0.5502 -1.4191  0.3987
17873SOL    HW255104   0.021   6.995   1.985 -0.5201  0.6647 -1.1904
17874SOL     OW55105   5.860   7.024   6.113  0.2183 -0.0042 -0.2120
17874SOL    HW155106   5.894   6.944   6.072 -1.0286 -0.6967  0.0975
17874SOL    HW255107   5.840   7.082   6.039 -2.5128 -1.4434 -0.6505
17875SOL     OW55108   7.742   7.269   4.966  0.1424 -0.2401 -0.2145
17875SOL    HW155109   7.715   7.215   4.892  0.4347  1.1851 -1.3878
17875SOL    HW255110   7.660   7.296   5.008 -0.0917  0.4662 -1.1274
17876SOL     OW55111   0.875   3.398   5.066  0.3128  0.0272 -0.1297
17876SOL    HW155112   0.859   3.480   5.019  0.1159  0.7867  1.2098
17876SOL    HW255113   0.920   3.342   5.004  1.3572  1.5257 -0.7397
17877SOL     OW55114   4.482   1.219   7.073  0.4327  0.1388 -0.9349
17877SOL    HW155115   4.535   1.291   7.107  2.2654 -1.0246 -1.2669
17877SOL    HW255116   4.515   1.204   6.985 -1.6378  0.5300 -1.8102
17878SOL     OW55117   2.135   6.338   1.472  0.4941  0.1965  0.0338
17878SOL    HW155118   2.044   6.364   1.487  0.5431  1.0067 -0.9804
17878SOL    HW255119   2.169   6.406   1.414  2.2336  0.8436  1.7578
17879SOL     OW55120   4.730   5.528   7.727 -0.2619 -0.0139  0.2149
17879SOL    HW155121   4.707   5.571   7.645 -0.9892  0.0564  0.4540
17879SOL    HW255122   4.667   5.561   7.791 -1.0614 -1.6684  0.3296
17880SOL     OW55123   0.202   1.855   1.294 -0.4594 -0.2186  0.2312
17880SOL    HW155124   0.174   1.938   1.332  0.9867  0.0588  0.7330
17880SOL    HW255125   0.296   1.866   1.280 -0.5393 -1.2228 -1.1330
17881SOL     OW55126   3.673   5.962   1.172 -0.2463  0.3814 -0.3368
17881SOL    HW155127   3.692   5.868   1.172  0.0799  0.4404 -1.1761
17881SOL    HW255128   3.759   6.004   1.170 -0.4039  0.6696 -2.5726
17882SOL     OW55129   5.115   3.371   4.071  0.8887 -0.0610  0.5799
17882SOL    HW155130   5.143   3.284   4.098  0.5692  0.6393  3.3497
17882SOL    HW255131   5.059   3.356   3.995  0.1103 -2.3420  1.5706
17883SOL     OW55132   1.134   3.822   2.911 -0.3721 -0.1193 -0.4479
17883SOL    HW155133   1.170   3.825   2.822 -0.1847  0.2674 -0.3583
17883SOL    HW255134   1.131   3.913   2.939 -0.7811 -0.2080 -0.1950
17884SOL     OW55135   3.982   0.551   3.859  0.8252 -0.3044 -0.6919
17884SOL    HW155136   3.952   0.479   3.804  1.8367 -0.3990 -1.1175
17884SOL    HW255137   3.933   0.540   3.941 -0.4017 -0.3857 -1.4173
17885SOL     OW55138   1.020   3.788   4.577 -0.2370  0.3581 -0.5742
17885SOL    HW155139   0.941   3.753   4.618 -0.8124  1.5904 -0.5928
17885SOL    HW255140   1.080   3.714   4.574 -1.3745 -0.5876 -0.5218
17886SOL     OW55141   6.693   7.810   3.554  0.2811 -0.4552 -0.2356
17886SOL    HW155142   6.646   7.726   3.548 -2.0630  0.6495  1.7251
17886SOL    HW255143   6.698   7.827   3.648  0.2533  1.8901 -0.6512
17887SOL     OW55144   6.389   7.136   4.761 -0.5980 -0.3338  0.0814
17887SOL    HW155145   6.308   7.182   4.781 -0.7609  0.1891 -1.6204
17887SOL    HW255146   6.434   7.194   4.699  1.4961 -0.1808  1.6800
17888SOL     OW55147   7.265   6.502   2.836  0.2092 -0.3776 -0.5917
17888SOL    HW155148   7.249   6.592   2.862  1.0866 -0.6197  0.9037
17888SOL    HW255149   7.317   6.509   2.756  0.5740  0.4629 -0.2923
17889SOL     OW55150   2.208   1.045   6.994 -0.3050 -0.4451  0.7733
17889SOL    HW155151   2.278   1.088   6.944  0.0830 -1.0358  0.7997
17889SOL    HW255152   2.230   1.064   7.085 -0.9023  0.4644  0.7359
17890SOL     OW55153   1.540   3.672   4.357 -0.1553 -0.0587 -0.0227
17890SOL    HW155154   1.479   3.736   4.393  0.2482 -0.3950  1.2708
17890SOL    HW255155   1.557   3.612   4.429  2.1071  0.3179 -0.2222
17891SOL     OW55156   6.753   6.662   6.916  0.2652 -0.1507 -0.4872
17891SOL    HW155157   6.717   6.684   7.002 -1.2346  0.0128 -1.1425
17891SOL    HW255158   6.689   6.602   6.878  0.7426  0.0677 -1.6372
17892SOL     OW55159   0.533   7.358   4.248  0.0984  0.5776 -0.3419
17892SOL    HW155160   0.450   7.334   4.288  0.2586  1.0184  0.2532
17892SOL    HW255161   0.599   7.342   4.316  0.4202  0.8936 -0.5766
17893SOL     OW55162   3.113   3.705   0.698 -0.0243  0.3067 -0.0350
17893SOL    HW155163   3.084   3.760   0.625  0.1037  1.9185  1.1071
17893SOL    HW255164   3.181   3.757   0.741  1.2866 -1.4510  0.0915
17894SOL     OW55165   6.651   3.578   3.873  0.1668  0.4688  0.4922
17894SOL    HW155166   6.573   3.615   3.833 -0.5517 -1.4900  0.0038
17894SOL    HW255167   6.647   3.485   3.852  3.1494  0.4690 -0.3871
17895SOL     OW55168   6.909   3.420   2.741  0.6710 -0.0380 -0.1585
17895SOL    HW155169   6.845   3.362   2.782  2.4742 -1.1436  1.1711
17895SOL    HW255170   6.929   3.485   2.808  0.3271  0.7963 -0.8601
17896SOL     OW55171   8.249   8.122   3.205 -0.2873  0.3589 -0.3850
17896SOL    HW155172   8.199   8.197   3.237 -0.9961 -0.1218 -0.3648
17896SOL    HW255173   8.305   8.097   3.279  0.8931  1.6576 -0.8091
17897SOL     OW55174   5.981   8.086   4.997  0.4895  0.1649 -0.2160
17897SOL    HW155175   5.934   8.034   5.063 -0.7452 -0.9582 -1.9236
17897SOL    HW255176   6.061   8.114   5.041 -0.8289  0.4115  2.1191
17898SOL     OW55177   7.265   7.073   6.051 -0.1482  0.1706 -0.1581
17898SOL    HW155178   7.268   7.026   5.967  0.5193  1.7315 -1.0220
17898SOL    HW255179   7.318   7.151   6.037  1.8983 -0.6744  2.4400
17899SOL     OW55180   0.502   5.483   4.728  0.2571  0.3022 -0.4212
17899SOL    HW155181   0.515   5.388   4.737 -0.3916  0.1833 -0.7278
17899SOL    HW255182   0.412   5.497   4.757  0.7307  0.9874  0.7503
17900SOL     OW55183   5.758   5.908   7.552 -0.3834  0.3118  0.1266
17900SOL    HW155184   5.675   5.862   7.539 -2.0031  3.6635 -2.3166
17900SOL    HW255185   5.821   5.857   7.502 -1.2025 -1.5842  0.9655
17901SOL     OW55186   6.103   6.994   4.654  0.3412  0.1142  0.3929
17901SOL    HW155187   6.193   7.010   4.626 -0.0335  0.5196 -0.6082
17901SOL    HW255188   6.106   6.910   4.699  0.7016 -1.2897 -2.1786
17902SOL     OW55189   5.863   1.667   7.901  0.2242  0.1623 -0.5560
17902SOL    HW155190   5.793   1.633   7.845  1.6957 -1.4881 -1.4614
17902SOL    HW255191   5.847   1.761   7.905 -3.1623 -0.3947  0.8614
17903SOL     OW55192   5.470   5.591   4.001 -0.2499 -0.1065 -0.3760
17903SOL    HW155193   5.425   5.607   4.084  0.3288 -0.3260 -0.0104
17903SOL    HW255194   5.524   5.514   4.018 -1.8769 -1.5743 -1.6511
17904SOL     OW55195   7.206   0.690   0.485  0.8672  0.5148 -0.7913
17904SOL    HW155196   7.271   0.633   0.443  0.2356 -1.3611  0.7801
17904SOL    HW255197   7.127   0.638   0.489  0.8834  0.7016  2.6535
17905SOL     OW55198   7.685   5.361   6.212  0.0295 -0.0941 -0.3034
17905SOL    HW155199   7.743   5.371   6.136 -0.5325 -1.7749 -0.9896
17905SOL    HW255200   7.628   5.288   6.188  0.2782 -1.0806  2.0306
17906SOL     OW55201   6.933   2.705   4.271  0.0233  0.4906 -0.4091
17906SOL    HW155202   6.851   2.657   4.261  1.5209 -2.6067  1.3640
17906SOL    HW255203   6.906   2.792   4.302 -2.4766 -1.6210  3.8022
17907SOL     OW55204   3.188   5.968   0.136  0.0160 -0.2695 -0.0028
17907SOL    HW155205   3.241   5.928   0.068  0.8602  1.3120 -0.3092
17907SOL    HW255206   3.131   6.029   0.089 -0.4097 -0.2186  0.5680
17908SOL     OW55207   2.284   5.282   0.839 -0.0006 -0.0645  0.1401
17908SOL    HW155208   2.279   5.373   0.868 -0.4933  0.5062 -1.6475
17908SOL    HW255209   2.325   5.235   0.912  2.5471  2.0459  0.1207
17909SOL     OW55210   7.986   1.094   1.417 -0.0649 -0.2854  0.4514
17909SOL    HW155211   7.920   1.093   1.348  1.9427 -1.1045 -1.5274
17909SOL    HW255212   8.025   1.181   1.413  3.0556 -1.7264 -2.4820
17910SOL     OW55213   5.536   4.676   3.312 -0.2829 -0.2180 -0.2845
17910SOL    HW155214   5.555   4.594   3.359  0.4157 -1.1382 -2.1157
17910SOL    HW255215   5.462   4.654   3.255 -0.4079  0.5779 -0.4374
17911SOL     OW55216   2.738   6.160   4.149  0.2564 -0.0396  0.0428
17911SOL    HW155217   2.738   6.151   4.054 -0.3726 -1.3343  0.1553
17911SOL    HW255218   2.768   6.075   4.181 -1.3076 -0.2294  1.0435
17912SOL     OW55219   7.065   5.895   2.660  0.1193 -0.2006 -0.0850
17912SOL    HW155220   6.982   5.847   2.661 -1.0537  1.7466 -0.6710
17912SOL    HW255221   7.112   5.863   2.737 -0.5952 -2.2978 -0.4857
17913SOL     OW55222   5.487   6.217   2.051 -0.1855 -0.4226 -0.0114
17913SOL    HW155223   5.575   6.224   2.015 -0.3809 -0.4758 -0.4963
17913SOL    HW255224   5.482   6.126   2.082  0.1897 -0.2071  0.6990
17914SOL     OW55225   5.985   4.851   3.985 -0.6806 -0.1576  0.3946
17914SOL    HW155226   5.951   4.835   3.898  1.4435 -1.3557 -0.2346
17914SOL    HW255227   5.979   4.767   4.030  1.3504 -0.3882  0.2853
17915SOL     OW55228   0.361   6.701   7.537  0.1235 -0.1461  0.2734
17915SOL    HW155229   0.415   6.735   7.466  0.1321 -1.8502 -0.5715
17915SOL    HW255230   0.410   6.722   7.617  1.5353 -0.7184 -0.4244
17916SOL     OW55231   3.787   2.256   7.427 -0.1197  0.2438 -0.6894
17916SOL    HW155232   3.751   2.229   7.511 -1.8853 -0.4156 -1.6365
17916SOL    HW255233   3.766   2.349   7.421  0.1457  0.3260 -0.3314
17917SOL     OW55234   5.512   1.125   1.976  0.0369 -0.2293  0.2185
17917SOL    HW155235   5.503   1.183   2.051 -0.6426 -1.5978  1.2248
17917SOL    HW255236   5.587   1.069   1.997 -0.8151 -1.3318  0.3963
17918SOL     OW55237   3.494   8.031   3.809  0.2902 -0.3073 -0.4728
17918SOL    HW155238   3.432   8.102   3.795  0.5110  0.4209  1.9911
17918SOL    HW255239   3.440   7.951   3.803 -0.3189  0.1587 -1.3067
17919SOL     OW55240   8.126   7.312   4.009 -0.0196  0.0914 -0.1867
17919SOL    HW155241   8.100   7.221   4.025 -0.0036  0.0435 -0.4372
17919SOL    HW255242   8.044   7.362   4.013  0.2259  0.3503  1.9875
17920SOL     OW55243   0.287   4.133   2.358 -0.0711  0.2853  0.2466
17920SOL    HW155244   0.288   4.108   2.451 -0.3494 -2.3807 -0.4199
17920SOL    HW255245   0.360   4.195   2.349  0.0710  0.4417  2.1992
17921SOL     OW55246   3.035   4.663   4.479 -0.2958  0.2449 -0.7119
17921SOL    HW155247   3.097   4.690   4.411  0.4243 -2.4242 -1.1757
17921SOL    HW255248   2.966   4.617   4.432 -1.0604  0.5331  0.1141
17922SOL     OW55249   3.299   5.094   2.201  0.4089  0.1833 -1.2510
17922SOL    HW155250   3.214   5.104   2.159  0.0410  0.1888 -0.5253
17922SOL    HW255251   3.329   5.184   2.216  0.2629  0.1874 -0.9678
17923SOL     OW55252   3.047   4.535   4.124 -0.1115  0.0859  0.5890
17923SOL    HW155253   3.138   4.524   4.152 -0.4404 -0.7519  1.3540
17923SOL    HW255254   3.051   4.536   4.029  0.8702  1.5940  0.6314
17924SOL     OW55255   7.755   4.945   0.969 -0.4298  0.2335  0.4126
17924SOL    HW155256   7.708   4.862   0.979  0.2216  0.0170  1.9634
17924SOL    HW255257   7.843   4.919   0.941 -1.5928  0.7265 -4.0657
17925SOL     OW55258   2.333   5.230   3.532 -0.1595 -0.2994 -0.4645
17925SOL    HW155259   2.238   5.223   3.524 -0.2153  0.4211 -0.4514
17925SOL    HW255260   2.362   5.264   3.448 -0.1678  1.7991  0.3483
17926SOL     OW55261   4.141   1.943   8.296  0.2516  0.1620 -0.4563
17926SOL    HW155262   4.125   1.862   8.248 -1.7526 -0.1460  0.6620
17926SOL    HW255263   4.136   1.918   8.388  2.1464  1.0928 -0.0728
17927SOL     OW55264   6.540   6.199   6.655  0.0048 -0.4046 -0.0180
17927SOL    HW155265   6.490   6.202   6.573 -0.4144 -0.5642  0.2282
17927SOL    HW255266   6.486   6.145   6.713 -1.0530  1.9830  1.2725
17928SOL     OW55267   3.155   5.574   5.841 -0.1854 -0.6360  0.1004
17928SOL    HW155268   3.063   5.597   5.842 -0.1993 -0.6664  2.2068
17928SOL    HW255269   3.178   5.569   5.749 -1.7574  1.4953 -0.4323
17929SOL     OW55270   6.278   5.435   7.705 -0.2978 -0.0697  0.0273
17929SOL    HW155271   6.220   5.359   7.703  0.3550 -0.5425 -2.3169
17929SOL    HW255272   6.360   5.404   7.667  1.2018  0.8717  2.3278
17930SOL     OW55273   4.320   8.071   3.679  0.2151  0.2155  0.0320
17930SOL    HW155274   4.357   7.990   3.715 -0.2466  0.2158  0.5119
17930SOL    HW255275   4.227   8.052   3.668  0.6848 -0.5105 -3.1750
17931SOL     OW55276   1.652   0.333   3.961  0.4795  0.4554  0.6606
17931SOL    HW155277   1.578   0.393   3.968 -0.3964 -0.8532  3.0688
17931SOL    HW255278   1.632   0.262   4.022  3.0857 -0.6060  0.3605
17932SOL     OW55279   1.241   1.237   3.367  0.6632 -0.2692  0.5534
17932SOL    HW155280   1.291   1.227   3.286 -2.1806 -0.9583 -1.1898
17932SOL    HW255281   1.261   1.327   3.395  2.0913 -0.1899 -0.5989
17933SOL     OW55282   4.806   2.439   3.560  0.0351  0.1452  0.9696
17933SOL    HW155283   4.878   2.393   3.602  0.5023  0.6406  0.7166
17933SOL    HW255284   4.812   2.415   3.468  2.3297  3.3030  0.2112
17934SOL     OW55285   0.539   4.822   3.142  0.2456 -0.6807  0.7147
17934SOL    HW155286   0.626   4.856   3.122  0.0986 -0.7545 -0.0639
17934SOL    HW255287   0.530   4.745   3.085 -0.4416 -0.5018  0.5814
17935SOL     OW55288   2.786   0.173   7.637 -0.1486  0.1559 -0.1931
17935SOL    HW155289   2.780   0.204   7.728 -0.2651  0.3365 -0.2621
17935SOL    HW255290   2.743   0.087   7.638  0.2470 -0.0438  0.0170
17936SOL     OW55291   1.702   5.997   3.946  0.6885 -0.0694 -0.1354
17936SOL    HW155292   1.743   5.937   4.008  0.5460  0.7805  0.8018
17936SOL    HW255293   1.670   6.069   4.001 -0.9200 -0.1123 -1.0205
17937SOL     OW55294   3.407   0.997   0.794 -0.6342 -0.4339 -0.1680
17937SOL    HW155295   3.339   1.061   0.814 -1.5752 -1.2767 -0.6032
17937SOL    HW255296   3.487   1.034   0.831 -0.7506  1.9941 -2.2647
17938SOL     OW55297   6.403   0.111   5.763  0.6556  0.3160 -0.5108
17938SOL    HW155298   6.493   0.143   5.768  0.2030  1.6206 -0.5060
17938SOL    HW255299   6.365   0.158   5.689 -0.5467  1.1182  0.6029
17939SOL     OW55300   6.443   2.760   4.766  0.6216  0.3256 -0.5068
17939SOL    HW155301   6.382   2.742   4.694 -0.5994  2.3710 -0.0330
17939SOL    HW255302   6.416   2.846   4.799  2.0059  0.0030  1.5454
17940SOL     OW55303   5.779   6.036   3.590  0.4091 -0.9390  0.0805
17940SOL    HW155304   5.695   5.992   3.576  0.0572 -0.6728  1.2880
17940SOL    HW255305   5.824   6.029   3.506 -0.5491 -1.6660 -0.3828
17941SOL     OW55306   7.622   6.592   5.454 -0.5290  0.3362  0.3115
17941SOL    HW155307   7.620   6.498   5.434 -1.2385  0.4334 -0.0854
17941SOL    HW255308   7.559   6.631   5.393 -0.1566  1.0842  0.4048
17942SOL     OW55309   6.645   1.390   5.481  0.3660 -0.4548 -0.0296
17942SOL    HW155310   6.600   1.307   5.465  1.2017 -0.8764 -0.2075
17942SOL    HW255311   6.726   1.366   5.525  0.9145  0.2130 -0.6491
17943SOL     OW55312   6.102   3.892   2.562 -0.1663 -0.4860  0.2802
17943SOL    HW155313   6.185   3.922   2.600  0.2491 -1.9436  0.5666
17943SOL    HW255314   6.104   3.924   2.472  0.6918 -0.4534  0.3052
17944SOL     OW55315   6.605   3.523   7.828 -0.3753  0.4703 -0.1180
17944SOL    HW155316   6.573   3.613   7.822 -0.3591  0.3975 -1.4487
17944SOL    HW255317   6.634   3.502   7.740  0.6504 -0.4671  0.4240
17945SOL     OW55318   4.044   2.960   7.094  0.2606  0.1968  0.0103
17945SOL    HW155319   4.080   2.947   7.182  0.5824  2.3781  0.2172
17945SOL    HW255320   3.990   3.038   7.102 -1.2864 -0.7060 -1.2851
17946SOL     OW55321   5.223   4.190   1.864  0.2425  0.2129 -0.5915
17946SOL    HW155322   5.252   4.185   1.772 -0.1076 -1.0047 -0.6470
17946SOL    HW255323   5.266   4.116   1.906  1.7538  1.7646  0.6271
17947SOL     OW55324   2.555   2.772   1.890 -0.1517  0.7694  0.0593
17947SOL    HW155325   2.595   2.818   1.817  2.6155  0.8168  1.5374
17947SOL    HW255326   2.557   2.835   1.962  1.2526 -0.7103  1.3660
17948SOL     OW55327   3.204   4.782   1.374  0.3936 -0.3522  0.6221
17948SOL    HW155328   3.285   4.787   1.324  0.5330 -1.0270  0.7658
17948SOL    HW255329   3.167   4.696   1.351 -0.6727  0.2648 -0.0380
17949SOL     OW55330   3.735   6.960   1.349  0.1750  0.5168  0.1968
17949SOL    HW155331   3.690   6.883   1.384  0.2417  0.9359  1.2306
17949SOL    HW255332   3.828   6.942   1.363  0.1291  1.3637  1.6884
17950SOL     OW55333   7.620   1.005   7.962 -0.1204 -0.6757 -0.6974
17950SOL    HW155334   7.667   1.020   8.043  0.3654 -0.6212 -0.9901
17950SOL    HW255335   7.581   1.090   7.941 -0.7197 -0.8248 -0.2286
17951SOL     OW55336   3.012   4.358   1.238 -0.7392 -0.1035 -0.4940
17951SOL    HW155337   3.063   4.280   1.261 -1.0470 -0.3586 -0.6705
17951SOL    HW255338   2.924   4.325   1.223 -0.7164  0.1755 -1.2644
17952SOL     OW55339   2.815   5.321   6.565 -0.2245  0.3041  0.0430
17952SOL    HW155340   2.733   5.316   6.515  0.2536 -0.6781 -0.6548
17952SOL    HW255341   2.795   5.379   6.639 -1.4005  0.4720 -0.4023
17953SOL     OW55342   2.084   6.576   7.619 -0.4784 -0.3799 -0.3833
17953SOL    HW155343   2.168   6.617   7.600 -0.5147 -0.1197  0.0257
17953SOL    HW255344   2.026   6.648   7.644 -1.1647 -0.4085 -1.8547
17954SOL     OW55345   5.857   3.105   5.568  0.5544  0.1946 -0.1127
17954SOL    HW155346   5.903   3.023   5.547 -0.0502  0.2424 -1.6728
17954SOL    HW255347   5.768   3.092   5.535  0.3036  1.2694  0.1364
17955SOL     OW55348   5.476   3.898   1.549  0.4643  0.1427 -0.0312
17955SOL    HW155349   5.390   3.857   1.561  0.0858  0.5372 -1.3227
17955SOL    HW255350   5.506   3.866   1.464  1.5800  0.0456  0.3964
17956SOL     OW55351   0.253   5.757   3.913  0.8074 -0.2117  0.3833
17956SOL    HW155352   0.191   5.767   3.840  0.8713  0.1402  0.3745
17956SOL    HW255353   0.216   5.686   3.965  0.0845  0.3668  0.6819
17957SOL     OW55354   4.950   0.191   4.159  0.6359 -0.4943  0.2125
17957SOL    HW155355   5.035   0.147   4.162  1.0118  0.1636 -0.4701
17957SOL    HW255356   4.929   0.196   4.066 -0.0779 -0.5028  0.3691
17958SOL     OW55357   5.443   1.285   3.174  0.0486 -0.1129 -0.0111
17958SOL    HW155358   5.471   1.196   3.197 -0.6861 -0.2225  0.4640
17958SOL    HW255359   5.454   1.336   3.254 -4.0601 -0.8704  1.1401
17959SOL     OW55360   3.532   1.443   4.592  0.1940  0.0001  0.3619
17959SOL    HW155361   3.596   1.514   4.596  0.9444 -0.6760  0.4143
17959SOL    HW255362   3.456   1.481   4.547  1.2916  0.3004 -1.2835
17960SOL     OW55363   4.255   1.670   0.430  0.1602  0.1951 -0.2366
17960SOL    HW155364   4.167   1.644   0.403  0.8614 -2.5715 -0.0429
17960SOL    HW255365   4.254   1.667   0.525  0.5247 -0.0696 -0.2385
17961SOL     OW55366   6.328   5.925   1.774  0.0931  0.7568 -0.4465
17961SOL    HW155367   6.320   5.860   1.705  0.1393  0.4736 -0.1843
17961SOL    HW255368   6.422   5.928   1.794 -0.2404 -1.2184  1.5773
17962SOL     OW55369   7.626   7.963   3.335  0.0757  0.1054 -0.0453
17962SOL    HW155370   7.540   7.925   3.351 -0.5704  1.5645 -0.0165
17962SOL    HW255371   7.678   7.938   3.412 -0.1509 -1.2303 -0.3142
17963SOL     OW55372   0.192   3.764   8.089 -0.4694 -0.6983  0.2946
17963SOL    HW155373   0.104   3.793   8.063  0.0321 -1.2104 -2.1054
17963SOL    HW255374   0.245   3.844   8.083 -0.9569 -0.1507  2.8008
17964SOL     OW55375   5.500   7.926   7.205 -0.6427  1.0131 -0.0061
17964SOL    HW155376   5.586   7.905   7.241 -1.1080  0.4790  0.8122
17964SOL    HW255377   5.492   7.871   7.127 -0.1779  1.1807 -0.1712
17965SOL     OW55378   8.231   3.124   7.887 -0.6769 -0.2391  0.6731
17965SOL    HW155379   8.294   3.056   7.911 -1.2148 -0.4905  1.4030
17965SOL    HW255380   8.164   3.077   7.837  0.2264  0.2099 -0.9793
17966SOL     OW55381   2.203   0.735   8.126 -0.0138 -0.5979 -0.5460
17966SOL    HW155382   2.221   0.673   8.197  1.3579 -1.9147 -1.9918
17966SOL    HW255383   2.152   0.685   8.063 -0.4568  0.2966 -0.9068
17967SOL     OW55384   0.991   4.297   6.898  0.3521  0.1735 -0.3223
17967SOL    HW155385   0.905   4.261   6.877 -0.2646 -0.3920  2.8633
17967SOL    HW255386   1.020   4.340   6.817 -2.7138  0.0115 -1.5697
17968SOL     OW55387   4.635   0.666   4.882 -0.0175 -0.3971 -0.1161
17968SOL    HW155388   4.693   0.694   4.811  3.1374 -3.5097  1.0755
17968SOL    HW255389   4.655   0.573   4.894 -1.4284 -0.2860  3.9405
17969SOL     OW55390   1.709   5.249   6.503  0.1393 -0.3326 -0.3567
17969SOL    HW155391   1.805   5.254   6.509  0.0938 -1.5428  1.8400
17969SOL    HW255392   1.692   5.208   6.419  1.5889 -1.2453 -0.2161
17970SOL     OW55393   1.145   2.107   4.800  0.2261  0.2082 -0.1613
17970SOL    HW155394   1.153   2.013   4.820  0.3197 -0.0864 -1.5134
17970SOL    HW255395   1.117   2.147   4.883 -1.6909 -1.2740 -0.0523
17971SOL     OW55396   0.190   7.374   5.340  0.1714  0.1826  0.6158
17971SOL    HW155397   0.158   7.461   5.362  0.7796  0.7410 -0.6302
17971SOL    HW255398   0.240   7.387   5.259  0.4393 -1.2852  0.5327
17972SOL     OW55399   1.287   2.594   7.645  0.4550  0.2833 -0.4858
17972SOL    HW155400   1.352   2.526   7.666  1.2521  0.4499 -2.3358
17972SOL    HW255401   1.340   2.671   7.624 -0.4332  1.2631  0.8205
17973SOL     OW55402   0.920   3.847   0.612  0.1563 -0.2012  0.5046
17973SOL    HW155403   0.943   3.806   0.696 -0.0191  0.7276  1.0109
17973SOL    HW255404   0.844   3.797   0.582  0.6544 -0.9991  0.5435
17974SOL     OW55405   1.873   0.654   3.091  0.0594  0.3356  0.3841
17974SOL    HW155406   1.846   0.724   3.151  0.1044  1.2484 -0.6351
17974SOL    HW255407   1.968   0.649   3.101 -0.0703 -0.3540  1.2820
17975SOL     OW55408   7.427   1.783   7.099  0.2065  0.4674  0.1015
17975SOL    HW155409   7.458   1.837   7.026  1.9885 -1.4406 -0.5881
17975SOL    HW255410   7.497   1.789   7.164  0.6223 -1.3114 -0.1547
17976SOL     OW55411   4.295   3.652   1.217  0.0823 -0.0498 -0.0759
17976SOL    HW155412   4.387   3.629   1.199  0.1684  0.6995 -0.6002
17976SOL    HW255413   4.301   3.733   1.268 -0.2842 -0.1411  0.1095
17977SOL     OW55414   1.721   3.089   0.365  0.2581  0.3093  0.7811
17977SOL    HW155415   1.642   3.086   0.311  0.0887 -2.9798  1.0979
17977SOL    HW255416   1.699   3.147   0.438 -1.7052 -0.2514  0.6499
17978SOL     OW55417   6.125   5.223   6.709  0.2328  0.4532 -0.5000
17978SOL    HW155418   6.109   5.303   6.758  0.9749  1.4947 -1.9430
17978SOL    HW255419   6.056   5.163   6.738  0.5247  1.1243  1.6395
17979SOL     OW55420   8.176   5.465   6.490 -0.0814  0.5229  0.0308
17979SOL    HW155421   8.249   5.512   6.450  1.0529 -0.3496  1.0590
17979SOL    HW255422   8.109   5.461   6.421  1.1175  0.6767 -1.1591
17980SOL     OW55423   0.147   5.976   5.620  0.2380  0.6656  0.2329
17980SOL    HW155424   0.239   5.978   5.593  0.2462 -0.9627  0.0815
17980SOL    HW255425   0.109   5.903   5.570 -0.9016  0.6889  1.0437
17981SOL     OW55426   1.001   7.222   2.523  0.1035 -0.4199  0.3001
17981SOL    HW155427   0.911   7.194   2.535 -1.0793  2.2981 -1.9099
17981SOL    HW255428   1.013   7.294   2.585  1.8931 -2.9465  3.0577
17982SOL     OW55429   3.610   4.134   3.120  0.7800  0.1382  0.4824
17982SOL    HW155430   3.703   4.153   3.110  0.7847 -0.7496 -1.3930
17982SOL    HW255431   3.600   4.044   3.089 -1.3807  1.6629 -3.6887
17983SOL     OW55432   1.751   1.354   6.337  0.2664 -0.3821 -0.0893
17983SOL    HW155433   1.690   1.350   6.410  0.5002 -2.6990  0.0085
17983SOL    HW255434   1.716   1.422   6.280 -1.6725 -0.7699  0.6150
17984SOL     OW55435   8.279   1.141   1.029 -0.3093  0.0171 -0.1383
17984SOL    HW155436   8.247   1.054   1.054  0.2288  0.3796  1.8164
17984SOL    HW255437   8.374   1.133   1.031 -0.2614  0.6052 -0.1385
17985SOL     OW55438   2.154   1.191   0.835 -0.0137 -0.3734 -0.5955
17985SOL    HW155439   2.078   1.133   0.844  1.2042 -1.9301 -0.1725
17985SOL    HW255440   2.190   1.197   0.923  0.9878 -0.5097 -0.9940
17986SOL     OW55441   4.295   5.468   2.321 -0.1977 -0.6556 -0.3156
17986SOL    HW155442   4.203   5.441   2.317 -0.1216 -0.7720 -1.7348
17986SOL    HW255443   4.319   5.483   2.229  1.0654 -0.1778  0.0857
17987SOL     OW55444   0.276   6.302   2.880  0.3434 -0.8508  0.0045
17987SOL    HW155445   0.370   6.320   2.871  0.6391 -2.4029 -0.2004
17987SOL    HW255446   0.261   6.298   2.974  0.8942 -2.5516  0.0371
17988SOL     OW55447   0.186   7.122   0.318  0.3228 -0.4083 -0.3219
17988SOL    HW155448   0.096   7.127   0.286 -0.3171 -1.2839  1.2911
17988SOL    HW255449   0.181   7.152   0.409  1.6972 -0.2691 -0.2796
17989SOL     OW55450   2.628   0.705   6.155  0.0559 -1.0220  0.2188
17989SOL    HW155451   2.674   0.725   6.074 -0.7698  0.7341  0.1507
17989SOL    HW255452   2.536   0.695   6.129 -0.4115  0.7855  1.0852
17990SOL     OW55453   1.413   6.513   2.638 -0.0019 -0.9633  0.7133
17990SOL    HW155454   1.426   6.520   2.733 -0.7305  0.6212  0.7146
17990SOL    HW255455   1.414   6.419   2.620  0.5159 -1.2594  2.2409
17991SOL     OW55456   6.150   4.847   8.005 -0.4399  0.1415  0.1830
17991SOL    HW155457   6.072   4.868   7.954  1.0794 -1.5601 -2.9814
17991SOL    HW255458   6.212   4.813   7.941  1.8600 -1.3388  3.0812
17992SOL     OW55459   0.393   3.046   0.032  0.2568 -0.0557  0.2631
17992SOL    HW155460   0.312   3.077   0.073 -0.7850 -1.1679 -0.8868
17992SOL    HW255461   0.433   3.125  -0.004 -0.5577  0.4476  0.4452
17993SOL     OW55462   0.672   7.465   0.534  0.7994 -0.1286 -0.0202
17993SOL    HW155463   0.680   7.499   0.623 -0.2586 -1.9492  0.8022
17993SOL    HW255464   0.615   7.528   0.490  0.5404  0.2687  0.8649
17994SOL     OW55465   3.734   4.005   5.881 -0.2835  0.5583 -0.5194
17994SOL    HW155466   3.728   4.093   5.843  0.6988  0.1407 -1.7025
17994SOL    HW255467   3.808   4.011   5.942 -0.5163  0.6782 -0.2500
17995SOL     OW55468   6.122   3.430   5.812 -0.2805 -0.1696 -0.0848
17995SOL    HW155469   6.060   3.449   5.881  0.2722  0.2457  0.3047
17995SOL    HW255470   6.131   3.334   5.813 -0.5488 -0.1915  0.1749
17996SOL     OW55471   3.679   2.522   2.776 -0.1098 -0.5042 -0.2328
17996SOL    HW155472   3.670   2.593   2.840 -0.9568 -1.3100  0.5631
17996SOL    HW255473   3.761   2.541   2.730  0.6381 -0.0513  1.2630
17997SOL     OW55474   3.262   5.417   5.154  0.2971  0.2856 -0.4001
17997SOL    HW155475   3.183   5.397   5.203  0.0277  0.9376 -0.5620
17997SOL    HW255476   3.324   5.349   5.179 -1.0449 -1.6099 -2.0314
17998SOL     OW55477   7.590   7.110   6.142  0.1230  0.1833 -0.3845
17998SOL    HW155478   7.585   7.098   6.237  0.1368  0.6326 -0.3254
17998SOL    HW255479   7.591   7.205   6.130 -2.3742  0.1631 -0.9602
17999SOL     OW55480   0.483   7.426   1.394 -0.1278  0.7884 -0.5491
17999SOL    HW155481   0.496   7.488   1.322  0.2923  0.8905 -0.3918
17999SOL    HW255482   0.403   7.455   1.437 -0.7399  0.3310 -1.3740
18000SOL     OW55483   4.312   8.169   6.496 -0.4464  0.5264 -0.3148
18000SOL    HW155484   4.352   8.099   6.444  0.7192  1.3272 -0.5227
18000SOL    HW255485   4.223   8.138   6.513  0.5595 -1.7634  1.0095
18001SOL     OW55486   7.046   5.589   6.430 -0.1518  0.5056  0.0443
18001SOL    HW155487   7.096   5.646   6.488  2.6411 -0.8284 -0.9669
18001SOL    HW255488   7.001   5.528   6.489  0.8640  0.5643  0.8896
18002SOL     OW55489   0.157   4.384   7.942  0.3915  0.2827  0.1348
18002SOL    HW155490   0.094   4.391   7.870  0.3513  0.9631  0.2278
18002SOL    HW255491   0.206   4.466   7.939  2.1931 -0.7965 -0.7706
18003SOL     OW55492   5.889   2.074   1.700 -0.0943  0.5499 -0.4230
18003SOL    HW155493   5.886   2.056   1.794 -0.1830 -0.4192 -0.6033
18003SOL    HW255494   5.798   2.086   1.675 -0.0366  1.2755 -0.3059
18004SOL     OW55495   1.764   2.185   6.127  0.0662  0.5684 -0.1523
18004SOL    HW155496   1.837   2.189   6.189  0.2825  1.6984 -0.4645
18004SOL    HW255497   1.757   2.092   6.103 -0.8297 -0.1108  2.5136
18005SOL     OW55498   1.273   6.709   2.956  0.0364  0.5295  0.0114
18005SOL    HW155499   1.354   6.686   3.001 -0.2693 -0.7627 -0.0927
18005SOL    HW255500   1.301   6.739   2.870  0.5849  2.5290  0.8540
18006SOL     OW55501   3.248   3.931   6.991  0.2428 -0.0441  0.4280
18006SOL    HW155502   3.158   3.946   7.018 -0.3586  0.1758 -1.6178
18006SOL    HW255503   3.244   3.925   6.895  2.2601 -0.9222  0.3641
18007SOL     OW55504   3.929   6.237   2.158  0.4133  0.5749 -0.1000
18007SOL    HW155505   3.932   6.284   2.074  0.2310  1.3376  0.3092
18007SOL    HW255506   3.885   6.299   2.218 -0.9896 -0.6192  0.1320
18008SOL     OW55507   5.615   6.969   7.100 -0.0727 -0.0321  0.6494
18008SOL    HW155508   5.556   7.020   7.156 -0.3133 -1.4408  1.6964
18008SOL    HW255509   5.657   6.906   7.159  0.6281 -0.6891 -0.5227
18009SOL     OW55510   6.912   7.992   1.200  0.0434  0.5133  0.1934
18009SOL    HW155511   6.878   8.056   1.263  0.6776 -0.0415  1.1097
18009SOL    HW255512   6.932   7.915   1.253  3.7752  1.1877 -0.0630
18010SOL     OW55513   7.455   5.310   5.018 -0.1270  0.5119 -0.0163
18010SOL    HW155514   7.368   5.272   5.029 -0.1160 -0.1277 -2.0433
18010SOL    HW255515   7.453   5.390   5.071 -1.7673  0.2448  0.3550
18011SOL     OW55516   6.042   3.894   0.052 -0.8190  0.2965  0.1740
18011SOL    HW155517   5.964   3.948   0.034 -1.3428 -1.0233 -1.6651
18011SOL    HW255518   6.040   3.881   0.147 -0.8601  3.2155  0.6329
18012SOL     OW55519   2.573   5.409   4.813 -0.5601 -0.2226  0.0509
18012SOL    HW155520   2.651   5.404   4.757  0.3201 -0.5139  1.2692
18012SOL    HW255521   2.543   5.318   4.820 -0.1765 -0.2950  0.7321
18013SOL     OW55522   2.586   5.919   1.568 -0.4233 -0.1366 -0.3011
18013SOL    HW155523   2.600   5.854   1.500 -1.2704  0.8688 -1.4640
18013SOL    HW255524   2.561   5.868   1.645  1.4973 -1.3436 -0.4470
18014SOL     OW55525   5.990   2.639   7.139 -0.4764  0.3130  0.0400
18014SOL    HW155526   5.911   2.682   7.108  0.6627  3.0208  0.7999
18014SOL    HW255527   6.054   2.709   7.150  1.5372 -1.5942  1.0676
18015SOL     OW55528   0.878   4.027   4.469 -0.0603 -0.0520 -0.1345
18015SOL    HW155529   0.963   3.984   4.462  0.7743  1.6254 -0.7642
18015SOL    HW255530   0.893   4.103   4.525 -1.3326 -0.1734  0.3989
18016SOL     OW55531   7.078   7.610   7.121  0.3039 -0.6107  0.5285
18016SOL    HW155532   7.008   7.582   7.180  1.3619 -0.1004  2.0870
18016SOL    HW255533   7.131   7.670   7.174  0.8315  0.5049 -1.2216
18017SOL     OW55534   2.964   7.287   4.794 -0.7785  0.3104  0.0942
18017SOL    HW155535   2.950   7.282   4.888  0.2185  1.6995  0.3299
18017SOL    HW255536   2.884   7.327   4.760 -0.8350  0.5045  0.4483
18018SOL     OW55537   1.906   3.314   1.691  0.2454  0.4362 -0.4700
18018SOL    HW155538   1.948   3.229   1.700 -0.0310  0.4181  0.6962
18018SOL    HW255539   1.813   3.295   1.683  0.2809  0.5763 -1.3119
18019SOL     OW55540   4.107   2.519   2.484 -0.1229 -0.2956 -0.3495
18019SOL    HW155541   4.118   2.554   2.572 -3.0439 -1.8316  0.7122
18019SOL    HW255542   4.157   2.437   2.483  0.1736 -0.1151 -0.2338
18020SOL     OW55543   4.923   3.574   5.441 -0.1031  0.5598 -0.2488
18020SOL    HW155544   4.843   3.619   5.414 -1.3233 -1.6737 -0.4787
18020SOL    HW255545   4.966   3.635   5.500 -1.7691  1.9669 -0.4397
18021SOL     OW55546   3.970   5.544   6.691 -0.1023 -0.0097 -0.2036
18021SOL    HW155547   4.051   5.492   6.693 -0.1741 -0.1502 -1.1544
18021SOL    HW255548   3.909   5.494   6.746  0.8617  0.7871  1.6534
18022SOL     OW55549   0.214   4.985   5.380 -0.8839  0.9665 -0.5654
18022SOL    HW155550   0.270   5.003   5.304 -2.1421 -1.1483 -2.0767
18022SOL    HW255551   0.126   4.974   5.342 -1.5754  0.0785  1.2308
18023SOL     OW55552   3.484   5.137   5.467 -0.2001  0.0230 -0.2763
18023SOL    HW155553   3.473   5.084   5.546 -1.8635  0.2612 -0.3291
18023SOL    HW255554   3.504   5.225   5.500 -1.2812  0.2090 -0.1084
18024SOL     OW55555   0.954   1.975   7.692  0.2296 -0.0331 -0.3400
18024SOL    HW155556   0.901   1.960   7.770 -0.4998 -0.4990 -0.9137
18024SOL    HW255557   0.998   1.891   7.677  0.4741  0.0962 -0.3492
18025SOL     OW55558   0.811   3.221   3.377  0.2002  0.0473 -0.0483
18025SOL    HW155559   0.900   3.246   3.401  0.1362  1.2979 -1.0826
18025SOL    HW255560   0.760   3.233   3.457  0.4906  1.6618 -0.0991
18026SOL     OW55561   8.163   0.947   3.733 -0.1839 -0.1691  0.4181
18026SOL    HW155562   8.182   0.949   3.827 -0.3842 -1.1759  0.4839
18026SOL    HW255563   8.249   0.953   3.692  0.0281 -1.1980  0.6874
18027SOL     OW55564   3.198   0.712   1.344 -0.4391  0.2329  0.6704
18027SOL    HW155565   3.114   0.753   1.326  0.0078  2.1006  2.5179
18027SOL    HW255566   3.192   0.683   1.435  0.9481  0.5780  0.8970
18028SOL     OW55567   0.364   7.268   6.003 -0.0688  0.3264 -0.6238
18028SOL    HW155568   0.435   7.221   5.959 -0.4959 -0.1728 -0.7929
18028SOL    HW255569   0.284   7.228   5.968 -0.4770  2.1617 -1.8551
18029SOL     OW55570   2.743   3.468   0.546 -0.2901 -0.1257  0.3287
18029SOL    HW155571   2.754   3.545   0.490 -1.8697 -1.1717 -1.5085
18029SOL    HW255572   2.832   3.439   0.565  0.2882  1.0563 -0.5303
18030SOL     OW55573   0.829   5.244   3.522  0.1268 -0.3557 -0.4166
18030SOL    HW155574   0.920   5.254   3.548 -0.1481  2.2156 -0.3293
18030SOL    HW255575   0.779   5.255   3.603 -0.3200 -0.9740 -0.5976
18031SOL     OW55576   1.522   4.606   1.134 -0.2859  0.0364  0.6744
18031SOL    HW155577   1.477   4.523   1.120 -0.7629  0.1897  1.2907
18031SOL    HW255578   1.487   4.665   1.067  1.0748 -0.6542 -0.6641
18032SOL     OW55579   3.938   7.074   5.659  0.5452 -0.1029  0.3313
18032SOL    HW155580   4.001   7.014   5.619 -0.2653 -0.8399  0.1586
18032SOL    HW255581   3.989   7.120   5.726  1.7792  0.7894 -1.1765
18033SOL     OW55582   2.596   0.697   0.511 -0.1198 -0.1459  0.6114
18033SOL    HW155583   2.678   0.747   0.507 -0.3467  0.1235 -0.8579
18033SOL    HW255584   2.609   0.636   0.583  0.9848  0.5923  1.0542
18034SOL     OW55585   4.401   0.437   4.546  0.1838  0.2816  0.2355
18034SOL    HW155586   4.482   0.445   4.596 -0.5751  2.1741  1.2276
18034SOL    HW255587   4.371   0.528   4.534 -0.4173 -0.2346 -2.3985
18035SOL     OW55588   0.471   1.093   0.278 -0.5578  0.0813 -0.3865
18035SOL    HW155589   0.403   1.108   0.213 -0.7184  1.4001  0.0658
18035SOL    HW255590   0.424   1.052   0.352 -0.6574 -0.0224 -0.5067
18036SOL     OW55591   4.143   4.480   0.206 -0.3769  0.2011 -0.6777
18036SOL    HW155592   4.199   4.404   0.220 -0.7594  0.3416  1.9534
18036SOL    HW255593   4.055   4.450   0.229 -0.8758  0.8825 -1.6249
18037SOL     OW55594   7.391   4.731   4.286 -0.8066 -0.0507  0.1675
18037SOL    HW155595   7.356   4.803   4.340  3.2287  0.3673  2.4125
18037SOL    HW255596   7.402   4.659   4.347  0.8255 -0.6140 -0.7783
18038SOL     OW55597   0.888   3.431   0.799  0.0568  0.0845  0.7353
18038SOL    HW155598   0.828   3.430   0.874 -1.1374 -2.6529 -0.1647
18038SOL    HW255599   0.877   3.344   0.759 -0.5059  2.0210 -3.5428
18039SOL     OW55600   6.511   1.274   3.824  0.3925 -0.0916  0.0422
18039SOL    HW155601   6.557   1.358   3.834 -0.3397  0.0482  2.5407
18039SOL    HW255602   6.564   1.225   3.761  3.4601  0.4205  2.1484
18040SOL     OW55603   8.119   3.108   2.650  0.1273  0.2314 -0.1443
18040SOL    HW155604   8.101   3.048   2.577 -1.1518 -0.6235  0.8516
18040SOL    HW255605   8.087   3.193   2.620 -0.1109 -0.0531 -0.6963
18041SOL     OW55606   7.905   2.045   4.812 -0.4834 -0.1769  0.8622
18041SOL    HW155607   7.881   1.971   4.756 -0.2404 -0.6493  1.3708
18041SOL    HW255608   7.937   2.004   4.893  2.0999  0.4362  0.1829
18042SOL     OW55609   3.680   2.538   7.937 -0.8107  0.0951  0.3774
18042SOL    HW155610   3.644   2.537   8.026  0.7689  1.2513  1.0564
18042SOL    HW255611   3.680   2.630   7.912  0.2777 -0.0531 -0.1818
18043SOL     OW55612   5.996   5.775   7.450 -0.1857  0.2028  0.3460
18043SOL    HW155613   6.047   5.730   7.383 -1.3194 -1.4883  0.5731
18043SOL    HW255614   6.056   5.839   7.488  1.0313 -0.1254 -0.9901
18044SOL     OW55615   2.949   2.412   3.841  0.0508  0.0694  0.1747
18044SOL    HW155616   3.014   2.392   3.908  0.0016  0.3328  0.3009
18044SOL    HW255617   2.999   2.443   3.766 -0.0379  2.0999  0.9256
18045SOL     OW55618   2.071   3.836   0.015  0.0046  0.1041 -0.4518
18045SOL    HW155619   1.987   3.835   0.061  0.2694 -1.2675  0.0191
18045SOL    HW255620   2.095   3.743   0.007  1.0818  0.4468 -1.3065
18046SOL     OW55621   7.753   7.507   7.816  0.3660  0.6792 -0.0835
18046SOL    HW155622   7.779   7.457   7.739  0.1857  0.1630  0.1887
18046SOL    HW255623   7.715   7.442   7.875  1.5940  0.8695  0.9433
18047SOL     OW55624   1.834   6.344   1.516  0.0824 -0.7144  0.0202
18047SOL    HW155625   1.809   6.279   1.582  0.6093 -0.8811  0.0587
18047SOL    HW255626   1.772   6.416   1.529  0.4853 -0.5353  1.0254
18048SOL     OW55627   8.145   3.683   6.586  0.2895  0.2836 -0.1139
18048SOL    HW155628   8.128   3.737   6.509  1.3507 -1.7548 -1.8088
18048SOL    HW255629   8.239   3.692   6.602  0.2449 -0.0796  0.3730
18049SOL     OW55630   4.700   6.700   7.798 -0.0422  0.0681  0.4441
18049SOL    HW155631   4.627   6.691   7.736  0.0833 -2.5309  0.6136
18049SOL    HW255632   4.665   6.668   7.881  1.2429 -1.1494  0.5399
18050SOL     OW55633   2.053   0.096   4.592 -1.0117 -0.0980 -0.2639
18050SOL    HW155634   2.069   0.027   4.657 -0.5772  0.4209  0.1821
18050SOL    HW255635   1.991   0.155   4.634 -0.5204  0.3845 -0.2201
18051SOL     OW55636   2.356   7.895   8.273  0.1129  0.5429  0.3536
18051SOL    HW155637   2.263   7.888   8.253  0.0274  0.2766  0.8295
18051SOL    HW255638   2.390   7.959   8.210  0.4055 -2.2000 -2.4367
18052SOL     OW55639   0.953   0.003   7.444  0.3012  0.1176  0.2135
18052SOL    HW155640   0.951  -0.017   7.538  1.9569  1.1952  0.4942
18052SOL    HW255641   1.037  -0.033   7.414 -1.0694 -1.9503 -1.2787
18053SOL     OW55642   2.077   7.936   0.890  0.3032 -0.1774 -0.2375
18053SOL    HW155643   2.088   7.950   0.984 -2.1153 -1.4458  0.2669
18053SOL    HW255644   2.032   8.015   0.860 -0.8272 -0.7101  0.0563
18054SOL     OW55645   5.984   0.773   2.533 -0.2356 -0.1269  0.6504
18054SOL    HW155646   5.956   0.746   2.621 -0.5268 -2.5833 -0.1499
18054SOL    HW255647   5.926   0.726   2.474 -0.0292  1.4887 -0.8885
18055SOL     OW55648   7.544   4.485   7.464 -0.0193 -0.2017  0.3021
18055SOL    HW155649   7.457   4.446   7.457 -0.0320  0.1674 -1.8260
18055SOL    HW255650   7.584   4.470   7.378  1.3206  1.2864  0.6509
18056SOL     OW55651   6.839   3.307   1.163  0.4467 -0.1285  0.1980
18056SOL    HW155652   6.912   3.368   1.170 -1.1527  1.6569  1.8368
18056SOL    HW255653   6.775   3.352   1.109  1.6540 -2.8926 -3.8179
18057SOL     OW55654   4.097   6.821   3.884 -0.1433 -0.4923  0.1740
18057SOL    HW155655   4.180   6.784   3.915  0.2327  0.1509 -0.0534
18057SOL    HW255656   4.074   6.768   3.807 -1.0826 -2.0991  1.5278
18058SOL     OW55657   1.044   0.454   4.445  0.2032 -0.0642 -0.1728
18058SOL    HW155658   0.965   0.508   4.449 -0.1047 -0.2832 -2.8800
18058SOL    HW255659   1.085   0.467   4.531 -2.3367  0.6764  0.9947
18059SOL     OW55660   4.119   3.373   7.083  0.1568  0.1251  0.3305
18059SOL    HW155661   4.067   3.383   7.004 -1.2944 -2.3894  0.8777
18059SOL    HW255662   4.128   3.461   7.118 -2.7335  0.7984 -0.4597
18060SOL     OW55663   0.012   4.216   2.886 -0.0500 -0.4679 -0.4473
18060SOL    HW155664   0.052   4.144   2.936  0.6628  0.8774  0.9377
18060SOL    HW255665   0.020   4.188   2.795  1.0228 -1.7505  0.0157
18061SOL     OW55666   0.006   0.584   5.030 -0.1957  0.3997 -0.1541
18061SOL    HW155667  -0.002   0.541   5.115 -1.2281  1.5240  0.3306
18061SOL    HW255668   0.093   0.558   4.998 -0.1432 -0.7065  0.8547
18062SOL     OW55669   4.798   0.966   7.559 -0.2254 -0.2309 -0.1530
18062SOL    HW155670   4.711   1.005   7.552  0.4980  1.6187  0.9307
18062SOL    HW255671   4.856   1.028   7.516  0.8572 -0.3555  1.0892
18063SOL     OW55672   7.885   7.886   6.314  0.1970 -0.2189 -0.2010
18063SOL    HW155673   7.882   7.792   6.293 -1.9964 -0.0234 -0.8673
18063SOL    HW255674   7.879   7.930   6.229 -1.8842  0.5196  0.2905
18064SOL     OW55675   2.478   4.933   3.082 -0.3210 -0.4776  0.4542
18064SOL    HW155676   2.390   4.910   3.051  0.3308 -0.0258 -1.8366
18064SOL    HW255677   2.465   4.958   3.173 -2.5809 -0.3907  0.1519
18065SOL     OW55678   2.295   4.594   4.155  0.0769  0.3800  0.3856
18065SOL    HW155679   2.282   4.569   4.246  0.4503 -2.3858 -0.2537
18065SOL    HW255680   2.259   4.520   4.105 -0.3860  1.9768 -1.7186
18066SOL     OW55681   6.566   0.723   7.688 -0.1201 -0.0540  0.0045
18066SOL    HW155682   6.592   0.669   7.613  0.9284 -0.6534  0.7877
18066SOL    HW255683   6.492   0.775   7.656  0.4837 -0.1170 -1.5212
18067SOL     OW55684   6.481   6.403   8.218  0.7489  0.2696  0.4560
18067SOL    HW155685   6.530   6.416   8.299 -0.1020 -2.8096  1.5324
18067SOL    HW255686   6.512   6.320   8.183 -0.4963  0.4594 -1.2140
18068SOL     OW55687   5.599   1.178   8.259  0.0270  0.2727  0.6900
18068SOL    HW155688   5.520   1.225   8.234  0.8565 -0.3155 -3.2763
18068SOL    HW255689   5.578   1.086   8.243  0.8420 -0.0785  1.5745
18069SOL     OW55690   1.739   2.559   3.267 -0.4447 -0.4930  0.1837
18069SOL    HW155691   1.805   2.628   3.265  0.3584 -1.2935 -1.7781
18069SOL    HW255692   1.745   2.517   3.182 -2.9212 -1.1269  0.2819
18070SOL     OW55693   4.601   3.852   5.926 -0.2919 -0.4293  0.0991
18070SOL    HW155694   4.665   3.830   5.993 -1.0624 -2.2916  0.2733
18070SOL    HW255695   4.523   3.879   5.975 -1.1858 -2.7380  0.0336
18071SOL     OW55696   0.503   7.723   0.904  0.1794  0.8522  0.3908
18071SOL    HW155697   0.493   7.801   0.849  0.5578  0.9573  0.4630
18071SOL    HW255698   0.593   7.729   0.936  0.1221  0.5247  0.6124
18072SOL     OW55699   4.283   7.064   2.109 -0.5010  0.1581 -0.1096
18072SOL    HW155700   4.327   6.982   2.084  1.5275  1.1065  0.2559
18072SOL    HW255701   4.335   7.132   2.067 -1.1914  1.3582  0.9652
18073SOL     OW55702   3.482   7.019   2.032 -0.6390 -0.7177  0.2960
18073SOL    HW155703   3.524   6.937   2.058  1.1019  0.4066  1.1022
18073SOL    HW255704   3.450   7.056   2.115  0.7485  0.5906  0.2698
18074SOL     OW55705   0.607   3.667   7.662 -0.2061 -0.4157 -0.4143
18074SOL    HW155706   0.541   3.625   7.607  0.4785 -0.4013 -1.2624
18074SOL    HW255707   0.563   3.744   7.698  0.0416  0.9491 -2.9036
18075SOL     OW55708   5.635   7.099   5.119 -0.5453 -0.3048  0.4931
18075SOL    HW155709   5.599   7.180   5.157 -0.4435 -0.7196  1.4855
18075SOL    HW255710   5.647   7.041   5.194  2.9269  0.0946  0.3222
18076SOL     OW55711   6.485   5.512   2.387 -0.1477 -0.2364 -0.1342
18076SOL    HW155712   6.479   5.467   2.472  2.4698  2.5995  1.6472
18076SOL    HW255713   6.495   5.441   2.323 -0.4234 -2.3656  2.1193
18077SOL     OW55714   6.891   0.559   5.050  0.0546 -0.1751 -0.0715
18077SOL    HW155715   6.883   0.624   5.121  0.3081  1.5749 -1.6219
18077SOL    HW255716   6.835   0.593   4.981  0.3389 -1.5441 -0.9841
18078SOL     OW55717   6.508   2.048   3.592 -0.2170 -0.2041  0.4114
18078SOL    HW155718   6.584   2.048   3.534  0.6963  1.2024  1.5677
18078SOL    HW255719   6.475   1.958   3.588  2.1757 -1.1495  0.7356
18079SOL     OW55720   7.892   5.848   5.872  0.5432 -0.1900 -0.8955
18079SOL    HW155721   7.958   5.897   5.921  2.1167  0.4574 -3.5191
18079SOL    HW255722   7.880   5.899   5.792 -1.1799 -1.7201 -1.6290
18080SOL     OW55723   6.452   2.207   4.226  0.3196  0.3888 -0.4198
18080SOL    HW155724   6.461   2.168   4.314  0.2615  0.2887 -0.4578
18080SOL    HW255725   6.539   2.200   4.188  0.2428  0.0343 -0.5346
18081SOL     OW55726   5.837   5.805   0.698 -0.4892  0.5197  0.7894
18081SOL    HW155727   5.784   5.823   0.620 -1.5300  1.5063  1.7083
18081SOL    HW255728   5.799   5.861   0.766  0.9073  0.2533  1.8029
18082SOL     OW55729   0.232   2.913   6.503 -0.3031  0.0757 -0.1490
18082SOL    HW155730   0.166   2.908   6.434 -0.5979  0.5062  0.1004
18082SOL    HW255731   0.258   2.822   6.518 -1.3344 -0.1611  0.2265
18083SOL     OW55732   4.157   5.366   3.316 -0.5415  0.3083 -0.0800
18083SOL    HW155733   4.167   5.306   3.243 -0.5003 -0.5022  0.5860
18083SOL    HW255734   4.221   5.336   3.381 -2.9504 -1.1196  1.7088
18084SOL     OW55735   0.423   6.762   1.835 -0.1878 -0.2779  0.1886
18084SOL    HW155736   0.481   6.790   1.764  1.2923 -0.8880  1.1276
18084SOL    HW255737   0.417   6.667   1.825 -0.2187 -0.3311  0.6840
18085SOL     OW55738   2.679   1.865   4.628  0.0296 -0.1180 -0.3396
18085SOL    HW155739   2.733   1.912   4.692 -1.8049  1.3285  0.2052
18085SOL    HW255740   2.673   1.924   4.553  0.8345 -1.1166 -1.1960
18086SOL     OW55741   0.064   4.682   2.252  0.1283 -0.2847  0.5415
18086SOL    HW155742  -0.023   4.664   2.216 -0.2175 -0.3719  1.4202
18086SOL    HW255743   0.110   4.599   2.247  0.0789 -0.3003  0.3180
18087SOL     OW55744   0.717   4.919   4.130  0.3939  0.4945 -0.5572
18087SOL    HW155745   0.742   4.880   4.046  1.1415  0.6621 -0.4143
18087SOL    HW255746   0.751   4.858   4.196  0.6114  0.8263 -0.3583
18088SOL     OW55747   4.584   2.033   1.015  0.1752 -0.8026 -0.0345
18088SOL    HW155748   4.566   1.960   0.956  2.3501 -1.7006  0.3514
18088SOL    HW255749   4.554   2.110   0.968  2.8237 -1.3859 -2.8464
18089SOL     OW55750   0.857   7.341   2.168  0.4262 -0.6393  0.3560
18089SOL    HW155751   0.873   7.382   2.084  1.0469 -1.2152  0.1946
18089SOL    HW255752   0.940   7.348   2.215 -0.0137  0.0009  1.0668
18090SOL     OW55753   1.787   6.461   4.183  0.1050  0.4257  0.0300
18090SOL    HW155754   1.828   6.400   4.122 -0.1135 -0.3782  0.6853
18090SOL    HW255755   1.860   6.507   4.224  0.3227 -0.4146  0.5870
18091SOL     OW55756   4.543   5.052   6.374 -0.2599 -0.0819  0.4813
18091SOL    HW155757   4.460   5.094   6.354 -0.6188 -0.4389  1.1725
18091SOL    HW255758   4.518   4.970   6.418  0.4663  0.4143  1.8615
18092SOL     OW55759   0.837   6.069   2.777  0.8685  0.1060 -0.3106
18092SOL    HW155760   0.895   6.097   2.847  0.4753 -0.2068  0.1452
18092SOL    HW255761   0.887   6.083   2.697  1.3164  0.4737  0.0329
18093SOL     OW55762   0.875   3.806   7.355 -0.6159  1.3265 -0.1231
18093SOL    HW155763   0.795   3.820   7.405 -0.9912 -1.2630  0.0884
18093SOL    HW255764   0.943   3.797   7.423 -0.4819  1.5733 -0.2247
18094SOL     OW55765   1.311   2.027   3.582  0.6711 -0.3728  0.2378
18094SOL    HW155766   1.265   1.947   3.606 -0.6674 -0.1074 -1.3747
18094SOL    HW255767   1.386   1.997   3.529  1.1424 -0.6610  1.0632
18095SOL     OW55768   2.590   4.132   5.787 -0.5302 -0.3389 -0.4656
18095SOL    HW155769   2.650   4.144   5.713  0.2871  0.5186  0.3227
18095SOL    HW255770   2.579   4.037   5.793 -1.4475 -0.3724 -2.3438
18096SOL     OW55771   1.542   0.749   4.626  0.2046 -0.2099  0.0145
18096SOL    HW155772   1.449   0.770   4.624 -0.4016 -2.7319 -0.5582
18096SOL    HW255773   1.546   0.656   4.604  2.9791  0.2127 -1.5279
18097SOL     OW55774   2.351   7.195   5.695 -0.3736  0.4406  0.1961
18097SOL    HW155775   2.382   7.175   5.784 -0.2317  2.1081  0.5401
18097SOL    HW255776   2.366   7.289   5.685 -2.9602  0.8183 -0.5722
18098SOL     OW55777   4.976   6.949   2.023  0.2366 -0.3381 -0.9854
18098SOL    HW155778   4.892   6.937   1.979  1.9472 -1.0161 -4.2195
18098SOL    HW255779   4.968   7.035   2.065 -1.1123  0.9109 -3.6097
18099SOL     OW55780   6.596   7.036   4.905  0.1676  0.1718 -0.3339
18099SOL    HW155781   6.620   7.091   4.980  0.5912  2.7711 -2.3042
18099SOL    HW255782   6.513   7.073   4.874 -0.0983 -0.9964 -1.0252
18100SOL     OW55783   1.466   2.106   1.769  0.0365  0.2832 -0.0935
18100SOL    HW155784   1.515   2.172   1.720 -0.7198  0.2418 -0.9246
18100SOL    HW255785   1.424   2.053   1.702  1.4402 -1.6954  0.5342
18101SOL     OW55786   4.082   4.805   4.757 -0.7247 -0.2358 -0.2849
18101SOL    HW155787   4.019   4.826   4.825  1.3267  0.1274  1.5821
18101SOL    HW255788   4.109   4.890   4.722 -0.6820 -0.3395 -0.5066
18102SOL     OW55789   1.570   7.731   1.448 -0.3089  0.1783 -0.1084
18102SOL    HW155790   1.546   7.701   1.535 -0.7584  0.0405 -0.2780
18102SOL    HW255791   1.573   7.651   1.395 -1.3478  0.3995 -0.5235
18103SOL     OW55792   1.571   3.888   6.190 -0.2574 -0.7676  0.2445
18103SOL    HW155793   1.598   3.975   6.218 -1.4769 -0.1232 -0.5879
18103SOL    HW255794   1.653   3.844   6.167  0.2369  0.6339 -0.7011
18104SOL     OW55795   6.322   2.922   0.678  0.3871 -0.0048  0.0743
18104SOL    HW155796   6.409   2.945   0.710  0.0923  0.6461  0.3991
18104SOL    HW255797   6.339   2.875   0.596  0.9506  2.4622 -1.2840
18105SOL     OW55798   6.984   2.840   2.864  0.1677  0.7438 -0.3086
18105SOL    HW155799   6.913   2.854   2.926 -0.0090  0.6473 -0.4902
18105SOL    HW255800   6.946   2.785   2.795  0.4873  0.4713 -0.2735
18106SOL     OW55801   2.895   5.058   3.248 -0.1642  0.2091 -0.0387
18106SOL    HW155802   2.816   5.014   3.281 -0.1262 -0.6579 -1.0668
18106SOL    HW255803   2.892   5.042   3.153  0.3870  1.5706 -0.2918
18107SOL     OW55804   6.597   7.478   5.273 -0.0341 -0.4344  0.6714
18107SOL    HW155805   6.566   7.407   5.216  0.1628  1.1151 -1.4139
18107SOL    HW255806   6.677   7.508   5.231  0.4471  0.3249  2.1345
18108SOL     OW55807   0.531   2.604   6.351 -0.2177  0.3452 -0.2414
18108SOL    HW155808   0.466   2.554   6.301  0.0123  0.7009 -0.9072
18108SOL    HW255809   0.492   2.691   6.360  0.7583  0.9822 -1.8765
18109SOL     OW55810   4.577   1.925   1.272 -0.4922 -0.5377  0.5522
18109SOL    HW155811   4.583   1.947   1.179  0.1095 -1.0796  0.4639
18109SOL    HW255812   4.645   1.977   1.314 -1.2358  0.2574  0.7970
18110SOL     OW55813   4.702   2.960   3.994  0.1643  0.2942 -0.1571
18110SOL    HW155814   4.681   3.052   4.012  1.4298  0.4254  0.7224
18110SOL    HW255815   4.783   2.944   4.042  0.3193 -1.1005 -0.8510
18111SOL     OW55816   6.444   1.838   4.704 -0.4463 -0.0178 -0.1637
18111SOL    HW155817   6.491   1.913   4.667 -1.9916  0.7077 -0.7205
18111SOL    HW255818   6.353   1.854   4.680 -1.0827 -0.9946  1.5609
18112SOL     OW55819   0.153   1.122   5.132  0.2476  0.2574 -0.1261
18112SOL    HW155820   0.205   1.114   5.212  1.8835 -0.2101 -1.2030
18112SOL    HW255821   0.137   1.031   5.104  0.4068  0.4231 -0.7711
18113SOL     OW55822   6.495   1.313   4.444  0.4831  0.1571  0.0953
18113SOL    HW155823   6.531   1.323   4.356  0.4830  1.8786  0.2767
18113SOL    HW255824   6.408   1.353   4.440  1.2387  2.0153  1.3505
18114SOL     OW55825   6.184   7.915   6.447  0.1163 -0.0241  0.3283
18114SOL    HW155826   6.115   7.873   6.498 -1.1346 -1.1456 -2.1896
18114SOL    HW255827   6.142   7.991   6.408  0.2273 -0.7933 -1.3436
18115SOL     OW55828   1.842   1.375   3.284  0.0012  0.0008  0.4335
18115SOL    HW155829   1.822   1.465   3.257 -2.1991 -0.8939 -1.1138
18115SOL    HW255830   1.934   1.364   3.263 -0.4088  1.0117 -2.1595
18116SOL     OW55831   0.006   7.731   5.188  0.5200  0.1989  0.0231
18116SOL    HW155832  -0.089   7.742   5.179  0.3328 -1.0793  0.3073
18116SOL    HW255833   0.044   7.792   5.125 -0.4910  0.7527 -0.0560
18117SOL     OW55834   1.317   2.074   6.205  0.0789  0.4216  0.0905
18117SOL    HW155835   1.331   2.067   6.111 -1.0292  0.1711 -0.0660
18117SOL    HW255836   1.358   2.157   6.230  1.2076  0.0357 -0.4409
18118SOL     OW55837   5.497   1.550   5.115  0.1238 -0.4867 -0.5083
18118SOL    HW155838   5.510   1.561   5.021 -0.1914  0.4348 -0.4471
18118SOL    HW255839   5.542   1.625   5.155  0.0475 -0.7392  0.0598
18119SOL     OW55840   5.030   3.628   8.231 -0.4635  0.0861 -0.4404
18119SOL    HW155841   4.978   3.680   8.170  1.0597  1.7546 -0.3808
18119SOL    HW255842   5.118   3.627   8.192 -0.2980 -1.8620 -0.0635
18120SOL     OW55843   6.549   4.044   1.623 -0.1158 -0.3173 -0.2700
18120SOL    HW155844   6.532   4.066   1.531 -0.0372  1.9375  0.2313
18120SOL    HW255845   6.643   4.028   1.627  0.0471  0.6460 -0.3596
18121SOL     OW55846   5.578   2.182   0.024  0.1208  0.1462 -0.3419
18121SOL    HW155847   5.627   2.101   0.038 -2.2616 -1.0713  1.1996
18121SOL    HW255848   5.516   2.161  -0.046 -2.1524 -0.1688  1.6904
18122SOL     OW55849   1.185   5.481   7.221  0.0839 -0.6995 -0.1821
18122SOL    HW155850   1.103   5.529   7.225  0.1709 -0.7057  1.7654
18122SOL    HW255851   1.253   5.546   7.239  0.3300 -1.1585  0.5793
18123SOL     OW55852   5.883   2.596   3.377  0.3448 -0.2289 -0.2152
18123SOL    HW155853   5.958   2.576   3.433  1.5612  0.2181 -1.6589
18123SOL    HW255854   5.820   2.526   3.396  1.1776 -0.6928  0.9083
18124SOL     OW55855   6.733   2.854   2.521 -0.5542  0.0091  0.0492
18124SOL    HW155856   6.759   2.850   2.429 -1.7590 -0.7040 -0.2714
18124SOL    HW255857   6.795   2.915   2.561 -0.1848  0.5286 -1.2895
18125SOL     OW55858   5.155   1.205   0.716  0.3899 -0.1521  0.2482
18125SOL    HW155859   5.231   1.262   0.726  0.5114  0.1224 -1.9857
18125SOL    HW255860   5.162   1.171   0.627 -2.6501  0.6389 -0.3536
18126SOL     OW55861   6.808   2.541   1.831 -0.1933 -0.0412  0.2612
18126SOL    HW155862   6.896   2.513   1.805 -0.0553  0.5381  0.1006
18126SOL    HW255863   6.812   2.637   1.828 -0.3971  0.0130  1.7231
18127SOL     OW55864   0.007   1.264   0.140 -0.1947  0.1936  0.6404
18127SOL    HW155865  -0.072   1.241   0.190  1.8019 -0.9713  3.3491
18127SOL    HW255866   0.074   1.204   0.172  1.6862  0.8049 -2.0339
18128SOL     OW55867   1.910   6.015   3.218  0.2900 -0.2881  0.0176
18128SOL    HW155868   1.968   6.015   3.141  0.4849  1.0735  0.1516
18128SOL    HW255869   1.839   5.955   3.195  0.8904 -0.6895 -0.8104
18129SOL     OW55870   6.051   0.431   5.411 -0.0197  0.9491  0.0634
18129SOL    HW155871   6.095   0.374   5.474 -2.7610 -2.6062 -1.0829
18129SOL    HW255872   5.988   0.481   5.464  0.8941  1.3678  0.7689
18130SOL     OW55873   0.225   7.710   1.335 -0.7016 -0.4619 -0.3397
18130SOL    HW155874   0.169   7.646   1.290 -4.1660  0.5204  2.3588
18130SOL    HW255875   0.232   7.677   1.425 -0.6612  1.7367  0.5013
18131SOL     OW55876   0.070   6.959   3.361  0.0686 -0.1457 -0.4571
18131SOL    HW155877   0.074   6.931   3.452  1.6191 -0.1619 -0.5168
18131SOL    HW255878  -0.023   6.955   3.338 -0.2918 -0.3969  1.0357
18132SOL     OW55879   3.607   2.029   6.642  0.1933  0.2458 -0.4804
18132SOL    HW155880   3.619   1.937   6.665  1.3137  0.3782 -0.5343
18132SOL    HW255881   3.527   2.030   6.590 -0.8914 -0.4302  1.1231
18133SOL     OW55882   1.609   5.257   2.638  0.2339  0.0715 -0.2656
18133SOL    HW155883   1.689   5.212   2.610  0.8293  0.4815  0.7371
18133SOL    HW255884   1.571   5.199   2.704  0.6569  0.7141  0.5535
18134SOL     OW55885   3.375   6.689   1.121 -0.0633  0.1471 -0.2011
18134SOL    HW155886   3.319   6.671   1.196  0.8747 -1.0183  0.2195
18134SOL    HW255887   3.345   6.628   1.053 -1.9232  2.2045 -1.3323
18135SOL     OW55888   2.843   5.266   2.116 -0.2921  0.6816 -0.2049
18135SOL    HW155889   2.787   5.190   2.103 -0.3600  0.6134  0.4367
18135SOL    HW255890   2.786   5.341   2.097 -0.3282  0.5853 -0.4814
18136SOL     OW55891   0.475   2.345   6.743  0.0659 -0.1706 -0.4385
18136SOL    HW155892   0.467   2.310   6.655  0.8976 -1.0806 -0.1579
18136SOL    HW255893   0.409   2.298   6.794 -0.6895  0.6385 -0.6479
18137SOL     OW55894   7.040   1.620   6.072  0.1475 -0.5909  0.3771
18137SOL    HW155895   6.997   1.627   6.157  0.2110 -2.6882  0.6095
18137SOL    HW255896   7.019   1.701   6.027 -2.5450 -0.8050  1.1849
18138SOL     OW55897   1.215   8.262   2.457 -0.4771 -0.1650  0.1002
18138SOL    HW155898   1.272   8.314   2.513 -1.0062 -1.0825  1.5196
18138SOL    HW255899   1.210   8.311   2.375  0.6860  0.9548  0.6877
18139SOL     OW55900   5.017   1.156   0.946  0.3142 -0.1350 -0.3760
18139SOL    HW155901   5.089   1.169   1.007 -0.7991 -0.3460  1.0062
18139SOL    HW255902   5.058   1.158   0.859  1.5392  2.7898  0.2433
18140SOL     OW55903   1.697   5.301   2.187  0.7431  0.1380  0.2183
18140SOL    HW155904   1.690   5.368   2.119 -1.8310 -0.0912  0.2236
18140SOL    HW255905   1.659   5.342   2.265 -0.1514 -1.0420  0.4155
18141SOL     OW55906   2.124   6.253   4.258  0.1476 -0.0732 -0.1865
18141SOL    HW155907   2.076   6.305   4.323  1.0555 -0.9688  1.2200
18141SOL    HW255908   2.087   6.165   4.266  1.8824 -0.7339  0.8048
18142SOL     OW55909   1.898   6.498   3.598  0.6281  0.7612  0.1087
18142SOL    HW155910   1.877   6.536   3.684  0.4285 -1.3481  1.0309
18142SOL    HW255911   1.814   6.494   3.553 -0.0392 -2.1138  1.5017
18143SOL     OW55912   4.274   8.143   5.098  0.3595  0.6985 -0.1816
18143SOL    HW155913   4.220   8.206   5.145  0.4289  1.2669 -0.8590
18143SOL    HW255914   4.226   8.125   5.017 -0.9623 -2.1081  1.1171
18144SOL     OW55915   8.186   5.693   3.318  0.0453 -0.4871 -0.3060
18144SOL    HW155916   8.186   5.768   3.378 -0.9728 -2.2919  2.0357
18144SOL    HW255917   8.260   5.709   3.260  0.1807  2.0612  0.4941
18145SOL     OW55918   5.804   0.192   7.509  0.2495 -0.2370  0.4611
18145SOL    HW155919   5.773   0.115   7.558  1.8634 -2.2424 -1.5687
18145SOL    HW255920   5.900   0.186   7.514  0.4048  0.6364 -1.2398
18146SOL     OW55921   6.319   7.569   5.289 -0.5426  0.5054  0.5228
18146SOL    HW155922   6.311   7.549   5.196 -0.0997 -0.5375  0.6922
18146SOL    HW255923   6.413   7.561   5.307 -0.5317  1.4426  0.9030
18147SOL     OW55924   1.246   3.987   7.410 -0.4409 -0.0006 -0.2602
18147SOL    HW155925   1.175   3.955   7.354  0.6800 -0.9300 -1.1899
18147SOL    HW255926   1.325   3.948   7.372  0.4998  0.5551  1.1015
18148SOL     OW55927   0.797   4.341   2.586 -0.5059 -1.4634 -0.4591
18148SOL    HW155928   0.815   4.262   2.534 -0.6630 -1.0963 -1.0792
18148SOL    HW255929   0.806   4.413   2.524  0.1117 -0.9503  0.2183
18149SOL     OW55930   7.602   1.967   2.430 -0.0083 -0.1982  0.0991
18149SOL    HW155931   7.551   1.908   2.486 -0.6253  0.5191  0.3134
18149SOL    HW255932   7.535   2.021   2.386  0.4181 -1.2098 -1.8660
18150SOL     OW55933   6.787   0.847   7.041  0.3647 -0.2105 -0.2449
18150SOL    HW155934   6.707   0.897   7.026 -1.3499 -1.6684  3.3081
18150SOL    HW255935   6.848   0.910   7.080  0.2690  0.4582 -1.1680
18151SOL     OW55936   7.784   6.783   5.642 -0.0023 -0.6317  0.0323
18151SOL    HW155937   7.789   6.834   5.562  0.3704  0.0127  0.4575
18151SOL    HW255938   7.873   6.781   5.676 -0.0044 -1.6142 -0.0051
18152SOL     OW55939   2.175   1.544   7.790  0.1798 -0.2959  0.5685
18152SOL    HW155940   2.237   1.615   7.775 -0.7206  0.1719 -1.0592
18152SOL    HW255941   2.177   1.493   7.709 -2.0528  0.1213  0.2213
18153SOL     OW55942   7.929   2.299   1.724 -0.1345 -0.1970  0.1008
18153SOL    HW155943   7.897   2.330   1.639  0.8729  0.1209 -0.1635
18153SOL    HW255944   7.864   2.330   1.787  0.6002  2.0380 -0.2159
18154SOL     OW55945   1.502   4.368   0.714 -0.2103  0.2411  0.2850
18154SOL    HW155946   1.589   4.362   0.756 -0.5617 -1.8657  0.7773
18154SOL    HW255947   1.521   4.377   0.621  0.5453  1.2407  0.5224
18155SOL     OW55948   0.025   7.528   0.830 -0.1559 -0.1558  0.5765
18155SOL    HW155949  -0.003   7.447   0.787  1.6569 -0.4756 -0.0526
18155SOL    HW255950   0.111   7.507   0.868  0.2801  1.4310  0.5154
18156SOL     OW55951   1.785   6.106   5.842  0.4069  0.1093 -0.3607
18156SOL    HW155952   1.816   6.179   5.789  1.3425 -0.3163 -0.4084
18156SOL    HW255953   1.864   6.056   5.862 -0.2785 -1.0747 -0.6133
18157SOL     OW55954   6.995   1.435   1.294 -0.0831  0.1305  0.8381
18157SOL    HW155955   6.901   1.453   1.300 -0.1415  0.1754 -0.1766
18157SOL    HW255956   7.023   1.480   1.214  1.1111  1.4443  1.9609
18158SOL     OW55957   3.570   1.706   1.039  0.3405 -0.4622 -0.5180
18158SOL    HW155958   3.597   1.794   1.012 -0.4382 -0.9316 -2.9543
18158SOL    HW255959   3.631   1.648   0.994 -1.3254 -1.2997 -1.7303
18159SOL     OW55960   7.619   4.479   1.631  0.4564  0.6440  0.2673
18159SOL    HW155961   7.552   4.413   1.649  0.2356 -0.2284 -3.4801
18159SOL    HW255962   7.694   4.451   1.685 -0.5549 -1.1069  0.8115
18160SOL     OW55963   3.544   7.360   3.612 -0.0251 -0.1603  0.5347
18160SOL    HW155964   3.587   7.381   3.529 -0.8130 -0.0739  0.1509
18160SOL    HW255965   3.591   7.414   3.677  1.7351 -1.5407  0.4282
18161SOL     OW55966   3.871   2.224   2.297  0.3039  0.2105 -0.2459
18161SOL    HW155967   3.931   2.195   2.228 -2.0273 -0.3477 -2.1546
18161SOL    HW255968   3.906   2.308   2.326  2.4011 -0.4628 -0.7565
18162SOL     OW55969   1.436   7.931   6.348 -0.0891 -0.1436 -0.1195
18162SOL    HW155970   1.528   7.934   6.320 -0.3232  0.1948 -0.8876
18162SOL    HW255971   1.389   7.976   6.277 -0.8142 -0.0937  0.3943
18163SOL     OW55972   2.789   2.176   0.726  0.0702 -0.6906 -0.2266
18163SOL    HW155973   2.871   2.197   0.770 -0.2471 -0.5104  0.2800
18163SOL    HW255974   2.723   2.179   0.795 -0.3089 -1.1899 -0.5629
18164SOL     OW55975   7.260   3.478   3.336 -0.0977 -0.0144  0.2827
18164SOL    HW155976   7.277   3.455   3.245 -0.6555 -3.5384  0.9974
18164SOL    HW255977   7.342   3.461   3.381 -1.0071 -2.4155  1.1243
18165SOL     OW55978   3.326   2.652   3.031 -0.5891  0.1917  0.4191
18165SOL    HW155979   3.246   2.642   3.083 -0.3480  0.5397  0.8582
18165SOL    HW255980   3.364   2.564   3.029  0.1155  0.4429  1.9972
18166SOL     OW55981   0.648   8.059   0.279  0.1851  0.0089  0.0767
18166SOL    HW155982   0.567   8.013   0.255  0.3730 -0.9020  1.1575
18166SOL    HW255983   0.665   8.117   0.205 -1.1246 -0.2353 -0.4392
18167SOL     OW55984   3.927   3.052   6.590 -0.7937  0.4284  0.5249
18167SOL    HW155985   3.985   3.094   6.653  0.3191  1.1525 -0.9639
18167SOL    HW255986   3.922   3.112   6.516 -2.0281 -0.4378 -0.1315
18168SOL     OW55987   6.207   3.247   6.097 -0.5376  0.3398 -0.0598
18168SOL    HW155988   6.164   3.223   6.015  1.8410 -0.2220 -1.1886
18168SOL    HW255989   6.272   3.179   6.111 -0.3092  0.9266  1.8287
18169SOL     OW55990   6.548   1.301   1.480 -0.2031  0.4804  0.6699
18169SOL    HW155991   6.466   1.325   1.436 -0.2790 -0.7822  0.1020
18169SOL    HW255992   6.569   1.215   1.445  0.6372  0.1905  1.8624
18170SOL     OW55993   7.256   0.914   3.783 -0.1872  0.0091  0.4307
18170SOL    HW155994   7.163   0.914   3.760  0.5671  2.1160 -3.1338
18170SOL    HW255995   7.258   0.901   3.878 -3.9590 -2.6026  0.2367
18171SOL     OW55996   6.197   0.132   7.289 -0.2250 -0.2269  0.2613
18171SOL    HW155997   6.290   0.109   7.289 -0.7700 -2.5327 -1.3840
18171SOL    HW255998   6.186   0.183   7.209 -1.0619 -3.0771 -1.5140
18172SOL     OW55999   2.550   7.805   5.740  0.4289 -0.9063  0.1899
18172SOL    HW156000   2.501   7.725   5.720 -2.7530  0.8981  0.4524
18172SOL    HW256001   2.548   7.856   5.659 -2.5544  1.3733  1.6171
18173SOL     OW56002   1.136   1.847   3.669  0.7265 -0.1153  0.2075
18173SOL    HW156003   1.052   1.872   3.630  0.6459 -0.9777 -0.1863
18173SOL    HW256004   1.136   1.752   3.666  2.2342 -0.0968 -0.9096
18174SOL     OW56005   7.823   6.249   0.782 -0.1560 -0.3884 -0.0200
18174SOL    HW156006   7.888   6.194   0.739  0.2021  0.0466 -0.0361
18174SOL    HW256007   7.859   6.266   0.869 -0.4007 -0.4152  0.0884
18175SOL     OW56008   3.244   0.722   4.290  0.2945 -0.0700 -0.0889
18175SOL    HW156009   3.181   0.764   4.232  0.0345  0.0523  0.2820
18175SOL    HW256010   3.306   0.679   4.231  0.3969  0.5939 -0.4613
18176SOL     OW56011   2.232   7.284   3.650  0.2321  0.3476 -0.3496
18176SOL    HW156012   2.170   7.283   3.723  0.9271 -0.3557  0.2546
18176SOL    HW256013   2.212   7.363   3.602 -1.3618 -0.0653 -0.3720
18177SOL     OW56014   0.973   0.435   5.996 -0.0927 -0.0098 -0.0166
18177SOL    HW156015   0.946   0.522   5.966  0.5763  0.3937  0.5451
18177SOL    HW256016   0.988   0.386   5.915 -1.3124  0.1215 -0.3356
18178SOL     OW56017   2.466   5.041   6.477  0.2964  0.2074  1.2195
18178SOL    HW156018   2.488   4.981   6.549  1.0641  0.1067  0.9112
18178SOL    HW256019   2.483   4.989   6.398 -0.9587  0.1688  0.9599
18179SOL     OW56020   7.022   7.991   6.601  0.0693 -0.3612  0.7966
18179SOL    HW156021   7.013   8.082   6.630  0.0605  0.6578 -2.1604
18179SOL    HW256022   6.936   7.952   6.616 -0.8849  1.0565 -0.7935
18180SOL     OW56023   6.896   5.842   6.791 -0.5156  0.1065 -0.2599
18180SOL    HW156024   6.804   5.843   6.767 -0.5402 -1.3212 -0.2249
18180SOL    HW256025   6.941   5.885   6.718 -1.2916  1.7047  0.1660
18181SOL     OW56026   1.837   8.056   5.077  0.2185  0.5221  0.5554
18181SOL    HW156027   1.767   7.999   5.108 -2.8955  3.2553 -0.9740
18181SOL    HW256028   1.879   8.089   5.156 -0.7219 -0.6029  1.5394
18182SOL     OW56029   5.753   5.592   0.013 -0.4331 -0.0725 -0.4058
18182SOL    HW156030   5.662   5.612  -0.009 -1.2797 -1.7757  1.3179
18182SOL    HW256031   5.767   5.504  -0.023  0.5490  0.2347 -0.7581
18183SOL     OW56032   3.381   4.193   6.789 -0.2146  0.3098 -0.0832
18183SOL    HW156033   3.353   4.166   6.877 -3.1482  0.7442 -0.8290
18183SOL    HW256034   3.324   4.143   6.730  0.6947  1.1569 -1.6951
18184SOL     OW56035   3.820   2.499   2.384  0.6847 -0.5109  0.3165
18184SOL    HW156036   3.909   2.516   2.415  0.9857  0.3955 -1.0202
18184SOL    HW256037   3.765   2.558   2.436  1.0758  0.2835 -0.1553
18185SOL     OW56038   6.090   6.388   2.043  0.1452 -0.3362 -0.1301
18185SOL    HW156039   6.071   6.370   1.951  1.9785 -1.8254 -0.2530
18185SOL    HW256040   6.113   6.480   2.046 -3.7630  0.7526 -0.4781
18186SOL     OW56041   5.357   8.010   3.629  0.5861 -0.1985  0.0283
18186SOL    HW156042   5.322   8.017   3.718 -1.3012 -1.3415 -0.5858
18186SOL    HW256043   5.446   7.978   3.640  0.1009 -1.0852  1.4685
18187SOL     OW56044   6.106   5.238   8.035 -0.0392  0.3992  0.1859
18187SOL    HW156045   6.044   5.303   8.000 -0.3711  0.9492  1.7421
18187SOL    HW256046   6.076   5.154   8.000 -1.9921  0.5941  1.3759
18188SOL     OW56047   3.769   3.152   0.130 -0.4083  0.1620 -0.3172
18188SOL    HW156048   3.806   3.139   0.043  1.7315 -0.4673  0.6591
18188SOL    HW256049   3.697   3.213   0.116 -1.1131 -1.1547 -2.7553
18189SOL     OW56050   4.600   4.392   3.824  0.0343 -0.0485 -0.4406
18189SOL    HW156051   4.558   4.311   3.853  0.9170 -0.7367 -1.0656
18189SOL    HW256052   4.570   4.458   3.886 -1.0867 -0.7573 -0.2252
18190SOL     OW56053   0.040   2.707   2.696 -0.1790  0.3857 -0.1775
18190SOL    HW156054   0.002   2.645   2.758 -0.4737 -0.4627 -1.2013
18190SOL    HW256055   0.130   2.720   2.727  0.9969 -3.1496 -1.8504
18191SOL     OW56056   7.278   5.567   5.234 -0.0466  0.1040  0.1769
18191SOL    HW156057   7.286   5.565   5.329  0.8187 -1.5065  0.0749
18191SOL    HW256058   7.367   5.557   5.202 -0.4061  0.0110 -0.8241
18192SOL     OW56059   6.254   0.622   1.156  0.4619  0.0301  0.2428
18192SOL    HW156060   6.348   0.620   1.170  0.0020 -1.6694  3.5489
18192SOL    HW256061   6.222   0.688   1.218 -0.6882 -0.5532  0.2893
18193SOL     OW56062   4.386   6.215   5.920  0.3364 -0.6708  0.1302
18193SOL    HW156063   4.428   6.146   5.868  1.2517  0.2805 -0.4215
18193SOL    HW256064   4.294   6.188   5.926  0.2757 -0.9559 -1.7391
18194SOL     OW56065   4.400   2.079   3.990  0.9425 -0.2059  0.0046
18194SOL    HW156066   4.325   2.020   3.990  0.4550  0.4057  0.2660
18194SOL    HW256067   4.476   2.021   3.989  0.4691 -0.8124 -1.2445
18195SOL     OW56068   0.259   2.038   1.052 -0.3150  0.0398 -0.0896
18195SOL    HW156069   0.270   1.944   1.035  0.0271  0.2054 -0.8033
18195SOL    HW256070   0.227   2.073   0.969  1.7227  0.9333 -0.5082
18196SOL     OW56071   3.108   1.276   6.508  0.4627 -0.0840  0.2509
18196SOL    HW156072   3.197   1.254   6.533  0.4186 -0.7126 -0.1591
18196SOL    HW256073   3.053   1.221   6.564  0.3498 -0.7371 -0.4976
18197SOL     OW56074   1.092   7.522   2.437  0.0885  0.6250  0.1547
18197SOL    HW156075   1.109   7.521   2.343  2.1220 -1.4272  0.5029
18197SOL    HW256076   1.156   7.584   2.473 -1.6355  2.5062  0.0553
18198SOL     OW56077   8.228   0.390   3.412 -0.4642  0.6673 -0.1700
18198SOL    HW156078   8.316   0.417   3.438 -0.1362 -0.6877  0.1760
18198SOL    HW256079   8.217   0.425   3.324 -0.4600  2.7917  0.6371
18199SOL     OW56080   4.886   2.864   6.613 -0.1194 -0.2990  0.4008
18199SOL    HW156081   4.962   2.854   6.555  0.1293  0.2015  0.6363
18199SOL    HW256082   4.812   2.873   6.553  0.1813  0.5636  0.1416
18200SOL     OW56083   6.579   1.351   8.027 -0.3088  0.7048  0.1124
18200SOL    HW156084   6.645   1.386   7.968 -0.3569  0.8138  0.1230
18200SOL    HW256085   6.614   1.266   8.054 -0.3176  0.6280 -0.1225
18201SOL     OW56086   3.168   0.069   4.810  0.6954  0.4050 -0.3619
18201SOL    HW156087   3.180   0.012   4.885  1.9367  1.3393  0.1649
18201SOL    HW256088   3.208   0.152   4.836  1.0799  0.7603 -2.0194
18202SOL     OW56089   1.750   6.940   6.566 -0.2262  0.0589 -0.3214
18202SOL    HW156090   1.823   6.889   6.533  0.7263  1.0482  0.2469
18202SOL    HW256091   1.673   6.887   6.546  0.5086 -0.3625 -2.1734
18203SOL     OW56092   7.606   7.924   8.087  0.4697 -0.1078 -0.0118
18203SOL    HW156093   7.644   7.836   8.088  1.6077  0.3732 -0.2522
18203SOL    HW256094   7.658   7.972   8.022 -0.8279  0.4447 -0.6561
18204SOL     OW56095   2.010   0.588   0.242  0.0862 -0.3931  0.1707
18204SOL    HW156096   1.966   0.590   0.328 -0.0375 -0.9575  0.1179
18204SOL    HW256097   1.969   0.515   0.196 -0.3375  0.3533 -0.6367
18205SOL     OW56098   5.591   2.662   1.579  0.2342 -0.4836  0.1394
18205SOL    HW156099   5.546   2.726   1.635 -1.4675 -2.7349  1.4401
18205SOL    HW256100   5.681   2.659   1.612  0.1865  0.8377  0.4043
18206SOL     OW56101   2.697   1.953   1.442  0.0497  0.7567 -0.1412
18206SOL    HW156102   2.665   1.992   1.360 -1.6361  0.9052  0.5693
18206SOL    HW256103   2.644   1.993   1.510  0.9945  0.1363  0.9758
18207SOL     OW56104   5.933   4.664   2.970 -0.0409 -0.0450  0.2275
18207SOL    HW156105   5.859   4.686   3.026 -0.6708 -1.7904  0.1135
18207SOL    HW256106   5.907   4.583   2.926  1.5153 -0.1220 -0.6054
18208SOL     OW56107   2.564   0.625   0.220  0.3266 -0.3877 -0.0496
18208SOL    HW156108   2.539   0.650   0.309  0.8309  1.8301 -0.4907
18208SOL    HW256109   2.495   0.661   0.165  0.2988 -1.2788 -0.5957
18209SOL     OW56110   4.656   1.068   3.853 -0.2079 -0.1866 -0.1970
18209SOL    HW156111   4.600   0.991   3.866 -1.0129  0.4191 -0.0193
18209SOL    HW256112   4.662   1.107   3.940 -1.0274  0.7715 -0.5606
18210SOL     OW56113   4.182   1.419   5.272  0.5577  0.2231  0.4203
18210SOL    HW156114   4.086   1.425   5.268  0.3960 -1.2735  1.3746
18210SOL    HW256115   4.211   1.437   5.182 -0.7056 -0.4062 -0.1365
18211SOL     OW56116   3.321   3.498   1.503  0.0114 -0.9609 -0.9647
18211SOL    HW156117   3.370   3.568   1.461  2.3056  0.2217  3.3962
18211SOL    HW256118   3.378   3.422   1.499  0.3371 -0.7870  0.0944
18212SOL     OW56119   1.580   0.241   0.602  0.4222  0.2972  0.5028
18212SOL    HW156120   1.500   0.198   0.632 -0.2553  0.6603 -0.7722
18212SOL    HW256121   1.611   0.289   0.679 -1.0679  0.8725  0.7656
18213SOL     OW56122   7.298   3.750   2.407  0.1026 -0.3089  0.2967
18213SOL    HW156123   7.276   3.696   2.332  1.3460 -0.0251 -0.2900
18213SOL    HW256124   7.221   3.806   2.420 -0.1594 -0.4371 -0.6946
18214SOL     OW56125   1.315   7.600   1.176  0.3253  0.5835 -0.1627
18214SOL    HW156126   1.319   7.592   1.081 -0.4885 -1.1391 -0.0745
18214SOL    HW256127   1.221   7.592   1.197  0.8213 -2.9687  1.0461
18215SOL     OW56128   3.236   1.265   6.230  0.2915  0.1485 -0.8536
18215SOL    HW156129   3.247   1.173   6.207  0.3669  0.1033 -0.6365
18215SOL    HW256130   3.151   1.269   6.274 -0.2387  0.3745 -1.8664
18216SOL     OW56131   0.337   3.092   2.858  0.0487  0.4864 -0.0753
18216SOL    HW156132   0.309   3.166   2.804  1.0481  1.4048  0.6325
18216SOL    HW256133   0.433   3.098   2.859  0.2432 -1.7368 -1.2811
18217SOL     OW56134   3.037   2.006   4.787  0.5662 -0.6834 -0.1786
18217SOL    HW156135   2.965   2.003   4.851 -0.2108  1.7065 -0.8826
18217SOL    HW256136   3.098   1.938   4.817 -0.7879 -1.0634  1.8706
18218SOL     OW56137   0.793   5.166   5.883 -0.3523  0.3911  0.0432
18218SOL    HW156138   0.820   5.168   5.975 -0.5933 -0.6112  0.1420
18218SOL    HW256139   0.715   5.111   5.881 -0.6791  0.8637 -0.6822
18219SOL     OW56140   2.837   4.567   7.047 -0.2135  0.2312 -0.2186
18219SOL    HW156141   2.821   4.490   7.102 -2.0071  0.3142 -0.6202
18219SOL    HW256142   2.863   4.531   6.962 -1.7305  0.0649 -0.6116
18220SOL     OW56143   8.071   2.405   5.973 -0.0672  0.1860  0.4864
18220SOL    HW156144   8.120   2.381   6.052  0.8712  1.1364  0.2068
18220SOL    HW256145   7.999   2.459   6.004 -1.2129 -1.5724  0.9471
18221SOL     OW56146   0.035   0.647   7.606 -0.0897 -0.0315  0.3136
18221SOL    HW156147   0.004   0.677   7.521  1.5699  3.1349  0.7097
18221SOL    HW256148  -0.038   0.665   7.666 -0.2727  0.2679  0.0000
18222SOL     OW56149   6.805   7.776   4.870 -0.3241 -0.5476  0.3063
18222SOL    HW156150   6.833   7.696   4.826  1.5934  0.3505 -0.1732
18222SOL    HW256151   6.719   7.796   4.832 -0.0866 -1.4802 -0.7550
18223SOL     OW56152   5.179   1.717   0.104  0.5417 -0.5010 -0.4789
18223SOL    HW156153   5.203   1.760   0.021 -3.4237  0.5682 -1.1479
18223SOL    HW256154   5.199   1.625   0.089  3.2702  0.1462 -1.2673
18224SOL     OW56155   3.641   3.899   5.577 -0.6236 -0.3629 -0.3586
18224SOL    HW156156   3.578   3.952   5.528 -0.4797 -0.4412 -0.6331
18224SOL    HW256157   3.646   3.941   5.663  0.3943  0.8129 -0.9648
18225SOL     OW56158   2.589   6.188   7.547 -0.1501  0.2375  0.2841
18225SOL    HW156159   2.562   6.222   7.462 -2.5767 -0.2351  0.8374
18225SOL    HW256160   2.510   6.146   7.582  1.0901 -0.4267  2.3382
18226SOL     OW56161   1.456   1.947   6.627  0.0989 -0.0185  0.4084
18226SOL    HW156162   1.441   1.992   6.711 -0.8730 -0.2831  0.3810
18226SOL    HW256163   1.524   1.883   6.647 -0.2460 -0.1983  1.0392
18227SOL     OW56164   7.089   7.857   7.436 -0.0783 -0.1806  0.1995
18227SOL    HW156165   7.129   7.802   7.504 -0.0034 -1.3707 -0.8019
18227SOL    HW256166   7.162   7.883   7.380 -0.0616  1.2382  0.8634
18228SOL     OW56167   3.448   4.977   6.446 -0.0478 -0.2794  0.7244
18228SOL    HW156168   3.520   4.915   6.460  0.6010  0.3810  0.3658
18228SOL    HW256169   3.369   4.927   6.467  0.3921 -1.5272 -0.4951
18229SOL     OW56170   8.098   8.180   7.192 -0.2083 -0.3391  0.0965
18229SOL    HW156171   8.158   8.157   7.262 -0.7673 -1.0027  0.3596
18229SOL    HW256172   8.067   8.096   7.157  1.0022 -0.0516 -1.7616
18230SOL     OW56173   8.109   7.222   7.486  0.0822  0.1055 -0.2439
18230SOL    HW156174   8.079   7.167   7.558  0.9044  2.2499  1.8094
18230SOL    HW256175   8.102   7.311   7.519 -2.2195  1.3779 -3.8517
18231SOL     OW56176   8.241   5.992   7.433 -0.0955 -0.1130  0.1816
18231SOL    HW156177   8.288   5.909   7.433 -1.8761 -1.1492  0.4341
18231SOL    HW256178   8.296   6.051   7.381  0.4980 -1.8471 -1.2030
18232SOL     OW56179   0.588   3.955   0.812  0.2048 -0.0981 -0.4667
18232SOL    HW156180   0.545   3.876   0.778  1.5622 -0.7925 -0.5931
18232SOL    HW256181   0.561   3.959   0.904  0.1408 -0.7110 -0.4573
18233SOL     OW56182   7.297   1.329   0.101 -0.3050 -0.0448 -0.2341
18233SOL    HW156183   7.205   1.303   0.099 -0.8248  1.7777 -1.8328
18233SOL    HW256184   7.339   1.272   0.036 -0.8515  0.9673 -1.4997
18234SOL     OW56185   0.006   5.338   2.954 -0.0690  0.5125 -0.2720
18234SOL    HW156186  -0.012   5.398   2.882 -0.8710  0.1106 -0.4138
18234SOL    HW256187  -0.054   5.365   3.024  1.6437  1.7691  0.7574
18235SOL     OW56188   6.913   0.298   2.092 -0.0052  0.2832  0.2051
18235SOL    HW156189   6.952   0.252   2.166  0.0817  0.7744  0.4606
18235SOL    HW256190   6.830   0.331   2.126 -1.3457 -2.0001 -0.7292
18236SOL     OW56191   5.115   3.526   4.665  0.2088 -0.2581  0.7020
18236SOL    HW156192   5.065   3.503   4.743 -1.1778 -0.3281 -0.1882
18236SOL    HW256193   5.196   3.475   4.673 -0.0172 -0.4364  1.9751
18237SOL     OW56194   4.687   4.148   8.003 -0.0208 -0.3895  0.3566
18237SOL    HW156195   4.717   4.078   7.945  1.0103  0.3722 -0.0532
18237SOL    HW256196   4.644   4.103   8.076 -0.6121 -1.3810 -0.6051
18238SOL     OW56197   7.382   8.137   3.659 -0.4113  0.4108  0.5377
18238SOL    HW156198   7.328   8.156   3.736 -1.5480  0.0042 -0.1378
18238SOL    HW256199   7.455   8.086   3.692 -1.7344 -1.1384  1.1290
18239SOL     OW56200   3.292   1.947   7.268  0.0638  0.1027  0.3190
18239SOL    HW156201   3.262   2.026   7.313  0.1185  1.3967 -1.8262
18239SOL    HW256202   3.214   1.914   7.223 -0.4677 -2.2916  2.8335
18240SOL     OW56203   1.925   2.646   4.202 -0.1694 -0.2668  0.0764
18240SOL    HW156204   1.970   2.686   4.277 -4.3595  1.9257  1.5737
18240SOL    HW256205   1.858   2.590   4.241 -1.2248 -0.5368 -2.0500
18241SOL     OW56206   7.253   4.203   4.400  0.6176 -0.3925 -0.4388
18241SOL    HW156207   7.296   4.135   4.348 -0.6600 -0.9792 -0.7753
18241SOL    HW256208   7.288   4.285   4.365  0.4752 -0.8116 -1.6117
18242SOL     OW56209   5.177   7.804   7.881 -0.2238  0.5882 -0.6955
18242SOL    HW156210   5.173   7.709   7.872  1.1122  0.5717 -1.2740
18242SOL    HW256211   5.130   7.823   7.962  1.9159 -0.8254  0.9449
18243SOL     OW56212   7.364   5.333   6.817 -0.1155  0.0765  0.3469
18243SOL    HW156213   7.357   5.239   6.799  1.0342  0.5555 -2.9404
18243SOL    HW256214   7.455   5.345   6.845 -0.5508  0.0658  1.7811
18244SOL     OW56215   7.969   0.008   0.083 -0.0525 -0.1628 -0.1085
18244SOL    HW156216   8.010   0.056   0.155 -2.0418  0.6733  0.4929
18244SOL    HW256217   7.972   0.069   0.009  0.7764 -0.5151 -0.3645
18245SOL     OW56218   0.188   8.072   6.671  0.0156 -0.4752  0.5802
18245SOL    HW156219   0.129   8.036   6.738  1.2272 -1.5272  1.1088
18245SOL    HW256220   0.214   7.996   6.619 -1.4251  0.4231 -1.5315
18246SOL     OW56221   3.327   6.447   4.135  0.2217  0.3312  0.0542
18246SOL    HW156222   3.278   6.525   4.161 -1.5402  0.3036 -2.9424
18246SOL    HW256223   3.411   6.480   4.105  0.9965  0.6692  2.5735
18247SOL     OW56224   4.110   4.872   5.581  0.0105 -0.1730 -0.1607
18247SOL    HW156225   4.192   4.912   5.552  0.6339 -2.1311 -1.1494
18247SOL    HW256226   4.048   4.892   5.511 -0.6988  2.2601  1.0915
18248SOL     OW56227   6.244   4.018   5.556 -0.4242 -0.1993  0.1702
18248SOL    HW156228   6.175   4.084   5.560 -0.4653 -0.1145 -1.4324
18248SOL    HW256229   6.276   4.010   5.646 -1.2004  1.1693  0.5778
18249SOL     OW56230   2.979   0.611   5.685  0.4584 -0.0382  0.0601
18249SOL    HW156231   2.942   0.573   5.605  1.5994 -1.2378  0.0957
18249SOL    HW256232   2.927   0.572   5.755  1.2415 -1.0781  0.0616
18250SOL     OW56233   6.734   2.906   3.655 -0.5712 -0.5074 -0.0771
18250SOL    HW156234   6.813   2.910   3.602 -0.9129  0.0448 -0.5493
18250SOL    HW256235   6.765   2.887   3.744  0.1434  0.4580 -0.1138
18251SOL     OW56236   2.931   2.595   1.389 -0.0003  0.0531  0.0476
18251SOL    HW156237   3.022   2.565   1.390  0.1039  0.3742  0.1368
18251SOL    HW256238   2.898   2.573   1.477 -0.6650 -2.0687 -0.6914
18252SOL     OW56239   0.800   1.331   1.315 -0.1039  0.0440  0.0298
18252SOL    HW156240   0.730   1.395   1.330 -1.1586 -0.6570 -1.7663
18252SOL    HW256241   0.769   1.252   1.360 -0.0519 -0.0040 -0.0209
18253SOL     OW56242   6.857   2.690   1.408 -0.9372 -0.0072  0.0217
18253SOL    HW156243   6.796   2.676   1.480  1.0323  0.6318  1.8609
18253SOL    HW256244   6.809   2.746   1.347 -2.9255 -1.2103  0.4247
18254SOL     OW56245   2.184   1.602   8.122  0.0011  0.4566  0.3229
18254SOL    HW156246   2.096   1.631   8.098 -0.4420  0.4558  1.9360
18254SOL    HW256247   2.190   1.514   8.083 -0.9075  0.2336  0.6681
18255SOL     OW56248   2.213   5.214   4.619 -0.4304 -0.1643  0.6851
18255SOL    HW156249   2.230   5.158   4.544 -1.2893  2.0511 -1.2400
18255SOL    HW256250   2.275   5.186   4.686  0.6272 -1.8932 -0.9989
18256SOL     OW56251   2.401   1.610   1.350  0.6566 -0.2606  0.0346
18256SOL    HW156252   2.496   1.619   1.354  0.7189  0.1986 -2.1167
18256SOL    HW256253   2.367   1.694   1.383  1.0046 -0.1721  0.1673
18257SOL     OW56254   7.746   1.650   1.161  0.5073 -0.5218 -0.2900
18257SOL    HW156255   7.692   1.721   1.126  1.7530  0.3803 -0.4222
18257SOL    HW256256   7.831   1.661   1.118  1.0033 -1.5195  0.4111
18258SOL     OW56257   2.570   2.558   7.451  0.4369  0.1125 -0.1846
18258SOL    HW156258   2.501   2.621   7.472  0.3589 -0.2424  0.6685
18258SOL    HW256259   2.623   2.601   7.384 -2.5418 -0.9296 -3.3034
18259SOL     OW56260   4.456   4.439   1.831  0.2658 -0.5098 -0.5131
18259SOL    HW156261   4.452   4.531   1.801  2.4671  0.2703  1.4515
18259SOL    HW256262   4.473   4.389   1.751 -1.6866  0.6691 -1.7272
18260SOL     OW56263   4.896   0.215   5.739 -0.2017 -0.1921  0.7357
18260SOL    HW156264   4.856   0.173   5.815  0.1786 -1.4582  0.2558
18260SOL    HW256265   4.985   0.236   5.768 -0.3201  0.0675  0.9068
18261SOL     OW56266   4.651   5.581   6.554  0.8177 -0.0231  0.3602
18261SOL    HW156267   4.705   5.647   6.597  0.5770  1.7849 -2.0134
18261SOL    HW256268   4.703   5.552   6.479 -1.0176  0.9799 -1.3506
18262SOL     OW56269   3.364   3.163   6.928  0.0756 -0.7264  0.4400
18262SOL    HW156270   3.340   3.106   6.856  2.1709 -0.5589 -0.4328
18262SOL    HW256271   3.459   3.177   6.917  0.0206  1.0500  1.9429
18263SOL     OW56272   6.687   3.436   3.076 -0.2550  0.4132 -0.5817
18263SOL    HW156273   6.673   3.390   3.159  0.0212  2.4602  0.6397
18263SOL    HW256274   6.606   3.486   3.063  0.2213  1.1224 -0.8606
18264SOL     OW56275   6.445   0.327   7.877 -0.4974 -0.1383 -0.6122
18264SOL    HW156276   6.459   0.300   7.786 -1.1636 -0.4454 -0.6235
18264SOL    HW256277   6.448   0.423   7.874  0.8828 -0.1788 -0.7292
18265SOL     OW56278   4.919   2.375   0.879  0.3992  0.4107  0.4798
18265SOL    HW156279   4.853   2.322   0.924 -0.1945  0.0629 -0.7579
18265SOL    HW256280   4.869   2.420   0.810  1.4054  0.4110 -0.2485
18266SOL     OW56281   5.851   7.650   5.167  0.6242  0.4120 -0.2975
18266SOL    HW156282   5.848   7.662   5.072  0.1856  1.8192 -0.1179
18266SOL    HW256283   5.777   7.592   5.186  0.3512  0.6028 -0.7539
18267SOL     OW56284   3.909   1.894   1.643 -0.2597 -0.4088 -0.1575
18267SOL    HW156285   3.900   1.822   1.706  0.2655  0.4899  0.9719
18267SOL    HW256286   3.833   1.885   1.585 -0.3372 -1.7099  0.1290
18268SOL     OW56287   5.922   7.966   2.514 -1.1044 -0.5445 -0.1653
18268SOL    HW156288   6.002   8.009   2.484 -0.5969 -0.9667  0.5591
18268SOL    HW256289   5.900   7.904   2.444  0.3646 -1.9016  0.5452
18269SOL     OW56290   5.554   2.642   3.481 -0.3979  0.1741  0.1462
18269SOL    HW156291   5.595   2.724   3.454 -0.4370  0.0141 -0.4027
18269SOL    HW256292   5.461   2.663   3.489 -0.3358  0.3135  0.5270
18270SOL     OW56293   7.381   6.416   6.723 -0.4450 -0.4654  0.3101
18270SOL    HW156294   7.331   6.497   6.735 -2.7761 -1.7243 -0.6399
18270SOL    HW256295   7.414   6.395   6.810 -1.0605  0.6894  0.8404
18271SOL     OW56296   3.276   1.068   0.167 -0.4047  0.2451 -0.4042
18271SOL    HW156297   3.285   0.973   0.172  1.6002  0.4301 -0.0437
18271SOL    HW256298   3.206   1.082   0.103 -1.7628 -1.4857  0.6419
18272SOL     OW56299   0.470   0.681   5.480  0.6427  0.1259 -0.5646
18272SOL    HW156300   0.473   0.603   5.535  1.6192 -0.6950 -1.7523
18272SOL    HW256301   0.505   0.751   5.536  0.0593 -0.3446  0.4015
18273SOL     OW56302   0.831   4.540   1.627 -0.4246  0.1625  0.2032
18273SOL    HW156303   0.772   4.476   1.668 -0.2919 -0.6018 -0.7792
18273SOL    HW256304   0.774   4.615   1.607 -0.4078  0.7390  2.1486
18274SOL     OW56305   4.367   2.391   7.092 -0.5326 -0.0663  0.4487
18274SOL    HW156306   4.437   2.333   7.121 -0.0663  0.5853  0.6390
18274SOL    HW256307   4.402   2.436   7.016 -1.4129 -1.0635 -0.5779
18275SOL     OW56308   3.311   5.567   1.513 -0.2497 -0.2673 -0.0624
18275SOL    HW156309   3.283   5.501   1.576  1.4922  0.0456  1.0496
18275SOL    HW256310   3.401   5.544   1.492  0.3510  1.6718  0.2435
18276SOL     OW56311   4.881   0.619   2.580 -0.2917 -0.4462 -0.0372
18276SOL    HW156312   4.961   0.671   2.576 -0.2210 -0.4722  0.8620
18276SOL    HW256313   4.876   0.575   2.495  1.2730 -1.3541  0.3249
18277SOL     OW56314   0.251   8.064   5.246  0.1389  0.2319 -0.4216
18277SOL    HW156315   0.175   8.012   5.220 -0.1104  1.0670 -1.3988
18277SOL    HW256316   0.313   8.054   5.173 -0.2336  1.9375 -0.9818
18278SOL     OW56317   3.861   5.719   4.050 -0.2051  0.3900 -0.0538
18278SOL    HW156318   3.882   5.779   4.121 -0.5508 -0.4058  0.7416
18278SOL    HW256319   3.766   5.710   4.055 -0.2129  0.2287 -0.5325
18279SOL     OW56320   7.000   6.482   8.293  0.1580  0.4758 -0.6292
18279SOL    HW156321   7.068   6.418   8.273  0.7121  0.2106  1.9697
18279SOL    HW256322   7.029   6.562   8.249  1.0104 -0.2250 -1.3688
18280SOL     OW56323   1.457   6.121   2.892  0.3501 -0.0398  0.3964
18280SOL    HW156324   1.425   6.047   2.840  1.0390  1.4885 -2.2862
18280SOL    HW256325   1.526   6.083   2.947 -0.0614 -1.6158 -0.1477
18281SOL     OW56326   3.493   3.604   7.075 -0.1918 -0.2335  0.0237
18281SOL    HW156327   3.428   3.656   7.123 -0.1707 -1.4274  1.3999
18281SOL    HW256328   3.448   3.577   6.995 -1.3158 -0.8053  0.8351
18282SOL     OW56329   2.022   3.579   0.364 -0.7947 -0.0021  0.4567
18282SOL    HW156330   2.094   3.595   0.425 -0.6465  2.8068 -0.3725
18282SOL    HW256331   1.953   3.541   0.418  0.9298 -1.8431  1.4519
18283SOL     OW56332   4.921   5.755   5.562  0.2377  0.1242  0.0393
18283SOL    HW156333   4.981   5.791   5.497 -1.3117 -0.8018 -1.9805
18283SOL    HW256334   4.933   5.660   5.557 -0.7494 -0.0235  0.2033
18284SOL     OW56335   2.954   4.699   2.074  0.4895  0.0239  0.3613
18284SOL    HW156336   3.027   4.725   2.018 -0.6658 -0.6043 -1.4737
18284SOL    HW256337   2.891   4.770   2.066  0.3156 -0.0704  0.8637
18285SOL     OW56338   1.870   1.956   1.008 -0.0116  0.1434  0.3999
18285SOL    HW156339   1.795   1.942   0.951  0.9726 -1.0006 -0.6239
18285SOL    HW256340   1.931   1.886   0.986  1.6826  1.4945  0.6743
18286SOL     OW56341   0.653   5.066   8.302 -0.1976  0.1819 -0.7193
18286SOL    HW156342   0.559   5.082   8.314 -0.1918 -1.0008  0.9144
18286SOL    HW256343   0.663   5.058   8.207 -2.0206 -1.3523 -0.8086
18287SOL     OW56344   1.304   1.676   2.009 -0.0405  0.3989  0.7033
18287SOL    HW156345   1.221   1.721   1.993  0.6121  1.7762  1.2030
18287SOL    HW256346   1.335   1.711   2.092 -0.0672 -1.7894  1.6898
18288SOL     OW56347   6.528   7.454   6.559  0.0710  0.8399 -0.2098
18288SOL    HW156348   6.529   7.485   6.469 -0.6067 -0.4027 -0.6522
18288SOL    HW256349   6.611   7.484   6.596  0.8346  0.3986 -1.5572
18289SOL     OW56350   3.825   5.785   1.529 -0.1248  0.5143 -0.5190
18289SOL    HW156351   3.836   5.693   1.505  0.3350  0.1902  0.9027
18289SOL    HW256352   3.915   5.816   1.544 -0.4790  0.2876  2.2900
18290SOL     OW56353   6.764   6.147   6.223  0.0889 -0.5118 -0.0198
18290SOL    HW156354   6.742   6.055   6.239  0.9296 -0.7195 -0.0581
18290SOL    HW256355   6.732   6.193   6.301 -2.4450 -0.4879 -0.9992
18291SOL     OW56356   1.674   2.807   1.667  0.2874  0.9111 -0.2484
18291SOL    HW156357   1.676   2.712   1.678  0.7751  1.1777  2.1869
18291SOL    HW256358   1.736   2.824   1.596  1.2612 -0.4637  0.2579
18292SOL     OW56359   0.494   7.833   4.855 -0.0583 -0.7018  0.0083
18292SOL    HW156360   0.428   7.861   4.918 -1.9194 -0.5734 -1.9339
18292SOL    HW256361   0.476   7.884   4.776  0.7242 -2.5210 -1.4079
18293SOL     OW56362   5.309   1.560   6.334  0.2414 -0.2568  0.2792
18293SOL    HW156363   5.374   1.511   6.283 -0.1375  0.3384 -0.7784
18293SOL    HW256364   5.233   1.565   6.277  0.4960  2.1338  0.1190
18294SOL     OW56365   2.056   4.874   8.113  0.0699 -0.0813 -0.3619
18294SOL    HW156366   2.030   4.965   8.127  0.4574  0.0116 -0.2512
18294SOL    HW256367   2.139   4.864   8.159 -0.4997 -0.7882  0.5293
18295SOL     OW56368   4.693   8.027   1.931  0.0586 -0.0243 -0.2280
18295SOL    HW156369   4.746   7.960   1.973 -2.7993 -1.2429  1.6252
18295SOL    HW256370   4.749   8.063   1.862  2.2768 -3.0584 -0.1057
18296SOL     OW56371   2.864   2.076   7.107 -0.1554 -0.1184  0.3485
18296SOL    HW156372   2.889   2.147   7.167  1.3782  0.6456 -1.1752
18296SOL    HW256373   2.778   2.102   7.075  0.3118  0.9655 -0.0514
18297SOL     OW56374   7.035   3.597   4.481 -0.4663  0.1715  0.6072
18297SOL    HW156375   7.089   3.562   4.552 -0.4343  0.0962  0.5460
18297SOL    HW256376   7.056   3.690   4.479  0.0732  0.0443  0.2211
18298SOL     OW56377   0.751   4.559   5.791 -0.3868  0.5010 -0.1217
18298SOL    HW156378   0.829   4.597   5.833 -0.8306  1.7793 -0.4118
18298SOL    HW256379   0.686   4.556   5.861  0.2396 -1.5433  0.3774
18299SOL     OW56380   3.825   1.126   2.544 -0.0149  0.4199  0.0052
18299SOL    HW156381   3.732   1.149   2.541 -0.4419 -1.1690  0.3948
18299SOL    HW256382   3.867   1.202   2.583 -1.1221  1.2362 -0.3541
18300SOL     OW56383   3.289   1.702   3.961  0.5998 -0.5619  0.6006
18300SOL    HW156384   3.293   1.744   4.047 -0.0668 -0.3035  0.5089
18300SOL    HW256385   3.279   1.609   3.981  0.6253 -0.5226  0.8047
18301SOL     OW56386   3.758   5.969   5.627 -0.0925  0.0793 -0.7337
18301SOL    HW156387   3.769   6.002   5.538 -1.4332  1.1723 -0.5077
18301SOL    HW256388   3.703   6.033   5.671  0.2325 -0.6363  0.7893
18302SOL     OW56389   1.072   2.374   4.476  0.2937 -0.1883  0.0091
18302SOL    HW156390   1.063   2.406   4.386  2.8113 -1.5312 -0.7586
18302SOL    HW256391   1.166   2.361   4.488  0.0955  0.7756  3.1520
18303SOL     OW56392   7.677   1.326   5.908  0.1952  0.1512  0.1545
18303SOL    HW156393   7.615   1.360   5.843  0.4009  1.7425  0.7690
18303SOL    HW256394   7.761   1.363   5.881  0.2355  1.0280  1.4607
18304SOL     OW56395   5.281   6.959   4.105 -0.3557  0.2990  0.2885
18304SOL    HW156396   5.309   6.883   4.156  0.3304  0.4275  0.1029
18304SOL    HW256397   5.274   6.926   4.015  3.1306  1.2304 -0.3756
18305SOL     OW56398   6.868   2.534   2.958  0.2054  0.0325 -0.3948
18305SOL    HW156399   6.887   2.566   2.870  0.8900 -0.0104 -0.2668
18305SOL    HW256400   6.850   2.614   3.009  3.5882  0.3996  0.3285
18306SOL     OW56401   7.419   5.320   4.306 -0.2873 -0.3530 -0.1513
18306SOL    HW156402   7.418   5.327   4.402 -1.9478  1.1438 -0.2415
18306SOL    HW256403   7.390   5.231   4.288 -2.0191  0.0244  0.7087
18307SOL     OW56404   3.243   0.611   1.624 -0.9976 -0.3088  0.0519
18307SOL    HW156405   3.266   0.688   1.677 -0.2704  0.7360 -1.7661
18307SOL    HW256406   3.174   0.568   1.675  0.3550  0.1316  2.3399
18308SOL     OW56407   2.575   2.299   0.935  0.5041  0.4758 -0.3918
18308SOL    HW156408   2.561   2.393   0.943  1.3851  0.5835 -0.0028
18308SOL    HW256409   2.500   2.267   0.885  0.8390  1.5828 -1.6246
18309SOL     OW56410   6.006   6.812   5.737 -0.2855  0.5113 -0.3228
18309SOL    HW156411   6.014   6.887   5.796 -0.0706  1.5397 -1.6369
18309SOL    HW256412   6.076   6.753   5.764  1.0283  1.8257 -0.7506
18310SOL     OW56413   0.869   4.049   8.229  0.0749  0.2502  0.1414
18310SOL    HW156414   0.811   4.019   8.159  2.8031 -0.8510 -1.7077
18310SOL    HW256415   0.890   3.970   8.279 -1.9133  1.0417  2.3097
18311SOL     OW56416   5.307   7.057   5.250 -0.3680 -0.1310 -0.4456
18311SOL    HW156417   5.364   7.069   5.326 -0.7960 -1.3366  0.0768
18311SOL    HW256418   5.289   7.146   5.219 -0.6855  0.4107  1.2366
18312SOL     OW56419   4.496   6.062   5.570  0.2162 -0.2845  0.6273
18312SOL    HW156420   4.499   6.009   5.650  0.8216 -1.1048  0.0674
18312SOL    HW256421   4.540   6.008   5.504  0.4175  0.7229 -0.0656
18313SOL     OW56422   4.501   2.245   4.206 -0.7565  0.1061  0.0923
18313SOL    HW156423   4.586   2.243   4.162  0.1734  0.0548  1.8572
18313SOL    HW256424   4.442   2.201   4.145  0.3540  0.6555 -1.4113
18314SOL     OW56425   3.214   5.274   5.678  0.1820  0.0052  0.0612
18314SOL    HW156426   3.292   5.273   5.733  0.2011 -0.2102  0.0277
18314SOL    HW256427   3.246   5.294   5.590  0.2334 -0.4063 -0.0115
18315SOL     OW56428   2.708   2.982   0.192  0.3403  0.5543 -0.1918
18315SOL    HW156429   2.645   2.928   0.240 -0.9902  2.3304  0.0863
18315SOL    HW256430   2.718   3.061   0.245  0.3107  1.7139 -1.8675
18316SOL     OW56431   6.384   5.411   0.862 -0.0751 -0.0288  0.0020
18316SOL    HW156432   6.435   5.333   0.838 -0.1124 -0.0987  0.1514
18316SOL    HW256433   6.366   5.401   0.956 -1.3099 -0.5528 -0.2762
18317SOL     OW56434   3.539   5.265   1.587 -0.5744  0.4005 -0.1007
18317SOL    HW156435   3.501   5.264   1.676  1.6750 -0.4140  0.8885
18317SOL    HW256436   3.605   5.334   1.590  1.0947 -1.1535 -0.4304
18318SOL     OW56437   1.786   7.033   6.842 -0.4951  0.0299  0.1837
18318SOL    HW156438   1.765   6.975   6.915 -0.4095  1.6194  1.4926
18318SOL    HW256439   1.724   7.009   6.773 -2.5090  0.4594  1.8074
18319SOL     OW56440   3.491   3.064   3.333  0.4288 -0.0389 -0.1890
18319SOL    HW156441   3.527   3.056   3.422  1.4540  1.6925 -0.4374
18319SOL    HW256442   3.568   3.064   3.276 -0.1197  0.8553 -0.9305
18320SOL     OW56443   5.631   7.716   6.079  0.7187 -0.3120  0.2902
18320SOL    HW156444   5.727   7.713   6.076  0.8011  1.8440 -0.1541
18320SOL    HW256445   5.611   7.756   6.164  0.1665 -1.9923  0.9617
18321SOL     OW56446   7.404   0.269   4.505  0.3510  0.8282  1.0180
18321SOL    HW156447   7.327   0.234   4.550 -0.7971  0.7633 -0.9432
18321SOL    HW256448   7.369   0.307   4.425  2.4683  0.1349 -0.2556
18322SOL     OW56449   3.219   0.107   2.765  0.0094 -0.3634  0.4460
18322SOL    HW156450   3.167   0.168   2.712  1.5167  0.8649  0.3672
18322SOL    HW256451   3.281   0.162   2.812  1.6507 -1.8608  0.0832
18323SOL     OW56452   0.576   0.882   6.812 -0.5176 -0.0721  0.0950
18323SOL    HW156453   0.553   0.791   6.832  1.2510 -0.2680  1.3550
18323SOL    HW256454   0.666   0.878   6.780 -0.0129  1.3742  1.2913
18324SOL     OW56455   2.825   8.082   0.957 -0.1813  0.2912  0.3590
18324SOL    HW156456   2.816   8.174   0.981  0.5797  0.7774 -1.1681
18324SOL    HW256457   2.892   8.048   1.017  0.2073  0.9622  0.3018
18325SOL     OW56458   7.230   8.141   7.141  0.5146 -0.8217 -0.1215
18325SOL    HW156459   7.179   8.216   7.171  4.2853  1.7395  0.2147
18325SOL    HW256460   7.254   8.095   7.222  1.5664 -0.0444  0.0309
18326SOL     OW56461   5.822   2.686   4.270  0.0569  0.1745  0.6052
18326SOL    HW156462   5.757   2.752   4.248  1.5882  1.0410 -1.4444
18326SOL    HW256463   5.848   2.648   4.186  0.0841 -2.1939  1.6517
18327SOL     OW56464   6.457   6.457   4.187 -0.1275 -0.0658  0.6740
18327SOL    HW156465   6.451   6.368   4.222 -1.4190  0.1653  1.0540
18327SOL    HW256466   6.517   6.449   4.112 -1.4794 -1.5705 -0.2834
18328SOL     OW56467   6.090   5.434   1.367 -0.0744 -0.5792  0.3279
18328SOL    HW156468   6.029   5.507   1.350 -1.5563 -1.4415  1.8041
18328SOL    HW256469   6.033   5.360   1.387  1.4753 -1.2905  2.2298
18329SOL     OW56470   6.049   8.093   4.466 -0.5392  0.2850  0.1463
18329SOL    HW156471   6.105   8.140   4.405 -0.0368 -0.3333  0.1279
18329SOL    HW256472   6.093   8.100   4.551 -0.3905 -0.2633  0.1182
18330SOL     OW56473   6.317   4.250   6.253  0.0362 -0.2064 -0.2513
18330SOL    HW156474   6.224   4.245   6.274  0.3108  3.1189  2.2309
18330SOL    HW256475   6.361   4.233   6.337  1.6723 -1.1942 -1.2826
18331SOL     OW56476   5.620   1.288   5.170  0.7477 -0.0626 -0.1819
18331SOL    HW156477   5.619   1.244   5.085 -0.7310  1.2510 -0.8883
18331SOL    HW256478   5.569   1.368   5.155  2.0312  1.0903  1.4676
18332SOL     OW56479   3.390   0.401   3.368 -0.4016  0.0004 -0.1724
18332SOL    HW156480   3.408   0.442   3.453  1.0914 -1.1271  0.0780
18332SOL    HW256481   3.443   0.321   3.368  0.4573  0.5142 -2.5886
18333SOL     OW56482   7.087   6.779   8.238  0.1577  0.0181 -0.7599
18333SOL    HW156483   7.153   6.746   8.299  0.1675 -0.6898 -1.1468
18333SOL    HW256484   7.137   6.806   8.161 -0.0264 -0.8522 -1.1954
18334SOL     OW56485   7.289   4.572   6.952  0.0062  0.1027 -0.3031
18334SOL    HW156486   7.257   4.662   6.955 -1.3388 -0.3458 -1.1292
18334SOL    HW256487   7.276   4.539   7.041  1.0807  0.9034  0.1663
18335SOL     OW56488   8.265   0.212   1.819 -0.4066 -0.1834  0.3871
18335SOL    HW156489   8.293   0.297   1.851  0.9165 -0.7585  0.7852
18335SOL    HW256490   8.262   0.156   1.897  0.7154 -1.0276 -0.1671
18336SOL     OW56491   5.653   3.067   4.049 -0.3557 -0.5032  0.3075
18336SOL    HW156492   5.580   3.129   4.059  1.1529  1.2794  0.6999
18336SOL    HW256493   5.714   3.111   3.989  0.9393 -1.4040  0.9271
18337SOL     OW56494   1.822   1.873   4.575 -0.1182  0.2626 -0.2706
18337SOL    HW156495   1.789   1.783   4.567  0.2780 -0.0751  1.5278
18337SOL    HW256496   1.821   1.890   4.670  0.3705  1.9422 -0.5575
18338SOL     OW56497   6.094   1.967   2.704  0.3389 -0.3566  0.6093
18338SOL    HW156498   6.046   2.034   2.655  1.1955 -0.1835  0.0137
18338SOL    HW256499   6.171   1.948   2.651  1.3413 -0.0730  1.9516
18339SOL     OW56500   4.200   4.694   4.380 -0.1566 -0.3716 -0.3539
18339SOL    HW156501   4.277   4.749   4.391 -0.5205  0.1807 -0.5749
18339SOL    HW256502   4.231   4.605   4.397  0.9464 -0.3745 -2.3546
18340SOL     OW56503   5.865   3.744   2.586  0.6178  0.2145  0.2380
18340SOL    HW156504   5.934   3.809   2.577 -1.0963  2.0231 -0.4187
18340SOL    HW256505   5.880   3.683   2.514  2.3986 -0.2864  1.0167
18341SOL     OW56506   6.957   3.825   3.632 -0.2114  0.1195 -0.2579
18341SOL    HW156507   7.035   3.845   3.581  0.1596 -1.3091 -0.2668
18341SOL    HW256508   6.887   3.878   3.591  0.2587 -0.3659 -1.6986
18342SOL     OW56509   3.790   7.346   5.826 -0.1026  0.5065  0.2730
18342SOL    HW156510   3.813   7.393   5.907 -0.8965  1.8277 -0.2380
18342SOL    HW256511   3.864   7.289   5.809 -0.0070  0.0795  2.0400
18343SOL     OW56512   6.994   0.707   1.749  0.1645  0.3990 -0.2818
18343SOL    HW156513   6.944   0.630   1.724  1.0304  0.9143 -3.8358
18343SOL    HW256514   6.931   0.764   1.793 -0.5748 -2.0556  1.9915
18344SOL     OW56515   5.157   0.353   2.073  0.1130 -0.1969 -0.2372
18344SOL    HW156516   5.206   0.365   2.155 -0.6172  0.3319  0.1341
18344SOL    HW256517   5.075   0.311   2.101  0.0950 -0.5181 -0.7720
18345SOL     OW56518   1.766   2.193   4.000 -0.3369 -0.1515  0.4341
18345SOL    HW156519   1.701   2.190   4.071 -0.1277  0.1898  0.6414
18345SOL    HW256520   1.740   2.269   3.947 -1.3807 -1.2733 -0.7139
18346SOL     OW56521   3.143   3.685   4.795  0.1653  0.5604 -0.5779
18346SOL    HW156522   3.116   3.644   4.712 -0.1511  1.3679 -0.8840
18346SOL    HW256523   3.071   3.744   4.815 -0.5403 -0.8410  1.1468
18347SOL     OW56524   6.757   3.908   0.678 -0.1411 -0.5693  0.5581
18347SOL    HW156525   6.813   3.966   0.627 -0.0523 -0.7408  0.4605
18347SOL    HW256526   6.818   3.850   0.724 -0.2925 -2.6946 -1.8182
18348SOL     OW56527   2.888   7.578   6.574 -0.0322  0.5217  0.0044
18348SOL    HW156528   2.868   7.592   6.481 -0.1602  0.2178 -0.0127
18348SOL    HW256529   2.984   7.585   6.579  0.0399 -0.2791 -0.2836
18349SOL     OW56530   2.147   3.003   7.732  0.3746 -0.0812 -0.3415
18349SOL    HW156531   2.149   3.096   7.754 -0.7237 -0.3880  1.1326
18349SOL    HW256532   2.139   2.958   7.816  0.4238 -1.4965 -1.0696
18350SOL     OW56533   7.120   0.698   2.615  0.2073  0.2408  0.4305
18350SOL    HW156534   7.039   0.648   2.607  1.3334 -1.2617 -1.9092
18350SOL    HW256535   7.104   0.756   2.690 -2.5467 -0.8906  0.7962
18351SOL     OW56536   6.418   2.474   4.304  0.3331  0.1039 -0.2586
18351SOL    HW156537   6.388   2.518   4.225 -1.5610  1.2633  1.0859
18351SOL    HW256538   6.412   2.381   4.283 -2.1458  0.3482 -0.7852
18352SOL     OW56539   7.935   6.443   2.082 -0.2394 -0.2494  0.4466
18352SOL    HW156540   7.953   6.349   2.084 -0.9751 -0.4658 -1.6594
18352SOL    HW256541   7.865   6.455   2.146  0.4491 -1.0016  1.3452
18353SOL     OW56542   7.370   7.850   4.280  0.2963 -0.1172 -0.2544
18353SOL    HW156543   7.283   7.874   4.311  0.8311  0.4000  0.8666
18353SOL    HW256544   7.373   7.881   4.190 -0.9897 -0.9243 -0.6007
18354SOL     OW56545   4.314   0.707   6.581  0.2587 -0.3524  0.1960
18354SOL    HW156546   4.233   0.660   6.560  0.9863 -1.2602 -0.6139
18354SOL    HW256547   4.291   0.760   6.658 -1.2356 -0.2277 -0.3074
18355SOL     OW56548   3.700   3.500   7.409 -0.1471  0.3707  0.0510
18355SOL    HW156549   3.644   3.459   7.475 -0.4054  0.8006  0.1013
18355SOL    HW256550   3.758   3.557   7.458 -0.4199  0.7824 -0.1011
18356SOL     OW56551   8.241   0.292   3.770  0.2825  0.0148  0.4722
18356SOL    HW156552   8.260   0.375   3.726  2.1988 -0.0307  1.1641
18356SOL    HW256553   8.275   0.304   3.859 -0.5854 -1.0662  0.9551
18357SOL     OW56554   1.391   3.959   7.639  0.4077 -0.6114 -0.5761
18357SOL    HW156555   1.460   3.969   7.573 -0.0155 -0.1855 -0.9574
18357SOL    HW256556   1.310   3.963   7.589  0.0973 -0.8138 -0.0872
18358SOL     OW56557   1.262   6.180   0.176 -0.0584  0.1377  0.7031
18358SOL    HW156558   1.167   6.189   0.190 -0.0531  1.2175  0.0484
18358SOL    HW256559   1.290   6.265   0.143  0.5435 -1.2096 -2.4464
18359SOL     OW56560   1.956   2.599   6.381  0.3764  0.0113 -0.1311
18359SOL    HW156561   2.007   2.676   6.356  0.4210  0.5422  1.5286
18359SOL    HW256562   1.911   2.625   6.461  0.1980 -1.6092  0.3166
18360SOL     OW56563   5.450   2.213   5.300 -0.3043  0.0777  0.0113
18360SOL    HW156564   5.411   2.187   5.217  0.0046 -0.9980  0.1941
18360SOL    HW256565   5.388   2.276   5.337 -1.3515 -0.8229 -0.1834
18361SOL     OW56566   6.397   1.231   5.113 -0.3737  0.0077  0.2749
18361SOL    HW156567   6.439   1.163   5.060  0.5316  0.3697  0.5172
18361SOL    HW256568   6.424   1.313   5.072 -2.8293  0.2155 -1.0445
18362SOL     OW56569   1.341   6.356   4.213  0.2973  0.4724 -0.3534
18362SOL    HW156570   1.429   6.348   4.251  0.1666  0.6325 -0.0202
18362SOL    HW256571   1.356   6.401   4.130  0.3830  1.6288  0.2788
18363SOL     OW56572   1.558   1.648   1.202  0.1780 -0.5478  0.1679
18363SOL    HW156573   1.496   1.575   1.209  2.0194 -2.3063 -1.3726
18363SOL    HW256574   1.583   1.650   1.110  0.1862  2.0358  0.1923
18364SOL     OW56575   6.576   7.159   4.170  0.2510  0.2088  0.0114
18364SOL    HW156576   6.579   7.091   4.237  1.2782 -2.0341 -2.2507
18364SOL    HW256577   6.486   7.154   4.136  0.2158  0.2405  0.0982
18365SOL     OW56578   7.114   3.469   1.623  0.0862 -0.2552 -0.3940
18365SOL    HW156579   7.085   3.395   1.569  0.6315 -0.2186 -0.7445
18365SOL    HW256580   7.035   3.498   1.668 -0.0222 -1.4267  0.2023
18366SOL     OW56581   4.110   5.680   2.407 -0.6114 -0.0051  0.1498
18366SOL    HW156582   4.202   5.679   2.433 -0.5894 -0.1897  0.0619
18366SOL    HW256583   4.069   5.612   2.460 -0.4675 -0.7267 -0.6589
18367SOL     OW56584   3.622   0.860   1.171  0.0233  0.4062 -0.5643
18367SOL    HW156585   3.634   0.776   1.216 -1.0314 -0.6709 -2.2663
18367SOL    HW256586   3.528   0.876   1.174  0.1314  1.1381 -0.9632
18368SOL     OW56587   7.768   3.902   5.793  0.3729 -0.3387 -0.0766
18368SOL    HW156588   7.749   3.836   5.859 -0.8568 -0.7357 -0.8063
18368SOL    HW256589   7.844   3.868   5.746  1.5007  0.1334  1.3586
18369SOL     OW56590   0.159   8.167   2.802 -0.1075  0.4265  0.5857
18369SOL    HW156591   0.071   8.130   2.813 -0.0909 -0.5123 -2.1954
18369SOL    HW256592   0.217   8.091   2.804  0.2485  0.6099 -1.7387
18370SOL     OW56593   5.068   4.238   8.262  0.7512 -0.5879  0.0237
18370SOL    HW156594   5.075   4.145   8.283  1.3323 -0.3255  1.0204
18370SOL    HW256595   4.981   4.247   8.223 -0.2746 -1.1408  2.0836
18371SOL     OW56596   1.564   5.176   6.708  0.0117  0.0797  0.3898
18371SOL    HW156597   1.633   5.193   6.644  1.7840 -0.4174  2.1384
18371SOL    HW256598   1.502   5.248   6.696  0.9820  0.7090 -0.9817
18372SOL     OW56599   3.403   2.743   5.958 -0.1541 -0.0488  0.1972
18372SOL    HW156600   3.339   2.684   5.919  0.6736 -0.4245 -0.6153
18372SOL    HW256601   3.393   2.731   6.052 -1.0661 -0.3274  0.0645
18373SOL     OW56602   7.688   5.045   0.240  0.1338 -0.6152  1.0011
18373SOL    HW156603   7.671   4.989   0.164  0.0391 -0.9880  1.2954
18373SOL    HW256604   7.604   5.089   0.256  0.3414 -0.0084  0.4652
18374SOL     OW56605   6.874   7.376   1.587  0.4195 -0.4162 -0.0254
18374SOL    HW156606   6.843   7.304   1.532  0.4040 -1.3525  1.1906
18374SOL    HW256607   6.794   7.413   1.626  0.5781 -0.9865  0.8573
18375SOL     OW56608   2.946   6.566   5.276 -0.1415  0.1557 -0.1547
18375SOL    HW156609   2.976   6.630   5.212  1.7008 -0.2113  0.3326
18375SOL    HW256610   2.852   6.557   5.258 -0.1427  1.9367 -1.1317
18376SOL     OW56611   0.746   2.599   5.377 -0.8511 -0.7488  0.0569
18376SOL    HW156612   0.701   2.533   5.325 -2.3441  0.0302  0.3170
18376SOL    HW256613   0.757   2.559   5.463 -2.2268 -0.4709  0.3664
18377SOL     OW56614   4.282   4.957   2.457  0.2985 -0.0307  0.2646
18377SOL    HW156615   4.305   4.959   2.364  0.2742 -0.2696  0.2526
18377SOL    HW256616   4.352   5.005   2.501 -0.2412  1.0051  0.0078
18378SOL     OW56617   5.760   7.391   4.526  0.1520  0.2245 -0.0950
18378SOL    HW156618   5.793   7.469   4.480 -1.2994 -0.4188 -2.3125
18378SOL    HW256619   5.835   7.332   4.528  0.4024  0.4850 -1.1865
18379SOL     OW56620   5.291   7.157   6.194 -0.6001  0.4299  0.2010
18379SOL    HW156621   5.370   7.120   6.233 -0.3026 -1.2114 -1.9261
18379SOL    HW256622   5.236   7.082   6.175 -1.2034  1.2944 -1.5452
18380SOL     OW56623   7.925   6.782   2.826  0.3670  0.6590  0.0095
18380SOL    HW156624   7.836   6.818   2.828  0.2344  0.2893  1.1463
18380SOL    HW256625   7.922   6.709   2.888  1.7129  1.2064  0.7179
18381SOL     OW56626   6.024   7.343   1.509  0.3494  0.7686 -0.6646
18381SOL    HW156627   5.966   7.288   1.457  0.7869 -2.6620  2.3096
18381SOL    HW256628   6.112   7.326   1.473  0.5003 -0.6344  0.3362
18382SOL     OW56629   7.695   0.311   2.936  0.4875  0.1087  0.5496
18382SOL    HW156630   7.642   0.233   2.953 -0.9627  0.4909 -1.9172
18382SOL    HW256631   7.733   0.295   2.850  1.6725  1.3432  0.8319
18383SOL     OW56632   6.365   4.614   0.446 -0.4670 -0.1233 -0.0307
18383SOL    HW156633   6.449   4.575   0.472  0.6671  1.1202 -1.7330
18383SOL    HW256634   6.383   4.708   0.439 -1.7916  0.0536 -1.2244
18384SOL     OW56635   1.174   3.124   2.782  0.2190 -0.3424  0.3085
18384SOL    HW156636   1.185   3.069   2.860 -0.3688 -1.2293 -0.2235
18384SOL    HW256637   1.212   3.073   2.711 -1.1106 -0.4620 -0.3463
18385SOL     OW56638   3.477   3.440   7.593 -0.0590 -0.1671  0.2960
18385SOL    HW156639   3.414   3.434   7.665 -0.9854 -0.5959 -0.5437
18385SOL    HW256640   3.423   3.447   7.514  0.9504  1.3352 -0.2836
18386SOL     OW56641   4.717   2.274   8.017  0.5269  0.3688 -0.4914
18386SOL    HW156642   4.721   2.179   8.010  0.7008  0.2505  1.0375
18386SOL    HW256643   4.712   2.291   8.111 -2.7463  1.7521 -0.8481
18387SOL     OW56644   3.412   7.573   6.009 -0.1772 -0.4437  0.1246
18387SOL    HW156645   3.359   7.559   5.930 -1.8869 -1.8809  1.4849
18387SOL    HW256646   3.364   7.641   6.057  0.7038  0.2140  0.0777
18388SOL     OW56647   7.148   5.909   6.924  0.1758 -0.4751  0.4533
18388SOL    HW156648   7.101   5.969   6.982 -0.9141  0.2097 -1.1002
18388SOL    HW256649   7.079   5.866   6.874  1.2417  1.9773 -3.2774
18389SOL     OW56650   0.330   3.721   5.150  0.5023  0.4672  0.2529
18389SOL    HW156651   0.245   3.714   5.106  0.1162  0.2887  1.0055
18389SOL    HW256652   0.307   3.732   5.243  1.3254 -0.8383  0.6128
18390SOL     OW56653   2.889   7.362   5.969 -0.8986 -0.2158 -0.2363
18390SOL    HW156654   2.816   7.321   5.923  0.2350 -1.4068 -1.0068
18390SOL    HW256655   2.965   7.341   5.916 -0.1144  1.8793  0.0101
18391SOL     OW56656   2.886   7.726   7.229  0.2314  0.9092  0.2831
18391SOL    HW156657   2.870   7.685   7.145 -1.5137  0.3101  0.8832
18391SOL    HW256658   2.970   7.771   7.219  0.3126  0.3614 -1.5735
18392SOL     OW56659   6.015   1.777   4.751  0.4619  0.1527 -0.5690
18392SOL    HW156660   6.023   1.686   4.722  1.2953  0.2951 -0.8012
18392SOL    HW256661   6.030   1.773   4.846  0.3554  0.0322 -0.5571
18393SOL     OW56662   0.620   0.214   7.342 -1.0247  0.4348 -0.2166
18393SOL    HW156663   0.540   0.214   7.395 -2.4588  0.2440 -2.3383
18393SOL    HW256664   0.641   0.121   7.331 -0.8623  0.4701 -0.2059
18394SOL     OW56665   6.970   5.148   2.235  0.1255  0.4297 -0.0848
18394SOL    HW156666   6.955   5.099   2.154  1.5815 -0.2572  0.0359
18394SOL    HW256667   7.033   5.094   2.284  1.9812  2.5292 -0.0793
18395SOL     OW56668   0.872   4.191   6.076  0.2493 -0.2222 -0.1668
18395SOL    HW156669   0.953   4.233   6.106  1.2037 -1.4623 -0.9419
18395SOL    HW256670   0.890   4.165   5.986 -0.9382 -0.7096 -0.2736
18396SOL     OW56671   1.780   6.120   0.224  0.2189 -0.7167  0.4211
18396SOL    HW156672   1.812   6.160   0.143 -0.1095 -2.0464 -0.3789
18396SOL    HW256673   1.685   6.120   0.214  0.1282 -0.0769  1.2085
18397SOL     OW56674   8.162   6.594   1.767  0.0102  0.3842 -0.6598
18397SOL    HW156675   8.161   6.503   1.797 -1.3867  0.3283 -0.8449
18397SOL    HW256676   8.192   6.644   1.843 -1.4669  0.0116  0.1916
18398SOL     OW56677   2.500   3.395   4.558  0.4707 -0.1081  0.1799
18398SOL    HW156678   2.464   3.483   4.572  0.5291 -0.2885  1.5957
18398SOL    HW256679   2.549   3.401   4.476 -1.6831  0.4781 -1.0916
18399SOL     OW56680   2.786   0.946   6.194 -0.1140 -0.4134  0.1080
18399SOL    HW156681   2.776   1.016   6.131 -0.0142  0.3056  0.8807
18399SOL    HW256682   2.715   0.885   6.175  0.6053 -0.7808 -1.4380
18400SOL     OW56683   4.554   2.085   6.347  0.4424 -0.3381  0.6733
18400SOL    HW156684   4.593   2.058   6.263 -0.0267 -0.7290  0.5768
18400SOL    HW256685   4.477   2.029   6.356 -0.4407  0.8594  0.5762
18401SOL     OW56686   1.836   3.387   5.924  0.4822 -0.3212 -0.0763
18401SOL    HW156687   1.834   3.417   5.833 -1.4608 -1.8623 -0.5929
18401SOL    HW256688   1.745   3.395   5.954  0.4943 -2.6474  0.7258
18402SOL     OW56689   6.162   5.949   5.289  0.1101  0.1069 -0.5874
18402SOL    HW156690   6.183   5.866   5.245 -1.4415 -0.9879  0.6705
18402SOL    HW256691   6.196   5.939   5.378  0.1151  0.8989 -0.4971
18403SOL     OW56692   0.156   2.000   3.691 -0.8136  0.1169 -0.3753
18403SOL    HW156693   0.230   1.974   3.636  0.4286  0.6786  1.0093
18403SOL    HW256694   0.195   2.019   3.777 -2.7504 -1.0814  0.8181
18404SOL     OW56695   5.523   8.135   6.541  0.0708  0.4248 -0.0143
18404SOL    HW156696   5.611   8.101   6.555  0.0650  0.2825 -0.3170
18404SOL    HW256697   5.534   8.230   6.535 -0.0122  0.5535  1.6160
18405SOL     OW56698   0.626   1.966   4.992 -0.3369 -0.5115 -0.2475
18405SOL    HW156699   0.694   2.020   4.952  0.3378 -0.7308  0.6029
18405SOL    HW256700   0.657   1.876   4.983 -0.6082 -0.6298 -0.0422
18406SOL     OW56701   1.559   7.441   1.774  0.4995  0.1551  0.2786
18406SOL    HW156702   1.655   7.440   1.767  0.4326 -0.3231 -0.7656
18406SOL    HW256703   1.538   7.358   1.817  0.6415  0.9980  2.0092
18407SOL     OW56704   0.642   2.428   1.341  0.1603  0.2391  0.0783
18407SOL    HW156705   0.662   2.472   1.258 -0.9446  1.5819  0.5181
18407SOL    HW256706   0.692   2.476   1.406 -0.8353  0.6798  0.5240
18408SOL     OW56707   2.582   4.490   2.102  0.1625  0.0148  0.6187
18408SOL    HW156708   2.665   4.461   2.063 -0.4597  0.8900 -1.4316
18408SOL    HW256709   2.532   4.409   2.112 -0.4030 -0.0556 -2.2731
18409SOL     OW56710   7.847   4.136   6.385 -0.6535 -0.6639  0.0401
18409SOL    HW156711   7.936   4.167   6.368 -0.4063 -2.3122 -1.8995
18409SOL    HW256712   7.790   4.204   6.347 -0.2633  0.5094  1.5020
18410SOL     OW56713   5.158   6.057   5.229 -0.0949  0.1008 -0.1468
18410SOL    HW156714   5.130   6.054   5.137  0.2971 -1.6026 -0.2157
18410SOL    HW256715   5.252   6.073   5.225 -0.2059  0.8294 -0.0090
18411SOL     OW56716   0.813   7.272   1.598  0.0955  0.0746 -0.1658
18411SOL    HW156717   0.733   7.304   1.640 -0.3445 -1.7378  0.4278
18411SOL    HW256718   0.798   7.285   1.505 -0.5654  0.4812 -0.0091
18412SOL     OW56719   0.747   4.444   3.368  0.2380  0.2605 -0.0974
18412SOL    HW156720   0.662   4.442   3.325 -0.2934 -0.6445  0.9776
18412SOL    HW256721   0.729   4.418   3.458  1.7335 -0.4409  0.0137
18413SOL     OW56722   6.894   2.903   6.850  0.0980  0.0709 -0.1456
18413SOL    HW156723   6.945   2.853   6.785  0.1718  1.5889 -1.2715
18413SOL    HW256724   6.923   2.993   6.838 -1.5206  0.6792  0.4916
18414SOL     OW56725   4.722   1.692   1.366 -0.2300  0.1702  0.1903
18414SOL    HW156726   4.665   1.760   1.331 -0.2234  0.4177  0.6607
18414SOL    HW256727   4.809   1.713   1.331 -0.4117 -0.1761 -0.4809
18415SOL     OW56728   3.175   7.180   6.106  0.0161  0.4969 -0.3990
18415SOL    HW156729   3.144   7.252   6.161 -0.1562  1.0037 -1.1512
18415SOL    HW256730   3.186   7.107   6.166 -1.4394  0.6639  0.0775
18416SOL     OW56731   6.710   3.970   3.168 -0.3290 -0.1022  0.1933
18416SOL    HW156732   6.621   4.003   3.162 -0.9382 -1.7452  0.0159
18416SOL    HW256733   6.758   4.038   3.215 -1.9299  0.2757  1.2823
18417SOL     OW56734   3.214   6.688   2.484  0.2153 -0.2835  0.0234
18417SOL    HW156735   3.195   6.782   2.490  1.3982 -0.1026  1.1008
18417SOL    HW256736   3.129   6.648   2.463 -0.2551  1.0403 -0.6342
18418SOL     OW56737   3.859   7.857   0.835  0.6032 -0.0925 -0.3263
18418SOL    HW156738   3.865   7.769   0.871  1.3212 -0.0774 -0.4177
18418SOL    HW256739   3.887   7.848   0.744  1.1421  0.3192 -0.2017
18419SOL     OW56740   4.008   7.004   1.984  0.0879 -0.1460 -0.3816
18419SOL    HW156741   4.092   7.049   1.995  0.1090 -0.1381 -0.5613
18419SOL    HW256742   3.978   6.986   2.072 -0.1901  0.7226 -0.2929
18420SOL     OW56743   2.345   7.997   3.509  0.2261  0.5498 -0.0490
18420SOL    HW156744   2.422   7.981   3.454  0.8797  1.3817  0.5911
18420SOL    HW256745   2.275   8.017   3.448  0.2900 -1.1114 -0.6832
18421SOL     OW56746   4.009   2.445   5.389  0.4683  0.5159  0.9163
18421SOL    HW156747   3.954   2.514   5.427 -0.0215 -0.4557  2.0001
18421SOL    HW256748   3.947   2.380   5.357  0.9123  0.8058 -0.5889
18422SOL     OW56749   0.560   1.611   7.257  0.0822 -0.0827 -0.1270
18422SOL    HW156750   0.468   1.608   7.285  0.8017 -2.5861  2.1173
18422SOL    HW256751   0.578   1.522   7.225  2.1569 -0.0380  0.8612
18423SOL     OW56752   0.251   2.652   6.901  0.2856 -0.1838 -0.8890
18423SOL    HW156753   0.170   2.603   6.892 -0.5423  1.2184 -1.1020
18423SOL    HW256754   0.292   2.648   6.815  1.8312 -3.2545 -0.0805
18424SOL     OW56755   3.192   5.361   1.666 -0.5283  0.3691  0.2573
18424SOL    HW156756   3.173   5.397   1.753  0.8725  0.5985  0.4706
18424SOL    HW256757   3.241   5.281   1.683  1.3579  1.3756 -0.3507
18425SOL     OW56758   1.106   1.534   6.384 -1.0005 -0.1888  0.5357
18425SOL    HW156759   1.065   1.616   6.412 -0.5990 -0.0387  0.6758
18425SOL    HW256760   1.046   1.466   6.414 -0.6308 -0.0207  1.6560
18426SOL     OW56761   8.247   8.272   6.097  0.0182 -0.7347 -0.3364
18426SOL    HW156762   8.277   8.220   6.022  2.1176 -1.0555  0.7107
18426SOL    HW256763   8.245   8.362   6.063 -3.2751 -1.3624 -2.0379
18427SOL     OW56764   5.417   7.461   5.808  0.3354 -0.0185 -0.1616
18427SOL    HW156765   5.361   7.413   5.869 -0.1652  0.8121  0.0392
18427SOL    HW256766   5.492   7.488   5.861 -0.1535  0.8022  0.1302
18428SOL     OW56767   7.899   3.534   5.242  0.4494  0.2300  0.3563
18428SOL    HW156768   7.819   3.523   5.190  0.1976 -1.0714  0.9968
18428SOL    HW256769   7.871   3.586   5.317  0.3320  0.2695  0.2863
18429SOL     OW56770   5.523   6.677   6.204  0.2468 -0.4883  0.4620
18429SOL    HW156771   5.478   6.724   6.134  0.0383  0.5795  1.2827
18429SOL    HW256772   5.572   6.746   6.250 -0.4155 -1.0045  1.9667
18430SOL     OW56773   5.168   5.472   7.315 -0.9770  0.4473 -0.2420
18430SOL    HW156774   5.203   5.383   7.305 -1.1287  0.4852 -1.1690
18430SOL    HW256775   5.204   5.521   7.241 -0.0447  1.4394  0.8618
18431SOL     OW56776   2.952   7.392   1.840  0.1654  0.4411  0.4679
18431SOL    HW156777   2.902   7.338   1.901  0.1983  1.3516  1.3133
18431SOL    HW256778   3.009   7.445   1.895  0.5432  0.9377 -0.3779
18432SOL     OW56779   4.891   7.080   7.376 -0.1054  0.0110  0.8342
18432SOL    HW156780   4.861   7.132   7.450  1.1149  2.6568 -0.4655
18432SOL    HW256781   4.829   7.099   7.306  1.6215  1.4970 -0.3210
18433SOL     OW56782   1.729   6.852   0.317 -0.1652  0.3363  0.5116
18433SOL    HW156783   1.761   6.847   0.407  1.3088 -0.1689 -0.0316
18433SOL    HW256784   1.787   6.795   0.267 -3.0591 -2.1564 -0.2026
18434SOL     OW56785   7.469   2.422   5.511  0.2821  0.4267 -0.3923
18434SOL    HW156786   7.416   2.449   5.586 -0.9740  0.9665 -1.4350
18434SOL    HW256787   7.428   2.467   5.436  0.1370 -1.8414 -1.7110
18435SOL     OW56788   2.836   3.350   4.228 -0.0095 -0.2804 -0.5016
18435SOL    HW156789   2.864   3.343   4.319  1.1220 -1.5073 -0.9126
18435SOL    HW256790   2.746   3.381   4.232  0.2121  0.1961  1.0107
18436SOL     OW56791   1.381   4.486   4.297 -0.3005  0.1143 -0.6620
18436SOL    HW156792   1.311   4.438   4.341 -0.3397  1.8990  1.2910
18436SOL    HW256793   1.348   4.499   4.208 -2.9377  1.8006  0.5039
18437SOL     OW56794   2.693   4.220   5.140  0.7217  0.1698 -0.6256
18437SOL    HW156795   2.685   4.303   5.188 -1.0167 -0.9832  1.1314
18437SOL    HW256796   2.605   4.183   5.141  0.9601 -0.6356 -3.4473
18438SOL     OW56797   8.308   6.002   8.146  0.0153 -0.2709 -0.1422
18438SOL    HW156798   8.387   5.981   8.097 -0.6606 -0.6456 -1.0818
18438SOL    HW256799   8.273   5.917   8.172  1.0996 -0.0378  2.1801
18439SOL     OW56800   1.497   3.611   7.096 -0.4986  0.3216 -0.3090
18439SOL    HW156801   1.527   3.524   7.121 -0.5806  0.1772 -0.7269
18439SOL    HW256802   1.410   3.598   7.059 -0.2096  0.4936 -1.0498
18440SOL     OW56803   6.153   4.354   4.436  0.4234  0.3876 -0.1549
18440SOL    HW156804   6.097   4.425   4.469  0.2535  0.9395 -1.5895
18440SOL    HW256805   6.241   4.392   4.433  0.6254 -0.0064  0.6799
18441SOL     OW56806   0.807   0.268   1.579 -0.1061  0.3069  0.0991
18441SOL    HW156807   0.731   0.218   1.550 -0.2759  0.6244  0.0025
18441SOL    HW256808   0.828   0.232   1.665 -0.4194  0.2875  0.1657
18442SOL     OW56809   8.095   6.201   6.773  0.4124  0.2412  0.0781
18442SOL    HW156810   8.114   6.109   6.794  3.0071  1.1369  1.7979
18442SOL    HW256811   8.137   6.215   6.688 -0.3337 -0.2351 -0.3849
18443SOL     OW56812   1.302   6.909   1.211 -0.0655  0.2297 -0.3407
18443SOL    HW156813   1.340   6.898   1.123 -0.2003 -2.0460 -0.1571
18443SOL    HW256814   1.377   6.933   1.266 -0.0285  1.9397 -1.1157
18444SOL     OW56815   2.378   6.758   2.378 -0.2277 -0.1911  0.5695
18444SOL    HW156816   2.303   6.817   2.383 -0.4813 -0.6483  2.1585
18444SOL    HW256817   2.454   6.817   2.373 -0.7141  0.2855 -2.1784
18445SOL     OW56818   1.761   0.065   5.670  0.1157 -0.6751 -0.1838
18445SOL    HW156819   1.719   0.147   5.699  0.8016  0.1579 -1.4973
18445SOL    HW256820   1.711  -0.004   5.713 -1.5036  0.3791 -0.3359
18446SOL     OW56821   3.564   7.122   1.564 -0.1783  0.0371 -0.1933
18446SOL    HW156822   3.633   7.101   1.501 -1.0096 -0.5879 -0.9070
18446SOL    HW256823   3.569   7.217   1.576 -0.7370  0.3194 -2.0653
18447SOL     OW56824   0.455   5.282   1.090 -0.2010  0.2032 -0.0183
18447SOL    HW156825   0.460   5.221   1.017  0.6834  0.4894 -0.2036
18447SOL    HW256826   0.371   5.327   1.078 -0.1858  0.0546 -0.7014
18448SOL     OW56827   6.089   8.157   6.347 -0.3958 -0.4321 -0.8162
18448SOL    HW156828   6.167   8.209   6.325 -0.5414  0.1484  0.0073
18448SOL    HW256829   6.021   8.192   6.290 -1.1848  2.1895  1.6378
18449SOL     OW56830   6.428   4.624   2.800  0.1931  0.2695  0.1028
18449SOL    HW156831   6.510   4.655   2.761  0.0376 -0.2189 -0.6124
18449SOL    HW256832   6.395   4.699   2.850  0.4447  0.8563 -0.6152
18450SOL     OW56833   1.297   7.998   3.626 -0.0050  0.0953 -0.2329
18450SOL    HW156834   1.302   7.902   3.625 -0.5884  0.0497  0.6313
18450SOL    HW256835   1.249   8.020   3.546 -0.4010 -0.3724 -0.1299
18451SOL     OW56836   2.820   5.457   4.670  0.2141  0.4404  0.2401
18451SOL    HW156837   2.815   5.397   4.596  0.4148  1.8646 -0.9584
18451SOL    HW256838   2.913   5.464   4.690  0.2757  1.0060 -0.2012
18452SOL     OW56839   2.343   3.243   6.670  0.2309  0.4452  0.2794
18452SOL    HW156840   2.276   3.294   6.625  0.0472  0.3900  0.4857
18452SOL    HW256841   2.304   3.156   6.680  0.5576  0.2530 -0.1101
18453SOL     OW56842   1.616   4.439   3.495  0.5338  0.1975 -0.2470
18453SOL    HW156843   1.703   4.421   3.460 -0.3502  0.8322 -2.9404
18453SOL    HW256844   1.601   4.370   3.560  2.6750 -0.4390 -0.3970
18454SOL     OW56845   2.455   2.239   4.583 -0.3353  0.3860  0.0239
18454SOL    HW156846   2.369   2.280   4.573 -1.0951 -1.0805  0.2387
18454SOL    HW256847   2.491   2.237   4.495 -1.4006 -0.7853 -0.4059
18455SOL     OW56848   1.119   7.842   8.312 -0.3260 -0.0957 -0.3898
18455SOL    HW156849   1.157   7.916   8.361 -0.6206  0.3815 -0.8753
18455SOL    HW256850   1.040   7.819   8.362 -2.2544  2.3137 -2.2304
18456SOL     OW56851   8.026   1.029   7.120 -0.0662 -0.5999 -0.0496
18456SOL    HW156852   7.954   1.047   7.060 -0.1301 -0.4378  0.0750
18456SOL    HW256853   8.035   1.109   7.171 -0.8170 -1.1804  1.0026
18457SOL     OW56854   4.971   1.643   2.773  0.3833 -0.1029  0.9276
18457SOL    HW156855   4.930   1.696   2.840  0.8440  1.2847  0.1303
18457SOL    HW256856   5.042   1.698   2.739 -0.5708 -0.2994 -1.4952
18458SOL     OW56857   3.857   0.453   4.288 -0.0177  0.4466  0.4337
18458SOL    HW156858   3.932   0.394   4.285  0.7126  1.3535  0.6373
18458SOL    HW256859   3.838   0.472   4.196  1.1392  1.6284  0.4272
18459SOL     OW56860   7.735   2.770   1.336 -0.3573 -0.0662 -0.2794
18459SOL    HW156861   7.729   2.782   1.431 -0.3937 -2.9857  0.1302
18459SOL    HW256862   7.698   2.851   1.299 -0.5416  1.0175  2.1679
18460SOL     OW56863   4.535   7.292   5.694  0.1572  0.3508 -0.0413
18460SOL    HW156864   4.592   7.287   5.618 -0.1779 -0.7849 -0.2368
18460SOL    HW256865   4.583   7.345   5.757  2.0314 -1.6517  0.2900
18461SOL     OW56866   5.504   3.640   7.912 -0.3727 -0.9937 -0.7733
18461SOL    HW156867   5.537   3.656   8.000 -1.1059 -1.1841 -0.4576
18461SOL    HW256868   5.449   3.562   7.921 -1.5148 -0.2494 -1.1129
18462SOL     OW56869   2.476   5.126   0.712  0.6384  0.1310 -0.5830
18462SOL    HW156870   2.396   5.169   0.744  1.2788  0.3767  0.7406
18462SOL    HW256871   2.447   5.071   0.639 -0.2356  2.5842 -2.1223
18463SOL     OW56872   7.786   8.284   5.356 -0.5085  0.1137 -0.3183
18463SOL    HW156873   7.864   8.231   5.367 -1.8789 -1.5009  2.4122
18463SOL    HW256874   7.713   8.221   5.359 -2.0382  1.8430  0.0909
18464SOL     OW56875   5.937   2.175   0.386 -0.1477  0.6478 -0.0593
18464SOL    HW156876   5.898   2.262   0.399  0.8088  0.8903  1.3894
18464SOL    HW256877   6.031   2.190   0.396  0.0908 -0.4099 -0.7022
18465SOL     OW56878   7.950   5.230   1.573 -0.1057 -0.5606  0.3187
18465SOL    HW156879   7.940   5.135   1.560 -1.0664 -0.3985 -0.1887
18465SOL    HW256880   7.986   5.238   1.661  2.3008 -1.5083 -0.5485
18466SOL     OW56881   1.386   7.521   0.922 -0.6862  1.0179  0.3189
18466SOL    HW156882   1.334   7.537   0.843  1.4080  1.1240 -1.0862
18466SOL    HW256883   1.417   7.431   0.912 -1.4049  0.6254  1.6183
18467SOL     OW56884   3.467   3.455   1.287 -0.4694 -0.0246 -0.1149
18467SOL    HW156885   3.535   3.395   1.256  1.1638  1.8488 -0.2039
18467SOL    HW256886   3.409   3.466   1.212  1.8809  2.2173 -1.6884
18468SOL     OW56887   3.370   0.885   7.038  0.0503 -0.6048 -0.0672
18468SOL    HW156888   3.356   0.949   7.108 -0.8297 -1.5454  0.6403
18468SOL    HW256889   3.459   0.854   7.050 -0.3807 -1.3945  1.1926
18469SOL     OW56890   5.612   2.768   0.500  0.6666  0.2560  0.7554
18469SOL    HW156891   5.534   2.775   0.555  1.0093  0.5939  1.1979
18469SOL    HW256892   5.639   2.858   0.484 -1.0059  0.3112 -2.2365
18470SOL     OW56893   0.725   5.227   5.541  0.4749 -0.0292 -0.2723
18470SOL    HW156894   0.694   5.265   5.623  0.6337  0.1793 -0.3086
18470SOL    HW256895   0.714   5.133   5.552  0.5076 -0.0019 -0.0098
18471SOL     OW56896   6.740   5.892   2.991  0.1050  0.7449 -0.0608
18471SOL    HW156897   6.696   5.905   2.907 -0.6467 -1.1782  0.0046
18471SOL    HW256898   6.812   5.832   2.972 -1.5356 -1.6751  1.0414
18472NA      NA56899   6.830   2.759   7.004 -0.6814  0.0645  0.4334
18473NA      NA56900   3.142   8.145   0.042  0.2759  0.0614 -0.5021
18474NA      NA56901   5.875   5.192   2.097 -0.0566 -0.1491 -0.1799
18475NA      NA56902   4.751   1.155   5.443 -0.2460  0.7409 -0.2810
18476NA      NA56903   5.458   5.467   6.835  0.0935  0.3929  0.1596
18477NA      NA56904   8.026   3.542   6.689  0.3988  0.2454  0.0703
18478NA      NA56905   5.741   6.911   5.469  0.2941 -0.3308 -0.2029
18479NA      NA56906   0.873   3.775   7.112 -0.5592  0.1331  0.2638
18480NA      NA56907   2.155   5.650   5.679  0.4497  0.4580  0.2948
18481NA      NA56908   7.108   3.836   5.704 -0.5525 -0.0249  0.6001
18482NA      NA56909   6.862   6.127   1.550 -0.2792  0.0468  0.0694
18483NA      NA56910   1.018   2.029   5.502  0.2902  0.3897 -0.0434
18484NA      NA56911   1.018   6.869   3.717  0.0626  0.5583 -0.6909
18485NA      NA56912   0.186   0.971   2.932 -0.1968 -0.6003 -0.0686
18486NA      NA56913   0.593   4.279   4.307 -0.3640 -0.1352 -0.8901
18487NA      NA56914   1.900   3.569   2.694 -0.3171 -0.3990 -0.3125
18488NA      NA56915   0.152   2.766   1.658  0.5244 -0.1180 -0.1939
18489NA      NA56916   1.792   6.779   2.820  0.0673 -0.0541  0.2104
18490NA      NA56917   4.106   2.855   6.915 -0.0807  0.1326  0.3392
18491NA      NA56918   2.877   2.963   1.541  0.0795 -0.4293 -0.3546
18492NA      NA56919   0.166   7.045   0.699  0.0478 -0.0158 -0.4491
18493NA      NA56920   5.572   0.284   0.435 -0.2559  0.1160 -0.1903
18494NA      NA56921   6.884   7.909   7.471  0.3464 -0.2467  0.1589
18495NA      NA56922   7.317   3.072   1.993 -0.2451  0.0757 -0.3110
18496NA      NA56923   7.412   3.462   7.138  0.0269  0.1220 -0.1986
18497NA      NA56924   3.523   6.050   1.322  0.4553  0.2069 -0.4797
18498NA      NA56925   1.648   0.278   2.552  0.0860 -0.5088  0.0744
18499NA      NA56926   6.629   4.052   4.318 -0.2072 -0.0494 -0.6213
18500NA      NA56927   0.209   0.770   5.386 -0.2217  0.3664 -0.0184
18501NA      NA56928   2.439   1.136   3.186 -0.2894  0.3250  0.7472
18502NA      NA56929   5.654   5.272   0.601 -0.1271 -0.0995  0.2126
18503NA      NA56930   1.594   0.677   1.551 -0.4870  0.4230 -0.2856
18504NA      NA56931   7.497   1.771   1.452 -0.4349  0.7505  0.4385
18505NA      NA56932   1.633   5.061   7.829 -0.4626 -0.2182 -0.1292
18506NA      NA56933   1.715   0.517   3.007 -0.0070  0.1399  0.1927
18507NA      NA56934   4.867   4.064   5.196 -0.3772 -0.2529  0.2267
18508NA      NA56935   5.777   2.630   0.511  0.2659  0.1344  0.0504
18509NA      NA56936   4.882   0.357   4.907 -1.0474  0.5678 -0.0506
18510NA      NA56937   3.566   1.032   5.705 -0.6800 -0.0485 -0.3798
18511NA      NA56938   5.307   7.006   0.982 -0.0676 -0.0428  0.5565
18512NA      NA56939   4.119   3.267   5.057 -0.1395 -0.1191 -0.5004
18513NA      NA56940   0.118   4.664   4.876 -0.5764  0.1896 -0.1479
18514NA      NA56941   1.911   3.326   0.019  0.1828  0.4886  0.1070
18515NA      NA56942   2.579   0.769   7.032 -0.0456  0.4066  0.2210
18516NA      NA56943   0.466   7.105   2.891  0.0897  0.1858 -0.5034
18517NA      NA56944   0.316   7.225   8.066  0.2485 -0.1459 -0.2982
18518NA      NA56945   3.304   5.599   6.003  0.1429  0.3629  0.3980
18519NA      NA56946   7.631   6.623   5.662  0.0544  0.3751  0.2505
18520NA      NA56947   2.498   6.569   2.403 -0.0996  0.1270 -0.3171
18521NA      NA56948   6.764   6.678   6.128 -0.0863 -0.8118 -0.5406
18522NA      NA56949   7.031   5.667   3.355  0.0830 -0.0114  0.5714
18523NA      NA56950   1.044   4.512   1.673 -0.2535 -0.3469 -0.3015
18524NA      NA56951   7.636   0.920   5.685 -0.9062 -0.5731 -0.3210
18525CL      CL56952   0.897   3.453   4.467  0.1744  0.1870 -0.2509
18526CL      CL56953   8.240   7.094   2.352 -0.0908  0.1021  0.0732
18527CL      CL56954   5.183   1.797   5.696 -0.0023 -0.3479 -0.0607
18528CL      CL56955   6.217   2.256   0.721  0.1945 -0.2974  0.2359
18529CL      CL56956   0.571   1.114   4.617  0.0745 -0.2164  0.1410
18530CL      CL56957   7.562   3.380   6.473  0.0021 -0.1269  0.3259
18531CL      CL56958   4.299   1.566   5.035  0.2555 -0.1367 -0.1402
18532CL      CL56959   2.353   6.245   6.738 -0.3515 -0.1283 -0.0369
18533CL      CL56960   8.308   0.451   0.967 -0.1119 -0.0823 -0.3340
18534CL      CL56961   1.138   6.364   3.695 -0.1208  0.4429 -0.0059
18535CL      CL56962   2.676   6.615   2.007 -0.8587  0.2932 -0.2406
18536CL      CL56963   4.766   6.913   1.340 -0.0549 -0.5355 -0.2369
18537CL      CL56964   6.722   2.881   6.483 -0.0178  0.1820  0.2821
18538CL      CL56965   7.026   3.004   2.331  0.0719  0.0126  0.0281
18539CL      CL56966   2.644   2.951   5.857 -0.0952  0.3557 -0.2049
18540CL      CL56967   6.531   4.749   7.372 -0.1812 -0.0088 -0.0904
18541CL      CL56968   6.585   1.186   7.357 -0.4831 -0.3113  0.2447
18542CL      CL56969   2.626   3.638   6.022 -0.5138 -0.1651  0.4169
18543CL      CL56970   7.643   3.508   5.612  0.0081 -0.4400 -0.1965
18544CL      CL56971   7.952   4.851   6.783  0.0020 -0.4999 -0.0998
18545CL      CL56972   0.798   4.091   2.364  0.0103 -0.1464  0.0472
18546CL      CL56973   2.945   0.647   5.087  0.0046 -0.2371 -0.2036
18547CL      CL56974   4.676   4.148   4.681 -0.4035  0.0886  0.4024
18548CL      CL56975   1.371   1.644   5.239  0.2194  0.3713  0.5154
18549CL      CL56976   0.765   8.019   5.986 -0.5304  0.2692  0.2670
18550CL      CL56977   6.838   5.673   2.657  0.0740  0.0783  0.1653
18551CL      CL56978   6.952   4.253   8.174  0.3183 -0.7046  0.7915
18552CL      CL56979   3.174   6.745   3.119  0.0656  0.6480  0.0455
18553CL      CL56980   4.981   5.345   0.575  0.1817  0.2625  0.2279
18554CL      CL56981   3.627   8.169   5.771  0.1373 -0.4511  0.1373
18555CL      CL56982   0.933   3.734   8.297 -0.0200 -0.1615 -0.1913
18556CL      CL56983   3.701   4.728   0.218 -0.4195  0.2035 -0.0283
18557CL      CL56984   5.425   8.248   0.232 -0.2267  0.2928  0.1080
18558CL      CL56985   6.338   3.700   4.946  0.0327  0.0073  0.0502
18559CL      CL56986   0.175   6.846   6.304 -0.0784 -0.1973 -0.0653
18560CL      CL56987   0.747   4.149   6.826 -0.2558  0.6719 -0.4181
18561CL      CL56988   5.952   1.801   5.034  0.2623  0.2014 -0.2393
18562CL      CL56989   0.599   8.172   1.367 -0.2468 -0.0238  0.3568
18563CL      CL56990   2.278   1.090   1.883 -0.3309 -0.3799 -0.3130
18564CL      CL56991   1.743   6.826   7.038 -0.3793  0.0439 -0.1164
18565CL      CL56992   1.073   2.175   2.745  0.3668  0.3528  0.2244
18566CL      CL56993   5.150   2.054   3.913  0.1077  0.3096  0.3556
18567CL      CL56994   6.285   3.954   0.799 -0.1522  0.0631  0.5331
18568CL      CL56995   5.357   3.375   7.910 -0.0186 -0.1671 -0.5291
18569CL      CL56996   2.259   1.753   3.176  0.6620 -0.3947 -0.2328
18570CL      CL56997   6.601   0.096   6.896  0.3430  0.2372 -0.0839
18571CL      CL56998   1.444   2.591   8.180  0.1902  0.2099 -0.0581
18572CL      CL56999   8.270   2.462   4.342 -0.0767 -0.2473 -0.1638
18573CL      CL57000   5.356   4.515   6.737 -0.1162 -0.1247  0.2235
18574CL      CL57001   7.306   7.467   5.379 -0.2506 -0.0457  0.1379
18575CL      CL57002   0.395   8.022   0.134 -0.0363 -0.2069 -0.1601
18576CL      CL57003   8.074   5.383   5.324  0.5918 -0.0053 -0.0718
18577CL      CL57004   6.153   8.242   1.909 -0.0064  0.3503 -0.0742
   8.31308   8.31308   8.31308
