;
;   File g2npncore_petim_betagalactose.itp  was generated
;   By user: sairam (1000)
;   On host: sairam
;   At date: Tue. September  2 18:05:18 2023
;
;   This is a standalone topology file
;
;   Created by:
;   ParmEd:       amb2gro_top_gro.py, VERSION 3.4.1
;   Executable:   amb2gro_top_gro.py
;   Library dir:  /usr/local/gromacs/share/gromacs/top
;   Command line:
;     ./amb2gro_top_gro.py -p g2npncore_petim_betagalactose.prmtop -c g2npncore_petim_betagalactose.inpcrd -t g2npncore_petim_betagalactose.itp -g g2npncore_petim_betagalactose.gro -b g2npncore_petim_betagalactose.pdb
;

;[ defaults ]
;; nbfunc        comb-rule       gen-pairs       fudgeLJ fudgeQQ
;1               2               yes             0.5          0.83333333  
;
;[ atomtypes ]
;; name    at.num    mass    charge ptype  sigma      epsilon
;n3             7  14.010000  0.00000000  A     0.32499985        0.71128
;c3             6  12.010000  0.00000000  A     0.33996695      0.4577296
;h1             1   1.008000  0.00000000  A      0.2471353      0.0656888
;hc             1   1.008000  0.00000000  A     0.26495328      0.0656888
;os             8  16.000000  0.00000000  A     0.30000123        0.71128
;h2             1   1.008000  0.00000000  A     0.22931733      0.0656888
;oh             8  16.000000  0.00000000  A     0.30664734      0.8803136
;ho             1   1.008000  0.00000000  A              0              0


[ moleculetype ]
; Name            nrexcl
g2npncore_petim_betagalactose      3

[ atoms ]
;   nr       type  resnr residue  atom   cgnr    charge       mass  typeB    chargeB      massB
; residue    1 aaa rtp aaa q 0.0
    1         n3      1    aaa     N1      1 -0.65416500  14.010000   ; qtot -0.654165
    2         c3      1    aaa     C1      2 0.05178400  12.010000   ; qtot -0.602381
    3         h1      1    aaa     H1      3 0.06475500   1.008000   ; qtot -0.537626
    4         h1      1    aaa     H2      4 0.06475500   1.008000   ; qtot -0.472871
    5         c3      1    aaa     C2      5 0.05178400  12.010000   ; qtot -0.421087
    6         h1      1    aaa     H3      6 0.06475500   1.008000   ; qtot -0.356332
    7         h1      1    aaa     H4      7 0.06475500   1.008000   ; qtot -0.291577
    8         c3      1    aaa     C3      8 0.05178400  12.010000   ; qtot -0.239793
    9         h1      1    aaa     H5      9 0.06475500   1.008000   ; qtot -0.175038
   10         h1      1    aaa     H6     10 0.06475500   1.008000   ; qtot -0.110283
   11         c3      1    aaa     C4     11 0.07871100  12.010000   ; qtot -0.031572
   12         hc      1    aaa     H7     12 0.08683700   1.008000   ; qtot 0.055265
   13         hc      1    aaa     H8     13 0.08683700   1.008000   ; qtot 0.142102
   14         c3      1    aaa     C5     14 0.07871100  12.010000   ; qtot 0.220813
   15         hc      1    aaa     H9     15 0.08683700   1.008000   ; qtot 0.307650
   16         hc      1    aaa    H10     16 0.08683700   1.008000   ; qtot 0.394487
   17         c3      1    aaa     C6     17 0.07871100  12.010000   ; qtot 0.473198
   18         hc      1    aaa    H11     18 0.08683700   1.008000   ; qtot 0.560035
   19         hc      1    aaa    H12     19 0.08683700   1.008000   ; qtot 0.646872
   20         c3      1    aaa     C7     20 -0.74941200  12.010000   ; qtot -0.102540
   21         h1      1    aaa    H13     21 0.26689400   1.008000   ; qtot 0.164354
   22         h1      1    aaa    H14     22 0.26689400   1.008000   ; qtot 0.431248
   23         c3      1    aaa     C8     23 -0.74941200  12.010000   ; qtot -0.318164
   24         h1      1    aaa    H15     24 0.26689400   1.008000   ; qtot -0.051270
   25         h1      1    aaa    H16     25 0.26689400   1.008000   ; qtot 0.215624
   26         c3      1    aaa     C9     26 -0.74941200  12.010000   ; qtot -0.533788
   27         h1      1    aaa    H17     27 0.26689400   1.008000   ; qtot -0.266894
   28         h1      1    aaa    H18     28 0.26689400   1.008000   ; qtot 0.000000
; residue    2 bbb rtp bbb q -0.0
   29         n3      2    bbb     N1     29 -0.59685800  14.010000   ; qtot -0.596858
   30         c3      2    bbb     C1     30 0.10137000  12.010000   ; qtot -0.495488
   31         h1      2    bbb     H1     31 0.04411300   1.008000   ; qtot -0.451375
   32         h1      2    bbb     H2     32 0.04411300   1.008000   ; qtot -0.407262
   33         c3      2    bbb     C2     33 0.10137000  12.010000   ; qtot -0.305892
   34         h1      2    bbb     H3     34 0.04411300   1.008000   ; qtot -0.261779
   35         h1      2    bbb     H4     35 0.04411300   1.008000   ; qtot -0.217666
   36         c3      2    bbb     C3     36 -0.00195300  12.010000   ; qtot -0.219619
   37         h1      2    bbb     H5     37 0.05064400   1.008000   ; qtot -0.168975
   38         h1      2    bbb     H6     38 0.05064400   1.008000   ; qtot -0.118331
   39         c3      2    bbb     C4     39 -0.01612100  12.010000   ; qtot -0.134452
   40         hc      2    bbb     H7     40 0.04936100   1.008000   ; qtot -0.085091
   41         hc      2    bbb     H8     41 0.04936100   1.008000   ; qtot -0.035730
   42         c3      2    bbb     C5     42 0.11363000  12.010000   ; qtot 0.077900
   43         hc      2    bbb     H9     43 0.06265900   1.008000   ; qtot 0.140559
   44         hc      2    bbb    H10     44 0.06265900   1.008000   ; qtot 0.203218
   45         c3      2    bbb     C6     45 0.11363000  12.010000   ; qtot 0.316848
   46         hc      2    bbb    H11     46 0.06265900   1.008000   ; qtot 0.379507
   47         hc      2    bbb    H12     47 0.06265900   1.008000   ; qtot 0.442166
   48         c3      2    bbb     C7     48 0.05858200  12.010000   ; qtot 0.500748
   49         h1      2    bbb    H13     49 0.06123400   1.008000   ; qtot 0.561982
   50         h1      2    bbb    H14     50 0.06123400   1.008000   ; qtot 0.623216
   51         c3      2    bbb     C8     51 -0.72423400  12.010000   ; qtot -0.101018
   52         h1      2    bbb    H15     52 0.25637600   1.008000   ; qtot 0.155358
   53         h1      2    bbb    H16     53 0.25637600   1.008000   ; qtot 0.411734
   54         c3      2    bbb     C9     54 -0.72423400  12.010000   ; qtot -0.312500
   55         h1      2    bbb    H17     55 0.25637600   1.008000   ; qtot -0.056124
   56         h1      2    bbb    H18     56 0.25637600   1.008000   ; qtot 0.200252
   57         os      2    bbb     O1     57 -0.20025300  16.000000   ; qtot -0.000001
; residue    3 bbb rtp bbb q -0.0
   58         n3      3    bbb     N1     58 -0.59685800  14.010000   ; qtot -0.596859
   59         c3      3    bbb     C1     59 0.10137000  12.010000   ; qtot -0.495489
   60         h1      3    bbb     H1     60 0.04411300   1.008000   ; qtot -0.451376
   61         h1      3    bbb     H2     61 0.04411300   1.008000   ; qtot -0.407263
   62         c3      3    bbb     C2     62 0.10137000  12.010000   ; qtot -0.305893
   63         h1      3    bbb     H3     63 0.04411300   1.008000   ; qtot -0.261780
   64         h1      3    bbb     H4     64 0.04411300   1.008000   ; qtot -0.217667
   65         c3      3    bbb     C3     65 -0.00195300  12.010000   ; qtot -0.219620
   66         h1      3    bbb     H5     66 0.05064400   1.008000   ; qtot -0.168976
   67         h1      3    bbb     H6     67 0.05064400   1.008000   ; qtot -0.118332
   68         c3      3    bbb     C4     68 -0.01612100  12.010000   ; qtot -0.134453
   69         hc      3    bbb     H7     69 0.04936100   1.008000   ; qtot -0.085092
   70         hc      3    bbb     H8     70 0.04936100   1.008000   ; qtot -0.035731
   71         c3      3    bbb     C5     71 0.11363000  12.010000   ; qtot 0.077899
   72         hc      3    bbb     H9     72 0.06265900   1.008000   ; qtot 0.140558
   73         hc      3    bbb    H10     73 0.06265900   1.008000   ; qtot 0.203217
   74         c3      3    bbb     C6     74 0.11363000  12.010000   ; qtot 0.316847
   75         hc      3    bbb    H11     75 0.06265900   1.008000   ; qtot 0.379506
   76         hc      3    bbb    H12     76 0.06265900   1.008000   ; qtot 0.442165
   77         c3      3    bbb     C7     77 0.05858200  12.010000   ; qtot 0.500747
   78         h1      3    bbb    H13     78 0.06123400   1.008000   ; qtot 0.561981
   79         h1      3    bbb    H14     79 0.06123400   1.008000   ; qtot 0.623215
   80         c3      3    bbb     C8     80 -0.72423400  12.010000   ; qtot -0.101019
   81         h1      3    bbb    H15     81 0.25637600   1.008000   ; qtot 0.155357
   82         h1      3    bbb    H16     82 0.25637600   1.008000   ; qtot 0.411733
   83         c3      3    bbb     C9     83 -0.72423400  12.010000   ; qtot -0.312501
   84         h1      3    bbb    H17     84 0.25637600   1.008000   ; qtot -0.056125
   85         h1      3    bbb    H18     85 0.25637600   1.008000   ; qtot 0.200251
   86         os      3    bbb     O1     86 -0.20025300  16.000000   ; qtot -0.000002
; residue    4 bbb rtp bbb q -0.0
   87         n3      4    bbb     N1     87 -0.59685800  14.010000   ; qtot -0.596860
   88         c3      4    bbb     C1     88 0.10137000  12.010000   ; qtot -0.495490
   89         h1      4    bbb     H1     89 0.04411300   1.008000   ; qtot -0.451377
   90         h1      4    bbb     H2     90 0.04411300   1.008000   ; qtot -0.407264
   91         c3      4    bbb     C2     91 0.10137000  12.010000   ; qtot -0.305894
   92         h1      4    bbb     H3     92 0.04411300   1.008000   ; qtot -0.261781
   93         h1      4    bbb     H4     93 0.04411300   1.008000   ; qtot -0.217668
   94         c3      4    bbb     C3     94 -0.00195300  12.010000   ; qtot -0.219621
   95         h1      4    bbb     H5     95 0.05064400   1.008000   ; qtot -0.168977
   96         h1      4    bbb     H6     96 0.05064400   1.008000   ; qtot -0.118333
   97         c3      4    bbb     C4     97 -0.01612100  12.010000   ; qtot -0.134454
   98         hc      4    bbb     H7     98 0.04936100   1.008000   ; qtot -0.085093
   99         hc      4    bbb     H8     99 0.04936100   1.008000   ; qtot -0.035732
  100         c3      4    bbb     C5    100 0.11363000  12.010000   ; qtot 0.077898
  101         hc      4    bbb     H9    101 0.06265900   1.008000   ; qtot 0.140557
  102         hc      4    bbb    H10    102 0.06265900   1.008000   ; qtot 0.203216
  103         c3      4    bbb     C6    103 0.11363000  12.010000   ; qtot 0.316846
  104         hc      4    bbb    H11    104 0.06265900   1.008000   ; qtot 0.379505
  105         hc      4    bbb    H12    105 0.06265900   1.008000   ; qtot 0.442164
  106         c3      4    bbb     C7    106 0.05858200  12.010000   ; qtot 0.500746
  107         h1      4    bbb    H13    107 0.06123400   1.008000   ; qtot 0.561980
  108         h1      4    bbb    H14    108 0.06123400   1.008000   ; qtot 0.623214
  109         c3      4    bbb     C8    109 -0.72423400  12.010000   ; qtot -0.101020
  110         h1      4    bbb    H15    110 0.25637600   1.008000   ; qtot 0.155356
  111         h1      4    bbb    H16    111 0.25637600   1.008000   ; qtot 0.411732
  112         c3      4    bbb     C9    112 -0.72423400  12.010000   ; qtot -0.312502
  113         h1      4    bbb    H17    113 0.25637600   1.008000   ; qtot -0.056126
  114         h1      4    bbb    H18    114 0.25637600   1.008000   ; qtot 0.200250
  115         os      4    bbb     O1    115 -0.20025300  16.000000   ; qtot -0.000003
; residue    5 bbb rtp bbb q -0.0
  116         n3      5    bbb     N1    116 -0.59685800  14.010000   ; qtot -0.596861
  117         c3      5    bbb     C1    117 0.10137000  12.010000   ; qtot -0.495491
  118         h1      5    bbb     H1    118 0.04411300   1.008000   ; qtot -0.451378
  119         h1      5    bbb     H2    119 0.04411300   1.008000   ; qtot -0.407265
  120         c3      5    bbb     C2    120 0.10137000  12.010000   ; qtot -0.305895
  121         h1      5    bbb     H3    121 0.04411300   1.008000   ; qtot -0.261782
  122         h1      5    bbb     H4    122 0.04411300   1.008000   ; qtot -0.217669
  123         c3      5    bbb     C3    123 -0.00195300  12.010000   ; qtot -0.219622
  124         h1      5    bbb     H5    124 0.05064400   1.008000   ; qtot -0.168978
  125         h1      5    bbb     H6    125 0.05064400   1.008000   ; qtot -0.118334
  126         c3      5    bbb     C4    126 -0.01612100  12.010000   ; qtot -0.134455
  127         hc      5    bbb     H7    127 0.04936100   1.008000   ; qtot -0.085094
  128         hc      5    bbb     H8    128 0.04936100   1.008000   ; qtot -0.035733
  129         c3      5    bbb     C5    129 0.11363000  12.010000   ; qtot 0.077897
  130         hc      5    bbb     H9    130 0.06265900   1.008000   ; qtot 0.140556
  131         hc      5    bbb    H10    131 0.06265900   1.008000   ; qtot 0.203215
  132         c3      5    bbb     C6    132 0.11363000  12.010000   ; qtot 0.316845
  133         hc      5    bbb    H11    133 0.06265900   1.008000   ; qtot 0.379504
  134         hc      5    bbb    H12    134 0.06265900   1.008000   ; qtot 0.442163
  135         c3      5    bbb     C7    135 0.05858200  12.010000   ; qtot 0.500745
  136         h1      5    bbb    H13    136 0.06123400   1.008000   ; qtot 0.561979
  137         h1      5    bbb    H14    137 0.06123400   1.008000   ; qtot 0.623213
  138         c3      5    bbb     C8    138 -0.72423400  12.010000   ; qtot -0.101021
  139         h1      5    bbb    H15    139 0.25637600   1.008000   ; qtot 0.155355
  140         h1      5    bbb    H16    140 0.25637600   1.008000   ; qtot 0.411731
  141         c3      5    bbb     C9    141 -0.72423400  12.010000   ; qtot -0.312503
  142         h1      5    bbb    H17    142 0.25637600   1.008000   ; qtot -0.056127
  143         h1      5    bbb    H18    143 0.25637600   1.008000   ; qtot 0.200249
  144         os      5    bbb     O1    144 -0.20025300  16.000000   ; qtot -0.000004
; residue    6 bbb rtp bbb q -0.0
  145         n3      6    bbb     N1    145 -0.59685800  14.010000   ; qtot -0.596862
  146         c3      6    bbb     C1    146 0.10137000  12.010000   ; qtot -0.495492
  147         h1      6    bbb     H1    147 0.04411300   1.008000   ; qtot -0.451379
  148         h1      6    bbb     H2    148 0.04411300   1.008000   ; qtot -0.407266
  149         c3      6    bbb     C2    149 0.10137000  12.010000   ; qtot -0.305896
  150         h1      6    bbb     H3    150 0.04411300   1.008000   ; qtot -0.261783
  151         h1      6    bbb     H4    151 0.04411300   1.008000   ; qtot -0.217670
  152         c3      6    bbb     C3    152 -0.00195300  12.010000   ; qtot -0.219623
  153         h1      6    bbb     H5    153 0.05064400   1.008000   ; qtot -0.168979
  154         h1      6    bbb     H6    154 0.05064400   1.008000   ; qtot -0.118335
  155         c3      6    bbb     C4    155 -0.01612100  12.010000   ; qtot -0.134456
  156         hc      6    bbb     H7    156 0.04936100   1.008000   ; qtot -0.085095
  157         hc      6    bbb     H8    157 0.04936100   1.008000   ; qtot -0.035734
  158         c3      6    bbb     C5    158 0.11363000  12.010000   ; qtot 0.077896
  159         hc      6    bbb     H9    159 0.06265900   1.008000   ; qtot 0.140555
  160         hc      6    bbb    H10    160 0.06265900   1.008000   ; qtot 0.203214
  161         c3      6    bbb     C6    161 0.11363000  12.010000   ; qtot 0.316844
  162         hc      6    bbb    H11    162 0.06265900   1.008000   ; qtot 0.379503
  163         hc      6    bbb    H12    163 0.06265900   1.008000   ; qtot 0.442162
  164         c3      6    bbb     C7    164 0.05858200  12.010000   ; qtot 0.500744
  165         h1      6    bbb    H13    165 0.06123400   1.008000   ; qtot 0.561978
  166         h1      6    bbb    H14    166 0.06123400   1.008000   ; qtot 0.623212
  167         c3      6    bbb     C8    167 -0.72423400  12.010000   ; qtot -0.101022
  168         h1      6    bbb    H15    168 0.25637600   1.008000   ; qtot 0.155354
  169         h1      6    bbb    H16    169 0.25637600   1.008000   ; qtot 0.411730
  170         c3      6    bbb     C9    170 -0.72423400  12.010000   ; qtot -0.312504
  171         h1      6    bbb    H17    171 0.25637600   1.008000   ; qtot -0.056128
  172         h1      6    bbb    H18    172 0.25637600   1.008000   ; qtot 0.200248
  173         os      6    bbb     O1    173 -0.20025300  16.000000   ; qtot -0.000005
; residue    7 bbb rtp bbb q -0.0
  174         n3      7    bbb     N1    174 -0.59685800  14.010000   ; qtot -0.596863
  175         c3      7    bbb     C1    175 0.10137000  12.010000   ; qtot -0.495493
  176         h1      7    bbb     H1    176 0.04411300   1.008000   ; qtot -0.451380
  177         h1      7    bbb     H2    177 0.04411300   1.008000   ; qtot -0.407267
  178         c3      7    bbb     C2    178 0.10137000  12.010000   ; qtot -0.305897
  179         h1      7    bbb     H3    179 0.04411300   1.008000   ; qtot -0.261784
  180         h1      7    bbb     H4    180 0.04411300   1.008000   ; qtot -0.217671
  181         c3      7    bbb     C3    181 -0.00195300  12.010000   ; qtot -0.219624
  182         h1      7    bbb     H5    182 0.05064400   1.008000   ; qtot -0.168980
  183         h1      7    bbb     H6    183 0.05064400   1.008000   ; qtot -0.118336
  184         c3      7    bbb     C4    184 -0.01612100  12.010000   ; qtot -0.134457
  185         hc      7    bbb     H7    185 0.04936100   1.008000   ; qtot -0.085096
  186         hc      7    bbb     H8    186 0.04936100   1.008000   ; qtot -0.035735
  187         c3      7    bbb     C5    187 0.11363000  12.010000   ; qtot 0.077895
  188         hc      7    bbb     H9    188 0.06265900   1.008000   ; qtot 0.140554
  189         hc      7    bbb    H10    189 0.06265900   1.008000   ; qtot 0.203213
  190         c3      7    bbb     C6    190 0.11363000  12.010000   ; qtot 0.316843
  191         hc      7    bbb    H11    191 0.06265900   1.008000   ; qtot 0.379502
  192         hc      7    bbb    H12    192 0.06265900   1.008000   ; qtot 0.442161
  193         c3      7    bbb     C7    193 0.05858200  12.010000   ; qtot 0.500743
  194         h1      7    bbb    H13    194 0.06123400   1.008000   ; qtot 0.561977
  195         h1      7    bbb    H14    195 0.06123400   1.008000   ; qtot 0.623211
  196         c3      7    bbb     C8    196 -0.72423400  12.010000   ; qtot -0.101023
  197         h1      7    bbb    H15    197 0.25637600   1.008000   ; qtot 0.155353
  198         h1      7    bbb    H16    198 0.25637600   1.008000   ; qtot 0.411729
  199         c3      7    bbb     C9    199 -0.72423400  12.010000   ; qtot -0.312505
  200         h1      7    bbb    H17    200 0.25637600   1.008000   ; qtot -0.056129
  201         h1      7    bbb    H18    201 0.25637600   1.008000   ; qtot 0.200247
  202         os      7    bbb     O1    202 -0.20025300  16.000000   ; qtot -0.000006
; residue    8 bbb rtp bbb q -0.0
  203         n3      8    bbb     N1    203 -0.59685800  14.010000   ; qtot -0.596864
  204         c3      8    bbb     C1    204 0.10137000  12.010000   ; qtot -0.495494
  205         h1      8    bbb     H1    205 0.04411300   1.008000   ; qtot -0.451381
  206         h1      8    bbb     H2    206 0.04411300   1.008000   ; qtot -0.407268
  207         c3      8    bbb     C2    207 0.10137000  12.010000   ; qtot -0.305898
  208         h1      8    bbb     H3    208 0.04411300   1.008000   ; qtot -0.261785
  209         h1      8    bbb     H4    209 0.04411300   1.008000   ; qtot -0.217672
  210         c3      8    bbb     C3    210 -0.00195300  12.010000   ; qtot -0.219625
  211         h1      8    bbb     H5    211 0.05064400   1.008000   ; qtot -0.168981
  212         h1      8    bbb     H6    212 0.05064400   1.008000   ; qtot -0.118337
  213         c3      8    bbb     C4    213 -0.01612100  12.010000   ; qtot -0.134458
  214         hc      8    bbb     H7    214 0.04936100   1.008000   ; qtot -0.085097
  215         hc      8    bbb     H8    215 0.04936100   1.008000   ; qtot -0.035736
  216         c3      8    bbb     C5    216 0.11363000  12.010000   ; qtot 0.077894
  217         hc      8    bbb     H9    217 0.06265900   1.008000   ; qtot 0.140553
  218         hc      8    bbb    H10    218 0.06265900   1.008000   ; qtot 0.203212
  219         c3      8    bbb     C6    219 0.11363000  12.010000   ; qtot 0.316842
  220         hc      8    bbb    H11    220 0.06265900   1.008000   ; qtot 0.379501
  221         hc      8    bbb    H12    221 0.06265900   1.008000   ; qtot 0.442160
  222         c3      8    bbb     C7    222 0.05858200  12.010000   ; qtot 0.500742
  223         h1      8    bbb    H13    223 0.06123400   1.008000   ; qtot 0.561976
  224         h1      8    bbb    H14    224 0.06123400   1.008000   ; qtot 0.623210
  225         c3      8    bbb     C8    225 -0.72423400  12.010000   ; qtot -0.101024
  226         h1      8    bbb    H15    226 0.25637600   1.008000   ; qtot 0.155352
  227         h1      8    bbb    H16    227 0.25637600   1.008000   ; qtot 0.411728
  228         c3      8    bbb     C9    228 -0.72423400  12.010000   ; qtot -0.312506
  229         h1      8    bbb    H17    229 0.25637600   1.008000   ; qtot -0.056130
  230         h1      8    bbb    H18    230 0.25637600   1.008000   ; qtot 0.200246
  231         os      8    bbb     O1    231 -0.20025300  16.000000   ; qtot -0.000007
; residue    9 bbb rtp bbb q -0.0
  232         n3      9    bbb     N1    232 -0.59685800  14.010000   ; qtot -0.596865
  233         c3      9    bbb     C1    233 0.10137000  12.010000   ; qtot -0.495495
  234         h1      9    bbb     H1    234 0.04411300   1.008000   ; qtot -0.451382
  235         h1      9    bbb     H2    235 0.04411300   1.008000   ; qtot -0.407269
  236         c3      9    bbb     C2    236 0.10137000  12.010000   ; qtot -0.305899
  237         h1      9    bbb     H3    237 0.04411300   1.008000   ; qtot -0.261786
  238         h1      9    bbb     H4    238 0.04411300   1.008000   ; qtot -0.217673
  239         c3      9    bbb     C3    239 -0.00195300  12.010000   ; qtot -0.219626
  240         h1      9    bbb     H5    240 0.05064400   1.008000   ; qtot -0.168982
  241         h1      9    bbb     H6    241 0.05064400   1.008000   ; qtot -0.118338
  242         c3      9    bbb     C4    242 -0.01612100  12.010000   ; qtot -0.134459
  243         hc      9    bbb     H7    243 0.04936100   1.008000   ; qtot -0.085098
  244         hc      9    bbb     H8    244 0.04936100   1.008000   ; qtot -0.035737
  245         c3      9    bbb     C5    245 0.11363000  12.010000   ; qtot 0.077893
  246         hc      9    bbb     H9    246 0.06265900   1.008000   ; qtot 0.140552
  247         hc      9    bbb    H10    247 0.06265900   1.008000   ; qtot 0.203211
  248         c3      9    bbb     C6    248 0.11363000  12.010000   ; qtot 0.316841
  249         hc      9    bbb    H11    249 0.06265900   1.008000   ; qtot 0.379500
  250         hc      9    bbb    H12    250 0.06265900   1.008000   ; qtot 0.442159
  251         c3      9    bbb     C7    251 0.05858200  12.010000   ; qtot 0.500741
  252         h1      9    bbb    H13    252 0.06123400   1.008000   ; qtot 0.561975
  253         h1      9    bbb    H14    253 0.06123400   1.008000   ; qtot 0.623209
  254         c3      9    bbb     C8    254 -0.72423400  12.010000   ; qtot -0.101025
  255         h1      9    bbb    H15    255 0.25637600   1.008000   ; qtot 0.155351
  256         h1      9    bbb    H16    256 0.25637600   1.008000   ; qtot 0.411727
  257         c3      9    bbb     C9    257 -0.72423400  12.010000   ; qtot -0.312507
  258         h1      9    bbb    H17    258 0.25637600   1.008000   ; qtot -0.056131
  259         h1      9    bbb    H18    259 0.25637600   1.008000   ; qtot 0.200245
  260         os      9    bbb     O1    260 -0.20025300  16.000000   ; qtot -0.000008
; residue   10 bbb rtp bbb q -0.0
  261         n3     10    bbb     N1    261 -0.59685800  14.010000   ; qtot -0.596866
  262         c3     10    bbb     C1    262 0.10137000  12.010000   ; qtot -0.495496
  263         h1     10    bbb     H1    263 0.04411300   1.008000   ; qtot -0.451383
  264         h1     10    bbb     H2    264 0.04411300   1.008000   ; qtot -0.407270
  265         c3     10    bbb     C2    265 0.10137000  12.010000   ; qtot -0.305900
  266         h1     10    bbb     H3    266 0.04411300   1.008000   ; qtot -0.261787
  267         h1     10    bbb     H4    267 0.04411300   1.008000   ; qtot -0.217674
  268         c3     10    bbb     C3    268 -0.00195300  12.010000   ; qtot -0.219627
  269         h1     10    bbb     H5    269 0.05064400   1.008000   ; qtot -0.168983
  270         h1     10    bbb     H6    270 0.05064400   1.008000   ; qtot -0.118339
  271         c3     10    bbb     C4    271 -0.01612100  12.010000   ; qtot -0.134460
  272         hc     10    bbb     H7    272 0.04936100   1.008000   ; qtot -0.085099
  273         hc     10    bbb     H8    273 0.04936100   1.008000   ; qtot -0.035738
  274         c3     10    bbb     C5    274 0.11363000  12.010000   ; qtot 0.077892
  275         hc     10    bbb     H9    275 0.06265900   1.008000   ; qtot 0.140551
  276         hc     10    bbb    H10    276 0.06265900   1.008000   ; qtot 0.203210
  277         c3     10    bbb     C6    277 0.11363000  12.010000   ; qtot 0.316840
  278         hc     10    bbb    H11    278 0.06265900   1.008000   ; qtot 0.379499
  279         hc     10    bbb    H12    279 0.06265900   1.008000   ; qtot 0.442158
  280         c3     10    bbb     C7    280 0.05858200  12.010000   ; qtot 0.500740
  281         h1     10    bbb    H13    281 0.06123400   1.008000   ; qtot 0.561974
  282         h1     10    bbb    H14    282 0.06123400   1.008000   ; qtot 0.623208
  283         c3     10    bbb     C8    283 -0.72423400  12.010000   ; qtot -0.101026
  284         h1     10    bbb    H15    284 0.25637600   1.008000   ; qtot 0.155350
  285         h1     10    bbb    H16    285 0.25637600   1.008000   ; qtot 0.411726
  286         c3     10    bbb     C9    286 -0.72423400  12.010000   ; qtot -0.312508
  287         h1     10    bbb    H17    287 0.25637600   1.008000   ; qtot -0.056132
  288         h1     10    bbb    H18    288 0.25637600   1.008000   ; qtot 0.200244
  289         os     10    bbb     O1    289 -0.20025300  16.000000   ; qtot -0.000009
; residue   11 bbb rtp bbb q -0.0
  290         n3     11    bbb     N1    290 -0.59685800  14.010000   ; qtot -0.596867
  291         c3     11    bbb     C1    291 0.10137000  12.010000   ; qtot -0.495497
  292         h1     11    bbb     H1    292 0.04411300   1.008000   ; qtot -0.451384
  293         h1     11    bbb     H2    293 0.04411300   1.008000   ; qtot -0.407271
  294         c3     11    bbb     C2    294 0.10137000  12.010000   ; qtot -0.305901
  295         h1     11    bbb     H3    295 0.04411300   1.008000   ; qtot -0.261788
  296         h1     11    bbb     H4    296 0.04411300   1.008000   ; qtot -0.217675
  297         c3     11    bbb     C3    297 -0.00195300  12.010000   ; qtot -0.219628
  298         h1     11    bbb     H5    298 0.05064400   1.008000   ; qtot -0.168984
  299         h1     11    bbb     H6    299 0.05064400   1.008000   ; qtot -0.118340
  300         c3     11    bbb     C4    300 -0.01612100  12.010000   ; qtot -0.134461
  301         hc     11    bbb     H7    301 0.04936100   1.008000   ; qtot -0.085100
  302         hc     11    bbb     H8    302 0.04936100   1.008000   ; qtot -0.035739
  303         c3     11    bbb     C5    303 0.11363000  12.010000   ; qtot 0.077891
  304         hc     11    bbb     H9    304 0.06265900   1.008000   ; qtot 0.140550
  305         hc     11    bbb    H10    305 0.06265900   1.008000   ; qtot 0.203209
  306         c3     11    bbb     C6    306 0.11363000  12.010000   ; qtot 0.316839
  307         hc     11    bbb    H11    307 0.06265900   1.008000   ; qtot 0.379498
  308         hc     11    bbb    H12    308 0.06265900   1.008000   ; qtot 0.442157
  309         c3     11    bbb     C7    309 0.05858200  12.010000   ; qtot 0.500739
  310         h1     11    bbb    H13    310 0.06123400   1.008000   ; qtot 0.561973
  311         h1     11    bbb    H14    311 0.06123400   1.008000   ; qtot 0.623207
  312         c3     11    bbb     C8    312 -0.72423400  12.010000   ; qtot -0.101027
  313         h1     11    bbb    H15    313 0.25637600   1.008000   ; qtot 0.155349
  314         h1     11    bbb    H16    314 0.25637600   1.008000   ; qtot 0.411725
  315         c3     11    bbb     C9    315 -0.72423400  12.010000   ; qtot -0.312509
  316         h1     11    bbb    H17    316 0.25637600   1.008000   ; qtot -0.056133
  317         h1     11    bbb    H18    317 0.25637600   1.008000   ; qtot 0.200243
  318         os     11    bbb     O1    318 -0.20025300  16.000000   ; qtot -0.000010
; residue   12 bbb rtp bbb q -0.0
  319         n3     12    bbb     N1    319 -0.59685800  14.010000   ; qtot -0.596868
  320         c3     12    bbb     C1    320 0.10137000  12.010000   ; qtot -0.495498
  321         h1     12    bbb     H1    321 0.04411300   1.008000   ; qtot -0.451385
  322         h1     12    bbb     H2    322 0.04411300   1.008000   ; qtot -0.407272
  323         c3     12    bbb     C2    323 0.10137000  12.010000   ; qtot -0.305902
  324         h1     12    bbb     H3    324 0.04411300   1.008000   ; qtot -0.261789
  325         h1     12    bbb     H4    325 0.04411300   1.008000   ; qtot -0.217676
  326         c3     12    bbb     C3    326 -0.00195300  12.010000   ; qtot -0.219629
  327         h1     12    bbb     H5    327 0.05064400   1.008000   ; qtot -0.168985
  328         h1     12    bbb     H6    328 0.05064400   1.008000   ; qtot -0.118341
  329         c3     12    bbb     C4    329 -0.01612100  12.010000   ; qtot -0.134462
  330         hc     12    bbb     H7    330 0.04936100   1.008000   ; qtot -0.085101
  331         hc     12    bbb     H8    331 0.04936100   1.008000   ; qtot -0.035740
  332         c3     12    bbb     C5    332 0.11363000  12.010000   ; qtot 0.077890
  333         hc     12    bbb     H9    333 0.06265900   1.008000   ; qtot 0.140549
  334         hc     12    bbb    H10    334 0.06265900   1.008000   ; qtot 0.203208
  335         c3     12    bbb     C6    335 0.11363000  12.010000   ; qtot 0.316838
  336         hc     12    bbb    H11    336 0.06265900   1.008000   ; qtot 0.379497
  337         hc     12    bbb    H12    337 0.06265900   1.008000   ; qtot 0.442156
  338         c3     12    bbb     C7    338 0.05858200  12.010000   ; qtot 0.500738
  339         h1     12    bbb    H13    339 0.06123400   1.008000   ; qtot 0.561972
  340         h1     12    bbb    H14    340 0.06123400   1.008000   ; qtot 0.623206
  341         c3     12    bbb     C8    341 -0.72423400  12.010000   ; qtot -0.101028
  342         h1     12    bbb    H15    342 0.25637600   1.008000   ; qtot 0.155348
  343         h1     12    bbb    H16    343 0.25637600   1.008000   ; qtot 0.411724
  344         c3     12    bbb     C9    344 -0.72423400  12.010000   ; qtot -0.312510
  345         h1     12    bbb    H17    345 0.25637600   1.008000   ; qtot -0.056134
  346         h1     12    bbb    H18    346 0.25637600   1.008000   ; qtot 0.200242
  347         os     12    bbb     O1    347 -0.20025300  16.000000   ; qtot -0.000011
; residue   13 bbb rtp bbb q -0.0
  348         n3     13    bbb     N1    348 -0.59685800  14.010000   ; qtot -0.596869
  349         c3     13    bbb     C1    349 0.10137000  12.010000   ; qtot -0.495499
  350         h1     13    bbb     H1    350 0.04411300   1.008000   ; qtot -0.451386
  351         h1     13    bbb     H2    351 0.04411300   1.008000   ; qtot -0.407273
  352         c3     13    bbb     C2    352 0.10137000  12.010000   ; qtot -0.305903
  353         h1     13    bbb     H3    353 0.04411300   1.008000   ; qtot -0.261790
  354         h1     13    bbb     H4    354 0.04411300   1.008000   ; qtot -0.217677
  355         c3     13    bbb     C3    355 -0.00195300  12.010000   ; qtot -0.219630
  356         h1     13    bbb     H5    356 0.05064400   1.008000   ; qtot -0.168986
  357         h1     13    bbb     H6    357 0.05064400   1.008000   ; qtot -0.118342
  358         c3     13    bbb     C4    358 -0.01612100  12.010000   ; qtot -0.134463
  359         hc     13    bbb     H7    359 0.04936100   1.008000   ; qtot -0.085102
  360         hc     13    bbb     H8    360 0.04936100   1.008000   ; qtot -0.035741
  361         c3     13    bbb     C5    361 0.11363000  12.010000   ; qtot 0.077889
  362         hc     13    bbb     H9    362 0.06265900   1.008000   ; qtot 0.140548
  363         hc     13    bbb    H10    363 0.06265900   1.008000   ; qtot 0.203207
  364         c3     13    bbb     C6    364 0.11363000  12.010000   ; qtot 0.316837
  365         hc     13    bbb    H11    365 0.06265900   1.008000   ; qtot 0.379496
  366         hc     13    bbb    H12    366 0.06265900   1.008000   ; qtot 0.442155
  367         c3     13    bbb     C7    367 0.05858200  12.010000   ; qtot 0.500737
  368         h1     13    bbb    H13    368 0.06123400   1.008000   ; qtot 0.561971
  369         h1     13    bbb    H14    369 0.06123400   1.008000   ; qtot 0.623205
  370         c3     13    bbb     C8    370 -0.72423400  12.010000   ; qtot -0.101029
  371         h1     13    bbb    H15    371 0.25637600   1.008000   ; qtot 0.155347
  372         h1     13    bbb    H16    372 0.25637600   1.008000   ; qtot 0.411723
  373         c3     13    bbb     C9    373 -0.72423400  12.010000   ; qtot -0.312511
  374         h1     13    bbb    H17    374 0.25637600   1.008000   ; qtot -0.056135
  375         h1     13    bbb    H18    375 0.25637600   1.008000   ; qtot 0.200241
  376         os     13    bbb     O1    376 -0.20025300  16.000000   ; qtot -0.000012
; residue   14 bbb rtp bbb q -0.0
  377         n3     14    bbb     N1    377 -0.59685800  14.010000   ; qtot -0.596870
  378         c3     14    bbb     C1    378 0.10137000  12.010000   ; qtot -0.495500
  379         h1     14    bbb     H1    379 0.04411300   1.008000   ; qtot -0.451387
  380         h1     14    bbb     H2    380 0.04411300   1.008000   ; qtot -0.407274
  381         c3     14    bbb     C2    381 0.10137000  12.010000   ; qtot -0.305904
  382         h1     14    bbb     H3    382 0.04411300   1.008000   ; qtot -0.261791
  383         h1     14    bbb     H4    383 0.04411300   1.008000   ; qtot -0.217678
  384         c3     14    bbb     C3    384 -0.00195300  12.010000   ; qtot -0.219631
  385         h1     14    bbb     H5    385 0.05064400   1.008000   ; qtot -0.168987
  386         h1     14    bbb     H6    386 0.05064400   1.008000   ; qtot -0.118343
  387         c3     14    bbb     C4    387 -0.01612100  12.010000   ; qtot -0.134464
  388         hc     14    bbb     H7    388 0.04936100   1.008000   ; qtot -0.085103
  389         hc     14    bbb     H8    389 0.04936100   1.008000   ; qtot -0.035742
  390         c3     14    bbb     C5    390 0.11363000  12.010000   ; qtot 0.077888
  391         hc     14    bbb     H9    391 0.06265900   1.008000   ; qtot 0.140547
  392         hc     14    bbb    H10    392 0.06265900   1.008000   ; qtot 0.203206
  393         c3     14    bbb     C6    393 0.11363000  12.010000   ; qtot 0.316836
  394         hc     14    bbb    H11    394 0.06265900   1.008000   ; qtot 0.379495
  395         hc     14    bbb    H12    395 0.06265900   1.008000   ; qtot 0.442154
  396         c3     14    bbb     C7    396 0.05858200  12.010000   ; qtot 0.500736
  397         h1     14    bbb    H13    397 0.06123400   1.008000   ; qtot 0.561970
  398         h1     14    bbb    H14    398 0.06123400   1.008000   ; qtot 0.623204
  399         c3     14    bbb     C8    399 -0.72423400  12.010000   ; qtot -0.101030
  400         h1     14    bbb    H15    400 0.25637600   1.008000   ; qtot 0.155346
  401         h1     14    bbb    H16    401 0.25637600   1.008000   ; qtot 0.411722
  402         c3     14    bbb     C9    402 -0.72423400  12.010000   ; qtot -0.312512
  403         h1     14    bbb    H17    403 0.25637600   1.008000   ; qtot -0.056136
  404         h1     14    bbb    H18    404 0.25637600   1.008000   ; qtot 0.200240
  405         os     14    bbb     O1    405 -0.20025300  16.000000   ; qtot -0.000013
; residue   15 bbb rtp bbb q -0.0
  406         n3     15    bbb     N1    406 -0.59685800  14.010000   ; qtot -0.596871
  407         c3     15    bbb     C1    407 0.10137000  12.010000   ; qtot -0.495501
  408         h1     15    bbb     H1    408 0.04411300   1.008000   ; qtot -0.451388
  409         h1     15    bbb     H2    409 0.04411300   1.008000   ; qtot -0.407275
  410         c3     15    bbb     C2    410 0.10137000  12.010000   ; qtot -0.305905
  411         h1     15    bbb     H3    411 0.04411300   1.008000   ; qtot -0.261792
  412         h1     15    bbb     H4    412 0.04411300   1.008000   ; qtot -0.217679
  413         c3     15    bbb     C3    413 -0.00195300  12.010000   ; qtot -0.219632
  414         h1     15    bbb     H5    414 0.05064400   1.008000   ; qtot -0.168988
  415         h1     15    bbb     H6    415 0.05064400   1.008000   ; qtot -0.118344
  416         c3     15    bbb     C4    416 -0.01612100  12.010000   ; qtot -0.134465
  417         hc     15    bbb     H7    417 0.04936100   1.008000   ; qtot -0.085104
  418         hc     15    bbb     H8    418 0.04936100   1.008000   ; qtot -0.035743
  419         c3     15    bbb     C5    419 0.11363000  12.010000   ; qtot 0.077887
  420         hc     15    bbb     H9    420 0.06265900   1.008000   ; qtot 0.140546
  421         hc     15    bbb    H10    421 0.06265900   1.008000   ; qtot 0.203205
  422         c3     15    bbb     C6    422 0.11363000  12.010000   ; qtot 0.316835
  423         hc     15    bbb    H11    423 0.06265900   1.008000   ; qtot 0.379494
  424         hc     15    bbb    H12    424 0.06265900   1.008000   ; qtot 0.442153
  425         c3     15    bbb     C7    425 0.05858200  12.010000   ; qtot 0.500735
  426         h1     15    bbb    H13    426 0.06123400   1.008000   ; qtot 0.561969
  427         h1     15    bbb    H14    427 0.06123400   1.008000   ; qtot 0.623203
  428         c3     15    bbb     C8    428 -0.72423400  12.010000   ; qtot -0.101031
  429         h1     15    bbb    H15    429 0.25637600   1.008000   ; qtot 0.155345
  430         h1     15    bbb    H16    430 0.25637600   1.008000   ; qtot 0.411721
  431         c3     15    bbb     C9    431 -0.72423400  12.010000   ; qtot -0.312513
  432         h1     15    bbb    H17    432 0.25637600   1.008000   ; qtot -0.056137
  433         h1     15    bbb    H18    433 0.25637600   1.008000   ; qtot 0.200239
  434         os     15    bbb     O1    434 -0.20025300  16.000000   ; qtot -0.000014
; residue   16 bbb rtp bbb q -0.0
  435         n3     16    bbb     N1    435 -0.59685800  14.010000   ; qtot -0.596872
  436         c3     16    bbb     C1    436 0.10137000  12.010000   ; qtot -0.495502
  437         h1     16    bbb     H1    437 0.04411300   1.008000   ; qtot -0.451389
  438         h1     16    bbb     H2    438 0.04411300   1.008000   ; qtot -0.407276
  439         c3     16    bbb     C2    439 0.10137000  12.010000   ; qtot -0.305906
  440         h1     16    bbb     H3    440 0.04411300   1.008000   ; qtot -0.261793
  441         h1     16    bbb     H4    441 0.04411300   1.008000   ; qtot -0.217680
  442         c3     16    bbb     C3    442 -0.00195300  12.010000   ; qtot -0.219633
  443         h1     16    bbb     H5    443 0.05064400   1.008000   ; qtot -0.168989
  444         h1     16    bbb     H6    444 0.05064400   1.008000   ; qtot -0.118345
  445         c3     16    bbb     C4    445 -0.01612100  12.010000   ; qtot -0.134466
  446         hc     16    bbb     H7    446 0.04936100   1.008000   ; qtot -0.085105
  447         hc     16    bbb     H8    447 0.04936100   1.008000   ; qtot -0.035744
  448         c3     16    bbb     C5    448 0.11363000  12.010000   ; qtot 0.077886
  449         hc     16    bbb     H9    449 0.06265900   1.008000   ; qtot 0.140545
  450         hc     16    bbb    H10    450 0.06265900   1.008000   ; qtot 0.203204
  451         c3     16    bbb     C6    451 0.11363000  12.010000   ; qtot 0.316834
  452         hc     16    bbb    H11    452 0.06265900   1.008000   ; qtot 0.379493
  453         hc     16    bbb    H12    453 0.06265900   1.008000   ; qtot 0.442152
  454         c3     16    bbb     C7    454 0.05858200  12.010000   ; qtot 0.500734
  455         h1     16    bbb    H13    455 0.06123400   1.008000   ; qtot 0.561968
  456         h1     16    bbb    H14    456 0.06123400   1.008000   ; qtot 0.623202
  457         c3     16    bbb     C8    457 -0.72423400  12.010000   ; qtot -0.101032
  458         h1     16    bbb    H15    458 0.25637600   1.008000   ; qtot 0.155344
  459         h1     16    bbb    H16    459 0.25637600   1.008000   ; qtot 0.411720
  460         c3     16    bbb     C9    460 -0.72423400  12.010000   ; qtot -0.312514
  461         h1     16    bbb    H17    461 0.25637600   1.008000   ; qtot -0.056138
  462         h1     16    bbb    H18    462 0.25637600   1.008000   ; qtot 0.200238
  463         os     16    bbb     O1    463 -0.20025300  16.000000   ; qtot -0.000015
; residue   17 bbb rtp bbb q -0.0
  464         n3     17    bbb     N1    464 -0.59685800  14.010000   ; qtot -0.596873
  465         c3     17    bbb     C1    465 0.10137000  12.010000   ; qtot -0.495503
  466         h1     17    bbb     H1    466 0.04411300   1.008000   ; qtot -0.451390
  467         h1     17    bbb     H2    467 0.04411300   1.008000   ; qtot -0.407277
  468         c3     17    bbb     C2    468 0.10137000  12.010000   ; qtot -0.305907
  469         h1     17    bbb     H3    469 0.04411300   1.008000   ; qtot -0.261794
  470         h1     17    bbb     H4    470 0.04411300   1.008000   ; qtot -0.217681
  471         c3     17    bbb     C3    471 -0.00195300  12.010000   ; qtot -0.219634
  472         h1     17    bbb     H5    472 0.05064400   1.008000   ; qtot -0.168990
  473         h1     17    bbb     H6    473 0.05064400   1.008000   ; qtot -0.118346
  474         c3     17    bbb     C4    474 -0.01612100  12.010000   ; qtot -0.134467
  475         hc     17    bbb     H7    475 0.04936100   1.008000   ; qtot -0.085106
  476         hc     17    bbb     H8    476 0.04936100   1.008000   ; qtot -0.035745
  477         c3     17    bbb     C5    477 0.11363000  12.010000   ; qtot 0.077885
  478         hc     17    bbb     H9    478 0.06265900   1.008000   ; qtot 0.140544
  479         hc     17    bbb    H10    479 0.06265900   1.008000   ; qtot 0.203203
  480         c3     17    bbb     C6    480 0.11363000  12.010000   ; qtot 0.316833
  481         hc     17    bbb    H11    481 0.06265900   1.008000   ; qtot 0.379492
  482         hc     17    bbb    H12    482 0.06265900   1.008000   ; qtot 0.442151
  483         c3     17    bbb     C7    483 0.05858200  12.010000   ; qtot 0.500733
  484         h1     17    bbb    H13    484 0.06123400   1.008000   ; qtot 0.561967
  485         h1     17    bbb    H14    485 0.06123400   1.008000   ; qtot 0.623201
  486         c3     17    bbb     C8    486 -0.72423400  12.010000   ; qtot -0.101033
  487         h1     17    bbb    H15    487 0.25637600   1.008000   ; qtot 0.155343
  488         h1     17    bbb    H16    488 0.25637600   1.008000   ; qtot 0.411719
  489         c3     17    bbb     C9    489 -0.72423400  12.010000   ; qtot -0.312515
  490         h1     17    bbb    H17    490 0.25637600   1.008000   ; qtot -0.056139
  491         h1     17    bbb    H18    491 0.25637600   1.008000   ; qtot 0.200237
  492         os     17    bbb     O1    492 -0.20025300  16.000000   ; qtot -0.000016
; residue   18 bbb rtp bbb q -0.0
  493         n3     18    bbb     N1    493 -0.59685800  14.010000   ; qtot -0.596874
  494         c3     18    bbb     C1    494 0.10137000  12.010000   ; qtot -0.495504
  495         h1     18    bbb     H1    495 0.04411300   1.008000   ; qtot -0.451391
  496         h1     18    bbb     H2    496 0.04411300   1.008000   ; qtot -0.407278
  497         c3     18    bbb     C2    497 0.10137000  12.010000   ; qtot -0.305908
  498         h1     18    bbb     H3    498 0.04411300   1.008000   ; qtot -0.261795
  499         h1     18    bbb     H4    499 0.04411300   1.008000   ; qtot -0.217682
  500         c3     18    bbb     C3    500 -0.00195300  12.010000   ; qtot -0.219635
  501         h1     18    bbb     H5    501 0.05064400   1.008000   ; qtot -0.168991
  502         h1     18    bbb     H6    502 0.05064400   1.008000   ; qtot -0.118347
  503         c3     18    bbb     C4    503 -0.01612100  12.010000   ; qtot -0.134468
  504         hc     18    bbb     H7    504 0.04936100   1.008000   ; qtot -0.085107
  505         hc     18    bbb     H8    505 0.04936100   1.008000   ; qtot -0.035746
  506         c3     18    bbb     C5    506 0.11363000  12.010000   ; qtot 0.077884
  507         hc     18    bbb     H9    507 0.06265900   1.008000   ; qtot 0.140543
  508         hc     18    bbb    H10    508 0.06265900   1.008000   ; qtot 0.203202
  509         c3     18    bbb     C6    509 0.11363000  12.010000   ; qtot 0.316832
  510         hc     18    bbb    H11    510 0.06265900   1.008000   ; qtot 0.379491
  511         hc     18    bbb    H12    511 0.06265900   1.008000   ; qtot 0.442150
  512         c3     18    bbb     C7    512 0.05858200  12.010000   ; qtot 0.500732
  513         h1     18    bbb    H13    513 0.06123400   1.008000   ; qtot 0.561966
  514         h1     18    bbb    H14    514 0.06123400   1.008000   ; qtot 0.623200
  515         c3     18    bbb     C8    515 -0.72423400  12.010000   ; qtot -0.101034
  516         h1     18    bbb    H15    516 0.25637600   1.008000   ; qtot 0.155342
  517         h1     18    bbb    H16    517 0.25637600   1.008000   ; qtot 0.411718
  518         c3     18    bbb     C9    518 -0.72423400  12.010000   ; qtot -0.312516
  519         h1     18    bbb    H17    519 0.25637600   1.008000   ; qtot -0.056140
  520         h1     18    bbb    H18    520 0.25637600   1.008000   ; qtot 0.200236
  521         os     18    bbb     O1    521 -0.20025300  16.000000   ; qtot -0.000017
; residue   19 bbb rtp bbb q -0.0
  522         n3     19    bbb     N1    522 -0.59685800  14.010000   ; qtot -0.596875
  523         c3     19    bbb     C1    523 0.10137000  12.010000   ; qtot -0.495505
  524         h1     19    bbb     H1    524 0.04411300   1.008000   ; qtot -0.451392
  525         h1     19    bbb     H2    525 0.04411300   1.008000   ; qtot -0.407279
  526         c3     19    bbb     C2    526 0.10137000  12.010000   ; qtot -0.305909
  527         h1     19    bbb     H3    527 0.04411300   1.008000   ; qtot -0.261796
  528         h1     19    bbb     H4    528 0.04411300   1.008000   ; qtot -0.217683
  529         c3     19    bbb     C3    529 -0.00195300  12.010000   ; qtot -0.219636
  530         h1     19    bbb     H5    530 0.05064400   1.008000   ; qtot -0.168992
  531         h1     19    bbb     H6    531 0.05064400   1.008000   ; qtot -0.118348
  532         c3     19    bbb     C4    532 -0.01612100  12.010000   ; qtot -0.134469
  533         hc     19    bbb     H7    533 0.04936100   1.008000   ; qtot -0.085108
  534         hc     19    bbb     H8    534 0.04936100   1.008000   ; qtot -0.035747
  535         c3     19    bbb     C5    535 0.11363000  12.010000   ; qtot 0.077883
  536         hc     19    bbb     H9    536 0.06265900   1.008000   ; qtot 0.140542
  537         hc     19    bbb    H10    537 0.06265900   1.008000   ; qtot 0.203201
  538         c3     19    bbb     C6    538 0.11363000  12.010000   ; qtot 0.316831
  539         hc     19    bbb    H11    539 0.06265900   1.008000   ; qtot 0.379490
  540         hc     19    bbb    H12    540 0.06265900   1.008000   ; qtot 0.442149
  541         c3     19    bbb     C7    541 0.05858200  12.010000   ; qtot 0.500731
  542         h1     19    bbb    H13    542 0.06123400   1.008000   ; qtot 0.561965
  543         h1     19    bbb    H14    543 0.06123400   1.008000   ; qtot 0.623199
  544         c3     19    bbb     C8    544 -0.72423400  12.010000   ; qtot -0.101035
  545         h1     19    bbb    H15    545 0.25637600   1.008000   ; qtot 0.155341
  546         h1     19    bbb    H16    546 0.25637600   1.008000   ; qtot 0.411717
  547         c3     19    bbb     C9    547 -0.72423400  12.010000   ; qtot -0.312517
  548         h1     19    bbb    H17    548 0.25637600   1.008000   ; qtot -0.056141
  549         h1     19    bbb    H18    549 0.25637600   1.008000   ; qtot 0.200235
  550         os     19    bbb     O1    550 -0.20025300  16.000000   ; qtot -0.000018
; residue   20 bbb rtp bbb q -0.0
  551         n3     20    bbb     N1    551 -0.59685800  14.010000   ; qtot -0.596876
  552         c3     20    bbb     C1    552 0.10137000  12.010000   ; qtot -0.495506
  553         h1     20    bbb     H1    553 0.04411300   1.008000   ; qtot -0.451393
  554         h1     20    bbb     H2    554 0.04411300   1.008000   ; qtot -0.407280
  555         c3     20    bbb     C2    555 0.10137000  12.010000   ; qtot -0.305910
  556         h1     20    bbb     H3    556 0.04411300   1.008000   ; qtot -0.261797
  557         h1     20    bbb     H4    557 0.04411300   1.008000   ; qtot -0.217684
  558         c3     20    bbb     C3    558 -0.00195300  12.010000   ; qtot -0.219637
  559         h1     20    bbb     H5    559 0.05064400   1.008000   ; qtot -0.168993
  560         h1     20    bbb     H6    560 0.05064400   1.008000   ; qtot -0.118349
  561         c3     20    bbb     C4    561 -0.01612100  12.010000   ; qtot -0.134470
  562         hc     20    bbb     H7    562 0.04936100   1.008000   ; qtot -0.085109
  563         hc     20    bbb     H8    563 0.04936100   1.008000   ; qtot -0.035748
  564         c3     20    bbb     C5    564 0.11363000  12.010000   ; qtot 0.077882
  565         hc     20    bbb     H9    565 0.06265900   1.008000   ; qtot 0.140541
  566         hc     20    bbb    H10    566 0.06265900   1.008000   ; qtot 0.203200
  567         c3     20    bbb     C6    567 0.11363000  12.010000   ; qtot 0.316830
  568         hc     20    bbb    H11    568 0.06265900   1.008000   ; qtot 0.379489
  569         hc     20    bbb    H12    569 0.06265900   1.008000   ; qtot 0.442148
  570         c3     20    bbb     C7    570 0.05858200  12.010000   ; qtot 0.500730
  571         h1     20    bbb    H13    571 0.06123400   1.008000   ; qtot 0.561964
  572         h1     20    bbb    H14    572 0.06123400   1.008000   ; qtot 0.623198
  573         c3     20    bbb     C8    573 -0.72423400  12.010000   ; qtot -0.101036
  574         h1     20    bbb    H15    574 0.25637600   1.008000   ; qtot 0.155340
  575         h1     20    bbb    H16    575 0.25637600   1.008000   ; qtot 0.411716
  576         c3     20    bbb     C9    576 -0.72423400  12.010000   ; qtot -0.312518
  577         h1     20    bbb    H17    577 0.25637600   1.008000   ; qtot -0.056142
  578         h1     20    bbb    H18    578 0.25637600   1.008000   ; qtot 0.200234
  579         os     20    bbb     O1    579 -0.20025300  16.000000   ; qtot -0.000019
; residue   21 bbb rtp bbb q -0.0
  580         n3     21    bbb     N1    580 -0.59685800  14.010000   ; qtot -0.596877
  581         c3     21    bbb     C1    581 0.10137000  12.010000   ; qtot -0.495507
  582         h1     21    bbb     H1    582 0.04411300   1.008000   ; qtot -0.451394
  583         h1     21    bbb     H2    583 0.04411300   1.008000   ; qtot -0.407281
  584         c3     21    bbb     C2    584 0.10137000  12.010000   ; qtot -0.305911
  585         h1     21    bbb     H3    585 0.04411300   1.008000   ; qtot -0.261798
  586         h1     21    bbb     H4    586 0.04411300   1.008000   ; qtot -0.217685
  587         c3     21    bbb     C3    587 -0.00195300  12.010000   ; qtot -0.219638
  588         h1     21    bbb     H5    588 0.05064400   1.008000   ; qtot -0.168994
  589         h1     21    bbb     H6    589 0.05064400   1.008000   ; qtot -0.118350
  590         c3     21    bbb     C4    590 -0.01612100  12.010000   ; qtot -0.134471
  591         hc     21    bbb     H7    591 0.04936100   1.008000   ; qtot -0.085110
  592         hc     21    bbb     H8    592 0.04936100   1.008000   ; qtot -0.035749
  593         c3     21    bbb     C5    593 0.11363000  12.010000   ; qtot 0.077881
  594         hc     21    bbb     H9    594 0.06265900   1.008000   ; qtot 0.140540
  595         hc     21    bbb    H10    595 0.06265900   1.008000   ; qtot 0.203199
  596         c3     21    bbb     C6    596 0.11363000  12.010000   ; qtot 0.316829
  597         hc     21    bbb    H11    597 0.06265900   1.008000   ; qtot 0.379488
  598         hc     21    bbb    H12    598 0.06265900   1.008000   ; qtot 0.442147
  599         c3     21    bbb     C7    599 0.05858200  12.010000   ; qtot 0.500729
  600         h1     21    bbb    H13    600 0.06123400   1.008000   ; qtot 0.561963
  601         h1     21    bbb    H14    601 0.06123400   1.008000   ; qtot 0.623197
  602         c3     21    bbb     C8    602 -0.72423400  12.010000   ; qtot -0.101037
  603         h1     21    bbb    H15    603 0.25637600   1.008000   ; qtot 0.155339
  604         h1     21    bbb    H16    604 0.25637600   1.008000   ; qtot 0.411715
  605         c3     21    bbb     C9    605 -0.72423400  12.010000   ; qtot -0.312519
  606         h1     21    bbb    H17    606 0.25637600   1.008000   ; qtot -0.056143
  607         h1     21    bbb    H18    607 0.25637600   1.008000   ; qtot 0.200233
  608         os     21    bbb     O1    608 -0.20025300  16.000000   ; qtot -0.000020
; residue   22 bbb rtp bbb q -0.0
  609         n3     22    bbb     N1    609 -0.59685800  14.010000   ; qtot -0.596878
  610         c3     22    bbb     C1    610 0.10137000  12.010000   ; qtot -0.495508
  611         h1     22    bbb     H1    611 0.04411300   1.008000   ; qtot -0.451395
  612         h1     22    bbb     H2    612 0.04411300   1.008000   ; qtot -0.407282
  613         c3     22    bbb     C2    613 0.10137000  12.010000   ; qtot -0.305912
  614         h1     22    bbb     H3    614 0.04411300   1.008000   ; qtot -0.261799
  615         h1     22    bbb     H4    615 0.04411300   1.008000   ; qtot -0.217686
  616         c3     22    bbb     C3    616 -0.00195300  12.010000   ; qtot -0.219639
  617         h1     22    bbb     H5    617 0.05064400   1.008000   ; qtot -0.168995
  618         h1     22    bbb     H6    618 0.05064400   1.008000   ; qtot -0.118351
  619         c3     22    bbb     C4    619 -0.01612100  12.010000   ; qtot -0.134472
  620         hc     22    bbb     H7    620 0.04936100   1.008000   ; qtot -0.085111
  621         hc     22    bbb     H8    621 0.04936100   1.008000   ; qtot -0.035750
  622         c3     22    bbb     C5    622 0.11363000  12.010000   ; qtot 0.077880
  623         hc     22    bbb     H9    623 0.06265900   1.008000   ; qtot 0.140539
  624         hc     22    bbb    H10    624 0.06265900   1.008000   ; qtot 0.203198
  625         c3     22    bbb     C6    625 0.11363000  12.010000   ; qtot 0.316828
  626         hc     22    bbb    H11    626 0.06265900   1.008000   ; qtot 0.379487
  627         hc     22    bbb    H12    627 0.06265900   1.008000   ; qtot 0.442146
  628         c3     22    bbb     C7    628 0.05858200  12.010000   ; qtot 0.500728
  629         h1     22    bbb    H13    629 0.06123400   1.008000   ; qtot 0.561962
  630         h1     22    bbb    H14    630 0.06123400   1.008000   ; qtot 0.623196
  631         c3     22    bbb     C8    631 -0.72423400  12.010000   ; qtot -0.101038
  632         h1     22    bbb    H15    632 0.25637600   1.008000   ; qtot 0.155338
  633         h1     22    bbb    H16    633 0.25637600   1.008000   ; qtot 0.411714
  634         c3     22    bbb     C9    634 -0.72423400  12.010000   ; qtot -0.312520
  635         h1     22    bbb    H17    635 0.25637600   1.008000   ; qtot -0.056144
  636         h1     22    bbb    H18    636 0.25637600   1.008000   ; qtot 0.200232
  637         os     22    bbb     O1    637 -0.20025300  16.000000   ; qtot -0.000021
; residue   23 ccc rtp ccc q 0.0
  638         c3     23    ccc     C1    638 -0.33178800  12.010000   ; qtot -0.331809
  639         c3     23    ccc     C2    639 0.30606500  12.010000   ; qtot -0.025744
  640         h1     23    ccc     H1    640 0.11662300   1.008000   ; qtot 0.090879
  641         h1     23    ccc     H2    641 0.11526800   1.008000   ; qtot 0.206147
  642         c3     23    ccc     C3    642 0.15592700  12.010000   ; qtot 0.362074
  643         c3     23    ccc     C4    643 0.28383300  12.010000   ; qtot 0.645907
  644         c3     23    ccc     C5    644 0.32403300  12.010000   ; qtot 0.969940
  645         h1     23    ccc     H3    645 0.13386900   1.008000   ; qtot 1.103809
  646         h1     23    ccc     H4    646 0.10146700   1.008000   ; qtot 1.205276
  647         h2     23    ccc     H5    647 0.10960400   1.008000   ; qtot 1.314880
  648         os     23    ccc     O1    648 -0.28650000  16.000000   ; qtot 1.028380
  649         oh     23    ccc     O2    649 -0.86012500  16.000000   ; qtot 0.168255
  650         oh     23    ccc     O3    650 -0.83772800  16.000000   ; qtot -0.669473
  651         oh     23    ccc     O4    651 -0.77449700  16.000000   ; qtot -1.443970
  652         c3     23    ccc     C6    652 0.37576500  12.010000   ; qtot -1.068205
  653         ho     23    ccc     H6    653 0.53656000   1.008000   ; qtot -0.531645
  654         ho     23    ccc     H7    654 0.49492100   1.008000   ; qtot -0.036724
  655         ho     23    ccc     H8    655 0.51297200   1.008000   ; qtot 0.476248
  656         h1     23    ccc     H9    656 0.05653400   1.008000   ; qtot 0.532782
  657         h1     23    ccc    H10    657 0.05653400   1.008000   ; qtot 0.589316
  658         oh     23    ccc     O5    658 -0.84113600  16.000000   ; qtot -0.251820
  659         ho     23    ccc    H11    659 0.51201600   1.008000   ; qtot 0.260196
  660         os     23    ccc     O6    660 -0.26013600  16.000000   ; qtot 0.000060
; residue   24 ccc rtp ccc q 0.0
  661         c3     24    ccc     C1    661 -0.33178800  12.010000   ; qtot -0.331728
  662         c3     24    ccc     C2    662 0.30606500  12.010000   ; qtot -0.025663
  663         h1     24    ccc     H1    663 0.11662300   1.008000   ; qtot 0.090960
  664         h1     24    ccc     H2    664 0.11526800   1.008000   ; qtot 0.206228
  665         c3     24    ccc     C3    665 0.15592700  12.010000   ; qtot 0.362155
  666         c3     24    ccc     C4    666 0.28383300  12.010000   ; qtot 0.645988
  667         c3     24    ccc     C5    667 0.32403300  12.010000   ; qtot 0.970021
  668         h1     24    ccc     H3    668 0.13386900   1.008000   ; qtot 1.103890
  669         h1     24    ccc     H4    669 0.10146700   1.008000   ; qtot 1.205357
  670         h2     24    ccc     H5    670 0.10960400   1.008000   ; qtot 1.314961
  671         os     24    ccc     O1    671 -0.28650000  16.000000   ; qtot 1.028461
  672         oh     24    ccc     O2    672 -0.86012500  16.000000   ; qtot 0.168336
  673         oh     24    ccc     O3    673 -0.83772800  16.000000   ; qtot -0.669392
  674         oh     24    ccc     O4    674 -0.77449700  16.000000   ; qtot -1.443889
  675         c3     24    ccc     C6    675 0.37576500  12.010000   ; qtot -1.068124
  676         ho     24    ccc     H6    676 0.53656000   1.008000   ; qtot -0.531564
  677         ho     24    ccc     H7    677 0.49492100   1.008000   ; qtot -0.036643
  678         ho     24    ccc     H8    678 0.51297200   1.008000   ; qtot 0.476329
  679         h1     24    ccc     H9    679 0.05653400   1.008000   ; qtot 0.532863
  680         h1     24    ccc    H10    680 0.05653400   1.008000   ; qtot 0.589397
  681         oh     24    ccc     O5    681 -0.84113600  16.000000   ; qtot -0.251739
  682         ho     24    ccc    H11    682 0.51201600   1.008000   ; qtot 0.260277
  683         os     24    ccc     O6    683 -0.26013600  16.000000   ; qtot 0.000141
; residue   25 ccc rtp ccc q 0.0
  684         c3     25    ccc     C1    684 -0.33178800  12.010000   ; qtot -0.331647
  685         c3     25    ccc     C2    685 0.30606500  12.010000   ; qtot -0.025582
  686         h1     25    ccc     H1    686 0.11662300   1.008000   ; qtot 0.091041
  687         h1     25    ccc     H2    687 0.11526800   1.008000   ; qtot 0.206309
  688         c3     25    ccc     C3    688 0.15592700  12.010000   ; qtot 0.362236
  689         c3     25    ccc     C4    689 0.28383300  12.010000   ; qtot 0.646069
  690         c3     25    ccc     C5    690 0.32403300  12.010000   ; qtot 0.970102
  691         h1     25    ccc     H3    691 0.13386900   1.008000   ; qtot 1.103971
  692         h1     25    ccc     H4    692 0.10146700   1.008000   ; qtot 1.205438
  693         h2     25    ccc     H5    693 0.10960400   1.008000   ; qtot 1.315042
  694         os     25    ccc     O1    694 -0.28650000  16.000000   ; qtot 1.028542
  695         oh     25    ccc     O2    695 -0.86012500  16.000000   ; qtot 0.168417
  696         oh     25    ccc     O3    696 -0.83772800  16.000000   ; qtot -0.669311
  697         oh     25    ccc     O4    697 -0.77449700  16.000000   ; qtot -1.443808
  698         c3     25    ccc     C6    698 0.37576500  12.010000   ; qtot -1.068043
  699         ho     25    ccc     H6    699 0.53656000   1.008000   ; qtot -0.531483
  700         ho     25    ccc     H7    700 0.49492100   1.008000   ; qtot -0.036562
  701         ho     25    ccc     H8    701 0.51297200   1.008000   ; qtot 0.476410
  702         h1     25    ccc     H9    702 0.05653400   1.008000   ; qtot 0.532944
  703         h1     25    ccc    H10    703 0.05653400   1.008000   ; qtot 0.589478
  704         oh     25    ccc     O5    704 -0.84113600  16.000000   ; qtot -0.251658
  705         ho     25    ccc    H11    705 0.51201600   1.008000   ; qtot 0.260358
  706         os     25    ccc     O6    706 -0.26013600  16.000000   ; qtot 0.000222
; residue   26 ccc rtp ccc q 0.0
  707         c3     26    ccc     C1    707 -0.33178800  12.010000   ; qtot -0.331566
  708         c3     26    ccc     C2    708 0.30606500  12.010000   ; qtot -0.025501
  709         h1     26    ccc     H1    709 0.11662300   1.008000   ; qtot 0.091122
  710         h1     26    ccc     H2    710 0.11526800   1.008000   ; qtot 0.206390
  711         c3     26    ccc     C3    711 0.15592700  12.010000   ; qtot 0.362317
  712         c3     26    ccc     C4    712 0.28383300  12.010000   ; qtot 0.646150
  713         c3     26    ccc     C5    713 0.32403300  12.010000   ; qtot 0.970183
  714         h1     26    ccc     H3    714 0.13386900   1.008000   ; qtot 1.104052
  715         h1     26    ccc     H4    715 0.10146700   1.008000   ; qtot 1.205519
  716         h2     26    ccc     H5    716 0.10960400   1.008000   ; qtot 1.315123
  717         os     26    ccc     O1    717 -0.28650000  16.000000   ; qtot 1.028623
  718         oh     26    ccc     O2    718 -0.86012500  16.000000   ; qtot 0.168498
  719         oh     26    ccc     O3    719 -0.83772800  16.000000   ; qtot -0.669230
  720         oh     26    ccc     O4    720 -0.77449700  16.000000   ; qtot -1.443727
  721         c3     26    ccc     C6    721 0.37576500  12.010000   ; qtot -1.067962
  722         ho     26    ccc     H6    722 0.53656000   1.008000   ; qtot -0.531402
  723         ho     26    ccc     H7    723 0.49492100   1.008000   ; qtot -0.036481
  724         ho     26    ccc     H8    724 0.51297200   1.008000   ; qtot 0.476491
  725         h1     26    ccc     H9    725 0.05653400   1.008000   ; qtot 0.533025
  726         h1     26    ccc    H10    726 0.05653400   1.008000   ; qtot 0.589559
  727         oh     26    ccc     O5    727 -0.84113600  16.000000   ; qtot -0.251577
  728         ho     26    ccc    H11    728 0.51201600   1.008000   ; qtot 0.260439
  729         os     26    ccc     O6    729 -0.26013600  16.000000   ; qtot 0.000303
; residue   27 ccc rtp ccc q 0.0
  730         c3     27    ccc     C1    730 -0.33178800  12.010000   ; qtot -0.331485
  731         c3     27    ccc     C2    731 0.30606500  12.010000   ; qtot -0.025420
  732         h1     27    ccc     H1    732 0.11662300   1.008000   ; qtot 0.091203
  733         h1     27    ccc     H2    733 0.11526800   1.008000   ; qtot 0.206471
  734         c3     27    ccc     C3    734 0.15592700  12.010000   ; qtot 0.362398
  735         c3     27    ccc     C4    735 0.28383300  12.010000   ; qtot 0.646231
  736         c3     27    ccc     C5    736 0.32403300  12.010000   ; qtot 0.970264
  737         h1     27    ccc     H3    737 0.13386900   1.008000   ; qtot 1.104133
  738         h1     27    ccc     H4    738 0.10146700   1.008000   ; qtot 1.205600
  739         h2     27    ccc     H5    739 0.10960400   1.008000   ; qtot 1.315204
  740         os     27    ccc     O1    740 -0.28650000  16.000000   ; qtot 1.028704
  741         oh     27    ccc     O2    741 -0.86012500  16.000000   ; qtot 0.168579
  742         oh     27    ccc     O3    742 -0.83772800  16.000000   ; qtot -0.669149
  743         oh     27    ccc     O4    743 -0.77449700  16.000000   ; qtot -1.443646
  744         c3     27    ccc     C6    744 0.37576500  12.010000   ; qtot -1.067881
  745         ho     27    ccc     H6    745 0.53656000   1.008000   ; qtot -0.531321
  746         ho     27    ccc     H7    746 0.49492100   1.008000   ; qtot -0.036400
  747         ho     27    ccc     H8    747 0.51297200   1.008000   ; qtot 0.476572
  748         h1     27    ccc     H9    748 0.05653400   1.008000   ; qtot 0.533106
  749         h1     27    ccc    H10    749 0.05653400   1.008000   ; qtot 0.589640
  750         oh     27    ccc     O5    750 -0.84113600  16.000000   ; qtot -0.251496
  751         ho     27    ccc    H11    751 0.51201600   1.008000   ; qtot 0.260520
  752         os     27    ccc     O6    752 -0.26013600  16.000000   ; qtot 0.000384
; residue   28 ccc rtp ccc q 0.0
  753         c3     28    ccc     C1    753 -0.33178800  12.010000   ; qtot -0.331404
  754         c3     28    ccc     C2    754 0.30606500  12.010000   ; qtot -0.025339
  755         h1     28    ccc     H1    755 0.11662300   1.008000   ; qtot 0.091284
  756         h1     28    ccc     H2    756 0.11526800   1.008000   ; qtot 0.206552
  757         c3     28    ccc     C3    757 0.15592700  12.010000   ; qtot 0.362479
  758         c3     28    ccc     C4    758 0.28383300  12.010000   ; qtot 0.646312
  759         c3     28    ccc     C5    759 0.32403300  12.010000   ; qtot 0.970345
  760         h1     28    ccc     H3    760 0.13386900   1.008000   ; qtot 1.104214
  761         h1     28    ccc     H4    761 0.10146700   1.008000   ; qtot 1.205681
  762         h2     28    ccc     H5    762 0.10960400   1.008000   ; qtot 1.315285
  763         os     28    ccc     O1    763 -0.28650000  16.000000   ; qtot 1.028785
  764         oh     28    ccc     O2    764 -0.86012500  16.000000   ; qtot 0.168660
  765         oh     28    ccc     O3    765 -0.83772800  16.000000   ; qtot -0.669068
  766         oh     28    ccc     O4    766 -0.77449700  16.000000   ; qtot -1.443565
  767         c3     28    ccc     C6    767 0.37576500  12.010000   ; qtot -1.067800
  768         ho     28    ccc     H6    768 0.53656000   1.008000   ; qtot -0.531240
  769         ho     28    ccc     H7    769 0.49492100   1.008000   ; qtot -0.036319
  770         ho     28    ccc     H8    770 0.51297200   1.008000   ; qtot 0.476653
  771         h1     28    ccc     H9    771 0.05653400   1.008000   ; qtot 0.533187
  772         h1     28    ccc    H10    772 0.05653400   1.008000   ; qtot 0.589721
  773         oh     28    ccc     O5    773 -0.84113600  16.000000   ; qtot -0.251415
  774         ho     28    ccc    H11    774 0.51201600   1.008000   ; qtot 0.260601
  775         os     28    ccc     O6    775 -0.26013600  16.000000   ; qtot 0.000465
; residue   29 ccc rtp ccc q 0.0
  776         c3     29    ccc     C1    776 -0.33178800  12.010000   ; qtot -0.331323
  777         c3     29    ccc     C2    777 0.30606500  12.010000   ; qtot -0.025258
  778         h1     29    ccc     H1    778 0.11662300   1.008000   ; qtot 0.091365
  779         h1     29    ccc     H2    779 0.11526800   1.008000   ; qtot 0.206633
  780         c3     29    ccc     C3    780 0.15592700  12.010000   ; qtot 0.362560
  781         c3     29    ccc     C4    781 0.28383300  12.010000   ; qtot 0.646393
  782         c3     29    ccc     C5    782 0.32403300  12.010000   ; qtot 0.970426
  783         h1     29    ccc     H3    783 0.13386900   1.008000   ; qtot 1.104295
  784         h1     29    ccc     H4    784 0.10146700   1.008000   ; qtot 1.205762
  785         h2     29    ccc     H5    785 0.10960400   1.008000   ; qtot 1.315366
  786         os     29    ccc     O1    786 -0.28650000  16.000000   ; qtot 1.028866
  787         oh     29    ccc     O2    787 -0.86012500  16.000000   ; qtot 0.168741
  788         oh     29    ccc     O3    788 -0.83772800  16.000000   ; qtot -0.668987
  789         oh     29    ccc     O4    789 -0.77449700  16.000000   ; qtot -1.443484
  790         c3     29    ccc     C6    790 0.37576500  12.010000   ; qtot -1.067719
  791         ho     29    ccc     H6    791 0.53656000   1.008000   ; qtot -0.531159
  792         ho     29    ccc     H7    792 0.49492100   1.008000   ; qtot -0.036238
  793         ho     29    ccc     H8    793 0.51297200   1.008000   ; qtot 0.476734
  794         h1     29    ccc     H9    794 0.05653400   1.008000   ; qtot 0.533268
  795         h1     29    ccc    H10    795 0.05653400   1.008000   ; qtot 0.589802
  796         oh     29    ccc     O5    796 -0.84113600  16.000000   ; qtot -0.251334
  797         ho     29    ccc    H11    797 0.51201600   1.008000   ; qtot 0.260682
  798         os     29    ccc     O6    798 -0.26013600  16.000000   ; qtot 0.000546
; residue   30 ccc rtp ccc q 0.0
  799         c3     30    ccc     C1    799 -0.33178800  12.010000   ; qtot -0.331242
  800         c3     30    ccc     C2    800 0.30606500  12.010000   ; qtot -0.025177
  801         h1     30    ccc     H1    801 0.11662300   1.008000   ; qtot 0.091446
  802         h1     30    ccc     H2    802 0.11526800   1.008000   ; qtot 0.206714
  803         c3     30    ccc     C3    803 0.15592700  12.010000   ; qtot 0.362641
  804         c3     30    ccc     C4    804 0.28383300  12.010000   ; qtot 0.646474
  805         c3     30    ccc     C5    805 0.32403300  12.010000   ; qtot 0.970507
  806         h1     30    ccc     H3    806 0.13386900   1.008000   ; qtot 1.104376
  807         h1     30    ccc     H4    807 0.10146700   1.008000   ; qtot 1.205843
  808         h2     30    ccc     H5    808 0.10960400   1.008000   ; qtot 1.315447
  809         os     30    ccc     O1    809 -0.28650000  16.000000   ; qtot 1.028947
  810         oh     30    ccc     O2    810 -0.86012500  16.000000   ; qtot 0.168822
  811         oh     30    ccc     O3    811 -0.83772800  16.000000   ; qtot -0.668906
  812         oh     30    ccc     O4    812 -0.77449700  16.000000   ; qtot -1.443403
  813         c3     30    ccc     C6    813 0.37576500  12.010000   ; qtot -1.067638
  814         ho     30    ccc     H6    814 0.53656000   1.008000   ; qtot -0.531078
  815         ho     30    ccc     H7    815 0.49492100   1.008000   ; qtot -0.036157
  816         ho     30    ccc     H8    816 0.51297200   1.008000   ; qtot 0.476815
  817         h1     30    ccc     H9    817 0.05653400   1.008000   ; qtot 0.533349
  818         h1     30    ccc    H10    818 0.05653400   1.008000   ; qtot 0.589883
  819         oh     30    ccc     O5    819 -0.84113600  16.000000   ; qtot -0.251253
  820         ho     30    ccc    H11    820 0.51201600   1.008000   ; qtot 0.260763
  821         os     30    ccc     O6    821 -0.26013600  16.000000   ; qtot 0.000627
; residue   31 ccc rtp ccc q 0.0
  822         c3     31    ccc     C1    822 -0.33178800  12.010000   ; qtot -0.331161
  823         c3     31    ccc     C2    823 0.30606500  12.010000   ; qtot -0.025096
  824         h1     31    ccc     H1    824 0.11662300   1.008000   ; qtot 0.091527
  825         h1     31    ccc     H2    825 0.11526800   1.008000   ; qtot 0.206795
  826         c3     31    ccc     C3    826 0.15592700  12.010000   ; qtot 0.362722
  827         c3     31    ccc     C4    827 0.28383300  12.010000   ; qtot 0.646555
  828         c3     31    ccc     C5    828 0.32403300  12.010000   ; qtot 0.970588
  829         h1     31    ccc     H3    829 0.13386900   1.008000   ; qtot 1.104457
  830         h1     31    ccc     H4    830 0.10146700   1.008000   ; qtot 1.205924
  831         h2     31    ccc     H5    831 0.10960400   1.008000   ; qtot 1.315528
  832         os     31    ccc     O1    832 -0.28650000  16.000000   ; qtot 1.029028
  833         oh     31    ccc     O2    833 -0.86012500  16.000000   ; qtot 0.168903
  834         oh     31    ccc     O3    834 -0.83772800  16.000000   ; qtot -0.668825
  835         oh     31    ccc     O4    835 -0.77449700  16.000000   ; qtot -1.443322
  836         c3     31    ccc     C6    836 0.37576500  12.010000   ; qtot -1.067557
  837         ho     31    ccc     H6    837 0.53656000   1.008000   ; qtot -0.530997
  838         ho     31    ccc     H7    838 0.49492100   1.008000   ; qtot -0.036076
  839         ho     31    ccc     H8    839 0.51297200   1.008000   ; qtot 0.476896
  840         h1     31    ccc     H9    840 0.05653400   1.008000   ; qtot 0.533430
  841         h1     31    ccc    H10    841 0.05653400   1.008000   ; qtot 0.589964
  842         oh     31    ccc     O5    842 -0.84113600  16.000000   ; qtot -0.251172
  843         ho     31    ccc    H11    843 0.51201600   1.008000   ; qtot 0.260844
  844         os     31    ccc     O6    844 -0.26013600  16.000000   ; qtot 0.000708
; residue   32 ccc rtp ccc q 0.0
  845         c3     32    ccc     C1    845 -0.33178800  12.010000   ; qtot -0.331080
  846         c3     32    ccc     C2    846 0.30606500  12.010000   ; qtot -0.025015
  847         h1     32    ccc     H1    847 0.11662300   1.008000   ; qtot 0.091608
  848         h1     32    ccc     H2    848 0.11526800   1.008000   ; qtot 0.206876
  849         c3     32    ccc     C3    849 0.15592700  12.010000   ; qtot 0.362803
  850         c3     32    ccc     C4    850 0.28383300  12.010000   ; qtot 0.646636
  851         c3     32    ccc     C5    851 0.32403300  12.010000   ; qtot 0.970669
  852         h1     32    ccc     H3    852 0.13386900   1.008000   ; qtot 1.104538
  853         h1     32    ccc     H4    853 0.10146700   1.008000   ; qtot 1.206005
  854         h2     32    ccc     H5    854 0.10960400   1.008000   ; qtot 1.315609
  855         os     32    ccc     O1    855 -0.28650000  16.000000   ; qtot 1.029109
  856         oh     32    ccc     O2    856 -0.86012500  16.000000   ; qtot 0.168984
  857         oh     32    ccc     O3    857 -0.83772800  16.000000   ; qtot -0.668744
  858         oh     32    ccc     O4    858 -0.77449700  16.000000   ; qtot -1.443241
  859         c3     32    ccc     C6    859 0.37576500  12.010000   ; qtot -1.067476
  860         ho     32    ccc     H6    860 0.53656000   1.008000   ; qtot -0.530916
  861         ho     32    ccc     H7    861 0.49492100   1.008000   ; qtot -0.035995
  862         ho     32    ccc     H8    862 0.51297200   1.008000   ; qtot 0.476977
  863         h1     32    ccc     H9    863 0.05653400   1.008000   ; qtot 0.533511
  864         h1     32    ccc    H10    864 0.05653400   1.008000   ; qtot 0.590045
  865         oh     32    ccc     O5    865 -0.84113600  16.000000   ; qtot -0.251091
  866         ho     32    ccc    H11    866 0.51201600   1.008000   ; qtot 0.260925
  867         os     32    ccc     O6    867 -0.26013600  16.000000   ; qtot 0.000789
; residue   33 ccc rtp ccc q 0.0
  868         c3     33    ccc     C1    868 -0.33178800  12.010000   ; qtot -0.330999
  869         c3     33    ccc     C2    869 0.30606500  12.010000   ; qtot -0.024934
  870         h1     33    ccc     H1    870 0.11662300   1.008000   ; qtot 0.091689
  871         h1     33    ccc     H2    871 0.11526800   1.008000   ; qtot 0.206957
  872         c3     33    ccc     C3    872 0.15592700  12.010000   ; qtot 0.362884
  873         c3     33    ccc     C4    873 0.28383300  12.010000   ; qtot 0.646717
  874         c3     33    ccc     C5    874 0.32403300  12.010000   ; qtot 0.970750
  875         h1     33    ccc     H3    875 0.13386900   1.008000   ; qtot 1.104619
  876         h1     33    ccc     H4    876 0.10146700   1.008000   ; qtot 1.206086
  877         h2     33    ccc     H5    877 0.10960400   1.008000   ; qtot 1.315690
  878         os     33    ccc     O1    878 -0.28650000  16.000000   ; qtot 1.029190
  879         oh     33    ccc     O2    879 -0.86012500  16.000000   ; qtot 0.169065
  880         oh     33    ccc     O3    880 -0.83772800  16.000000   ; qtot -0.668663
  881         oh     33    ccc     O4    881 -0.77449700  16.000000   ; qtot -1.443160
  882         c3     33    ccc     C6    882 0.37576500  12.010000   ; qtot -1.067395
  883         ho     33    ccc     H6    883 0.53656000   1.008000   ; qtot -0.530835
  884         ho     33    ccc     H7    884 0.49492100   1.008000   ; qtot -0.035914
  885         ho     33    ccc     H8    885 0.51297200   1.008000   ; qtot 0.477058
  886         h1     33    ccc     H9    886 0.05653400   1.008000   ; qtot 0.533592
  887         h1     33    ccc    H10    887 0.05653400   1.008000   ; qtot 0.590126
  888         oh     33    ccc     O5    888 -0.84113600  16.000000   ; qtot -0.251010
  889         ho     33    ccc    H11    889 0.51201600   1.008000   ; qtot 0.261006
  890         os     33    ccc     O6    890 -0.26013600  16.000000   ; qtot 0.000870
; residue   34 ccc rtp ccc q 0.0
  891         c3     34    ccc     C1    891 -0.33178800  12.010000   ; qtot -0.330918
  892         c3     34    ccc     C2    892 0.30606500  12.010000   ; qtot -0.024853
  893         h1     34    ccc     H1    893 0.11662300   1.008000   ; qtot 0.091770
  894         h1     34    ccc     H2    894 0.11526800   1.008000   ; qtot 0.207038
  895         c3     34    ccc     C3    895 0.15592700  12.010000   ; qtot 0.362965
  896         c3     34    ccc     C4    896 0.28383300  12.010000   ; qtot 0.646798
  897         c3     34    ccc     C5    897 0.32403300  12.010000   ; qtot 0.970831
  898         h1     34    ccc     H3    898 0.13386900   1.008000   ; qtot 1.104700
  899         h1     34    ccc     H4    899 0.10146700   1.008000   ; qtot 1.206167
  900         h2     34    ccc     H5    900 0.10960400   1.008000   ; qtot 1.315771
  901         os     34    ccc     O1    901 -0.28650000  16.000000   ; qtot 1.029271
  902         oh     34    ccc     O2    902 -0.86012500  16.000000   ; qtot 0.169146
  903         oh     34    ccc     O3    903 -0.83772800  16.000000   ; qtot -0.668582
  904         oh     34    ccc     O4    904 -0.77449700  16.000000   ; qtot -1.443079
  905         c3     34    ccc     C6    905 0.37576500  12.010000   ; qtot -1.067314
  906         ho     34    ccc     H6    906 0.53656000   1.008000   ; qtot -0.530754
  907         ho     34    ccc     H7    907 0.49492100   1.008000   ; qtot -0.035833
  908         ho     34    ccc     H8    908 0.51297200   1.008000   ; qtot 0.477139
  909         h1     34    ccc     H9    909 0.05653400   1.008000   ; qtot 0.533673
  910         h1     34    ccc    H10    910 0.05653400   1.008000   ; qtot 0.590207
  911         oh     34    ccc     O5    911 -0.84113600  16.000000   ; qtot -0.250929
  912         ho     34    ccc    H11    912 0.51201600   1.008000   ; qtot 0.261087
  913         os     34    ccc     O6    913 -0.26013600  16.000000   ; qtot 0.000951
; residue   35 ccc rtp ccc q 0.0
  914         c3     35    ccc     C1    914 -0.33178800  12.010000   ; qtot -0.330837
  915         c3     35    ccc     C2    915 0.30606500  12.010000   ; qtot -0.024772
  916         h1     35    ccc     H1    916 0.11662300   1.008000   ; qtot 0.091851
  917         h1     35    ccc     H2    917 0.11526800   1.008000   ; qtot 0.207119
  918         c3     35    ccc     C3    918 0.15592700  12.010000   ; qtot 0.363046
  919         c3     35    ccc     C4    919 0.28383300  12.010000   ; qtot 0.646879
  920         c3     35    ccc     C5    920 0.32403300  12.010000   ; qtot 0.970912
  921         h1     35    ccc     H3    921 0.13386900   1.008000   ; qtot 1.104781
  922         h1     35    ccc     H4    922 0.10146700   1.008000   ; qtot 1.206248
  923         h2     35    ccc     H5    923 0.10960400   1.008000   ; qtot 1.315852
  924         os     35    ccc     O1    924 -0.28650000  16.000000   ; qtot 1.029352
  925         oh     35    ccc     O2    925 -0.86012500  16.000000   ; qtot 0.169227
  926         oh     35    ccc     O3    926 -0.83772800  16.000000   ; qtot -0.668501
  927         oh     35    ccc     O4    927 -0.77449700  16.000000   ; qtot -1.442998
  928         c3     35    ccc     C6    928 0.37576500  12.010000   ; qtot -1.067233
  929         ho     35    ccc     H6    929 0.53656000   1.008000   ; qtot -0.530673
  930         ho     35    ccc     H7    930 0.49492100   1.008000   ; qtot -0.035752
  931         ho     35    ccc     H8    931 0.51297200   1.008000   ; qtot 0.477220
  932         h1     35    ccc     H9    932 0.05653400   1.008000   ; qtot 0.533754
  933         h1     35    ccc    H10    933 0.05653400   1.008000   ; qtot 0.590288
  934         oh     35    ccc     O5    934 -0.84113600  16.000000   ; qtot -0.250848
  935         ho     35    ccc    H11    935 0.51201600   1.008000   ; qtot 0.261168
  936         os     35    ccc     O6    936 -0.26013600  16.000000   ; qtot 0.001032
; residue   36 ccc rtp ccc q 0.0
  937         c3     36    ccc     C1    937 -0.33178800  12.010000   ; qtot -0.330756
  938         c3     36    ccc     C2    938 0.30606500  12.010000   ; qtot -0.024691
  939         h1     36    ccc     H1    939 0.11662300   1.008000   ; qtot 0.091932
  940         h1     36    ccc     H2    940 0.11526800   1.008000   ; qtot 0.207200
  941         c3     36    ccc     C3    941 0.15592700  12.010000   ; qtot 0.363127
  942         c3     36    ccc     C4    942 0.28383300  12.010000   ; qtot 0.646960
  943         c3     36    ccc     C5    943 0.32403300  12.010000   ; qtot 0.970993
  944         h1     36    ccc     H3    944 0.13386900   1.008000   ; qtot 1.104862
  945         h1     36    ccc     H4    945 0.10146700   1.008000   ; qtot 1.206329
  946         h2     36    ccc     H5    946 0.10960400   1.008000   ; qtot 1.315933
  947         os     36    ccc     O1    947 -0.28650000  16.000000   ; qtot 1.029433
  948         oh     36    ccc     O2    948 -0.86012500  16.000000   ; qtot 0.169308
  949         oh     36    ccc     O3    949 -0.83772800  16.000000   ; qtot -0.668420
  950         oh     36    ccc     O4    950 -0.77449700  16.000000   ; qtot -1.442917
  951         c3     36    ccc     C6    951 0.37576500  12.010000   ; qtot -1.067152
  952         ho     36    ccc     H6    952 0.53656000   1.008000   ; qtot -0.530592
  953         ho     36    ccc     H7    953 0.49492100   1.008000   ; qtot -0.035671
  954         ho     36    ccc     H8    954 0.51297200   1.008000   ; qtot 0.477301
  955         h1     36    ccc     H9    955 0.05653400   1.008000   ; qtot 0.533835
  956         h1     36    ccc    H10    956 0.05653400   1.008000   ; qtot 0.590369
  957         oh     36    ccc     O5    957 -0.84113600  16.000000   ; qtot -0.250767
  958         ho     36    ccc    H11    958 0.51201600   1.008000   ; qtot 0.261249
  959         os     36    ccc     O6    959 -0.26013600  16.000000   ; qtot 0.001113
; residue   37 ccc rtp ccc q 0.0
  960         c3     37    ccc     C1    960 -0.33178800  12.010000   ; qtot -0.330675
  961         c3     37    ccc     C2    961 0.30606500  12.010000   ; qtot -0.024610
  962         h1     37    ccc     H1    962 0.11662300   1.008000   ; qtot 0.092013
  963         h1     37    ccc     H2    963 0.11526800   1.008000   ; qtot 0.207281
  964         c3     37    ccc     C3    964 0.15592700  12.010000   ; qtot 0.363208
  965         c3     37    ccc     C4    965 0.28383300  12.010000   ; qtot 0.647041
  966         c3     37    ccc     C5    966 0.32403300  12.010000   ; qtot 0.971074
  967         h1     37    ccc     H3    967 0.13386900   1.008000   ; qtot 1.104943
  968         h1     37    ccc     H4    968 0.10146700   1.008000   ; qtot 1.206410
  969         h2     37    ccc     H5    969 0.10960400   1.008000   ; qtot 1.316014
  970         os     37    ccc     O1    970 -0.28650000  16.000000   ; qtot 1.029514
  971         oh     37    ccc     O2    971 -0.86012500  16.000000   ; qtot 0.169389
  972         oh     37    ccc     O3    972 -0.83772800  16.000000   ; qtot -0.668339
  973         oh     37    ccc     O4    973 -0.77449700  16.000000   ; qtot -1.442836
  974         c3     37    ccc     C6    974 0.37576500  12.010000   ; qtot -1.067071
  975         ho     37    ccc     H6    975 0.53656000   1.008000   ; qtot -0.530511
  976         ho     37    ccc     H7    976 0.49492100   1.008000   ; qtot -0.035590
  977         ho     37    ccc     H8    977 0.51297200   1.008000   ; qtot 0.477382
  978         h1     37    ccc     H9    978 0.05653400   1.008000   ; qtot 0.533916
  979         h1     37    ccc    H10    979 0.05653400   1.008000   ; qtot 0.590450
  980         oh     37    ccc     O5    980 -0.84113600  16.000000   ; qtot -0.250686
  981         ho     37    ccc    H11    981 0.51201600   1.008000   ; qtot 0.261330
  982         os     37    ccc     O6    982 -0.26013600  16.000000   ; qtot 0.001194
; residue   38 ccc rtp ccc q 0.0
  983         c3     38    ccc     C1    983 -0.33178800  12.010000   ; qtot -0.330594
  984         c3     38    ccc     C2    984 0.30606500  12.010000   ; qtot -0.024529
  985         h1     38    ccc     H1    985 0.11662300   1.008000   ; qtot 0.092094
  986         h1     38    ccc     H2    986 0.11526800   1.008000   ; qtot 0.207362
  987         c3     38    ccc     C3    987 0.15592700  12.010000   ; qtot 0.363289
  988         c3     38    ccc     C4    988 0.28383300  12.010000   ; qtot 0.647122
  989         c3     38    ccc     C5    989 0.32403300  12.010000   ; qtot 0.971155
  990         h1     38    ccc     H3    990 0.13386900   1.008000   ; qtot 1.105024
  991         h1     38    ccc     H4    991 0.10146700   1.008000   ; qtot 1.206491
  992         h2     38    ccc     H5    992 0.10960400   1.008000   ; qtot 1.316095
  993         os     38    ccc     O1    993 -0.28650000  16.000000   ; qtot 1.029595
  994         oh     38    ccc     O2    994 -0.86012500  16.000000   ; qtot 0.169470
  995         oh     38    ccc     O3    995 -0.83772800  16.000000   ; qtot -0.668258
  996         oh     38    ccc     O4    996 -0.77449700  16.000000   ; qtot -1.442755
  997         c3     38    ccc     C6    997 0.37576500  12.010000   ; qtot -1.066990
  998         ho     38    ccc     H6    998 0.53656000   1.008000   ; qtot -0.530430
  999         ho     38    ccc     H7    999 0.49492100   1.008000   ; qtot -0.035509
 1000         ho     38    ccc     H8   1000 0.51297200   1.008000   ; qtot 0.477463
 1001         h1     38    ccc     H9   1001 0.05653400   1.008000   ; qtot 0.533997
 1002         h1     38    ccc    H10   1002 0.05653400   1.008000   ; qtot 0.590531
 1003         oh     38    ccc     O5   1003 -0.84113600  16.000000   ; qtot -0.250605
 1004         ho     38    ccc    H11   1004 0.51201600   1.008000   ; qtot 0.261411
 1005         os     38    ccc     O6   1005 -0.26013600  16.000000   ; qtot 0.001275
; residue   39 ccc rtp ccc q 0.0
 1006         c3     39    ccc     C1   1006 -0.33178800  12.010000   ; qtot -0.330513
 1007         c3     39    ccc     C2   1007 0.30606500  12.010000   ; qtot -0.024448
 1008         h1     39    ccc     H1   1008 0.11662300   1.008000   ; qtot 0.092175
 1009         h1     39    ccc     H2   1009 0.11526800   1.008000   ; qtot 0.207443
 1010         c3     39    ccc     C3   1010 0.15592700  12.010000   ; qtot 0.363370
 1011         c3     39    ccc     C4   1011 0.28383300  12.010000   ; qtot 0.647203
 1012         c3     39    ccc     C5   1012 0.32403300  12.010000   ; qtot 0.971236
 1013         h1     39    ccc     H3   1013 0.13386900   1.008000   ; qtot 1.105105
 1014         h1     39    ccc     H4   1014 0.10146700   1.008000   ; qtot 1.206572
 1015         h2     39    ccc     H5   1015 0.10960400   1.008000   ; qtot 1.316176
 1016         os     39    ccc     O1   1016 -0.28650000  16.000000   ; qtot 1.029676
 1017         oh     39    ccc     O2   1017 -0.86012500  16.000000   ; qtot 0.169551
 1018         oh     39    ccc     O3   1018 -0.83772800  16.000000   ; qtot -0.668177
 1019         oh     39    ccc     O4   1019 -0.77449700  16.000000   ; qtot -1.442674
 1020         c3     39    ccc     C6   1020 0.37576500  12.010000   ; qtot -1.066909
 1021         ho     39    ccc     H6   1021 0.53656000   1.008000   ; qtot -0.530349
 1022         ho     39    ccc     H7   1022 0.49492100   1.008000   ; qtot -0.035428
 1023         ho     39    ccc     H8   1023 0.51297200   1.008000   ; qtot 0.477544
 1024         h1     39    ccc     H9   1024 0.05653400   1.008000   ; qtot 0.534078
 1025         h1     39    ccc    H10   1025 0.05653400   1.008000   ; qtot 0.590612
 1026         oh     39    ccc     O5   1026 -0.84113600  16.000000   ; qtot -0.250524
 1027         ho     39    ccc    H11   1027 0.51201600   1.008000   ; qtot 0.261492
 1028         os     39    ccc     O6   1028 -0.26013600  16.000000   ; qtot 0.001356
; residue   40 ccc rtp ccc q 0.0
 1029         c3     40    ccc     C1   1029 -0.33178800  12.010000   ; qtot -0.330432
 1030         c3     40    ccc     C2   1030 0.30606500  12.010000   ; qtot -0.024367
 1031         h1     40    ccc     H1   1031 0.11662300   1.008000   ; qtot 0.092256
 1032         h1     40    ccc     H2   1032 0.11526800   1.008000   ; qtot 0.207524
 1033         c3     40    ccc     C3   1033 0.15592700  12.010000   ; qtot 0.363451
 1034         c3     40    ccc     C4   1034 0.28383300  12.010000   ; qtot 0.647284
 1035         c3     40    ccc     C5   1035 0.32403300  12.010000   ; qtot 0.971317
 1036         h1     40    ccc     H3   1036 0.13386900   1.008000   ; qtot 1.105186
 1037         h1     40    ccc     H4   1037 0.10146700   1.008000   ; qtot 1.206653
 1038         h2     40    ccc     H5   1038 0.10960400   1.008000   ; qtot 1.316257
 1039         os     40    ccc     O1   1039 -0.28650000  16.000000   ; qtot 1.029757
 1040         oh     40    ccc     O2   1040 -0.86012500  16.000000   ; qtot 0.169632
 1041         oh     40    ccc     O3   1041 -0.83772800  16.000000   ; qtot -0.668096
 1042         oh     40    ccc     O4   1042 -0.77449700  16.000000   ; qtot -1.442593
 1043         c3     40    ccc     C6   1043 0.37576500  12.010000   ; qtot -1.066828
 1044         ho     40    ccc     H6   1044 0.53656000   1.008000   ; qtot -0.530268
 1045         ho     40    ccc     H7   1045 0.49492100   1.008000   ; qtot -0.035347
 1046         ho     40    ccc     H8   1046 0.51297200   1.008000   ; qtot 0.477625
 1047         h1     40    ccc     H9   1047 0.05653400   1.008000   ; qtot 0.534159
 1048         h1     40    ccc    H10   1048 0.05653400   1.008000   ; qtot 0.590693
 1049         oh     40    ccc     O5   1049 -0.84113600  16.000000   ; qtot -0.250443
 1050         ho     40    ccc    H11   1050 0.51201600   1.008000   ; qtot 0.261573
 1051         os     40    ccc     O6   1051 -0.26013600  16.000000   ; qtot 0.001437
; residue   41 ccc rtp ccc q 0.0
 1052         c3     41    ccc     C1   1052 -0.33178800  12.010000   ; qtot -0.330351
 1053         c3     41    ccc     C2   1053 0.30606500  12.010000   ; qtot -0.024286
 1054         h1     41    ccc     H1   1054 0.11662300   1.008000   ; qtot 0.092337
 1055         h1     41    ccc     H2   1055 0.11526800   1.008000   ; qtot 0.207605
 1056         c3     41    ccc     C3   1056 0.15592700  12.010000   ; qtot 0.363532
 1057         c3     41    ccc     C4   1057 0.28383300  12.010000   ; qtot 0.647365
 1058         c3     41    ccc     C5   1058 0.32403300  12.010000   ; qtot 0.971398
 1059         h1     41    ccc     H3   1059 0.13386900   1.008000   ; qtot 1.105267
 1060         h1     41    ccc     H4   1060 0.10146700   1.008000   ; qtot 1.206734
 1061         h2     41    ccc     H5   1061 0.10960400   1.008000   ; qtot 1.316338
 1062         os     41    ccc     O1   1062 -0.28650000  16.000000   ; qtot 1.029838
 1063         oh     41    ccc     O2   1063 -0.86012500  16.000000   ; qtot 0.169713
 1064         oh     41    ccc     O3   1064 -0.83772800  16.000000   ; qtot -0.668015
 1065         oh     41    ccc     O4   1065 -0.77449700  16.000000   ; qtot -1.442512
 1066         c3     41    ccc     C6   1066 0.37576500  12.010000   ; qtot -1.066747
 1067         ho     41    ccc     H6   1067 0.53656000   1.008000   ; qtot -0.530187
 1068         ho     41    ccc     H7   1068 0.49492100   1.008000   ; qtot -0.035266
 1069         ho     41    ccc     H8   1069 0.51297200   1.008000   ; qtot 0.477706
 1070         h1     41    ccc     H9   1070 0.05653400   1.008000   ; qtot 0.534240
 1071         h1     41    ccc    H10   1071 0.05653400   1.008000   ; qtot 0.590774
 1072         oh     41    ccc     O5   1072 -0.84113600  16.000000   ; qtot -0.250362
 1073         ho     41    ccc    H11   1073 0.51201600   1.008000   ; qtot 0.261654
 1074         os     41    ccc     O6   1074 -0.26013600  16.000000   ; qtot 0.001518
; residue   42 ccc rtp ccc q 0.0
 1075         c3     42    ccc     C1   1075 -0.33178800  12.010000   ; qtot -0.330270
 1076         c3     42    ccc     C2   1076 0.30606500  12.010000   ; qtot -0.024205
 1077         h1     42    ccc     H1   1077 0.11662300   1.008000   ; qtot 0.092418
 1078         h1     42    ccc     H2   1078 0.11526800   1.008000   ; qtot 0.207686
 1079         c3     42    ccc     C3   1079 0.15592700  12.010000   ; qtot 0.363613
 1080         c3     42    ccc     C4   1080 0.28383300  12.010000   ; qtot 0.647446
 1081         c3     42    ccc     C5   1081 0.32403300  12.010000   ; qtot 0.971479
 1082         h1     42    ccc     H3   1082 0.13386900   1.008000   ; qtot 1.105348
 1083         h1     42    ccc     H4   1083 0.10146700   1.008000   ; qtot 1.206815
 1084         h2     42    ccc     H5   1084 0.10960400   1.008000   ; qtot 1.316419
 1085         os     42    ccc     O1   1085 -0.28650000  16.000000   ; qtot 1.029919
 1086         oh     42    ccc     O2   1086 -0.86012500  16.000000   ; qtot 0.169794
 1087         oh     42    ccc     O3   1087 -0.83772800  16.000000   ; qtot -0.667934
 1088         oh     42    ccc     O4   1088 -0.77449700  16.000000   ; qtot -1.442431
 1089         c3     42    ccc     C6   1089 0.37576500  12.010000   ; qtot -1.066666
 1090         ho     42    ccc     H6   1090 0.53656000   1.008000   ; qtot -0.530106
 1091         ho     42    ccc     H7   1091 0.49492100   1.008000   ; qtot -0.035185
 1092         ho     42    ccc     H8   1092 0.51297200   1.008000   ; qtot 0.477787
 1093         h1     42    ccc     H9   1093 0.05653400   1.008000   ; qtot 0.534321
 1094         h1     42    ccc    H10   1094 0.05653400   1.008000   ; qtot 0.590855
 1095         oh     42    ccc     O5   1095 -0.84113600  16.000000   ; qtot -0.250281
 1096         ho     42    ccc    H11   1096 0.51201600   1.008000   ; qtot 0.261735
 1097         os     42    ccc     O6   1097 -0.26013600  16.000000   ; qtot 0.001599
; residue   43 ccc rtp ccc q 0.0
 1098         c3     43    ccc     C1   1098 -0.33178800  12.010000   ; qtot -0.330189
 1099         c3     43    ccc     C2   1099 0.30606500  12.010000   ; qtot -0.024124
 1100         h1     43    ccc     H1   1100 0.11662300   1.008000   ; qtot 0.092499
 1101         h1     43    ccc     H2   1101 0.11526800   1.008000   ; qtot 0.207767
 1102         c3     43    ccc     C3   1102 0.15592700  12.010000   ; qtot 0.363694
 1103         c3     43    ccc     C4   1103 0.28383300  12.010000   ; qtot 0.647527
 1104         c3     43    ccc     C5   1104 0.32403300  12.010000   ; qtot 0.971560
 1105         h1     43    ccc     H3   1105 0.13386900   1.008000   ; qtot 1.105429
 1106         h1     43    ccc     H4   1106 0.10146700   1.008000   ; qtot 1.206896
 1107         h2     43    ccc     H5   1107 0.10960400   1.008000   ; qtot 1.316500
 1108         os     43    ccc     O1   1108 -0.28650000  16.000000   ; qtot 1.030000
 1109         oh     43    ccc     O2   1109 -0.86012500  16.000000   ; qtot 0.169875
 1110         oh     43    ccc     O3   1110 -0.83772800  16.000000   ; qtot -0.667853
 1111         oh     43    ccc     O4   1111 -0.77449700  16.000000   ; qtot -1.442350
 1112         c3     43    ccc     C6   1112 0.37576500  12.010000   ; qtot -1.066585
 1113         ho     43    ccc     H6   1113 0.53656000   1.008000   ; qtot -0.530025
 1114         ho     43    ccc     H7   1114 0.49492100   1.008000   ; qtot -0.035104
 1115         ho     43    ccc     H8   1115 0.51297200   1.008000   ; qtot 0.477868
 1116         h1     43    ccc     H9   1116 0.05653400   1.008000   ; qtot 0.534402
 1117         h1     43    ccc    H10   1117 0.05653400   1.008000   ; qtot 0.590936
 1118         oh     43    ccc     O5   1118 -0.84113600  16.000000   ; qtot -0.250200
 1119         ho     43    ccc    H11   1119 0.51201600   1.008000   ; qtot 0.261816
 1120         os     43    ccc     O6   1120 -0.26013600  16.000000   ; qtot 0.001680
; residue   44 ccc rtp ccc q 0.0
 1121         c3     44    ccc     C1   1121 -0.33178800  12.010000   ; qtot -0.330108
 1122         c3     44    ccc     C2   1122 0.30606500  12.010000   ; qtot -0.024043
 1123         h1     44    ccc     H1   1123 0.11662300   1.008000   ; qtot 0.092580
 1124         h1     44    ccc     H2   1124 0.11526800   1.008000   ; qtot 0.207848
 1125         c3     44    ccc     C3   1125 0.15592700  12.010000   ; qtot 0.363775
 1126         c3     44    ccc     C4   1126 0.28383300  12.010000   ; qtot 0.647608
 1127         c3     44    ccc     C5   1127 0.32403300  12.010000   ; qtot 0.971641
 1128         h1     44    ccc     H3   1128 0.13386900   1.008000   ; qtot 1.105510
 1129         h1     44    ccc     H4   1129 0.10146700   1.008000   ; qtot 1.206977
 1130         h2     44    ccc     H5   1130 0.10960400   1.008000   ; qtot 1.316581
 1131         os     44    ccc     O1   1131 -0.28650000  16.000000   ; qtot 1.030081
 1132         oh     44    ccc     O2   1132 -0.86012500  16.000000   ; qtot 0.169956
 1133         oh     44    ccc     O3   1133 -0.83772800  16.000000   ; qtot -0.667772
 1134         oh     44    ccc     O4   1134 -0.77449700  16.000000   ; qtot -1.442269
 1135         c3     44    ccc     C6   1135 0.37576500  12.010000   ; qtot -1.066504
 1136         ho     44    ccc     H6   1136 0.53656000   1.008000   ; qtot -0.529944
 1137         ho     44    ccc     H7   1137 0.49492100   1.008000   ; qtot -0.035023
 1138         ho     44    ccc     H8   1138 0.51297200   1.008000   ; qtot 0.477949
 1139         h1     44    ccc     H9   1139 0.05653400   1.008000   ; qtot 0.534483
 1140         h1     44    ccc    H10   1140 0.05653400   1.008000   ; qtot 0.591017
 1141         oh     44    ccc     O5   1141 -0.84113600  16.000000   ; qtot -0.250119
 1142         ho     44    ccc    H11   1142 0.51201600   1.008000   ; qtot 0.261897
 1143         os     44    ccc     O6   1143 -0.26013600  16.000000   ; qtot 0.001761
; residue   45 ccc rtp ccc q 0.0
 1144         c3     45    ccc     C1   1144 -0.33178800  12.010000   ; qtot -0.330027
 1145         c3     45    ccc     C2   1145 0.30606500  12.010000   ; qtot -0.023962
 1146         h1     45    ccc     H1   1146 0.11662300   1.008000   ; qtot 0.092661
 1147         h1     45    ccc     H2   1147 0.11526800   1.008000   ; qtot 0.207929
 1148         c3     45    ccc     C3   1148 0.15592700  12.010000   ; qtot 0.363856
 1149         c3     45    ccc     C4   1149 0.28383300  12.010000   ; qtot 0.647689
 1150         c3     45    ccc     C5   1150 0.32403300  12.010000   ; qtot 0.971722
 1151         h1     45    ccc     H3   1151 0.13386900   1.008000   ; qtot 1.105591
 1152         h1     45    ccc     H4   1152 0.10146700   1.008000   ; qtot 1.207058
 1153         h2     45    ccc     H5   1153 0.10960400   1.008000   ; qtot 1.316662
 1154         os     45    ccc     O1   1154 -0.28650000  16.000000   ; qtot 1.030162
 1155         oh     45    ccc     O2   1155 -0.86012500  16.000000   ; qtot 0.170037
 1156         oh     45    ccc     O3   1156 -0.83772800  16.000000   ; qtot -0.667691
 1157         oh     45    ccc     O4   1157 -0.77449700  16.000000   ; qtot -1.442188
 1158         c3     45    ccc     C6   1158 0.37576500  12.010000   ; qtot -1.066423
 1159         ho     45    ccc     H6   1159 0.53656000   1.008000   ; qtot -0.529863
 1160         ho     45    ccc     H7   1160 0.49492100   1.008000   ; qtot -0.034942
 1161         ho     45    ccc     H8   1161 0.51297200   1.008000   ; qtot 0.478030
 1162         h1     45    ccc     H9   1162 0.05653400   1.008000   ; qtot 0.534564
 1163         h1     45    ccc    H10   1163 0.05653400   1.008000   ; qtot 0.591098
 1164         oh     45    ccc     O5   1164 -0.84113600  16.000000   ; qtot -0.250038
 1165         ho     45    ccc    H11   1165 0.51201600   1.008000   ; qtot 0.261978
 1166         os     45    ccc     O6   1166 -0.26013600  16.000000   ; qtot 0.001842
; residue   46 ccc rtp ccc q 0.0
 1167         c3     46    ccc     C1   1167 -0.33178800  12.010000   ; qtot -0.329946
 1168         c3     46    ccc     C2   1168 0.30606500  12.010000   ; qtot -0.023881
 1169         h1     46    ccc     H1   1169 0.11662300   1.008000   ; qtot 0.092742
 1170         h1     46    ccc     H2   1170 0.11526800   1.008000   ; qtot 0.208010
 1171         c3     46    ccc     C3   1171 0.15592700  12.010000   ; qtot 0.363937
 1172         c3     46    ccc     C4   1172 0.28383300  12.010000   ; qtot 0.647770
 1173         c3     46    ccc     C5   1173 0.32403300  12.010000   ; qtot 0.971803
 1174         h1     46    ccc     H3   1174 0.13386900   1.008000   ; qtot 1.105672
 1175         h1     46    ccc     H4   1175 0.10146700   1.008000   ; qtot 1.207139
 1176         h2     46    ccc     H5   1176 0.10960400   1.008000   ; qtot 1.316743
 1177         os     46    ccc     O1   1177 -0.28650000  16.000000   ; qtot 1.030243
 1178         oh     46    ccc     O2   1178 -0.86012500  16.000000   ; qtot 0.170118
 1179         oh     46    ccc     O3   1179 -0.83772800  16.000000   ; qtot -0.667610
 1180         oh     46    ccc     O4   1180 -0.77449700  16.000000   ; qtot -1.442107
 1181         c3     46    ccc     C6   1181 0.37576500  12.010000   ; qtot -1.066342
 1182         ho     46    ccc     H6   1182 0.53656000   1.008000   ; qtot -0.529782
 1183         ho     46    ccc     H7   1183 0.49492100   1.008000   ; qtot -0.034861
 1184         ho     46    ccc     H8   1184 0.51297200   1.008000   ; qtot 0.478111
 1185         h1     46    ccc     H9   1185 0.05653400   1.008000   ; qtot 0.534645
 1186         h1     46    ccc    H10   1186 0.05653400   1.008000   ; qtot 0.591179
 1187         oh     46    ccc     O5   1187 -0.84113600  16.000000   ; qtot -0.249957
 1188         ho     46    ccc    H11   1188 0.51201600   1.008000   ; qtot 0.262059
 1189         os     46    ccc     O6   1189 -0.26013600  16.000000   ; qtot 0.001923

[ bonds ]
;    ai     aj funct         c0         c1         c2         c3
      1      2     1   0.14647 272713.120000
      1      5     1   0.14647 272713.120000
      1      8     1   0.14647 272713.120000
      2     14     1   0.15375 251793.120000
      5     17     1   0.15375 251793.120000
      8     11     1   0.15375 251793.120000
     11     23     1   0.15375 251793.120000
     14     26     1   0.15375 251793.120000
     17     20     1   0.15375 251793.120000
     20     57     1   0.14316 258236.480000
     23     86     1   0.14316 258236.480000
     26    115     1   0.14316 258236.480000
     29     30     1   0.14647 272713.120000
     29     33     1   0.14647 272713.120000
     29     36     1   0.14647 272713.120000
     30     42     1   0.15375 251793.120000
     33     45     1   0.15375 251793.120000
     36     39     1   0.15375 251793.120000
     39     48     1   0.15375 251793.120000
     42     54     1   0.15375 251793.120000
     45     51     1   0.15375 251793.120000
     48     57     1   0.14316 258236.480000
     51    144     1   0.14316 258236.480000
     54    173     1   0.14316 258236.480000
     58     59     1   0.14647 272713.120000
     58     62     1   0.14647 272713.120000
     58     65     1   0.14647 272713.120000
     59     71     1   0.15375 251793.120000
     62     74     1   0.15375 251793.120000
     65     68     1   0.15375 251793.120000
     68     77     1   0.15375 251793.120000
     71     83     1   0.15375 251793.120000
     74     80     1   0.15375 251793.120000
     77     86     1   0.14316 258236.480000
     80    202     1   0.14316 258236.480000
     83    231     1   0.14316 258236.480000
     87     88     1   0.14647 272713.120000
     87     91     1   0.14647 272713.120000
     87     94     1   0.14647 272713.120000
     88    100     1   0.15375 251793.120000
     91    103     1   0.15375 251793.120000
     94     97     1   0.15375 251793.120000
     97    106     1   0.15375 251793.120000
    100    112     1   0.15375 251793.120000
    103    109     1   0.15375 251793.120000
    106    115     1   0.14316 258236.480000
    109    260     1   0.14316 258236.480000
    112    289     1   0.14316 258236.480000
    116    117     1   0.14647 272713.120000
    116    120     1   0.14647 272713.120000
    116    123     1   0.14647 272713.120000
    117    129     1   0.15375 251793.120000
    120    132     1   0.15375 251793.120000
    123    126     1   0.15375 251793.120000
    126    135     1   0.15375 251793.120000
    129    141     1   0.15375 251793.120000
    132    138     1   0.15375 251793.120000
    135    144     1   0.14316 258236.480000
    138    318     1   0.14316 258236.480000
    141    347     1   0.14316 258236.480000
    145    146     1   0.14647 272713.120000
    145    149     1   0.14647 272713.120000
    145    152     1   0.14647 272713.120000
    146    158     1   0.15375 251793.120000
    149    161     1   0.15375 251793.120000
    152    155     1   0.15375 251793.120000
    155    164     1   0.15375 251793.120000
    158    170     1   0.15375 251793.120000
    161    167     1   0.15375 251793.120000
    164    173     1   0.14316 258236.480000
    167    376     1   0.14316 258236.480000
    170    405     1   0.14316 258236.480000
    174    175     1   0.14647 272713.120000
    174    178     1   0.14647 272713.120000
    174    181     1   0.14647 272713.120000
    175    187     1   0.15375 251793.120000
    178    190     1   0.15375 251793.120000
    181    184     1   0.15375 251793.120000
    184    193     1   0.15375 251793.120000
    187    199     1   0.15375 251793.120000
    190    196     1   0.15375 251793.120000
    193    202     1   0.14316 258236.480000
    196    434     1   0.14316 258236.480000
    199    463     1   0.14316 258236.480000
    203    204     1   0.14647 272713.120000
    203    207     1   0.14647 272713.120000
    203    210     1   0.14647 272713.120000
    204    216     1   0.15375 251793.120000
    207    219     1   0.15375 251793.120000
    210    213     1   0.15375 251793.120000
    213    222     1   0.15375 251793.120000
    216    228     1   0.15375 251793.120000
    219    225     1   0.15375 251793.120000
    222    231     1   0.14316 258236.480000
    225    492     1   0.14316 258236.480000
    228    521     1   0.14316 258236.480000
    232    233     1   0.14647 272713.120000
    232    236     1   0.14647 272713.120000
    232    239     1   0.14647 272713.120000
    233    245     1   0.15375 251793.120000
    236    248     1   0.15375 251793.120000
    239    242     1   0.15375 251793.120000
    242    251     1   0.15375 251793.120000
    245    257     1   0.15375 251793.120000
    248    254     1   0.15375 251793.120000
    251    260     1   0.14316 258236.480000
    254    550     1   0.14316 258236.480000
    257    579     1   0.14316 258236.480000
    261    262     1   0.14647 272713.120000
    261    265     1   0.14647 272713.120000
    261    268     1   0.14647 272713.120000
    262    274     1   0.15375 251793.120000
    265    277     1   0.15375 251793.120000
    268    271     1   0.15375 251793.120000
    271    280     1   0.15375 251793.120000
    274    286     1   0.15375 251793.120000
    277    283     1   0.15375 251793.120000
    280    289     1   0.14316 258236.480000
    283    608     1   0.14316 258236.480000
    286    637     1   0.14316 258236.480000
    290    291     1   0.14647 272713.120000
    290    294     1   0.14647 272713.120000
    290    297     1   0.14647 272713.120000
    291    303     1   0.15375 251793.120000
    294    306     1   0.15375 251793.120000
    297    300     1   0.15375 251793.120000
    300    309     1   0.15375 251793.120000
    303    315     1   0.15375 251793.120000
    306    312     1   0.15375 251793.120000
    309    318     1   0.14316 258236.480000
    312    648     1   0.14316 258236.480000
    315    671     1   0.14316 258236.480000
    319    320     1   0.14647 272713.120000
    319    323     1   0.14647 272713.120000
    319    326     1   0.14647 272713.120000
    320    332     1   0.15375 251793.120000
    323    335     1   0.15375 251793.120000
    326    329     1   0.15375 251793.120000
    329    338     1   0.15375 251793.120000
    332    344     1   0.15375 251793.120000
    335    341     1   0.15375 251793.120000
    338    347     1   0.14316 258236.480000
    341    694     1   0.14316 258236.480000
    344    717     1   0.14316 258236.480000
    348    349     1   0.14647 272713.120000
    348    352     1   0.14647 272713.120000
    348    355     1   0.14647 272713.120000
    349    361     1   0.15375 251793.120000
    352    364     1   0.15375 251793.120000
    355    358     1   0.15375 251793.120000
    358    367     1   0.15375 251793.120000
    361    373     1   0.15375 251793.120000
    364    370     1   0.15375 251793.120000
    367    376     1   0.14316 258236.480000
    370    740     1   0.14316 258236.480000
    373    763     1   0.14316 258236.480000
    377    378     1   0.14647 272713.120000
    377    381     1   0.14647 272713.120000
    377    384     1   0.14647 272713.120000
    378    390     1   0.15375 251793.120000
    381    393     1   0.15375 251793.120000
    384    387     1   0.15375 251793.120000
    387    396     1   0.15375 251793.120000
    390    402     1   0.15375 251793.120000
    393    399     1   0.15375 251793.120000
    396    405     1   0.14316 258236.480000
    399    786     1   0.14316 258236.480000
    402    809     1   0.14316 258236.480000
    406    407     1   0.14647 272713.120000
    406    410     1   0.14647 272713.120000
    406    413     1   0.14647 272713.120000
    407    419     1   0.15375 251793.120000
    410    422     1   0.15375 251793.120000
    413    416     1   0.15375 251793.120000
    416    425     1   0.15375 251793.120000
    419    431     1   0.15375 251793.120000
    422    428     1   0.15375 251793.120000
    425    434     1   0.14316 258236.480000
    428    832     1   0.14316 258236.480000
    431    855     1   0.14316 258236.480000
    435    436     1   0.14647 272713.120000
    435    439     1   0.14647 272713.120000
    435    442     1   0.14647 272713.120000
    436    448     1   0.15375 251793.120000
    439    451     1   0.15375 251793.120000
    442    445     1   0.15375 251793.120000
    445    454     1   0.15375 251793.120000
    448    460     1   0.15375 251793.120000
    451    457     1   0.15375 251793.120000
    454    463     1   0.14316 258236.480000
    457    878     1   0.14316 258236.480000
    460    901     1   0.14316 258236.480000
    464    465     1   0.14647 272713.120000
    464    468     1   0.14647 272713.120000
    464    471     1   0.14647 272713.120000
    465    477     1   0.15375 251793.120000
    468    480     1   0.15375 251793.120000
    471    474     1   0.15375 251793.120000
    474    483     1   0.15375 251793.120000
    477    489     1   0.15375 251793.120000
    480    486     1   0.15375 251793.120000
    483    492     1   0.14316 258236.480000
    486    924     1   0.14316 258236.480000
    489    947     1   0.14316 258236.480000
    493    494     1   0.14647 272713.120000
    493    497     1   0.14647 272713.120000
    493    500     1   0.14647 272713.120000
    494    506     1   0.15375 251793.120000
    497    509     1   0.15375 251793.120000
    500    503     1   0.15375 251793.120000
    503    512     1   0.15375 251793.120000
    506    518     1   0.15375 251793.120000
    509    515     1   0.15375 251793.120000
    512    521     1   0.14316 258236.480000
    515    970     1   0.14316 258236.480000
    518    993     1   0.14316 258236.480000
    522    523     1   0.14647 272713.120000
    522    526     1   0.14647 272713.120000
    522    529     1   0.14647 272713.120000
    523    535     1   0.15375 251793.120000
    526    538     1   0.15375 251793.120000
    529    532     1   0.15375 251793.120000
    532    541     1   0.15375 251793.120000
    535    547     1   0.15375 251793.120000
    538    544     1   0.15375 251793.120000
    541    550     1   0.14316 258236.480000
    544   1016     1   0.14316 258236.480000
    547   1039     1   0.14316 258236.480000
    551    552     1   0.14647 272713.120000
    551    555     1   0.14647 272713.120000
    551    558     1   0.14647 272713.120000
    552    564     1   0.15375 251793.120000
    555    567     1   0.15375 251793.120000
    558    561     1   0.15375 251793.120000
    561    570     1   0.15375 251793.120000
    564    576     1   0.15375 251793.120000
    567    573     1   0.15375 251793.120000
    570    579     1   0.14316 258236.480000
    573   1062     1   0.14316 258236.480000
    576   1085     1   0.14316 258236.480000
    580    581     1   0.14647 272713.120000
    580    584     1   0.14647 272713.120000
    580    587     1   0.14647 272713.120000
    581    593     1   0.15375 251793.120000
    584    596     1   0.15375 251793.120000
    587    590     1   0.15375 251793.120000
    590    599     1   0.15375 251793.120000
    593    605     1   0.15375 251793.120000
    596    602     1   0.15375 251793.120000
    599    608     1   0.14316 258236.480000
    602   1108     1   0.14316 258236.480000
    605   1131     1   0.14316 258236.480000
    609    610     1   0.14647 272713.120000
    609    613     1   0.14647 272713.120000
    609    616     1   0.14647 272713.120000
    610    622     1   0.15375 251793.120000
    613    625     1   0.15375 251793.120000
    616    619     1   0.15375 251793.120000
    619    628     1   0.15375 251793.120000
    622    634     1   0.15375 251793.120000
    625    631     1   0.15375 251793.120000
    628    637     1   0.14316 258236.480000
    631   1154     1   0.14316 258236.480000
    634   1177     1   0.14316 258236.480000
    638    639     1   0.15375 251793.120000
    638    652     1   0.15375 251793.120000
    638    660     1   0.14316 258236.480000
    639    642     1   0.15375 251793.120000
    639    651     1   0.14233 265014.560000
    642    643     1   0.15375 251793.120000
    642    650     1   0.14233 265014.560000
    643    644     1   0.15375 251793.120000
    643    649     1   0.14233 265014.560000
    644    648     1   0.14316 258236.480000
    644    660     1   0.14316 258236.480000
    652    658     1   0.14233 265014.560000
    661    662     1   0.15375 251793.120000
    661    675     1   0.15375 251793.120000
    661    683     1   0.14316 258236.480000
    662    665     1   0.15375 251793.120000
    662    674     1   0.14233 265014.560000
    665    666     1   0.15375 251793.120000
    665    673     1   0.14233 265014.560000
    666    667     1   0.15375 251793.120000
    666    672     1   0.14233 265014.560000
    667    671     1   0.14316 258236.480000
    667    683     1   0.14316 258236.480000
    675    681     1   0.14233 265014.560000
    684    685     1   0.15375 251793.120000
    684    698     1   0.15375 251793.120000
    684    706     1   0.14316 258236.480000
    685    688     1   0.15375 251793.120000
    685    697     1   0.14233 265014.560000
    688    689     1   0.15375 251793.120000
    688    696     1   0.14233 265014.560000
    689    690     1   0.15375 251793.120000
    689    695     1   0.14233 265014.560000
    690    694     1   0.14316 258236.480000
    690    706     1   0.14316 258236.480000
    698    704     1   0.14233 265014.560000
    707    708     1   0.15375 251793.120000
    707    721     1   0.15375 251793.120000
    707    729     1   0.14316 258236.480000
    708    711     1   0.15375 251793.120000
    708    720     1   0.14233 265014.560000
    711    712     1   0.15375 251793.120000
    711    719     1   0.14233 265014.560000
    712    713     1   0.15375 251793.120000
    712    718     1   0.14233 265014.560000
    713    717     1   0.14316 258236.480000
    713    729     1   0.14316 258236.480000
    721    727     1   0.14233 265014.560000
    730    731     1   0.15375 251793.120000
    730    744     1   0.15375 251793.120000
    730    752     1   0.14316 258236.480000
    731    734     1   0.15375 251793.120000
    731    743     1   0.14233 265014.560000
    734    735     1   0.15375 251793.120000
    734    742     1   0.14233 265014.560000
    735    736     1   0.15375 251793.120000
    735    741     1   0.14233 265014.560000
    736    740     1   0.14316 258236.480000
    736    752     1   0.14316 258236.480000
    744    750     1   0.14233 265014.560000
    753    754     1   0.15375 251793.120000
    753    767     1   0.15375 251793.120000
    753    775     1   0.14316 258236.480000
    754    757     1   0.15375 251793.120000
    754    766     1   0.14233 265014.560000
    757    758     1   0.15375 251793.120000
    757    765     1   0.14233 265014.560000
    758    759     1   0.15375 251793.120000
    758    764     1   0.14233 265014.560000
    759    763     1   0.14316 258236.480000
    759    775     1   0.14316 258236.480000
    767    773     1   0.14233 265014.560000
    776    777     1   0.15375 251793.120000
    776    790     1   0.15375 251793.120000
    776    798     1   0.14316 258236.480000
    777    780     1   0.15375 251793.120000
    777    789     1   0.14233 265014.560000
    780    781     1   0.15375 251793.120000
    780    788     1   0.14233 265014.560000
    781    782     1   0.15375 251793.120000
    781    787     1   0.14233 265014.560000
    782    786     1   0.14316 258236.480000
    782    798     1   0.14316 258236.480000
    790    796     1   0.14233 265014.560000
    799    800     1   0.15375 251793.120000
    799    813     1   0.15375 251793.120000
    799    821     1   0.14316 258236.480000
    800    803     1   0.15375 251793.120000
    800    812     1   0.14233 265014.560000
    803    804     1   0.15375 251793.120000
    803    811     1   0.14233 265014.560000
    804    805     1   0.15375 251793.120000
    804    810     1   0.14233 265014.560000
    805    809     1   0.14316 258236.480000
    805    821     1   0.14316 258236.480000
    813    819     1   0.14233 265014.560000
    822    823     1   0.15375 251793.120000
    822    836     1   0.15375 251793.120000
    822    844     1   0.14316 258236.480000
    823    826     1   0.15375 251793.120000
    823    835     1   0.14233 265014.560000
    826    827     1   0.15375 251793.120000
    826    834     1   0.14233 265014.560000
    827    828     1   0.15375 251793.120000
    827    833     1   0.14233 265014.560000
    828    832     1   0.14316 258236.480000
    828    844     1   0.14316 258236.480000
    836    842     1   0.14233 265014.560000
    845    846     1   0.15375 251793.120000
    845    859     1   0.15375 251793.120000
    845    867     1   0.14316 258236.480000
    846    849     1   0.15375 251793.120000
    846    858     1   0.14233 265014.560000
    849    850     1   0.15375 251793.120000
    849    857     1   0.14233 265014.560000
    850    851     1   0.15375 251793.120000
    850    856     1   0.14233 265014.560000
    851    855     1   0.14316 258236.480000
    851    867     1   0.14316 258236.480000
    859    865     1   0.14233 265014.560000
    868    869     1   0.15375 251793.120000
    868    882     1   0.15375 251793.120000
    868    890     1   0.14316 258236.480000
    869    872     1   0.15375 251793.120000
    869    881     1   0.14233 265014.560000
    872    873     1   0.15375 251793.120000
    872    880     1   0.14233 265014.560000
    873    874     1   0.15375 251793.120000
    873    879     1   0.14233 265014.560000
    874    878     1   0.14316 258236.480000
    874    890     1   0.14316 258236.480000
    882    888     1   0.14233 265014.560000
    891    892     1   0.15375 251793.120000
    891    905     1   0.15375 251793.120000
    891    913     1   0.14316 258236.480000
    892    895     1   0.15375 251793.120000
    892    904     1   0.14233 265014.560000
    895    896     1   0.15375 251793.120000
    895    903     1   0.14233 265014.560000
    896    897     1   0.15375 251793.120000
    896    902     1   0.14233 265014.560000
    897    901     1   0.14316 258236.480000
    897    913     1   0.14316 258236.480000
    905    911     1   0.14233 265014.560000
    914    915     1   0.15375 251793.120000
    914    928     1   0.15375 251793.120000
    914    936     1   0.14316 258236.480000
    915    918     1   0.15375 251793.120000
    915    927     1   0.14233 265014.560000
    918    919     1   0.15375 251793.120000
    918    926     1   0.14233 265014.560000
    919    920     1   0.15375 251793.120000
    919    925     1   0.14233 265014.560000
    920    924     1   0.14316 258236.480000
    920    936     1   0.14316 258236.480000
    928    934     1   0.14233 265014.560000
    937    938     1   0.15375 251793.120000
    937    951     1   0.15375 251793.120000
    937    959     1   0.14316 258236.480000
    938    941     1   0.15375 251793.120000
    938    950     1   0.14233 265014.560000
    941    942     1   0.15375 251793.120000
    941    949     1   0.14233 265014.560000
    942    943     1   0.15375 251793.120000
    942    948     1   0.14233 265014.560000
    943    947     1   0.14316 258236.480000
    943    959     1   0.14316 258236.480000
    951    957     1   0.14233 265014.560000
    960    961     1   0.15375 251793.120000
    960    974     1   0.15375 251793.120000
    960    982     1   0.14316 258236.480000
    961    964     1   0.15375 251793.120000
    961    973     1   0.14233 265014.560000
    964    965     1   0.15375 251793.120000
    964    972     1   0.14233 265014.560000
    965    966     1   0.15375 251793.120000
    965    971     1   0.14233 265014.560000
    966    970     1   0.14316 258236.480000
    966    982     1   0.14316 258236.480000
    974    980     1   0.14233 265014.560000
    983    984     1   0.15375 251793.120000
    983    997     1   0.15375 251793.120000
    983   1005     1   0.14316 258236.480000
    984    987     1   0.15375 251793.120000
    984    996     1   0.14233 265014.560000
    987    988     1   0.15375 251793.120000
    987    995     1   0.14233 265014.560000
    988    989     1   0.15375 251793.120000
    988    994     1   0.14233 265014.560000
    989    993     1   0.14316 258236.480000
    989   1005     1   0.14316 258236.480000
    997   1003     1   0.14233 265014.560000
   1006   1007     1   0.15375 251793.120000
   1006   1020     1   0.15375 251793.120000
   1006   1028     1   0.14316 258236.480000
   1007   1010     1   0.15375 251793.120000
   1007   1019     1   0.14233 265014.560000
   1010   1011     1   0.15375 251793.120000
   1010   1018     1   0.14233 265014.560000
   1011   1012     1   0.15375 251793.120000
   1011   1017     1   0.14233 265014.560000
   1012   1016     1   0.14316 258236.480000
   1012   1028     1   0.14316 258236.480000
   1020   1026     1   0.14233 265014.560000
   1029   1030     1   0.15375 251793.120000
   1029   1043     1   0.15375 251793.120000
   1029   1051     1   0.14316 258236.480000
   1030   1033     1   0.15375 251793.120000
   1030   1042     1   0.14233 265014.560000
   1033   1034     1   0.15375 251793.120000
   1033   1041     1   0.14233 265014.560000
   1034   1035     1   0.15375 251793.120000
   1034   1040     1   0.14233 265014.560000
   1035   1039     1   0.14316 258236.480000
   1035   1051     1   0.14316 258236.480000
   1043   1049     1   0.14233 265014.560000
   1052   1053     1   0.15375 251793.120000
   1052   1066     1   0.15375 251793.120000
   1052   1074     1   0.14316 258236.480000
   1053   1056     1   0.15375 251793.120000
   1053   1065     1   0.14233 265014.560000
   1056   1057     1   0.15375 251793.120000
   1056   1064     1   0.14233 265014.560000
   1057   1058     1   0.15375 251793.120000
   1057   1063     1   0.14233 265014.560000
   1058   1062     1   0.14316 258236.480000
   1058   1074     1   0.14316 258236.480000
   1066   1072     1   0.14233 265014.560000
   1075   1076     1   0.15375 251793.120000
   1075   1089     1   0.15375 251793.120000
   1075   1097     1   0.14316 258236.480000
   1076   1079     1   0.15375 251793.120000
   1076   1088     1   0.14233 265014.560000
   1079   1080     1   0.15375 251793.120000
   1079   1087     1   0.14233 265014.560000
   1080   1081     1   0.15375 251793.120000
   1080   1086     1   0.14233 265014.560000
   1081   1085     1   0.14316 258236.480000
   1081   1097     1   0.14316 258236.480000
   1089   1095     1   0.14233 265014.560000
   1098   1099     1   0.15375 251793.120000
   1098   1112     1   0.15375 251793.120000
   1098   1120     1   0.14316 258236.480000
   1099   1102     1   0.15375 251793.120000
   1099   1111     1   0.14233 265014.560000
   1102   1103     1   0.15375 251793.120000
   1102   1110     1   0.14233 265014.560000
   1103   1104     1   0.15375 251793.120000
   1103   1109     1   0.14233 265014.560000
   1104   1108     1   0.14316 258236.480000
   1104   1120     1   0.14316 258236.480000
   1112   1118     1   0.14233 265014.560000
   1121   1122     1   0.15375 251793.120000
   1121   1135     1   0.15375 251793.120000
   1121   1143     1   0.14316 258236.480000
   1122   1125     1   0.15375 251793.120000
   1122   1134     1   0.14233 265014.560000
   1125   1126     1   0.15375 251793.120000
   1125   1133     1   0.14233 265014.560000
   1126   1127     1   0.15375 251793.120000
   1126   1132     1   0.14233 265014.560000
   1127   1131     1   0.14316 258236.480000
   1127   1143     1   0.14316 258236.480000
   1135   1141     1   0.14233 265014.560000
   1144   1145     1   0.15375 251793.120000
   1144   1158     1   0.15375 251793.120000
   1144   1166     1   0.14316 258236.480000
   1145   1148     1   0.15375 251793.120000
   1145   1157     1   0.14233 265014.560000
   1148   1149     1   0.15375 251793.120000
   1148   1156     1   0.14233 265014.560000
   1149   1150     1   0.15375 251793.120000
   1149   1155     1   0.14233 265014.560000
   1150   1154     1   0.14316 258236.480000
   1150   1166     1   0.14316 258236.480000
   1158   1164     1   0.14233 265014.560000
   1167   1168     1   0.15375 251793.120000
   1167   1181     1   0.15375 251793.120000
   1167   1189     1   0.14316 258236.480000
   1168   1171     1   0.15375 251793.120000
   1168   1180     1   0.14233 265014.560000
   1171   1172     1   0.15375 251793.120000
   1171   1179     1   0.14233 265014.560000
   1172   1173     1   0.15375 251793.120000
   1172   1178     1   0.14233 265014.560000
   1173   1177     1   0.14316 258236.480000
   1173   1189     1   0.14316 258236.480000
   1181   1187     1   0.14233 265014.560000
      2      3     1   0.10969 276646.080000
      2      4     1   0.10969 276646.080000
      5      6     1   0.10969 276646.080000
      5      7     1   0.10969 276646.080000
      8      9     1   0.10969 276646.080000
      8     10     1   0.10969 276646.080000
     11     12     1   0.10969 276646.080000
     11     13     1   0.10969 276646.080000
     14     15     1   0.10969 276646.080000
     14     16     1   0.10969 276646.080000
     17     18     1   0.10969 276646.080000
     17     19     1   0.10969 276646.080000
     20     21     1   0.10969 276646.080000
     20     22     1   0.10969 276646.080000
     23     24     1   0.10969 276646.080000
     23     25     1   0.10969 276646.080000
     26     27     1   0.10969 276646.080000
     26     28     1   0.10969 276646.080000
     30     31     1   0.10969 276646.080000
     30     32     1   0.10969 276646.080000
     33     34     1   0.10969 276646.080000
     33     35     1   0.10969 276646.080000
     36     37     1   0.10969 276646.080000
     36     38     1   0.10969 276646.080000
     39     40     1   0.10969 276646.080000
     39     41     1   0.10969 276646.080000
     42     43     1   0.10969 276646.080000
     42     44     1   0.10969 276646.080000
     45     46     1   0.10969 276646.080000
     45     47     1   0.10969 276646.080000
     48     49     1   0.10969 276646.080000
     48     50     1   0.10969 276646.080000
     51     52     1   0.10969 276646.080000
     51     53     1   0.10969 276646.080000
     54     55     1   0.10969 276646.080000
     54     56     1   0.10969 276646.080000
     59     60     1   0.10969 276646.080000
     59     61     1   0.10969 276646.080000
     62     63     1   0.10969 276646.080000
     62     64     1   0.10969 276646.080000
     65     66     1   0.10969 276646.080000
     65     67     1   0.10969 276646.080000
     68     69     1   0.10969 276646.080000
     68     70     1   0.10969 276646.080000
     71     72     1   0.10969 276646.080000
     71     73     1   0.10969 276646.080000
     74     75     1   0.10969 276646.080000
     74     76     1   0.10969 276646.080000
     77     78     1   0.10969 276646.080000
     77     79     1   0.10969 276646.080000
     80     81     1   0.10969 276646.080000
     80     82     1   0.10969 276646.080000
     83     84     1   0.10969 276646.080000
     83     85     1   0.10969 276646.080000
     88     89     1   0.10969 276646.080000
     88     90     1   0.10969 276646.080000
     91     92     1   0.10969 276646.080000
     91     93     1   0.10969 276646.080000
     94     95     1   0.10969 276646.080000
     94     96     1   0.10969 276646.080000
     97     98     1   0.10969 276646.080000
     97     99     1   0.10969 276646.080000
    100    101     1   0.10969 276646.080000
    100    102     1   0.10969 276646.080000
    103    104     1   0.10969 276646.080000
    103    105     1   0.10969 276646.080000
    106    107     1   0.10969 276646.080000
    106    108     1   0.10969 276646.080000
    109    110     1   0.10969 276646.080000
    109    111     1   0.10969 276646.080000
    112    113     1   0.10969 276646.080000
    112    114     1   0.10969 276646.080000
    117    118     1   0.10969 276646.080000
    117    119     1   0.10969 276646.080000
    120    121     1   0.10969 276646.080000
    120    122     1   0.10969 276646.080000
    123    124     1   0.10969 276646.080000
    123    125     1   0.10969 276646.080000
    126    127     1   0.10969 276646.080000
    126    128     1   0.10969 276646.080000
    129    130     1   0.10969 276646.080000
    129    131     1   0.10969 276646.080000
    132    133     1   0.10969 276646.080000
    132    134     1   0.10969 276646.080000
    135    136     1   0.10969 276646.080000
    135    137     1   0.10969 276646.080000
    138    139     1   0.10969 276646.080000
    138    140     1   0.10969 276646.080000
    141    142     1   0.10969 276646.080000
    141    143     1   0.10969 276646.080000
    146    147     1   0.10969 276646.080000
    146    148     1   0.10969 276646.080000
    149    150     1   0.10969 276646.080000
    149    151     1   0.10969 276646.080000
    152    153     1   0.10969 276646.080000
    152    154     1   0.10969 276646.080000
    155    156     1   0.10969 276646.080000
    155    157     1   0.10969 276646.080000
    158    159     1   0.10969 276646.080000
    158    160     1   0.10969 276646.080000
    161    162     1   0.10969 276646.080000
    161    163     1   0.10969 276646.080000
    164    165     1   0.10969 276646.080000
    164    166     1   0.10969 276646.080000
    167    168     1   0.10969 276646.080000
    167    169     1   0.10969 276646.080000
    170    171     1   0.10969 276646.080000
    170    172     1   0.10969 276646.080000
    175    176     1   0.10969 276646.080000
    175    177     1   0.10969 276646.080000
    178    179     1   0.10969 276646.080000
    178    180     1   0.10969 276646.080000
    181    182     1   0.10969 276646.080000
    181    183     1   0.10969 276646.080000
    184    185     1   0.10969 276646.080000
    184    186     1   0.10969 276646.080000
    187    188     1   0.10969 276646.080000
    187    189     1   0.10969 276646.080000
    190    191     1   0.10969 276646.080000
    190    192     1   0.10969 276646.080000
    193    194     1   0.10969 276646.080000
    193    195     1   0.10969 276646.080000
    196    197     1   0.10969 276646.080000
    196    198     1   0.10969 276646.080000
    199    200     1   0.10969 276646.080000
    199    201     1   0.10969 276646.080000
    204    205     1   0.10969 276646.080000
    204    206     1   0.10969 276646.080000
    207    208     1   0.10969 276646.080000
    207    209     1   0.10969 276646.080000
    210    211     1   0.10969 276646.080000
    210    212     1   0.10969 276646.080000
    213    214     1   0.10969 276646.080000
    213    215     1   0.10969 276646.080000
    216    217     1   0.10969 276646.080000
    216    218     1   0.10969 276646.080000
    219    220     1   0.10969 276646.080000
    219    221     1   0.10969 276646.080000
    222    223     1   0.10969 276646.080000
    222    224     1   0.10969 276646.080000
    225    226     1   0.10969 276646.080000
    225    227     1   0.10969 276646.080000
    228    229     1   0.10969 276646.080000
    228    230     1   0.10969 276646.080000
    233    234     1   0.10969 276646.080000
    233    235     1   0.10969 276646.080000
    236    237     1   0.10969 276646.080000
    236    238     1   0.10969 276646.080000
    239    240     1   0.10969 276646.080000
    239    241     1   0.10969 276646.080000
    242    243     1   0.10969 276646.080000
    242    244     1   0.10969 276646.080000
    245    246     1   0.10969 276646.080000
    245    247     1   0.10969 276646.080000
    248    249     1   0.10969 276646.080000
    248    250     1   0.10969 276646.080000
    251    252     1   0.10969 276646.080000
    251    253     1   0.10969 276646.080000
    254    255     1   0.10969 276646.080000
    254    256     1   0.10969 276646.080000
    257    258     1   0.10969 276646.080000
    257    259     1   0.10969 276646.080000
    262    263     1   0.10969 276646.080000
    262    264     1   0.10969 276646.080000
    265    266     1   0.10969 276646.080000
    265    267     1   0.10969 276646.080000
    268    269     1   0.10969 276646.080000
    268    270     1   0.10969 276646.080000
    271    272     1   0.10969 276646.080000
    271    273     1   0.10969 276646.080000
    274    275     1   0.10969 276646.080000
    274    276     1   0.10969 276646.080000
    277    278     1   0.10969 276646.080000
    277    279     1   0.10969 276646.080000
    280    281     1   0.10969 276646.080000
    280    282     1   0.10969 276646.080000
    283    284     1   0.10969 276646.080000
    283    285     1   0.10969 276646.080000
    286    287     1   0.10969 276646.080000
    286    288     1   0.10969 276646.080000
    291    292     1   0.10969 276646.080000
    291    293     1   0.10969 276646.080000
    294    295     1   0.10969 276646.080000
    294    296     1   0.10969 276646.080000
    297    298     1   0.10969 276646.080000
    297    299     1   0.10969 276646.080000
    300    301     1   0.10969 276646.080000
    300    302     1   0.10969 276646.080000
    303    304     1   0.10969 276646.080000
    303    305     1   0.10969 276646.080000
    306    307     1   0.10969 276646.080000
    306    308     1   0.10969 276646.080000
    309    310     1   0.10969 276646.080000
    309    311     1   0.10969 276646.080000
    312    313     1   0.10969 276646.080000
    312    314     1   0.10969 276646.080000
    315    316     1   0.10969 276646.080000
    315    317     1   0.10969 276646.080000
    320    321     1   0.10969 276646.080000
    320    322     1   0.10969 276646.080000
    323    324     1   0.10969 276646.080000
    323    325     1   0.10969 276646.080000
    326    327     1   0.10969 276646.080000
    326    328     1   0.10969 276646.080000
    329    330     1   0.10969 276646.080000
    329    331     1   0.10969 276646.080000
    332    333     1   0.10969 276646.080000
    332    334     1   0.10969 276646.080000
    335    336     1   0.10969 276646.080000
    335    337     1   0.10969 276646.080000
    338    339     1   0.10969 276646.080000
    338    340     1   0.10969 276646.080000
    341    342     1   0.10969 276646.080000
    341    343     1   0.10969 276646.080000
    344    345     1   0.10969 276646.080000
    344    346     1   0.10969 276646.080000
    349    350     1   0.10969 276646.080000
    349    351     1   0.10969 276646.080000
    352    353     1   0.10969 276646.080000
    352    354     1   0.10969 276646.080000
    355    356     1   0.10969 276646.080000
    355    357     1   0.10969 276646.080000
    358    359     1   0.10969 276646.080000
    358    360     1   0.10969 276646.080000
    361    362     1   0.10969 276646.080000
    361    363     1   0.10969 276646.080000
    364    365     1   0.10969 276646.080000
    364    366     1   0.10969 276646.080000
    367    368     1   0.10969 276646.080000
    367    369     1   0.10969 276646.080000
    370    371     1   0.10969 276646.080000
    370    372     1   0.10969 276646.080000
    373    374     1   0.10969 276646.080000
    373    375     1   0.10969 276646.080000
    378    379     1   0.10969 276646.080000
    378    380     1   0.10969 276646.080000
    381    382     1   0.10969 276646.080000
    381    383     1   0.10969 276646.080000
    384    385     1   0.10969 276646.080000
    384    386     1   0.10969 276646.080000
    387    388     1   0.10969 276646.080000
    387    389     1   0.10969 276646.080000
    390    391     1   0.10969 276646.080000
    390    392     1   0.10969 276646.080000
    393    394     1   0.10969 276646.080000
    393    395     1   0.10969 276646.080000
    396    397     1   0.10969 276646.080000
    396    398     1   0.10969 276646.080000
    399    400     1   0.10969 276646.080000
    399    401     1   0.10969 276646.080000
    402    403     1   0.10969 276646.080000
    402    404     1   0.10969 276646.080000
    407    408     1   0.10969 276646.080000
    407    409     1   0.10969 276646.080000
    410    411     1   0.10969 276646.080000
    410    412     1   0.10969 276646.080000
    413    414     1   0.10969 276646.080000
    413    415     1   0.10969 276646.080000
    416    417     1   0.10969 276646.080000
    416    418     1   0.10969 276646.080000
    419    420     1   0.10969 276646.080000
    419    421     1   0.10969 276646.080000
    422    423     1   0.10969 276646.080000
    422    424     1   0.10969 276646.080000
    425    426     1   0.10969 276646.080000
    425    427     1   0.10969 276646.080000
    428    429     1   0.10969 276646.080000
    428    430     1   0.10969 276646.080000
    431    432     1   0.10969 276646.080000
    431    433     1   0.10969 276646.080000
    436    437     1   0.10969 276646.080000
    436    438     1   0.10969 276646.080000
    439    440     1   0.10969 276646.080000
    439    441     1   0.10969 276646.080000
    442    443     1   0.10969 276646.080000
    442    444     1   0.10969 276646.080000
    445    446     1   0.10969 276646.080000
    445    447     1   0.10969 276646.080000
    448    449     1   0.10969 276646.080000
    448    450     1   0.10969 276646.080000
    451    452     1   0.10969 276646.080000
    451    453     1   0.10969 276646.080000
    454    455     1   0.10969 276646.080000
    454    456     1   0.10969 276646.080000
    457    458     1   0.10969 276646.080000
    457    459     1   0.10969 276646.080000
    460    461     1   0.10969 276646.080000
    460    462     1   0.10969 276646.080000
    465    466     1   0.10969 276646.080000
    465    467     1   0.10969 276646.080000
    468    469     1   0.10969 276646.080000
    468    470     1   0.10969 276646.080000
    471    472     1   0.10969 276646.080000
    471    473     1   0.10969 276646.080000
    474    475     1   0.10969 276646.080000
    474    476     1   0.10969 276646.080000
    477    478     1   0.10969 276646.080000
    477    479     1   0.10969 276646.080000
    480    481     1   0.10969 276646.080000
    480    482     1   0.10969 276646.080000
    483    484     1   0.10969 276646.080000
    483    485     1   0.10969 276646.080000
    486    487     1   0.10969 276646.080000
    486    488     1   0.10969 276646.080000
    489    490     1   0.10969 276646.080000
    489    491     1   0.10969 276646.080000
    494    495     1   0.10969 276646.080000
    494    496     1   0.10969 276646.080000
    497    498     1   0.10969 276646.080000
    497    499     1   0.10969 276646.080000
    500    501     1   0.10969 276646.080000
    500    502     1   0.10969 276646.080000
    503    504     1   0.10969 276646.080000
    503    505     1   0.10969 276646.080000
    506    507     1   0.10969 276646.080000
    506    508     1   0.10969 276646.080000
    509    510     1   0.10969 276646.080000
    509    511     1   0.10969 276646.080000
    512    513     1   0.10969 276646.080000
    512    514     1   0.10969 276646.080000
    515    516     1   0.10969 276646.080000
    515    517     1   0.10969 276646.080000
    518    519     1   0.10969 276646.080000
    518    520     1   0.10969 276646.080000
    523    524     1   0.10969 276646.080000
    523    525     1   0.10969 276646.080000
    526    527     1   0.10969 276646.080000
    526    528     1   0.10969 276646.080000
    529    530     1   0.10969 276646.080000
    529    531     1   0.10969 276646.080000
    532    533     1   0.10969 276646.080000
    532    534     1   0.10969 276646.080000
    535    536     1   0.10969 276646.080000
    535    537     1   0.10969 276646.080000
    538    539     1   0.10969 276646.080000
    538    540     1   0.10969 276646.080000
    541    542     1   0.10969 276646.080000
    541    543     1   0.10969 276646.080000
    544    545     1   0.10969 276646.080000
    544    546     1   0.10969 276646.080000
    547    548     1   0.10969 276646.080000
    547    549     1   0.10969 276646.080000
    552    553     1   0.10969 276646.080000
    552    554     1   0.10969 276646.080000
    555    556     1   0.10969 276646.080000
    555    557     1   0.10969 276646.080000
    558    559     1   0.10969 276646.080000
    558    560     1   0.10969 276646.080000
    561    562     1   0.10969 276646.080000
    561    563     1   0.10969 276646.080000
    564    565     1   0.10969 276646.080000
    564    566     1   0.10969 276646.080000
    567    568     1   0.10969 276646.080000
    567    569     1   0.10969 276646.080000
    570    571     1   0.10969 276646.080000
    570    572     1   0.10969 276646.080000
    573    574     1   0.10969 276646.080000
    573    575     1   0.10969 276646.080000
    576    577     1   0.10969 276646.080000
    576    578     1   0.10969 276646.080000
    581    582     1   0.10969 276646.080000
    581    583     1   0.10969 276646.080000
    584    585     1   0.10969 276646.080000
    584    586     1   0.10969 276646.080000
    587    588     1   0.10969 276646.080000
    587    589     1   0.10969 276646.080000
    590    591     1   0.10969 276646.080000
    590    592     1   0.10969 276646.080000
    593    594     1   0.10969 276646.080000
    593    595     1   0.10969 276646.080000
    596    597     1   0.10969 276646.080000
    596    598     1   0.10969 276646.080000
    599    600     1   0.10969 276646.080000
    599    601     1   0.10969 276646.080000
    602    603     1   0.10969 276646.080000
    602    604     1   0.10969 276646.080000
    605    606     1   0.10969 276646.080000
    605    607     1   0.10969 276646.080000
    610    611     1   0.10969 276646.080000
    610    612     1   0.10969 276646.080000
    613    614     1   0.10969 276646.080000
    613    615     1   0.10969 276646.080000
    616    617     1   0.10969 276646.080000
    616    618     1   0.10969 276646.080000
    619    620     1   0.10969 276646.080000
    619    621     1   0.10969 276646.080000
    622    623     1   0.10969 276646.080000
    622    624     1   0.10969 276646.080000
    625    626     1   0.10969 276646.080000
    625    627     1   0.10969 276646.080000
    628    629     1   0.10969 276646.080000
    628    630     1   0.10969 276646.080000
    631    632     1   0.10969 276646.080000
    631    633     1   0.10969 276646.080000
    634    635     1   0.10969 276646.080000
    634    636     1   0.10969 276646.080000
    638    640     1   0.10969 276646.080000
    639    641     1   0.10969 276646.080000
    642    646     1   0.10969 276646.080000
    643    645     1   0.10969 276646.080000
    644    647     1   0.10961 277566.560000
    649    655     1   0.09730 310787.520000
    650    653     1   0.09730 310787.520000
    651    654     1   0.09730 310787.520000
    652    656     1   0.10969 276646.080000
    652    657     1   0.10969 276646.080000
    658    659     1   0.09730 310787.520000
    661    663     1   0.10969 276646.080000
    662    664     1   0.10969 276646.080000
    665    669     1   0.10969 276646.080000
    666    668     1   0.10969 276646.080000
    667    670     1   0.10961 277566.560000
    672    678     1   0.09730 310787.520000
    673    676     1   0.09730 310787.520000
    674    677     1   0.09730 310787.520000
    675    679     1   0.10969 276646.080000
    675    680     1   0.10969 276646.080000
    681    682     1   0.09730 310787.520000
    684    686     1   0.10969 276646.080000
    685    687     1   0.10969 276646.080000
    688    692     1   0.10969 276646.080000
    689    691     1   0.10969 276646.080000
    690    693     1   0.10961 277566.560000
    695    701     1   0.09730 310787.520000
    696    699     1   0.09730 310787.520000
    697    700     1   0.09730 310787.520000
    698    702     1   0.10969 276646.080000
    698    703     1   0.10969 276646.080000
    704    705     1   0.09730 310787.520000
    707    709     1   0.10969 276646.080000
    708    710     1   0.10969 276646.080000
    711    715     1   0.10969 276646.080000
    712    714     1   0.10969 276646.080000
    713    716     1   0.10961 277566.560000
    718    724     1   0.09730 310787.520000
    719    722     1   0.09730 310787.520000
    720    723     1   0.09730 310787.520000
    721    725     1   0.10969 276646.080000
    721    726     1   0.10969 276646.080000
    727    728     1   0.09730 310787.520000
    730    732     1   0.10969 276646.080000
    731    733     1   0.10969 276646.080000
    734    738     1   0.10969 276646.080000
    735    737     1   0.10969 276646.080000
    736    739     1   0.10961 277566.560000
    741    747     1   0.09730 310787.520000
    742    745     1   0.09730 310787.520000
    743    746     1   0.09730 310787.520000
    744    748     1   0.10969 276646.080000
    744    749     1   0.10969 276646.080000
    750    751     1   0.09730 310787.520000
    753    755     1   0.10969 276646.080000
    754    756     1   0.10969 276646.080000
    757    761     1   0.10969 276646.080000
    758    760     1   0.10969 276646.080000
    759    762     1   0.10961 277566.560000
    764    770     1   0.09730 310787.520000
    765    768     1   0.09730 310787.520000
    766    769     1   0.09730 310787.520000
    767    771     1   0.10969 276646.080000
    767    772     1   0.10969 276646.080000
    773    774     1   0.09730 310787.520000
    776    778     1   0.10969 276646.080000
    777    779     1   0.10969 276646.080000
    780    784     1   0.10969 276646.080000
    781    783     1   0.10969 276646.080000
    782    785     1   0.10961 277566.560000
    787    793     1   0.09730 310787.520000
    788    791     1   0.09730 310787.520000
    789    792     1   0.09730 310787.520000
    790    794     1   0.10969 276646.080000
    790    795     1   0.10969 276646.080000
    796    797     1   0.09730 310787.520000
    799    801     1   0.10969 276646.080000
    800    802     1   0.10969 276646.080000
    803    807     1   0.10969 276646.080000
    804    806     1   0.10969 276646.080000
    805    808     1   0.10961 277566.560000
    810    816     1   0.09730 310787.520000
    811    814     1   0.09730 310787.520000
    812    815     1   0.09730 310787.520000
    813    817     1   0.10969 276646.080000
    813    818     1   0.10969 276646.080000
    819    820     1   0.09730 310787.520000
    822    824     1   0.10969 276646.080000
    823    825     1   0.10969 276646.080000
    826    830     1   0.10969 276646.080000
    827    829     1   0.10969 276646.080000
    828    831     1   0.10961 277566.560000
    833    839     1   0.09730 310787.520000
    834    837     1   0.09730 310787.520000
    835    838     1   0.09730 310787.520000
    836    840     1   0.10969 276646.080000
    836    841     1   0.10969 276646.080000
    842    843     1   0.09730 310787.520000
    845    847     1   0.10969 276646.080000
    846    848     1   0.10969 276646.080000
    849    853     1   0.10969 276646.080000
    850    852     1   0.10969 276646.080000
    851    854     1   0.10961 277566.560000
    856    862     1   0.09730 310787.520000
    857    860     1   0.09730 310787.520000
    858    861     1   0.09730 310787.520000
    859    863     1   0.10969 276646.080000
    859    864     1   0.10969 276646.080000
    865    866     1   0.09730 310787.520000
    868    870     1   0.10969 276646.080000
    869    871     1   0.10969 276646.080000
    872    876     1   0.10969 276646.080000
    873    875     1   0.10969 276646.080000
    874    877     1   0.10961 277566.560000
    879    885     1   0.09730 310787.520000
    880    883     1   0.09730 310787.520000
    881    884     1   0.09730 310787.520000
    882    886     1   0.10969 276646.080000
    882    887     1   0.10969 276646.080000
    888    889     1   0.09730 310787.520000
    891    893     1   0.10969 276646.080000
    892    894     1   0.10969 276646.080000
    895    899     1   0.10969 276646.080000
    896    898     1   0.10969 276646.080000
    897    900     1   0.10961 277566.560000
    902    908     1   0.09730 310787.520000
    903    906     1   0.09730 310787.520000
    904    907     1   0.09730 310787.520000
    905    909     1   0.10969 276646.080000
    905    910     1   0.10969 276646.080000
    911    912     1   0.09730 310787.520000
    914    916     1   0.10969 276646.080000
    915    917     1   0.10969 276646.080000
    918    922     1   0.10969 276646.080000
    919    921     1   0.10969 276646.080000
    920    923     1   0.10961 277566.560000
    925    931     1   0.09730 310787.520000
    926    929     1   0.09730 310787.520000
    927    930     1   0.09730 310787.520000
    928    932     1   0.10969 276646.080000
    928    933     1   0.10969 276646.080000
    934    935     1   0.09730 310787.520000
    937    939     1   0.10969 276646.080000
    938    940     1   0.10969 276646.080000
    941    945     1   0.10969 276646.080000
    942    944     1   0.10969 276646.080000
    943    946     1   0.10961 277566.560000
    948    954     1   0.09730 310787.520000
    949    952     1   0.09730 310787.520000
    950    953     1   0.09730 310787.520000
    951    955     1   0.10969 276646.080000
    951    956     1   0.10969 276646.080000
    957    958     1   0.09730 310787.520000
    960    962     1   0.10969 276646.080000
    961    963     1   0.10969 276646.080000
    964    968     1   0.10969 276646.080000
    965    967     1   0.10969 276646.080000
    966    969     1   0.10961 277566.560000
    971    977     1   0.09730 310787.520000
    972    975     1   0.09730 310787.520000
    973    976     1   0.09730 310787.520000
    974    978     1   0.10969 276646.080000
    974    979     1   0.10969 276646.080000
    980    981     1   0.09730 310787.520000
    983    985     1   0.10969 276646.080000
    984    986     1   0.10969 276646.080000
    987    991     1   0.10969 276646.080000
    988    990     1   0.10969 276646.080000
    989    992     1   0.10961 277566.560000
    994   1000     1   0.09730 310787.520000
    995    998     1   0.09730 310787.520000
    996    999     1   0.09730 310787.520000
    997   1001     1   0.10969 276646.080000
    997   1002     1   0.10969 276646.080000
   1003   1004     1   0.09730 310787.520000
   1006   1008     1   0.10969 276646.080000
   1007   1009     1   0.10969 276646.080000
   1010   1014     1   0.10969 276646.080000
   1011   1013     1   0.10969 276646.080000
   1012   1015     1   0.10961 277566.560000
   1017   1023     1   0.09730 310787.520000
   1018   1021     1   0.09730 310787.520000
   1019   1022     1   0.09730 310787.520000
   1020   1024     1   0.10969 276646.080000
   1020   1025     1   0.10969 276646.080000
   1026   1027     1   0.09730 310787.520000
   1029   1031     1   0.10969 276646.080000
   1030   1032     1   0.10969 276646.080000
   1033   1037     1   0.10969 276646.080000
   1034   1036     1   0.10969 276646.080000
   1035   1038     1   0.10961 277566.560000
   1040   1046     1   0.09730 310787.520000
   1041   1044     1   0.09730 310787.520000
   1042   1045     1   0.09730 310787.520000
   1043   1047     1   0.10969 276646.080000
   1043   1048     1   0.10969 276646.080000
   1049   1050     1   0.09730 310787.520000
   1052   1054     1   0.10969 276646.080000
   1053   1055     1   0.10969 276646.080000
   1056   1060     1   0.10969 276646.080000
   1057   1059     1   0.10969 276646.080000
   1058   1061     1   0.10961 277566.560000
   1063   1069     1   0.09730 310787.520000
   1064   1067     1   0.09730 310787.520000
   1065   1068     1   0.09730 310787.520000
   1066   1070     1   0.10969 276646.080000
   1066   1071     1   0.10969 276646.080000
   1072   1073     1   0.09730 310787.520000
   1075   1077     1   0.10969 276646.080000
   1076   1078     1   0.10969 276646.080000
   1079   1083     1   0.10969 276646.080000
   1080   1082     1   0.10969 276646.080000
   1081   1084     1   0.10961 277566.560000
   1086   1092     1   0.09730 310787.520000
   1087   1090     1   0.09730 310787.520000
   1088   1091     1   0.09730 310787.520000
   1089   1093     1   0.10969 276646.080000
   1089   1094     1   0.10969 276646.080000
   1095   1096     1   0.09730 310787.520000
   1098   1100     1   0.10969 276646.080000
   1099   1101     1   0.10969 276646.080000
   1102   1106     1   0.10969 276646.080000
   1103   1105     1   0.10969 276646.080000
   1104   1107     1   0.10961 277566.560000
   1109   1115     1   0.09730 310787.520000
   1110   1113     1   0.09730 310787.520000
   1111   1114     1   0.09730 310787.520000
   1112   1116     1   0.10969 276646.080000
   1112   1117     1   0.10969 276646.080000
   1118   1119     1   0.09730 310787.520000
   1121   1123     1   0.10969 276646.080000
   1122   1124     1   0.10969 276646.080000
   1125   1129     1   0.10969 276646.080000
   1126   1128     1   0.10969 276646.080000
   1127   1130     1   0.10961 277566.560000
   1132   1138     1   0.09730 310787.520000
   1133   1136     1   0.09730 310787.520000
   1134   1137     1   0.09730 310787.520000
   1135   1139     1   0.10969 276646.080000
   1135   1140     1   0.10969 276646.080000
   1141   1142     1   0.09730 310787.520000
   1144   1146     1   0.10969 276646.080000
   1145   1147     1   0.10969 276646.080000
   1148   1152     1   0.10969 276646.080000
   1149   1151     1   0.10969 276646.080000
   1150   1153     1   0.10961 277566.560000
   1155   1161     1   0.09730 310787.520000
   1156   1159     1   0.09730 310787.520000
   1157   1160     1   0.09730 310787.520000
   1158   1162     1   0.10969 276646.080000
   1158   1163     1   0.10969 276646.080000
   1164   1165     1   0.09730 310787.520000
   1167   1169     1   0.10969 276646.080000
   1168   1170     1   0.10969 276646.080000
   1171   1175     1   0.10969 276646.080000
   1172   1174     1   0.10969 276646.080000
   1173   1176     1   0.10961 277566.560000
   1178   1184     1   0.09730 310787.520000
   1179   1182     1   0.09730 310787.520000
   1180   1183     1   0.09730 310787.520000
   1181   1185     1   0.10969 276646.080000
   1181   1186     1   0.10969 276646.080000
   1187   1188     1   0.09730 310787.520000

[ pairs ]
;    ai     aj funct         c0         c1         c2         c3
      1     26     1
      1     20     1
      1     23     1
      2     17     1
      2     11     1
      2    115     1
      5     14     1
      5     11     1
      5     57     1
      8     14     1
      8     17     1
      8     86     1
     11     77     1
     14    106     1
     17     48     1
     20     39     1
     23     68     1
     26     97     1
     29     54     1
     29     51     1
     29     48     1
     30     45     1
     30     39     1
     30    173     1
     33     42     1
     33     39     1
     33    144     1
     36     42     1
     36     45     1
     36     57     1
     42    164     1
     45    135     1
     51    126     1
     54    155     1
     58     83     1
     58     80     1
     58     77     1
     59     74     1
     59     68     1
     59    231     1
     62     71     1
     62     68     1
     62    202     1
     65     71     1
     65     74     1
     65     86     1
     71    222     1
     74    193     1
     80    184     1
     83    213     1
     87    112     1
     87    109     1
     87    106     1
     88    103     1
     88     97     1
     88    289     1
     91    100     1
     91     97     1
     91    260     1
     94    100     1
     94    103     1
     94    115     1
    100    280     1
    103    251     1
    109    242     1
    112    271     1
    116    141     1
    116    138     1
    116    135     1
    117    132     1
    117    126     1
    117    347     1
    120    129     1
    120    126     1
    120    318     1
    123    129     1
    123    132     1
    123    144     1
    129    338     1
    132    309     1
    138    300     1
    141    329     1
    145    170     1
    145    167     1
    145    164     1
    146    161     1
    146    155     1
    146    405     1
    149    158     1
    149    155     1
    149    376     1
    152    158     1
    152    161     1
    152    173     1
    158    396     1
    161    367     1
    167    358     1
    170    387     1
    174    199     1
    174    196     1
    174    193     1
    175    190     1
    175    184     1
    175    463     1
    178    187     1
    178    184     1
    178    434     1
    181    187     1
    181    190     1
    181    202     1
    187    454     1
    190    425     1
    196    416     1
    199    445     1
    203    228     1
    203    225     1
    203    222     1
    204    219     1
    204    213     1
    204    521     1
    207    216     1
    207    213     1
    207    492     1
    210    216     1
    210    219     1
    210    231     1
    216    512     1
    219    483     1
    225    474     1
    228    503     1
    232    257     1
    232    254     1
    232    251     1
    233    248     1
    233    242     1
    233    579     1
    236    245     1
    236    242     1
    236    550     1
    239    245     1
    239    248     1
    239    260     1
    245    570     1
    248    541     1
    254    532     1
    257    561     1
    261    286     1
    261    283     1
    261    280     1
    262    277     1
    262    271     1
    262    637     1
    265    274     1
    265    271     1
    265    608     1
    268    274     1
    268    277     1
    268    289     1
    274    628     1
    277    599     1
    283    590     1
    286    619     1
    290    315     1
    290    312     1
    290    309     1
    291    306     1
    291    300     1
    291    671     1
    294    303     1
    294    300     1
    294    648     1
    297    303     1
    297    306     1
    297    318     1
    303    667     1
    306    644     1
    312    643     1
    312    660     1
    315    683     1
    315    666     1
    319    344     1
    319    341     1
    319    338     1
    320    335     1
    320    329     1
    320    717     1
    323    332     1
    323    329     1
    323    694     1
    326    332     1
    326    335     1
    326    347     1
    332    713     1
    335    690     1
    341    689     1
    341    706     1
    344    729     1
    344    712     1
    348    373     1
    348    370     1
    348    367     1
    349    364     1
    349    358     1
    349    763     1
    352    361     1
    352    358     1
    352    740     1
    355    361     1
    355    364     1
    355    376     1
    361    759     1
    364    736     1
    370    735     1
    370    752     1
    373    775     1
    373    758     1
    377    402     1
    377    399     1
    377    396     1
    378    393     1
    378    387     1
    378    809     1
    381    390     1
    381    387     1
    381    786     1
    384    390     1
    384    393     1
    384    405     1
    390    805     1
    393    782     1
    399    781     1
    399    798     1
    402    821     1
    402    804     1
    406    431     1
    406    428     1
    406    425     1
    407    422     1
    407    416     1
    407    855     1
    410    419     1
    410    416     1
    410    832     1
    413    419     1
    413    422     1
    413    434     1
    419    851     1
    422    828     1
    428    827     1
    428    844     1
    431    867     1
    431    850     1
    435    460     1
    435    457     1
    435    454     1
    436    451     1
    436    445     1
    436    901     1
    439    448     1
    439    445     1
    439    878     1
    442    448     1
    442    451     1
    442    463     1
    448    897     1
    451    874     1
    457    873     1
    457    890     1
    460    913     1
    460    896     1
    464    489     1
    464    486     1
    464    483     1
    465    480     1
    465    474     1
    465    947     1
    468    477     1
    468    474     1
    468    924     1
    471    477     1
    471    480     1
    471    492     1
    477    943     1
    480    920     1
    486    919     1
    486    936     1
    489    959     1
    489    942     1
    493    518     1
    493    515     1
    493    512     1
    494    509     1
    494    503     1
    494    993     1
    497    506     1
    497    503     1
    497    970     1
    500    506     1
    500    509     1
    500    521     1
    506    989     1
    509    966     1
    515    965     1
    515    982     1
    518   1005     1
    518    988     1
    522    547     1
    522    544     1
    522    541     1
    523    538     1
    523    532     1
    523   1039     1
    526    535     1
    526    532     1
    526   1016     1
    529    535     1
    529    538     1
    529    550     1
    535   1035     1
    538   1012     1
    544   1011     1
    544   1028     1
    547   1051     1
    547   1034     1
    551    576     1
    551    573     1
    551    570     1
    552    567     1
    552    561     1
    552   1085     1
    555    564     1
    555    561     1
    555   1062     1
    558    564     1
    558    567     1
    558    579     1
    564   1081     1
    567   1058     1
    573   1057     1
    573   1074     1
    576   1097     1
    576   1080     1
    580    605     1
    580    602     1
    580    599     1
    581    596     1
    581    590     1
    581   1131     1
    584    593     1
    584    590     1
    584   1108     1
    587    593     1
    587    596     1
    587    608     1
    593   1127     1
    596   1104     1
    602   1103     1
    602   1120     1
    605   1143     1
    605   1126     1
    609    634     1
    609    631     1
    609    628     1
    610    625     1
    610    619     1
    610   1177     1
    613    622     1
    613    619     1
    613   1154     1
    616    622     1
    616    625     1
    616    637     1
    622   1173     1
    625   1150     1
    631   1149     1
    631   1166     1
    634   1189     1
    634   1172     1
    638    643     1
    638    650     1
    638    648     1
    639    658     1
    639    644     1
    639    649     1
    642    652     1
    642    660     1
    642    648     1
    643    651     1
    644    650     1
    644    652     1
    648    649     1
    649    650     1
    649    660     1
    650    651     1
    651    652     1
    651    660     1
    658    660     1
    661    666     1
    661    673     1
    661    671     1
    662    667     1
    662    672     1
    662    681     1
    665    671     1
    665    683     1
    665    675     1
    666    674     1
    667    675     1
    667    673     1
    671    672     1
    672    683     1
    672    673     1
    673    674     1
    674    675     1
    674    683     1
    681    683     1
    684    689     1
    684    696     1
    684    694     1
    685    704     1
    685    690     1
    685    695     1
    688    698     1
    688    706     1
    688    694     1
    689    697     1
    690    696     1
    690    698     1
    694    695     1
    695    696     1
    695    706     1
    696    697     1
    697    698     1
    697    706     1
    704    706     1
    707    712     1
    707    719     1
    707    717     1
    708    713     1
    708    718     1
    708    727     1
    711    717     1
    711    729     1
    711    721     1
    712    720     1
    713    721     1
    713    719     1
    717    718     1
    718    729     1
    718    719     1
    719    720     1
    720    721     1
    720    729     1
    727    729     1
    730    735     1
    730    742     1
    730    740     1
    731    750     1
    731    736     1
    731    741     1
    734    744     1
    734    752     1
    734    740     1
    735    743     1
    736    742     1
    736    744     1
    740    741     1
    741    742     1
    741    752     1
    742    743     1
    743    744     1
    743    752     1
    750    752     1
    753    758     1
    753    765     1
    753    763     1
    754    759     1
    754    764     1
    754    773     1
    757    763     1
    757    775     1
    757    767     1
    758    766     1
    759    767     1
    759    765     1
    763    764     1
    764    775     1
    764    765     1
    765    766     1
    766    767     1
    766    775     1
    773    775     1
    776    781     1
    776    788     1
    776    786     1
    777    796     1
    777    782     1
    777    787     1
    780    790     1
    780    798     1
    780    786     1
    781    789     1
    782    788     1
    782    790     1
    786    787     1
    787    788     1
    787    798     1
    788    789     1
    789    790     1
    789    798     1
    796    798     1
    799    804     1
    799    811     1
    799    809     1
    800    805     1
    800    810     1
    800    819     1
    803    809     1
    803    821     1
    803    813     1
    804    812     1
    805    813     1
    805    811     1
    809    810     1
    810    821     1
    810    811     1
    811    812     1
    812    813     1
    812    821     1
    819    821     1
    822    827     1
    822    834     1
    822    832     1
    823    842     1
    823    828     1
    823    833     1
    826    836     1
    826    844     1
    826    832     1
    827    835     1
    828    834     1
    828    836     1
    832    833     1
    833    834     1
    833    844     1
    834    835     1
    835    836     1
    835    844     1
    842    844     1
    845    850     1
    845    857     1
    845    855     1
    846    851     1
    846    856     1
    846    865     1
    849    855     1
    849    867     1
    849    859     1
    850    858     1
    851    859     1
    851    857     1
    855    856     1
    856    867     1
    856    857     1
    857    858     1
    858    859     1
    858    867     1
    865    867     1
    868    873     1
    868    880     1
    868    878     1
    869    888     1
    869    874     1
    869    879     1
    872    882     1
    872    890     1
    872    878     1
    873    881     1
    874    880     1
    874    882     1
    878    879     1
    879    880     1
    879    890     1
    880    881     1
    881    882     1
    881    890     1
    888    890     1
    891    896     1
    891    903     1
    891    901     1
    892    897     1
    892    902     1
    892    911     1
    895    901     1
    895    913     1
    895    905     1
    896    904     1
    897    905     1
    897    903     1
    901    902     1
    902    913     1
    902    903     1
    903    904     1
    904    905     1
    904    913     1
    911    913     1
    914    919     1
    914    926     1
    914    924     1
    915    934     1
    915    920     1
    915    925     1
    918    928     1
    918    936     1
    918    924     1
    919    927     1
    920    926     1
    920    928     1
    924    925     1
    925    926     1
    925    936     1
    926    927     1
    927    928     1
    927    936     1
    934    936     1
    937    942     1
    937    949     1
    937    947     1
    938    943     1
    938    948     1
    938    957     1
    941    947     1
    941    959     1
    941    951     1
    942    950     1
    943    951     1
    943    949     1
    947    948     1
    948    959     1
    948    949     1
    949    950     1
    950    951     1
    950    959     1
    957    959     1
    960    965     1
    960    972     1
    960    970     1
    961    980     1
    961    966     1
    961    971     1
    964    974     1
    964    982     1
    964    970     1
    965    973     1
    966    972     1
    966    974     1
    970    971     1
    971    972     1
    971    982     1
    972    973     1
    973    974     1
    973    982     1
    980    982     1
    983    988     1
    983    995     1
    983    993     1
    984    989     1
    984    994     1
    984   1003     1
    987    993     1
    987   1005     1
    987    997     1
    988    996     1
    989    997     1
    989    995     1
    993    994     1
    994   1005     1
    994    995     1
    995    996     1
    996    997     1
    996   1005     1
   1003   1005     1
   1006   1011     1
   1006   1018     1
   1006   1016     1
   1007   1026     1
   1007   1012     1
   1007   1017     1
   1010   1020     1
   1010   1028     1
   1010   1016     1
   1011   1019     1
   1012   1018     1
   1012   1020     1
   1016   1017     1
   1017   1018     1
   1017   1028     1
   1018   1019     1
   1019   1020     1
   1019   1028     1
   1026   1028     1
   1029   1034     1
   1029   1041     1
   1029   1039     1
   1030   1035     1
   1030   1040     1
   1030   1049     1
   1033   1039     1
   1033   1051     1
   1033   1043     1
   1034   1042     1
   1035   1043     1
   1035   1041     1
   1039   1040     1
   1040   1051     1
   1040   1041     1
   1041   1042     1
   1042   1043     1
   1042   1051     1
   1049   1051     1
   1052   1057     1
   1052   1064     1
   1052   1062     1
   1053   1072     1
   1053   1058     1
   1053   1063     1
   1056   1066     1
   1056   1074     1
   1056   1062     1
   1057   1065     1
   1058   1064     1
   1058   1066     1
   1062   1063     1
   1063   1064     1
   1063   1074     1
   1064   1065     1
   1065   1066     1
   1065   1074     1
   1072   1074     1
   1075   1080     1
   1075   1087     1
   1075   1085     1
   1076   1081     1
   1076   1086     1
   1076   1095     1
   1079   1085     1
   1079   1097     1
   1079   1089     1
   1080   1088     1
   1081   1089     1
   1081   1087     1
   1085   1086     1
   1086   1097     1
   1086   1087     1
   1087   1088     1
   1088   1089     1
   1088   1097     1
   1095   1097     1
   1098   1103     1
   1098   1110     1
   1098   1108     1
   1099   1118     1
   1099   1104     1
   1099   1109     1
   1102   1112     1
   1102   1120     1
   1102   1108     1
   1103   1111     1
   1104   1110     1
   1104   1112     1
   1108   1109     1
   1109   1110     1
   1109   1120     1
   1110   1111     1
   1111   1112     1
   1111   1120     1
   1118   1120     1
   1121   1126     1
   1121   1133     1
   1121   1131     1
   1122   1127     1
   1122   1132     1
   1122   1141     1
   1125   1131     1
   1125   1143     1
   1125   1135     1
   1126   1134     1
   1127   1135     1
   1127   1133     1
   1131   1132     1
   1132   1143     1
   1132   1133     1
   1133   1134     1
   1134   1135     1
   1134   1143     1
   1141   1143     1
   1144   1149     1
   1144   1156     1
   1144   1154     1
   1145   1164     1
   1145   1150     1
   1145   1155     1
   1148   1158     1
   1148   1166     1
   1148   1154     1
   1149   1157     1
   1150   1156     1
   1150   1158     1
   1154   1155     1
   1155   1156     1
   1155   1166     1
   1156   1157     1
   1157   1158     1
   1157   1166     1
   1164   1166     1
   1167   1172     1
   1167   1179     1
   1167   1177     1
   1168   1173     1
   1168   1178     1
   1168   1187     1
   1171   1177     1
   1171   1189     1
   1171   1181     1
   1172   1180     1
   1173   1181     1
   1173   1179     1
   1177   1178     1
   1178   1189     1
   1178   1179     1
   1179   1180     1
   1180   1181     1
   1180   1189     1
   1187   1189     1
      1     15     1
      1     16     1
      1     18     1
      1     19     1
      1     12     1
      1     13     1
      2      6     1
      2      7     1
      2      9     1
      2     10     1
      2     27     1
      2     28     1
      5      3     1
      8      3     1
      3     26     1
      3     15     1
      3     16     1
      5      4     1
      8      4     1
      4     26     1
      4     15     1
      4     16     1
      5      9     1
      5     10     1
      5     21     1
      5     22     1
      8      6     1
      6     20     1
      6     18     1
      6     19     1
      8      7     1
      7     20     1
      7     18     1
      7     19     1
      8     24     1
      8     25     1
      9     23     1
      9     12     1
      9     13     1
     10     23     1
     10     12     1
     10     13     1
     12     86     1
     12     24     1
     12     25     1
     13     86     1
     13     24     1
     13     25     1
     15    115     1
     15     27     1
     15     28     1
     16    115     1
     16     27     1
     16     28     1
     18     57     1
     18     21     1
     18     22     1
     19     57     1
     19     21     1
     19     22     1
     20     49     1
     20     50     1
     21     48     1
     22     48     1
     23     78     1
     23     79     1
     24     77     1
     25     77     1
     26    107     1
     26    108     1
     27    106     1
     28    106     1
     29     43     1
     29     44     1
     29     46     1
     29     47     1
     29     40     1
     29     41     1
     30     34     1
     30     35     1
     30     37     1
     30     38     1
     30     55     1
     30     56     1
     31     33     1
     31     36     1
     31     54     1
     31     43     1
     31     44     1
     32     33     1
     32     36     1
     32     54     1
     32     43     1
     32     44     1
     33     37     1
     33     38     1
     33     52     1
     33     53     1
     34     36     1
     34     51     1
     34     46     1
     34     47     1
     35     36     1
     35     51     1
     35     46     1
     35     47     1
     36     49     1
     36     50     1
     37     48     1
     37     40     1
     37     41     1
     38     48     1
     38     40     1
     38     41     1
     40     57     1
     40     49     1
     40     50     1
     41     57     1
     41     49     1
     41     50     1
     43    173     1
     43     55     1
     43     56     1
     44    173     1
     44     55     1
     44     56     1
     46    144     1
     46     52     1
     46     53     1
     47    144     1
     47     52     1
     47     53     1
     51    136     1
     51    137     1
     52    135     1
     53    135     1
     54    165     1
     54    166     1
     55    164     1
     56    164     1
     58     72     1
     58     73     1
     58     75     1
     58     76     1
     58     69     1
     58     70     1
     59     63     1
     59     64     1
     59     66     1
     59     67     1
     59     84     1
     59     85     1
     60     62     1
     60     65     1
     60     83     1
     60     72     1
     60     73     1
     61     62     1
     61     65     1
     61     83     1
     61     72     1
     61     73     1
     62     66     1
     62     67     1
     62     81     1
     62     82     1
     63     65     1
     63     80     1
     63     75     1
     63     76     1
     64     65     1
     64     80     1
     64     75     1
     64     76     1
     65     78     1
     65     79     1
     66     77     1
     66     69     1
     66     70     1
     67     77     1
     67     69     1
     67     70     1
     69     86     1
     69     78     1
     69     79     1
     70     86     1
     70     78     1
     70     79     1
     72    231     1
     72     84     1
     72     85     1
     73    231     1
     73     84     1
     73     85     1
     75    202     1
     75     81     1
     75     82     1
     76    202     1
     76     81     1
     76     82     1
     80    194     1
     80    195     1
     81    193     1
     82    193     1
     83    223     1
     83    224     1
     84    222     1
     85    222     1
     87    101     1
     87    102     1
     87    104     1
     87    105     1
     87     98     1
     87     99     1
     88     92     1
     88     93     1
     88     95     1
     88     96     1
     88    113     1
     88    114     1
     89     91     1
     89     94     1
     89    112     1
     89    101     1
     89    102     1
     90     91     1
     90     94     1
     90    112     1
     90    101     1
     90    102     1
     91     95     1
     91     96     1
     91    110     1
     91    111     1
     92     94     1
     92    109     1
     92    104     1
     92    105     1
     93     94     1
     93    109     1
     93    104     1
     93    105     1
     94    107     1
     94    108     1
     95    106     1
     95     98     1
     95     99     1
     96    106     1
     96     98     1
     96     99     1
     98    115     1
     98    107     1
     98    108     1
     99    115     1
     99    107     1
     99    108     1
    101    289     1
    101    113     1
    101    114     1
    102    289     1
    102    113     1
    102    114     1
    104    260     1
    104    110     1
    104    111     1
    105    260     1
    105    110     1
    105    111     1
    109    252     1
    109    253     1
    110    251     1
    111    251     1
    112    281     1
    112    282     1
    113    280     1
    114    280     1
    116    130     1
    116    131     1
    116    133     1
    116    134     1
    116    127     1
    116    128     1
    117    121     1
    117    122     1
    117    124     1
    117    125     1
    117    142     1
    117    143     1
    118    120     1
    118    123     1
    118    141     1
    118    130     1
    118    131     1
    119    120     1
    119    123     1
    119    141     1
    119    130     1
    119    131     1
    120    124     1
    120    125     1
    120    139     1
    120    140     1
    121    123     1
    121    138     1
    121    133     1
    121    134     1
    122    123     1
    122    138     1
    122    133     1
    122    134     1
    123    136     1
    123    137     1
    124    135     1
    124    127     1
    124    128     1
    125    135     1
    125    127     1
    125    128     1
    127    144     1
    127    136     1
    127    137     1
    128    144     1
    128    136     1
    128    137     1
    130    347     1
    130    142     1
    130    143     1
    131    347     1
    131    142     1
    131    143     1
    133    318     1
    133    139     1
    133    140     1
    134    318     1
    134    139     1
    134    140     1
    138    310     1
    138    311     1
    139    309     1
    140    309     1
    141    339     1
    141    340     1
    142    338     1
    143    338     1
    145    159     1
    145    160     1
    145    162     1
    145    163     1
    145    156     1
    145    157     1
    146    150     1
    146    151     1
    146    153     1
    146    154     1
    146    171     1
    146    172     1
    147    149     1
    147    152     1
    147    170     1
    147    159     1
    147    160     1
    148    149     1
    148    152     1
    148    170     1
    148    159     1
    148    160     1
    149    153     1
    149    154     1
    149    168     1
    149    169     1
    150    152     1
    150    167     1
    150    162     1
    150    163     1
    151    152     1
    151    167     1
    151    162     1
    151    163     1
    152    165     1
    152    166     1
    153    164     1
    153    156     1
    153    157     1
    154    164     1
    154    156     1
    154    157     1
    156    173     1
    156    165     1
    156    166     1
    157    173     1
    157    165     1
    157    166     1
    159    405     1
    159    171     1
    159    172     1
    160    405     1
    160    171     1
    160    172     1
    162    376     1
    162    168     1
    162    169     1
    163    376     1
    163    168     1
    163    169     1
    167    368     1
    167    369     1
    168    367     1
    169    367     1
    170    397     1
    170    398     1
    171    396     1
    172    396     1
    174    188     1
    174    189     1
    174    191     1
    174    192     1
    174    185     1
    174    186     1
    175    179     1
    175    180     1
    175    182     1
    175    183     1
    175    200     1
    175    201     1
    176    178     1
    176    181     1
    176    199     1
    176    188     1
    176    189     1
    177    178     1
    177    181     1
    177    199     1
    177    188     1
    177    189     1
    178    182     1
    178    183     1
    178    197     1
    178    198     1
    179    181     1
    179    196     1
    179    191     1
    179    192     1
    180    181     1
    180    196     1
    180    191     1
    180    192     1
    181    194     1
    181    195     1
    182    193     1
    182    185     1
    182    186     1
    183    193     1
    183    185     1
    183    186     1
    185    202     1
    185    194     1
    185    195     1
    186    202     1
    186    194     1
    186    195     1
    188    463     1
    188    200     1
    188    201     1
    189    463     1
    189    200     1
    189    201     1
    191    434     1
    191    197     1
    191    198     1
    192    434     1
    192    197     1
    192    198     1
    196    426     1
    196    427     1
    197    425     1
    198    425     1
    199    455     1
    199    456     1
    200    454     1
    201    454     1
    203    217     1
    203    218     1
    203    220     1
    203    221     1
    203    214     1
    203    215     1
    204    208     1
    204    209     1
    204    211     1
    204    212     1
    204    229     1
    204    230     1
    205    207     1
    205    210     1
    205    228     1
    205    217     1
    205    218     1
    206    207     1
    206    210     1
    206    228     1
    206    217     1
    206    218     1
    207    211     1
    207    212     1
    207    226     1
    207    227     1
    208    210     1
    208    225     1
    208    220     1
    208    221     1
    209    210     1
    209    225     1
    209    220     1
    209    221     1
    210    223     1
    210    224     1
    211    222     1
    211    214     1
    211    215     1
    212    222     1
    212    214     1
    212    215     1
    214    231     1
    214    223     1
    214    224     1
    215    231     1
    215    223     1
    215    224     1
    217    521     1
    217    229     1
    217    230     1
    218    521     1
    218    229     1
    218    230     1
    220    492     1
    220    226     1
    220    227     1
    221    492     1
    221    226     1
    221    227     1
    225    484     1
    225    485     1
    226    483     1
    227    483     1
    228    513     1
    228    514     1
    229    512     1
    230    512     1
    232    246     1
    232    247     1
    232    249     1
    232    250     1
    232    243     1
    232    244     1
    233    237     1
    233    238     1
    233    240     1
    233    241     1
    233    258     1
    233    259     1
    234    236     1
    234    239     1
    234    257     1
    234    246     1
    234    247     1
    235    236     1
    235    239     1
    235    257     1
    235    246     1
    235    247     1
    236    240     1
    236    241     1
    236    255     1
    236    256     1
    237    239     1
    237    254     1
    237    249     1
    237    250     1
    238    239     1
    238    254     1
    238    249     1
    238    250     1
    239    252     1
    239    253     1
    240    251     1
    240    243     1
    240    244     1
    241    251     1
    241    243     1
    241    244     1
    243    260     1
    243    252     1
    243    253     1
    244    260     1
    244    252     1
    244    253     1
    246    579     1
    246    258     1
    246    259     1
    247    579     1
    247    258     1
    247    259     1
    249    550     1
    249    255     1
    249    256     1
    250    550     1
    250    255     1
    250    256     1
    254    542     1
    254    543     1
    255    541     1
    256    541     1
    257    571     1
    257    572     1
    258    570     1
    259    570     1
    261    275     1
    261    276     1
    261    278     1
    261    279     1
    261    272     1
    261    273     1
    262    266     1
    262    267     1
    262    269     1
    262    270     1
    262    287     1
    262    288     1
    263    265     1
    263    268     1
    263    286     1
    263    275     1
    263    276     1
    264    265     1
    264    268     1
    264    286     1
    264    275     1
    264    276     1
    265    269     1
    265    270     1
    265    284     1
    265    285     1
    266    268     1
    266    283     1
    266    278     1
    266    279     1
    267    268     1
    267    283     1
    267    278     1
    267    279     1
    268    281     1
    268    282     1
    269    280     1
    269    272     1
    269    273     1
    270    280     1
    270    272     1
    270    273     1
    272    289     1
    272    281     1
    272    282     1
    273    289     1
    273    281     1
    273    282     1
    275    637     1
    275    287     1
    275    288     1
    276    637     1
    276    287     1
    276    288     1
    278    608     1
    278    284     1
    278    285     1
    279    608     1
    279    284     1
    279    285     1
    283    600     1
    283    601     1
    284    599     1
    285    599     1
    286    629     1
    286    630     1
    287    628     1
    288    628     1
    290    304     1
    290    305     1
    290    307     1
    290    308     1
    290    301     1
    290    302     1
    291    295     1
    291    296     1
    291    298     1
    291    299     1
    291    316     1
    291    317     1
    292    294     1
    292    297     1
    292    315     1
    292    304     1
    292    305     1
    293    294     1
    293    297     1
    293    315     1
    293    304     1
    293    305     1
    294    298     1
    294    299     1
    294    313     1
    294    314     1
    295    297     1
    295    312     1
    295    307     1
    295    308     1
    296    297     1
    296    312     1
    296    307     1
    296    308     1
    297    310     1
    297    311     1
    298    309     1
    298    301     1
    298    302     1
    299    309     1
    299    301     1
    299    302     1
    301    318     1
    301    310     1
    301    311     1
    302    318     1
    302    310     1
    302    311     1
    304    671     1
    304    316     1
    304    317     1
    305    671     1
    305    316     1
    305    317     1
    307    648     1
    307    313     1
    307    314     1
    308    648     1
    308    313     1
    308    314     1
    312    647     1
    313    644     1
    314    644     1
    315    670     1
    316    667     1
    317    667     1
    319    333     1
    319    334     1
    319    336     1
    319    337     1
    319    330     1
    319    331     1
    320    324     1
    320    325     1
    320    327     1
    320    328     1
    320    345     1
    320    346     1
    321    323     1
    321    326     1
    321    344     1
    321    333     1
    321    334     1
    322    323     1
    322    326     1
    322    344     1
    322    333     1
    322    334     1
    323    327     1
    323    328     1
    323    342     1
    323    343     1
    324    326     1
    324    341     1
    324    336     1
    324    337     1
    325    326     1
    325    341     1
    325    336     1
    325    337     1
    326    339     1
    326    340     1
    327    338     1
    327    330     1
    327    331     1
    328    338     1
    328    330     1
    328    331     1
    330    347     1
    330    339     1
    330    340     1
    331    347     1
    331    339     1
    331    340     1
    333    717     1
    333    345     1
    333    346     1
    334    717     1
    334    345     1
    334    346     1
    336    694     1
    336    342     1
    336    343     1
    337    694     1
    337    342     1
    337    343     1
    341    693     1
    342    690     1
    343    690     1
    344    716     1
    345    713     1
    346    713     1
    348    362     1
    348    363     1
    348    365     1
    348    366     1
    348    359     1
    348    360     1
    349    353     1
    349    354     1
    349    356     1
    349    357     1
    349    374     1
    349    375     1
    350    352     1
    350    355     1
    350    373     1
    350    362     1
    350    363     1
    351    352     1
    351    355     1
    351    373     1
    351    362     1
    351    363     1
    352    356     1
    352    357     1
    352    371     1
    352    372     1
    353    355     1
    353    370     1
    353    365     1
    353    366     1
    354    355     1
    354    370     1
    354    365     1
    354    366     1
    355    368     1
    355    369     1
    356    367     1
    356    359     1
    356    360     1
    357    367     1
    357    359     1
    357    360     1
    359    376     1
    359    368     1
    359    369     1
    360    376     1
    360    368     1
    360    369     1
    362    763     1
    362    374     1
    362    375     1
    363    763     1
    363    374     1
    363    375     1
    365    740     1
    365    371     1
    365    372     1
    366    740     1
    366    371     1
    366    372     1
    370    739     1
    371    736     1
    372    736     1
    373    762     1
    374    759     1
    375    759     1
    377    391     1
    377    392     1
    377    394     1
    377    395     1
    377    388     1
    377    389     1
    378    382     1
    378    383     1
    378    385     1
    378    386     1
    378    403     1
    378    404     1
    379    381     1
    379    384     1
    379    402     1
    379    391     1
    379    392     1
    380    381     1
    380    384     1
    380    402     1
    380    391     1
    380    392     1
    381    385     1
    381    386     1
    381    400     1
    381    401     1
    382    384     1
    382    399     1
    382    394     1
    382    395     1
    383    384     1
    383    399     1
    383    394     1
    383    395     1
    384    397     1
    384    398     1
    385    396     1
    385    388     1
    385    389     1
    386    396     1
    386    388     1
    386    389     1
    388    405     1
    388    397     1
    388    398     1
    389    405     1
    389    397     1
    389    398     1
    391    809     1
    391    403     1
    391    404     1
    392    809     1
    392    403     1
    392    404     1
    394    786     1
    394    400     1
    394    401     1
    395    786     1
    395    400     1
    395    401     1
    399    785     1
    400    782     1
    401    782     1
    402    808     1
    403    805     1
    404    805     1
    406    420     1
    406    421     1
    406    423     1
    406    424     1
    406    417     1
    406    418     1
    407    411     1
    407    412     1
    407    414     1
    407    415     1
    407    432     1
    407    433     1
    408    410     1
    408    413     1
    408    431     1
    408    420     1
    408    421     1
    409    410     1
    409    413     1
    409    431     1
    409    420     1
    409    421     1
    410    414     1
    410    415     1
    410    429     1
    410    430     1
    411    413     1
    411    428     1
    411    423     1
    411    424     1
    412    413     1
    412    428     1
    412    423     1
    412    424     1
    413    426     1
    413    427     1
    414    425     1
    414    417     1
    414    418     1
    415    425     1
    415    417     1
    415    418     1
    417    434     1
    417    426     1
    417    427     1
    418    434     1
    418    426     1
    418    427     1
    420    855     1
    420    432     1
    420    433     1
    421    855     1
    421    432     1
    421    433     1
    423    832     1
    423    429     1
    423    430     1
    424    832     1
    424    429     1
    424    430     1
    428    831     1
    429    828     1
    430    828     1
    431    854     1
    432    851     1
    433    851     1
    435    449     1
    435    450     1
    435    452     1
    435    453     1
    435    446     1
    435    447     1
    436    440     1
    436    441     1
    436    443     1
    436    444     1
    436    461     1
    436    462     1
    437    439     1
    437    442     1
    437    460     1
    437    449     1
    437    450     1
    438    439     1
    438    442     1
    438    460     1
    438    449     1
    438    450     1
    439    443     1
    439    444     1
    439    458     1
    439    459     1
    440    442     1
    440    457     1
    440    452     1
    440    453     1
    441    442     1
    441    457     1
    441    452     1
    441    453     1
    442    455     1
    442    456     1
    443    454     1
    443    446     1
    443    447     1
    444    454     1
    444    446     1
    444    447     1
    446    463     1
    446    455     1
    446    456     1
    447    463     1
    447    455     1
    447    456     1
    449    901     1
    449    461     1
    449    462     1
    450    901     1
    450    461     1
    450    462     1
    452    878     1
    452    458     1
    452    459     1
    453    878     1
    453    458     1
    453    459     1
    457    877     1
    458    874     1
    459    874     1
    460    900     1
    461    897     1
    462    897     1
    464    478     1
    464    479     1
    464    481     1
    464    482     1
    464    475     1
    464    476     1
    465    469     1
    465    470     1
    465    472     1
    465    473     1
    465    490     1
    465    491     1
    466    468     1
    466    471     1
    466    489     1
    466    478     1
    466    479     1
    467    468     1
    467    471     1
    467    489     1
    467    478     1
    467    479     1
    468    472     1
    468    473     1
    468    487     1
    468    488     1
    469    471     1
    469    486     1
    469    481     1
    469    482     1
    470    471     1
    470    486     1
    470    481     1
    470    482     1
    471    484     1
    471    485     1
    472    483     1
    472    475     1
    472    476     1
    473    483     1
    473    475     1
    473    476     1
    475    492     1
    475    484     1
    475    485     1
    476    492     1
    476    484     1
    476    485     1
    478    947     1
    478    490     1
    478    491     1
    479    947     1
    479    490     1
    479    491     1
    481    924     1
    481    487     1
    481    488     1
    482    924     1
    482    487     1
    482    488     1
    486    923     1
    487    920     1
    488    920     1
    489    946     1
    490    943     1
    491    943     1
    493    507     1
    493    508     1
    493    510     1
    493    511     1
    493    504     1
    493    505     1
    494    498     1
    494    499     1
    494    501     1
    494    502     1
    494    519     1
    494    520     1
    495    497     1
    495    500     1
    495    518     1
    495    507     1
    495    508     1
    496    497     1
    496    500     1
    496    518     1
    496    507     1
    496    508     1
    497    501     1
    497    502     1
    497    516     1
    497    517     1
    498    500     1
    498    515     1
    498    510     1
    498    511     1
    499    500     1
    499    515     1
    499    510     1
    499    511     1
    500    513     1
    500    514     1
    501    512     1
    501    504     1
    501    505     1
    502    512     1
    502    504     1
    502    505     1
    504    521     1
    504    513     1
    504    514     1
    505    521     1
    505    513     1
    505    514     1
    507    993     1
    507    519     1
    507    520     1
    508    993     1
    508    519     1
    508    520     1
    510    970     1
    510    516     1
    510    517     1
    511    970     1
    511    516     1
    511    517     1
    515    969     1
    516    966     1
    517    966     1
    518    992     1
    519    989     1
    520    989     1
    522    536     1
    522    537     1
    522    539     1
    522    540     1
    522    533     1
    522    534     1
    523    527     1
    523    528     1
    523    530     1
    523    531     1
    523    548     1
    523    549     1
    524    526     1
    524    529     1
    524    547     1
    524    536     1
    524    537     1
    525    526     1
    525    529     1
    525    547     1
    525    536     1
    525    537     1
    526    530     1
    526    531     1
    526    545     1
    526    546     1
    527    529     1
    527    544     1
    527    539     1
    527    540     1
    528    529     1
    528    544     1
    528    539     1
    528    540     1
    529    542     1
    529    543     1
    530    541     1
    530    533     1
    530    534     1
    531    541     1
    531    533     1
    531    534     1
    533    550     1
    533    542     1
    533    543     1
    534    550     1
    534    542     1
    534    543     1
    536   1039     1
    536    548     1
    536    549     1
    537   1039     1
    537    548     1
    537    549     1
    539   1016     1
    539    545     1
    539    546     1
    540   1016     1
    540    545     1
    540    546     1
    544   1015     1
    545   1012     1
    546   1012     1
    547   1038     1
    548   1035     1
    549   1035     1
    551    565     1
    551    566     1
    551    568     1
    551    569     1
    551    562     1
    551    563     1
    552    556     1
    552    557     1
    552    559     1
    552    560     1
    552    577     1
    552    578     1
    553    555     1
    553    558     1
    553    576     1
    553    565     1
    553    566     1
    554    555     1
    554    558     1
    554    576     1
    554    565     1
    554    566     1
    555    559     1
    555    560     1
    555    574     1
    555    575     1
    556    558     1
    556    573     1
    556    568     1
    556    569     1
    557    558     1
    557    573     1
    557    568     1
    557    569     1
    558    571     1
    558    572     1
    559    570     1
    559    562     1
    559    563     1
    560    570     1
    560    562     1
    560    563     1
    562    579     1
    562    571     1
    562    572     1
    563    579     1
    563    571     1
    563    572     1
    565   1085     1
    565    577     1
    565    578     1
    566   1085     1
    566    577     1
    566    578     1
    568   1062     1
    568    574     1
    568    575     1
    569   1062     1
    569    574     1
    569    575     1
    573   1061     1
    574   1058     1
    575   1058     1
    576   1084     1
    577   1081     1
    578   1081     1
    580    594     1
    580    595     1
    580    597     1
    580    598     1
    580    591     1
    580    592     1
    581    585     1
    581    586     1
    581    588     1
    581    589     1
    581    606     1
    581    607     1
    582    584     1
    582    587     1
    582    605     1
    582    594     1
    582    595     1
    583    584     1
    583    587     1
    583    605     1
    583    594     1
    583    595     1
    584    588     1
    584    589     1
    584    603     1
    584    604     1
    585    587     1
    585    602     1
    585    597     1
    585    598     1
    586    587     1
    586    602     1
    586    597     1
    586    598     1
    587    600     1
    587    601     1
    588    599     1
    588    591     1
    588    592     1
    589    599     1
    589    591     1
    589    592     1
    591    608     1
    591    600     1
    591    601     1
    592    608     1
    592    600     1
    592    601     1
    594   1131     1
    594    606     1
    594    607     1
    595   1131     1
    595    606     1
    595    607     1
    597   1108     1
    597    603     1
    597    604     1
    598   1108     1
    598    603     1
    598    604     1
    602   1107     1
    603   1104     1
    604   1104     1
    605   1130     1
    606   1127     1
    607   1127     1
    609    623     1
    609    624     1
    609    626     1
    609    627     1
    609    620     1
    609    621     1
    610    614     1
    610    615     1
    610    617     1
    610    618     1
    610    635     1
    610    636     1
    611    613     1
    611    616     1
    611    634     1
    611    623     1
    611    624     1
    612    613     1
    612    616     1
    612    634     1
    612    623     1
    612    624     1
    613    617     1
    613    618     1
    613    632     1
    613    633     1
    614    616     1
    614    631     1
    614    626     1
    614    627     1
    615    616     1
    615    631     1
    615    626     1
    615    627     1
    616    629     1
    616    630     1
    617    628     1
    617    620     1
    617    621     1
    618    628     1
    618    620     1
    618    621     1
    620    637     1
    620    629     1
    620    630     1
    621    637     1
    621    629     1
    621    630     1
    623   1177     1
    623    635     1
    623    636     1
    624   1177     1
    624    635     1
    624    636     1
    626   1154     1
    626    632     1
    626    633     1
    627   1154     1
    627    632     1
    627    633     1
    631   1153     1
    632   1150     1
    633   1150     1
    634   1176     1
    635   1173     1
    636   1173     1
    638    646     1
    638    654     1
    638    659     1
    638    647     1
    639    656     1
    639    657     1
    639    645     1
    639    653     1
    640    642     1
    640    651     1
    640    641     1
    640    658     1
    640    656     1
    640    657     1
    640    644     1
    641    652     1
    641    660     1
    641    643     1
    641    650     1
    641    646     1
    641    654     1
    642    654     1
    642    647     1
    642    655     1
    643    653     1
    644    646     1
    644    655     1
    645    650     1
    645    646     1
    645    648     1
    645    660     1
    645    647     1
    645    655     1
    646    651     1
    646    649     1
    646    653     1
    647    649     1
    656    660     1
    656    659     1
    657    660     1
    657    659     1
    661    669     1
    661    677     1
    661    682     1
    661    670     1
    662    668     1
    662    676     1
    662    679     1
    662    680     1
    663    665     1
    663    674     1
    663    664     1
    663    681     1
    663    679     1
    663    680     1
    663    667     1
    664    666     1
    664    673     1
    664    669     1
    664    677     1
    664    675     1
    664    683     1
    665    670     1
    665    678     1
    665    677     1
    666    676     1
    667    678     1
    667    669     1
    668    671     1
    668    683     1
    668    670     1
    668    678     1
    668    673     1
    668    669     1
    669    672     1
    669    676     1
    669    674     1
    670    672     1
    679    682     1
    679    683     1
    680    682     1
    680    683     1
    684    692     1
    684    700     1
    684    705     1
    684    693     1
    685    702     1
    685    703     1
    685    691     1
    685    699     1
    686    688     1
    686    697     1
    686    687     1
    686    704     1
    686    702     1
    686    703     1
    686    690     1
    687    698     1
    687    706     1
    687    689     1
    687    696     1
    687    692     1
    687    700     1
    688    700     1
    688    693     1
    688    701     1
    689    699     1
    690    692     1
    690    701     1
    691    696     1
    691    692     1
    691    694     1
    691    706     1
    691    693     1
    691    701     1
    692    697     1
    692    695     1
    692    699     1
    693    695     1
    702    706     1
    702    705     1
    703    706     1
    703    705     1
    707    715     1
    707    723     1
    707    728     1
    707    716     1
    708    714     1
    708    722     1
    708    725     1
    708    726     1
    709    711     1
    709    720     1
    709    710     1
    709    727     1
    709    725     1
    709    726     1
    709    713     1
    710    712     1
    710    719     1
    710    715     1
    710    723     1
    710    721     1
    710    729     1
    711    716     1
    711    724     1
    711    723     1
    712    722     1
    713    724     1
    713    715     1
    714    717     1
    714    729     1
    714    716     1
    714    724     1
    714    719     1
    714    715     1
    715    718     1
    715    722     1
    715    720     1
    716    718     1
    725    728     1
    725    729     1
    726    728     1
    726    729     1
    730    738     1
    730    746     1
    730    751     1
    730    739     1
    731    748     1
    731    749     1
    731    737     1
    731    745     1
    732    734     1
    732    743     1
    732    733     1
    732    750     1
    732    748     1
    732    749     1
    732    736     1
    733    744     1
    733    752     1
    733    735     1
    733    742     1
    733    738     1
    733    746     1
    734    746     1
    734    739     1
    734    747     1
    735    745     1
    736    738     1
    736    747     1
    737    742     1
    737    738     1
    737    740     1
    737    752     1
    737    739     1
    737    747     1
    738    743     1
    738    741     1
    738    745     1
    739    741     1
    748    752     1
    748    751     1
    749    752     1
    749    751     1
    753    761     1
    753    769     1
    753    774     1
    753    762     1
    754    760     1
    754    768     1
    754    771     1
    754    772     1
    755    757     1
    755    766     1
    755    756     1
    755    773     1
    755    771     1
    755    772     1
    755    759     1
    756    758     1
    756    765     1
    756    761     1
    756    769     1
    756    767     1
    756    775     1
    757    762     1
    757    770     1
    757    769     1
    758    768     1
    759    770     1
    759    761     1
    760    763     1
    760    775     1
    760    762     1
    760    770     1
    760    765     1
    760    761     1
    761    764     1
    761    768     1
    761    766     1
    762    764     1
    771    774     1
    771    775     1
    772    774     1
    772    775     1
    776    784     1
    776    792     1
    776    797     1
    776    785     1
    777    794     1
    777    795     1
    777    783     1
    777    791     1
    778    780     1
    778    789     1
    778    779     1
    778    796     1
    778    794     1
    778    795     1
    778    782     1
    779    790     1
    779    798     1
    779    781     1
    779    788     1
    779    784     1
    779    792     1
    780    792     1
    780    785     1
    780    793     1
    781    791     1
    782    784     1
    782    793     1
    783    788     1
    783    784     1
    783    786     1
    783    798     1
    783    785     1
    783    793     1
    784    789     1
    784    787     1
    784    791     1
    785    787     1
    794    798     1
    794    797     1
    795    798     1
    795    797     1
    799    807     1
    799    815     1
    799    820     1
    799    808     1
    800    806     1
    800    814     1
    800    817     1
    800    818     1
    801    803     1
    801    812     1
    801    802     1
    801    819     1
    801    817     1
    801    818     1
    801    805     1
    802    804     1
    802    811     1
    802    807     1
    802    815     1
    802    813     1
    802    821     1
    803    808     1
    803    816     1
    803    815     1
    804    814     1
    805    816     1
    805    807     1
    806    809     1
    806    821     1
    806    808     1
    806    816     1
    806    811     1
    806    807     1
    807    810     1
    807    814     1
    807    812     1
    808    810     1
    817    820     1
    817    821     1
    818    820     1
    818    821     1
    822    830     1
    822    838     1
    822    843     1
    822    831     1
    823    840     1
    823    841     1
    823    829     1
    823    837     1
    824    826     1
    824    835     1
    824    825     1
    824    842     1
    824    840     1
    824    841     1
    824    828     1
    825    836     1
    825    844     1
    825    827     1
    825    834     1
    825    830     1
    825    838     1
    826    838     1
    826    831     1
    826    839     1
    827    837     1
    828    830     1
    828    839     1
    829    834     1
    829    830     1
    829    832     1
    829    844     1
    829    831     1
    829    839     1
    830    835     1
    830    833     1
    830    837     1
    831    833     1
    840    844     1
    840    843     1
    841    844     1
    841    843     1
    845    853     1
    845    861     1
    845    866     1
    845    854     1
    846    852     1
    846    860     1
    846    863     1
    846    864     1
    847    849     1
    847    858     1
    847    848     1
    847    865     1
    847    863     1
    847    864     1
    847    851     1
    848    850     1
    848    857     1
    848    853     1
    848    861     1
    848    859     1
    848    867     1
    849    854     1
    849    862     1
    849    861     1
    850    860     1
    851    862     1
    851    853     1
    852    855     1
    852    867     1
    852    854     1
    852    862     1
    852    857     1
    852    853     1
    853    856     1
    853    860     1
    853    858     1
    854    856     1
    863    866     1
    863    867     1
    864    866     1
    864    867     1
    868    876     1
    868    884     1
    868    889     1
    868    877     1
    869    886     1
    869    887     1
    869    875     1
    869    883     1
    870    872     1
    870    881     1
    870    871     1
    870    888     1
    870    886     1
    870    887     1
    870    874     1
    871    882     1
    871    890     1
    871    873     1
    871    880     1
    871    876     1
    871    884     1
    872    884     1
    872    877     1
    872    885     1
    873    883     1
    874    876     1
    874    885     1
    875    880     1
    875    876     1
    875    878     1
    875    890     1
    875    877     1
    875    885     1
    876    881     1
    876    879     1
    876    883     1
    877    879     1
    886    890     1
    886    889     1
    887    890     1
    887    889     1
    891    899     1
    891    907     1
    891    912     1
    891    900     1
    892    898     1
    892    906     1
    892    909     1
    892    910     1
    893    895     1
    893    904     1
    893    894     1
    893    911     1
    893    909     1
    893    910     1
    893    897     1
    894    896     1
    894    903     1
    894    899     1
    894    907     1
    894    905     1
    894    913     1
    895    900     1
    895    908     1
    895    907     1
    896    906     1
    897    908     1
    897    899     1
    898    901     1
    898    913     1
    898    900     1
    898    908     1
    898    903     1
    898    899     1
    899    902     1
    899    906     1
    899    904     1
    900    902     1
    909    912     1
    909    913     1
    910    912     1
    910    913     1
    914    922     1
    914    930     1
    914    935     1
    914    923     1
    915    932     1
    915    933     1
    915    921     1
    915    929     1
    916    918     1
    916    927     1
    916    917     1
    916    934     1
    916    932     1
    916    933     1
    916    920     1
    917    928     1
    917    936     1
    917    919     1
    917    926     1
    917    922     1
    917    930     1
    918    930     1
    918    923     1
    918    931     1
    919    929     1
    920    922     1
    920    931     1
    921    926     1
    921    922     1
    921    924     1
    921    936     1
    921    923     1
    921    931     1
    922    927     1
    922    925     1
    922    929     1
    923    925     1
    932    936     1
    932    935     1
    933    936     1
    933    935     1
    937    945     1
    937    953     1
    937    958     1
    937    946     1
    938    944     1
    938    952     1
    938    955     1
    938    956     1
    939    941     1
    939    950     1
    939    940     1
    939    957     1
    939    955     1
    939    956     1
    939    943     1
    940    942     1
    940    949     1
    940    945     1
    940    953     1
    940    951     1
    940    959     1
    941    946     1
    941    954     1
    941    953     1
    942    952     1
    943    954     1
    943    945     1
    944    947     1
    944    959     1
    944    946     1
    944    954     1
    944    949     1
    944    945     1
    945    948     1
    945    952     1
    945    950     1
    946    948     1
    955    958     1
    955    959     1
    956    958     1
    956    959     1
    960    968     1
    960    976     1
    960    981     1
    960    969     1
    961    978     1
    961    979     1
    961    967     1
    961    975     1
    962    964     1
    962    973     1
    962    963     1
    962    980     1
    962    978     1
    962    979     1
    962    966     1
    963    974     1
    963    982     1
    963    965     1
    963    972     1
    963    968     1
    963    976     1
    964    976     1
    964    969     1
    964    977     1
    965    975     1
    966    968     1
    966    977     1
    967    972     1
    967    968     1
    967    970     1
    967    982     1
    967    969     1
    967    977     1
    968    973     1
    968    971     1
    968    975     1
    969    971     1
    978    982     1
    978    981     1
    979    982     1
    979    981     1
    983    991     1
    983    999     1
    983   1004     1
    983    992     1
    984    990     1
    984    998     1
    984   1001     1
    984   1002     1
    985    987     1
    985    996     1
    985    986     1
    985   1003     1
    985   1001     1
    985   1002     1
    985    989     1
    986    988     1
    986    995     1
    986    991     1
    986    999     1
    986    997     1
    986   1005     1
    987    992     1
    987   1000     1
    987    999     1
    988    998     1
    989   1000     1
    989    991     1
    990    993     1
    990   1005     1
    990    992     1
    990   1000     1
    990    995     1
    990    991     1
    991    994     1
    991    998     1
    991    996     1
    992    994     1
   1001   1004     1
   1001   1005     1
   1002   1004     1
   1002   1005     1
   1006   1014     1
   1006   1022     1
   1006   1027     1
   1006   1015     1
   1007   1024     1
   1007   1025     1
   1007   1013     1
   1007   1021     1
   1008   1010     1
   1008   1019     1
   1008   1009     1
   1008   1026     1
   1008   1024     1
   1008   1025     1
   1008   1012     1
   1009   1020     1
   1009   1028     1
   1009   1011     1
   1009   1018     1
   1009   1014     1
   1009   1022     1
   1010   1022     1
   1010   1015     1
   1010   1023     1
   1011   1021     1
   1012   1014     1
   1012   1023     1
   1013   1018     1
   1013   1014     1
   1013   1016     1
   1013   1028     1
   1013   1015     1
   1013   1023     1
   1014   1019     1
   1014   1017     1
   1014   1021     1
   1015   1017     1
   1024   1028     1
   1024   1027     1
   1025   1028     1
   1025   1027     1
   1029   1037     1
   1029   1045     1
   1029   1050     1
   1029   1038     1
   1030   1036     1
   1030   1044     1
   1030   1047     1
   1030   1048     1
   1031   1033     1
   1031   1042     1
   1031   1032     1
   1031   1049     1
   1031   1047     1
   1031   1048     1
   1031   1035     1
   1032   1034     1
   1032   1041     1
   1032   1037     1
   1032   1045     1
   1032   1043     1
   1032   1051     1
   1033   1038     1
   1033   1046     1
   1033   1045     1
   1034   1044     1
   1035   1046     1
   1035   1037     1
   1036   1039     1
   1036   1051     1
   1036   1038     1
   1036   1046     1
   1036   1041     1
   1036   1037     1
   1037   1040     1
   1037   1044     1
   1037   1042     1
   1038   1040     1
   1047   1050     1
   1047   1051     1
   1048   1050     1
   1048   1051     1
   1052   1060     1
   1052   1068     1
   1052   1073     1
   1052   1061     1
   1053   1070     1
   1053   1071     1
   1053   1059     1
   1053   1067     1
   1054   1056     1
   1054   1065     1
   1054   1055     1
   1054   1072     1
   1054   1070     1
   1054   1071     1
   1054   1058     1
   1055   1066     1
   1055   1074     1
   1055   1057     1
   1055   1064     1
   1055   1060     1
   1055   1068     1
   1056   1068     1
   1056   1061     1
   1056   1069     1
   1057   1067     1
   1058   1060     1
   1058   1069     1
   1059   1064     1
   1059   1060     1
   1059   1062     1
   1059   1074     1
   1059   1061     1
   1059   1069     1
   1060   1065     1
   1060   1063     1
   1060   1067     1
   1061   1063     1
   1070   1074     1
   1070   1073     1
   1071   1074     1
   1071   1073     1
   1075   1083     1
   1075   1091     1
   1075   1096     1
   1075   1084     1
   1076   1082     1
   1076   1090     1
   1076   1093     1
   1076   1094     1
   1077   1079     1
   1077   1088     1
   1077   1078     1
   1077   1095     1
   1077   1093     1
   1077   1094     1
   1077   1081     1
   1078   1080     1
   1078   1087     1
   1078   1083     1
   1078   1091     1
   1078   1089     1
   1078   1097     1
   1079   1084     1
   1079   1092     1
   1079   1091     1
   1080   1090     1
   1081   1092     1
   1081   1083     1
   1082   1085     1
   1082   1097     1
   1082   1084     1
   1082   1092     1
   1082   1087     1
   1082   1083     1
   1083   1086     1
   1083   1090     1
   1083   1088     1
   1084   1086     1
   1093   1096     1
   1093   1097     1
   1094   1096     1
   1094   1097     1
   1098   1106     1
   1098   1114     1
   1098   1119     1
   1098   1107     1
   1099   1116     1
   1099   1117     1
   1099   1105     1
   1099   1113     1
   1100   1102     1
   1100   1111     1
   1100   1101     1
   1100   1118     1
   1100   1116     1
   1100   1117     1
   1100   1104     1
   1101   1112     1
   1101   1120     1
   1101   1103     1
   1101   1110     1
   1101   1106     1
   1101   1114     1
   1102   1114     1
   1102   1107     1
   1102   1115     1
   1103   1113     1
   1104   1106     1
   1104   1115     1
   1105   1110     1
   1105   1106     1
   1105   1108     1
   1105   1120     1
   1105   1107     1
   1105   1115     1
   1106   1111     1
   1106   1109     1
   1106   1113     1
   1107   1109     1
   1116   1120     1
   1116   1119     1
   1117   1120     1
   1117   1119     1
   1121   1129     1
   1121   1137     1
   1121   1142     1
   1121   1130     1
   1122   1128     1
   1122   1136     1
   1122   1139     1
   1122   1140     1
   1123   1125     1
   1123   1134     1
   1123   1124     1
   1123   1141     1
   1123   1139     1
   1123   1140     1
   1123   1127     1
   1124   1126     1
   1124   1133     1
   1124   1129     1
   1124   1137     1
   1124   1135     1
   1124   1143     1
   1125   1130     1
   1125   1138     1
   1125   1137     1
   1126   1136     1
   1127   1138     1
   1127   1129     1
   1128   1131     1
   1128   1143     1
   1128   1130     1
   1128   1138     1
   1128   1133     1
   1128   1129     1
   1129   1132     1
   1129   1136     1
   1129   1134     1
   1130   1132     1
   1139   1142     1
   1139   1143     1
   1140   1142     1
   1140   1143     1
   1144   1152     1
   1144   1160     1
   1144   1165     1
   1144   1153     1
   1145   1162     1
   1145   1163     1
   1145   1151     1
   1145   1159     1
   1146   1148     1
   1146   1157     1
   1146   1147     1
   1146   1164     1
   1146   1162     1
   1146   1163     1
   1146   1150     1
   1147   1158     1
   1147   1166     1
   1147   1149     1
   1147   1156     1
   1147   1152     1
   1147   1160     1
   1148   1160     1
   1148   1153     1
   1148   1161     1
   1149   1159     1
   1150   1152     1
   1150   1161     1
   1151   1156     1
   1151   1152     1
   1151   1154     1
   1151   1166     1
   1151   1153     1
   1151   1161     1
   1152   1157     1
   1152   1155     1
   1152   1159     1
   1153   1155     1
   1162   1166     1
   1162   1165     1
   1163   1166     1
   1163   1165     1
   1167   1175     1
   1167   1183     1
   1167   1188     1
   1167   1176     1
   1168   1174     1
   1168   1182     1
   1168   1185     1
   1168   1186     1
   1169   1171     1
   1169   1180     1
   1169   1170     1
   1169   1187     1
   1169   1185     1
   1169   1186     1
   1169   1173     1
   1170   1172     1
   1170   1179     1
   1170   1175     1
   1170   1183     1
   1170   1181     1
   1170   1189     1
   1171   1176     1
   1171   1184     1
   1171   1183     1
   1172   1182     1
   1173   1184     1
   1173   1175     1
   1174   1177     1
   1174   1189     1
   1174   1176     1
   1174   1184     1
   1174   1179     1
   1174   1175     1
   1175   1178     1
   1175   1182     1
   1175   1180     1
   1176   1178     1
   1185   1188     1
   1185   1189     1
   1186   1188     1
   1186   1189     1

[ angles ]
;    ai     aj     ak funct         c0         c1         c2         c3
      1      2     14     1   111.0400475 552.288000
      1      5     17     1   111.0400475 552.288000
      1      8     11     1   111.0400475 552.288000
      2      1      5     1   112.3500484 533.878400
      2      1      8     1   112.3500484 533.878400
      2     14     26     1   111.5100476 526.347200
      5      1      8     1   112.3500484 533.878400
      5     17     20     1   111.5100476 526.347200
      8     11     23     1   111.5100476 526.347200
     11     23     86     1   107.9700462 569.024000
     14     26    115     1   107.9700462 569.024000
     17     20     57     1   107.9700462 569.024000
     20     57     48     1   112.4800480 524.673600
     23     86     77     1   112.4800480 524.673600
     26    115    106     1   112.4800480 524.673600
     29     30     42     1   111.0400475 552.288000
     29     33     45     1   111.0400475 552.288000
     29     36     39     1   111.0400475 552.288000
     30     29     33     1   112.3500484 533.878400
     30     29     36     1   112.3500484 533.878400
     30     42     54     1   111.5100476 526.347200
     33     29     36     1   112.3500484 533.878400
     33     45     51     1   111.5100476 526.347200
     36     39     48     1   111.5100476 526.347200
     39     48     57     1   107.9700462 569.024000
     42     54    173     1   107.9700462 569.024000
     45     51    144     1   107.9700462 569.024000
     51    144    135     1   112.4800480 524.673600
     54    173    164     1   112.4800480 524.673600
     58     59     71     1   111.0400475 552.288000
     58     62     74     1   111.0400475 552.288000
     58     65     68     1   111.0400475 552.288000
     59     58     62     1   112.3500484 533.878400
     59     58     65     1   112.3500484 533.878400
     59     71     83     1   111.5100476 526.347200
     62     58     65     1   112.3500484 533.878400
     62     74     80     1   111.5100476 526.347200
     65     68     77     1   111.5100476 526.347200
     68     77     86     1   107.9700462 569.024000
     71     83    231     1   107.9700462 569.024000
     74     80    202     1   107.9700462 569.024000
     80    202    193     1   112.4800480 524.673600
     83    231    222     1   112.4800480 524.673600
     87     88    100     1   111.0400475 552.288000
     87     91    103     1   111.0400475 552.288000
     87     94     97     1   111.0400475 552.288000
     88     87     91     1   112.3500484 533.878400
     88     87     94     1   112.3500484 533.878400
     88    100    112     1   111.5100476 526.347200
     91     87     94     1   112.3500484 533.878400
     91    103    109     1   111.5100476 526.347200
     94     97    106     1   111.5100476 526.347200
     97    106    115     1   107.9700462 569.024000
    100    112    289     1   107.9700462 569.024000
    103    109    260     1   107.9700462 569.024000
    109    260    251     1   112.4800480 524.673600
    112    289    280     1   112.4800480 524.673600
    116    117    129     1   111.0400475 552.288000
    116    120    132     1   111.0400475 552.288000
    116    123    126     1   111.0400475 552.288000
    117    116    120     1   112.3500484 533.878400
    117    116    123     1   112.3500484 533.878400
    117    129    141     1   111.5100476 526.347200
    120    116    123     1   112.3500484 533.878400
    120    132    138     1   111.5100476 526.347200
    123    126    135     1   111.5100476 526.347200
    126    135    144     1   107.9700462 569.024000
    129    141    347     1   107.9700462 569.024000
    132    138    318     1   107.9700462 569.024000
    138    318    309     1   112.4800480 524.673600
    141    347    338     1   112.4800480 524.673600
    145    146    158     1   111.0400475 552.288000
    145    149    161     1   111.0400475 552.288000
    145    152    155     1   111.0400475 552.288000
    146    145    149     1   112.3500484 533.878400
    146    145    152     1   112.3500484 533.878400
    146    158    170     1   111.5100476 526.347200
    149    145    152     1   112.3500484 533.878400
    149    161    167     1   111.5100476 526.347200
    152    155    164     1   111.5100476 526.347200
    155    164    173     1   107.9700462 569.024000
    158    170    405     1   107.9700462 569.024000
    161    167    376     1   107.9700462 569.024000
    167    376    367     1   112.4800480 524.673600
    170    405    396     1   112.4800480 524.673600
    174    175    187     1   111.0400475 552.288000
    174    178    190     1   111.0400475 552.288000
    174    181    184     1   111.0400475 552.288000
    175    174    178     1   112.3500484 533.878400
    175    174    181     1   112.3500484 533.878400
    175    187    199     1   111.5100476 526.347200
    178    174    181     1   112.3500484 533.878400
    178    190    196     1   111.5100476 526.347200
    181    184    193     1   111.5100476 526.347200
    184    193    202     1   107.9700462 569.024000
    187    199    463     1   107.9700462 569.024000
    190    196    434     1   107.9700462 569.024000
    196    434    425     1   112.4800480 524.673600
    199    463    454     1   112.4800480 524.673600
    203    204    216     1   111.0400475 552.288000
    203    207    219     1   111.0400475 552.288000
    203    210    213     1   111.0400475 552.288000
    204    203    207     1   112.3500484 533.878400
    204    203    210     1   112.3500484 533.878400
    204    216    228     1   111.5100476 526.347200
    207    203    210     1   112.3500484 533.878400
    207    219    225     1   111.5100476 526.347200
    210    213    222     1   111.5100476 526.347200
    213    222    231     1   107.9700462 569.024000
    216    228    521     1   107.9700462 569.024000
    219    225    492     1   107.9700462 569.024000
    225    492    483     1   112.4800480 524.673600
    228    521    512     1   112.4800480 524.673600
    232    233    245     1   111.0400475 552.288000
    232    236    248     1   111.0400475 552.288000
    232    239    242     1   111.0400475 552.288000
    233    232    236     1   112.3500484 533.878400
    233    232    239     1   112.3500484 533.878400
    233    245    257     1   111.5100476 526.347200
    236    232    239     1   112.3500484 533.878400
    236    248    254     1   111.5100476 526.347200
    239    242    251     1   111.5100476 526.347200
    242    251    260     1   107.9700462 569.024000
    245    257    579     1   107.9700462 569.024000
    248    254    550     1   107.9700462 569.024000
    254    550    541     1   112.4800480 524.673600
    257    579    570     1   112.4800480 524.673600
    261    262    274     1   111.0400475 552.288000
    261    265    277     1   111.0400475 552.288000
    261    268    271     1   111.0400475 552.288000
    262    261    265     1   112.3500484 533.878400
    262    261    268     1   112.3500484 533.878400
    262    274    286     1   111.5100476 526.347200
    265    261    268     1   112.3500484 533.878400
    265    277    283     1   111.5100476 526.347200
    268    271    280     1   111.5100476 526.347200
    271    280    289     1   107.9700462 569.024000
    274    286    637     1   107.9700462 569.024000
    277    283    608     1   107.9700462 569.024000
    283    608    599     1   112.4800480 524.673600
    286    637    628     1   112.4800480 524.673600
    290    291    303     1   111.0400475 552.288000
    290    294    306     1   111.0400475 552.288000
    290    297    300     1   111.0400475 552.288000
    291    290    294     1   112.3500484 533.878400
    291    290    297     1   112.3500484 533.878400
    291    303    315     1   111.5100476 526.347200
    294    290    297     1   112.3500484 533.878400
    294    306    312     1   111.5100476 526.347200
    297    300    309     1   111.5100476 526.347200
    300    309    318     1   107.9700462 569.024000
    303    315    671     1   107.9700462 569.024000
    306    312    648     1   107.9700462 569.024000
    312    648    644     1   112.4800480 524.673600
    315    671    667     1   112.4800480 524.673600
    319    320    332     1   111.0400475 552.288000
    319    323    335     1   111.0400475 552.288000
    319    326    329     1   111.0400475 552.288000
    320    319    323     1   112.3500484 533.878400
    320    319    326     1   112.3500484 533.878400
    320    332    344     1   111.5100476 526.347200
    323    319    326     1   112.3500484 533.878400
    323    335    341     1   111.5100476 526.347200
    326    329    338     1   111.5100476 526.347200
    329    338    347     1   107.9700462 569.024000
    332    344    717     1   107.9700462 569.024000
    335    341    694     1   107.9700462 569.024000
    341    694    690     1   112.4800480 524.673600
    344    717    713     1   112.4800480 524.673600
    348    349    361     1   111.0400475 552.288000
    348    352    364     1   111.0400475 552.288000
    348    355    358     1   111.0400475 552.288000
    349    348    352     1   112.3500484 533.878400
    349    348    355     1   112.3500484 533.878400
    349    361    373     1   111.5100476 526.347200
    352    348    355     1   112.3500484 533.878400
    352    364    370     1   111.5100476 526.347200
    355    358    367     1   111.5100476 526.347200
    358    367    376     1   107.9700462 569.024000
    361    373    763     1   107.9700462 569.024000
    364    370    740     1   107.9700462 569.024000
    370    740    736     1   112.4800480 524.673600
    373    763    759     1   112.4800480 524.673600
    377    378    390     1   111.0400475 552.288000
    377    381    393     1   111.0400475 552.288000
    377    384    387     1   111.0400475 552.288000
    378    377    381     1   112.3500484 533.878400
    378    377    384     1   112.3500484 533.878400
    378    390    402     1   111.5100476 526.347200
    381    377    384     1   112.3500484 533.878400
    381    393    399     1   111.5100476 526.347200
    384    387    396     1   111.5100476 526.347200
    387    396    405     1   107.9700462 569.024000
    390    402    809     1   107.9700462 569.024000
    393    399    786     1   107.9700462 569.024000
    399    786    782     1   112.4800480 524.673600
    402    809    805     1   112.4800480 524.673600
    406    407    419     1   111.0400475 552.288000
    406    410    422     1   111.0400475 552.288000
    406    413    416     1   111.0400475 552.288000
    407    406    410     1   112.3500484 533.878400
    407    406    413     1   112.3500484 533.878400
    407    419    431     1   111.5100476 526.347200
    410    406    413     1   112.3500484 533.878400
    410    422    428     1   111.5100476 526.347200
    413    416    425     1   111.5100476 526.347200
    416    425    434     1   107.9700462 569.024000
    419    431    855     1   107.9700462 569.024000
    422    428    832     1   107.9700462 569.024000
    428    832    828     1   112.4800480 524.673600
    431    855    851     1   112.4800480 524.673600
    435    436    448     1   111.0400475 552.288000
    435    439    451     1   111.0400475 552.288000
    435    442    445     1   111.0400475 552.288000
    436    435    439     1   112.3500484 533.878400
    436    435    442     1   112.3500484 533.878400
    436    448    460     1   111.5100476 526.347200
    439    435    442     1   112.3500484 533.878400
    439    451    457     1   111.5100476 526.347200
    442    445    454     1   111.5100476 526.347200
    445    454    463     1   107.9700462 569.024000
    448    460    901     1   107.9700462 569.024000
    451    457    878     1   107.9700462 569.024000
    457    878    874     1   112.4800480 524.673600
    460    901    897     1   112.4800480 524.673600
    464    465    477     1   111.0400475 552.288000
    464    468    480     1   111.0400475 552.288000
    464    471    474     1   111.0400475 552.288000
    465    464    468     1   112.3500484 533.878400
    465    464    471     1   112.3500484 533.878400
    465    477    489     1   111.5100476 526.347200
    468    464    471     1   112.3500484 533.878400
    468    480    486     1   111.5100476 526.347200
    471    474    483     1   111.5100476 526.347200
    474    483    492     1   107.9700462 569.024000
    477    489    947     1   107.9700462 569.024000
    480    486    924     1   107.9700462 569.024000
    486    924    920     1   112.4800480 524.673600
    489    947    943     1   112.4800480 524.673600
    493    494    506     1   111.0400475 552.288000
    493    497    509     1   111.0400475 552.288000
    493    500    503     1   111.0400475 552.288000
    494    493    497     1   112.3500484 533.878400
    494    493    500     1   112.3500484 533.878400
    494    506    518     1   111.5100476 526.347200
    497    493    500     1   112.3500484 533.878400
    497    509    515     1   111.5100476 526.347200
    500    503    512     1   111.5100476 526.347200
    503    512    521     1   107.9700462 569.024000
    506    518    993     1   107.9700462 569.024000
    509    515    970     1   107.9700462 569.024000
    515    970    966     1   112.4800480 524.673600
    518    993    989     1   112.4800480 524.673600
    522    523    535     1   111.0400475 552.288000
    522    526    538     1   111.0400475 552.288000
    522    529    532     1   111.0400475 552.288000
    523    522    526     1   112.3500484 533.878400
    523    522    529     1   112.3500484 533.878400
    523    535    547     1   111.5100476 526.347200
    526    522    529     1   112.3500484 533.878400
    526    538    544     1   111.5100476 526.347200
    529    532    541     1   111.5100476 526.347200
    532    541    550     1   107.9700462 569.024000
    535    547   1039     1   107.9700462 569.024000
    538    544   1016     1   107.9700462 569.024000
    544   1016   1012     1   112.4800480 524.673600
    547   1039   1035     1   112.4800480 524.673600
    551    552    564     1   111.0400475 552.288000
    551    555    567     1   111.0400475 552.288000
    551    558    561     1   111.0400475 552.288000
    552    551    555     1   112.3500484 533.878400
    552    551    558     1   112.3500484 533.878400
    552    564    576     1   111.5100476 526.347200
    555    551    558     1   112.3500484 533.878400
    555    567    573     1   111.5100476 526.347200
    558    561    570     1   111.5100476 526.347200
    561    570    579     1   107.9700462 569.024000
    564    576   1085     1   107.9700462 569.024000
    567    573   1062     1   107.9700462 569.024000
    573   1062   1058     1   112.4800480 524.673600
    576   1085   1081     1   112.4800480 524.673600
    580    581    593     1   111.0400475 552.288000
    580    584    596     1   111.0400475 552.288000
    580    587    590     1   111.0400475 552.288000
    581    580    584     1   112.3500484 533.878400
    581    580    587     1   112.3500484 533.878400
    581    593    605     1   111.5100476 526.347200
    584    580    587     1   112.3500484 533.878400
    584    596    602     1   111.5100476 526.347200
    587    590    599     1   111.5100476 526.347200
    590    599    608     1   107.9700462 569.024000
    593    605   1131     1   107.9700462 569.024000
    596    602   1108     1   107.9700462 569.024000
    602   1108   1104     1   112.4800480 524.673600
    605   1131   1127     1   112.4800480 524.673600
    609    610    622     1   111.0400475 552.288000
    609    613    625     1   111.0400475 552.288000
    609    616    619     1   111.0400475 552.288000
    610    609    613     1   112.3500484 533.878400
    610    609    616     1   112.3500484 533.878400
    610    622    634     1   111.5100476 526.347200
    613    609    616     1   112.3500484 533.878400
    613    625    631     1   111.5100476 526.347200
    616    619    628     1   111.5100476 526.347200
    619    628    637     1   107.9700462 569.024000
    622    634   1177     1   107.9700462 569.024000
    625    631   1154     1   107.9700462 569.024000
    631   1154   1150     1   112.4800480 524.673600
    634   1177   1173     1   112.4800480 524.673600
    638    639    642     1   111.5100476 526.347200
    638    639    651     1   110.1900474 564.840000
    638    652    658     1   110.1900474 564.840000
    638    660    644     1   112.4800480 524.673600
    639    638    652     1   111.5100476 526.347200
    639    638    660     1   107.9700462 569.024000
    639    642    643     1   111.5100476 526.347200
    639    642    650     1   110.1900474 564.840000
    642    639    651     1   110.1900474 564.840000
    642    643    644     1   111.5100476 526.347200
    642    643    649     1   110.1900474 564.840000
    643    642    650     1   110.1900474 564.840000
    643    644    648     1   107.9700462 569.024000
    643    644    660     1   107.9700462 569.024000
    644    643    649     1   110.1900474 564.840000
    648    644    660     1   108.2900466 608.353600
    652    638    660     1   107.9700462 569.024000
    661    662    665     1   111.5100476 526.347200
    661    662    674     1   110.1900474 564.840000
    661    675    681     1   110.1900474 564.840000
    661    683    667     1   112.4800480 524.673600
    662    665    666     1   111.5100476 526.347200
    662    665    673     1   110.1900474 564.840000
    662    661    675     1   111.5100476 526.347200
    662    661    683     1   107.9700462 569.024000
    665    666    667     1   111.5100476 526.347200
    665    666    672     1   110.1900474 564.840000
    665    662    674     1   110.1900474 564.840000
    666    667    671     1   107.9700462 569.024000
    666    667    683     1   107.9700462 569.024000
    666    665    673     1   110.1900474 564.840000
    667    666    672     1   110.1900474 564.840000
    671    667    683     1   108.2900466 608.353600
    675    661    683     1   107.9700462 569.024000
    684    685    688     1   111.5100476 526.347200
    684    685    697     1   110.1900474 564.840000
    684    698    704     1   110.1900474 564.840000
    684    706    690     1   112.4800480 524.673600
    685    684    698     1   111.5100476 526.347200
    685    684    706     1   107.9700462 569.024000
    685    688    689     1   111.5100476 526.347200
    685    688    696     1   110.1900474 564.840000
    688    685    697     1   110.1900474 564.840000
    688    689    690     1   111.5100476 526.347200
    688    689    695     1   110.1900474 564.840000
    689    688    696     1   110.1900474 564.840000
    689    690    694     1   107.9700462 569.024000
    689    690    706     1   107.9700462 569.024000
    690    689    695     1   110.1900474 564.840000
    694    690    706     1   108.2900466 608.353600
    698    684    706     1   107.9700462 569.024000
    707    708    711     1   111.5100476 526.347200
    707    708    720     1   110.1900474 564.840000
    707    721    727     1   110.1900474 564.840000
    707    729    713     1   112.4800480 524.673600
    708    711    712     1   111.5100476 526.347200
    708    711    719     1   110.1900474 564.840000
    708    707    721     1   111.5100476 526.347200
    708    707    729     1   107.9700462 569.024000
    711    712    713     1   111.5100476 526.347200
    711    712    718     1   110.1900474 564.840000
    711    708    720     1   110.1900474 564.840000
    712    713    717     1   107.9700462 569.024000
    712    713    729     1   107.9700462 569.024000
    712    711    719     1   110.1900474 564.840000
    713    712    718     1   110.1900474 564.840000
    717    713    729     1   108.2900466 608.353600
    721    707    729     1   107.9700462 569.024000
    730    731    734     1   111.5100476 526.347200
    730    731    743     1   110.1900474 564.840000
    730    744    750     1   110.1900474 564.840000
    730    752    736     1   112.4800480 524.673600
    731    730    744     1   111.5100476 526.347200
    731    730    752     1   107.9700462 569.024000
    731    734    735     1   111.5100476 526.347200
    731    734    742     1   110.1900474 564.840000
    734    731    743     1   110.1900474 564.840000
    734    735    736     1   111.5100476 526.347200
    734    735    741     1   110.1900474 564.840000
    735    734    742     1   110.1900474 564.840000
    735    736    740     1   107.9700462 569.024000
    735    736    752     1   107.9700462 569.024000
    736    735    741     1   110.1900474 564.840000
    740    736    752     1   108.2900466 608.353600
    744    730    752     1   107.9700462 569.024000
    753    754    757     1   111.5100476 526.347200
    753    754    766     1   110.1900474 564.840000
    753    767    773     1   110.1900474 564.840000
    753    775    759     1   112.4800480 524.673600
    754    757    758     1   111.5100476 526.347200
    754    757    765     1   110.1900474 564.840000
    754    753    767     1   111.5100476 526.347200
    754    753    775     1   107.9700462 569.024000
    757    758    759     1   111.5100476 526.347200
    757    758    764     1   110.1900474 564.840000
    757    754    766     1   110.1900474 564.840000
    758    759    763     1   107.9700462 569.024000
    758    759    775     1   107.9700462 569.024000
    758    757    765     1   110.1900474 564.840000
    759    758    764     1   110.1900474 564.840000
    763    759    775     1   108.2900466 608.353600
    767    753    775     1   107.9700462 569.024000
    776    777    780     1   111.5100476 526.347200
    776    777    789     1   110.1900474 564.840000
    776    790    796     1   110.1900474 564.840000
    776    798    782     1   112.4800480 524.673600
    777    776    790     1   111.5100476 526.347200
    777    776    798     1   107.9700462 569.024000
    777    780    781     1   111.5100476 526.347200
    777    780    788     1   110.1900474 564.840000
    780    777    789     1   110.1900474 564.840000
    780    781    782     1   111.5100476 526.347200
    780    781    787     1   110.1900474 564.840000
    781    780    788     1   110.1900474 564.840000
    781    782    786     1   107.9700462 569.024000
    781    782    798     1   107.9700462 569.024000
    782    781    787     1   110.1900474 564.840000
    786    782    798     1   108.2900466 608.353600
    790    776    798     1   107.9700462 569.024000
    799    800    803     1   111.5100476 526.347200
    799    800    812     1   110.1900474 564.840000
    799    813    819     1   110.1900474 564.840000
    799    821    805     1   112.4800480 524.673600
    800    803    804     1   111.5100476 526.347200
    800    803    811     1   110.1900474 564.840000
    800    799    813     1   111.5100476 526.347200
    800    799    821     1   107.9700462 569.024000
    803    804    805     1   111.5100476 526.347200
    803    804    810     1   110.1900474 564.840000
    803    800    812     1   110.1900474 564.840000
    804    805    809     1   107.9700462 569.024000
    804    805    821     1   107.9700462 569.024000
    804    803    811     1   110.1900474 564.840000
    805    804    810     1   110.1900474 564.840000
    809    805    821     1   108.2900466 608.353600
    813    799    821     1   107.9700462 569.024000
    822    823    826     1   111.5100476 526.347200
    822    823    835     1   110.1900474 564.840000
    822    836    842     1   110.1900474 564.840000
    822    844    828     1   112.4800480 524.673600
    823    822    836     1   111.5100476 526.347200
    823    822    844     1   107.9700462 569.024000
    823    826    827     1   111.5100476 526.347200
    823    826    834     1   110.1900474 564.840000
    826    823    835     1   110.1900474 564.840000
    826    827    828     1   111.5100476 526.347200
    826    827    833     1   110.1900474 564.840000
    827    826    834     1   110.1900474 564.840000
    827    828    832     1   107.9700462 569.024000
    827    828    844     1   107.9700462 569.024000
    828    827    833     1   110.1900474 564.840000
    832    828    844     1   108.2900466 608.353600
    836    822    844     1   107.9700462 569.024000
    845    846    849     1   111.5100476 526.347200
    845    846    858     1   110.1900474 564.840000
    845    859    865     1   110.1900474 564.840000
    845    867    851     1   112.4800480 524.673600
    846    849    850     1   111.5100476 526.347200
    846    849    857     1   110.1900474 564.840000
    846    845    859     1   111.5100476 526.347200
    846    845    867     1   107.9700462 569.024000
    849    850    851     1   111.5100476 526.347200
    849    850    856     1   110.1900474 564.840000
    849    846    858     1   110.1900474 564.840000
    850    851    855     1   107.9700462 569.024000
    850    851    867     1   107.9700462 569.024000
    850    849    857     1   110.1900474 564.840000
    851    850    856     1   110.1900474 564.840000
    855    851    867     1   108.2900466 608.353600
    859    845    867     1   107.9700462 569.024000
    868    869    872     1   111.5100476 526.347200
    868    869    881     1   110.1900474 564.840000
    868    882    888     1   110.1900474 564.840000
    868    890    874     1   112.4800480 524.673600
    869    868    882     1   111.5100476 526.347200
    869    868    890     1   107.9700462 569.024000
    869    872    873     1   111.5100476 526.347200
    869    872    880     1   110.1900474 564.840000
    872    869    881     1   110.1900474 564.840000
    872    873    874     1   111.5100476 526.347200
    872    873    879     1   110.1900474 564.840000
    873    872    880     1   110.1900474 564.840000
    873    874    878     1   107.9700462 569.024000
    873    874    890     1   107.9700462 569.024000
    874    873    879     1   110.1900474 564.840000
    878    874    890     1   108.2900466 608.353600
    882    868    890     1   107.9700462 569.024000
    891    892    895     1   111.5100476 526.347200
    891    892    904     1   110.1900474 564.840000
    891    905    911     1   110.1900474 564.840000
    891    913    897     1   112.4800480 524.673600
    892    895    896     1   111.5100476 526.347200
    892    895    903     1   110.1900474 564.840000
    892    891    905     1   111.5100476 526.347200
    892    891    913     1   107.9700462 569.024000
    895    896    897     1   111.5100476 526.347200
    895    896    902     1   110.1900474 564.840000
    895    892    904     1   110.1900474 564.840000
    896    897    901     1   107.9700462 569.024000
    896    897    913     1   107.9700462 569.024000
    896    895    903     1   110.1900474 564.840000
    897    896    902     1   110.1900474 564.840000
    901    897    913     1   108.2900466 608.353600
    905    891    913     1   107.9700462 569.024000
    914    915    918     1   111.5100476 526.347200
    914    915    927     1   110.1900474 564.840000
    914    928    934     1   110.1900474 564.840000
    914    936    920     1   112.4800480 524.673600
    915    914    928     1   111.5100476 526.347200
    915    914    936     1   107.9700462 569.024000
    915    918    919     1   111.5100476 526.347200
    915    918    926     1   110.1900474 564.840000
    918    915    927     1   110.1900474 564.840000
    918    919    920     1   111.5100476 526.347200
    918    919    925     1   110.1900474 564.840000
    919    918    926     1   110.1900474 564.840000
    919    920    924     1   107.9700462 569.024000
    919    920    936     1   107.9700462 569.024000
    920    919    925     1   110.1900474 564.840000
    924    920    936     1   108.2900466 608.353600
    928    914    936     1   107.9700462 569.024000
    937    938    941     1   111.5100476 526.347200
    937    938    950     1   110.1900474 564.840000
    937    951    957     1   110.1900474 564.840000
    937    959    943     1   112.4800480 524.673600
    938    941    942     1   111.5100476 526.347200
    938    941    949     1   110.1900474 564.840000
    938    937    951     1   111.5100476 526.347200
    938    937    959     1   107.9700462 569.024000
    941    942    943     1   111.5100476 526.347200
    941    942    948     1   110.1900474 564.840000
    941    938    950     1   110.1900474 564.840000
    942    943    947     1   107.9700462 569.024000
    942    943    959     1   107.9700462 569.024000
    942    941    949     1   110.1900474 564.840000
    943    942    948     1   110.1900474 564.840000
    947    943    959     1   108.2900466 608.353600
    951    937    959     1   107.9700462 569.024000
    960    961    964     1   111.5100476 526.347200
    960    961    973     1   110.1900474 564.840000
    960    974    980     1   110.1900474 564.840000
    960    982    966     1   112.4800480 524.673600
    961    960    974     1   111.5100476 526.347200
    961    960    982     1   107.9700462 569.024000
    961    964    965     1   111.5100476 526.347200
    961    964    972     1   110.1900474 564.840000
    964    961    973     1   110.1900474 564.840000
    964    965    966     1   111.5100476 526.347200
    964    965    971     1   110.1900474 564.840000
    965    964    972     1   110.1900474 564.840000
    965    966    970     1   107.9700462 569.024000
    965    966    982     1   107.9700462 569.024000
    966    965    971     1   110.1900474 564.840000
    970    966    982     1   108.2900466 608.353600
    974    960    982     1   107.9700462 569.024000
    983    984    987     1   111.5100476 526.347200
    983    984    996     1   110.1900474 564.840000
    983    997   1003     1   110.1900474 564.840000
    983   1005    989     1   112.4800480 524.673600
    984    987    988     1   111.5100476 526.347200
    984    987    995     1   110.1900474 564.840000
    984    983    997     1   111.5100476 526.347200
    984    983   1005     1   107.9700462 569.024000
    987    988    989     1   111.5100476 526.347200
    987    988    994     1   110.1900474 564.840000
    987    984    996     1   110.1900474 564.840000
    988    989    993     1   107.9700462 569.024000
    988    989   1005     1   107.9700462 569.024000
    988    987    995     1   110.1900474 564.840000
    989    988    994     1   110.1900474 564.840000
    993    989   1005     1   108.2900466 608.353600
    997    983   1005     1   107.9700462 569.024000
   1006   1007   1010     1   111.5100476 526.347200
   1006   1007   1019     1   110.1900474 564.840000
   1006   1020   1026     1   110.1900474 564.840000
   1006   1028   1012     1   112.4800480 524.673600
   1007   1006   1020     1   111.5100476 526.347200
   1007   1006   1028     1   107.9700462 569.024000
   1007   1010   1011     1   111.5100476 526.347200
   1007   1010   1018     1   110.1900474 564.840000
   1010   1007   1019     1   110.1900474 564.840000
   1010   1011   1012     1   111.5100476 526.347200
   1010   1011   1017     1   110.1900474 564.840000
   1011   1010   1018     1   110.1900474 564.840000
   1011   1012   1016     1   107.9700462 569.024000
   1011   1012   1028     1   107.9700462 569.024000
   1012   1011   1017     1   110.1900474 564.840000
   1016   1012   1028     1   108.2900466 608.353600
   1020   1006   1028     1   107.9700462 569.024000
   1029   1030   1033     1   111.5100476 526.347200
   1029   1030   1042     1   110.1900474 564.840000
   1029   1043   1049     1   110.1900474 564.840000
   1029   1051   1035     1   112.4800480 524.673600
   1030   1033   1034     1   111.5100476 526.347200
   1030   1033   1041     1   110.1900474 564.840000
   1030   1029   1043     1   111.5100476 526.347200
   1030   1029   1051     1   107.9700462 569.024000
   1033   1034   1035     1   111.5100476 526.347200
   1033   1034   1040     1   110.1900474 564.840000
   1033   1030   1042     1   110.1900474 564.840000
   1034   1035   1039     1   107.9700462 569.024000
   1034   1035   1051     1   107.9700462 569.024000
   1034   1033   1041     1   110.1900474 564.840000
   1035   1034   1040     1   110.1900474 564.840000
   1039   1035   1051     1   108.2900466 608.353600
   1043   1029   1051     1   107.9700462 569.024000
   1052   1053   1056     1   111.5100476 526.347200
   1052   1053   1065     1   110.1900474 564.840000
   1052   1066   1072     1   110.1900474 564.840000
   1052   1074   1058     1   112.4800480 524.673600
   1053   1052   1066     1   111.5100476 526.347200
   1053   1052   1074     1   107.9700462 569.024000
   1053   1056   1057     1   111.5100476 526.347200
   1053   1056   1064     1   110.1900474 564.840000
   1056   1053   1065     1   110.1900474 564.840000
   1056   1057   1058     1   111.5100476 526.347200
   1056   1057   1063     1   110.1900474 564.840000
   1057   1056   1064     1   110.1900474 564.840000
   1057   1058   1062     1   107.9700462 569.024000
   1057   1058   1074     1   107.9700462 569.024000
   1058   1057   1063     1   110.1900474 564.840000
   1062   1058   1074     1   108.2900466 608.353600
   1066   1052   1074     1   107.9700462 569.024000
   1075   1076   1079     1   111.5100476 526.347200
   1075   1076   1088     1   110.1900474 564.840000
   1075   1089   1095     1   110.1900474 564.840000
   1075   1097   1081     1   112.4800480 524.673600
   1076   1079   1080     1   111.5100476 526.347200
   1076   1079   1087     1   110.1900474 564.840000
   1076   1075   1089     1   111.5100476 526.347200
   1076   1075   1097     1   107.9700462 569.024000
   1079   1080   1081     1   111.5100476 526.347200
   1079   1080   1086     1   110.1900474 564.840000
   1079   1076   1088     1   110.1900474 564.840000
   1080   1081   1085     1   107.9700462 569.024000
   1080   1081   1097     1   107.9700462 569.024000
   1080   1079   1087     1   110.1900474 564.840000
   1081   1080   1086     1   110.1900474 564.840000
   1085   1081   1097     1   108.2900466 608.353600
   1089   1075   1097     1   107.9700462 569.024000
   1098   1099   1102     1   111.5100476 526.347200
   1098   1099   1111     1   110.1900474 564.840000
   1098   1112   1118     1   110.1900474 564.840000
   1098   1120   1104     1   112.4800480 524.673600
   1099   1098   1112     1   111.5100476 526.347200
   1099   1098   1120     1   107.9700462 569.024000
   1099   1102   1103     1   111.5100476 526.347200
   1099   1102   1110     1   110.1900474 564.840000
   1102   1099   1111     1   110.1900474 564.840000
   1102   1103   1104     1   111.5100476 526.347200
   1102   1103   1109     1   110.1900474 564.840000
   1103   1102   1110     1   110.1900474 564.840000
   1103   1104   1108     1   107.9700462 569.024000
   1103   1104   1120     1   107.9700462 569.024000
   1104   1103   1109     1   110.1900474 564.840000
   1108   1104   1120     1   108.2900466 608.353600
   1112   1098   1120     1   107.9700462 569.024000
   1121   1122   1125     1   111.5100476 526.347200
   1121   1122   1134     1   110.1900474 564.840000
   1121   1135   1141     1   110.1900474 564.840000
   1121   1143   1127     1   112.4800480 524.673600
   1122   1125   1126     1   111.5100476 526.347200
   1122   1125   1133     1   110.1900474 564.840000
   1122   1121   1135     1   111.5100476 526.347200
   1122   1121   1143     1   107.9700462 569.024000
   1125   1126   1127     1   111.5100476 526.347200
   1125   1126   1132     1   110.1900474 564.840000
   1125   1122   1134     1   110.1900474 564.840000
   1126   1127   1131     1   107.9700462 569.024000
   1126   1127   1143     1   107.9700462 569.024000
   1126   1125   1133     1   110.1900474 564.840000
   1127   1126   1132     1   110.1900474 564.840000
   1131   1127   1143     1   108.2900466 608.353600
   1135   1121   1143     1   107.9700462 569.024000
   1144   1145   1148     1   111.5100476 526.347200
   1144   1145   1157     1   110.1900474 564.840000
   1144   1158   1164     1   110.1900474 564.840000
   1144   1166   1150     1   112.4800480 524.673600
   1145   1144   1158     1   111.5100476 526.347200
   1145   1144   1166     1   107.9700462 569.024000
   1145   1148   1149     1   111.5100476 526.347200
   1145   1148   1156     1   110.1900474 564.840000
   1148   1145   1157     1   110.1900474 564.840000
   1148   1149   1150     1   111.5100476 526.347200
   1148   1149   1155     1   110.1900474 564.840000
   1149   1148   1156     1   110.1900474 564.840000
   1149   1150   1154     1   107.9700462 569.024000
   1149   1150   1166     1   107.9700462 569.024000
   1150   1149   1155     1   110.1900474 564.840000
   1154   1150   1166     1   108.2900466 608.353600
   1158   1144   1166     1   107.9700462 569.024000
   1167   1168   1171     1   111.5100476 526.347200
   1167   1168   1180     1   110.1900474 564.840000
   1167   1181   1187     1   110.1900474 564.840000
   1167   1189   1173     1   112.4800480 524.673600
   1168   1171   1172     1   111.5100476 526.347200
   1168   1171   1179     1   110.1900474 564.840000
   1168   1167   1181     1   111.5100476 526.347200
   1168   1167   1189     1   107.9700462 569.024000
   1171   1172   1173     1   111.5100476 526.347200
   1171   1172   1178     1   110.1900474 564.840000
   1171   1168   1180     1   110.1900474 564.840000
   1172   1173   1177     1   107.9700462 569.024000
   1172   1173   1189     1   107.9700462 569.024000
   1172   1171   1179     1   110.1900474 564.840000
   1173   1172   1178     1   110.1900474 564.840000
   1177   1173   1189     1   108.2900466 608.353600
   1181   1167   1189     1   107.9700462 569.024000
      1      2      3     1   109.8800469 414.216000
      1      2      4     1   109.8800469 414.216000
      1      5      6     1   109.8800469 414.216000
      1      5      7     1   109.8800469 414.216000
      1      8      9     1   109.8800469 414.216000
      1      8     10     1   109.8800469 414.216000
      2     14     15     1   109.8000471 387.438400
      2     14     16     1   109.8000471 387.438400
      3      2     14     1   109.5600471 388.275200
      3      2      4     1   108.4600466 328.025600
      4      2     14     1   109.5600471 388.275200
      5     17     18     1   109.8000471 387.438400
      5     17     19     1   109.8000471 387.438400
      6      5     17     1   109.5600471 388.275200
      6      5      7     1   108.4600466 328.025600
      7      5     17     1   109.5600471 388.275200
      8     11     12     1   109.8000471 387.438400
      8     11     13     1   109.8000471 387.438400
      9      8     11     1   109.5600471 388.275200
      9      8     10     1   108.4600466 328.025600
     10      8     11     1   109.5600471 388.275200
     11     23     24     1   109.5600471 388.275200
     11     23     25     1   109.5600471 388.275200
     12     11     23     1   109.8000471 387.438400
     12     11     13     1   107.5800459 329.699200
     13     11     23     1   109.8000471 387.438400
     14     26     27     1   109.5600471 388.275200
     14     26     28     1   109.5600471 388.275200
     15     14     26     1   109.8000471 387.438400
     15     14     16     1   107.5800459 329.699200
     16     14     26     1   109.8000471 387.438400
     17     20     21     1   109.5600471 388.275200
     17     20     22     1   109.5600471 388.275200
     18     17     20     1   109.8000471 387.438400
     18     17     19     1   107.5800459 329.699200
     19     17     20     1   109.8000471 387.438400
     21     20     57     1   109.7800468 425.094400
     21     20     22     1   108.4600466 328.025600
     22     20     57     1   109.7800468 425.094400
     24     23     86     1   109.7800468 425.094400
     24     23     25     1   108.4600466 328.025600
     25     23     86     1   109.7800468 425.094400
     27     26    115     1   109.7800468 425.094400
     27     26     28     1   108.4600466 328.025600
     28     26    115     1   109.7800468 425.094400
     29     30     31     1   109.8800469 414.216000
     29     30     32     1   109.8800469 414.216000
     29     33     34     1   109.8800469 414.216000
     29     33     35     1   109.8800469 414.216000
     29     36     37     1   109.8800469 414.216000
     29     36     38     1   109.8800469 414.216000
     30     42     43     1   109.8000471 387.438400
     30     42     44     1   109.8000471 387.438400
     31     30     42     1   109.5600471 388.275200
     31     30     32     1   108.4600466 328.025600
     32     30     42     1   109.5600471 388.275200
     33     45     46     1   109.8000471 387.438400
     33     45     47     1   109.8000471 387.438400
     34     33     45     1   109.5600471 388.275200
     34     33     35     1   108.4600466 328.025600
     35     33     45     1   109.5600471 388.275200
     36     39     40     1   109.8000471 387.438400
     36     39     41     1   109.8000471 387.438400
     37     36     39     1   109.5600471 388.275200
     37     36     38     1   108.4600466 328.025600
     38     36     39     1   109.5600471 388.275200
     39     48     49     1   109.5600471 388.275200
     39     48     50     1   109.5600471 388.275200
     40     39     48     1   109.8000471 387.438400
     40     39     41     1   107.5800459 329.699200
     41     39     48     1   109.8000471 387.438400
     42     54     55     1   109.5600471 388.275200
     42     54     56     1   109.5600471 388.275200
     43     42     54     1   109.8000471 387.438400
     43     42     44     1   107.5800459 329.699200
     44     42     54     1   109.8000471 387.438400
     45     51     52     1   109.5600471 388.275200
     45     51     53     1   109.5600471 388.275200
     46     45     51     1   109.8000471 387.438400
     46     45     47     1   107.5800459 329.699200
     47     45     51     1   109.8000471 387.438400
     49     48     57     1   109.7800468 425.094400
     49     48     50     1   108.4600466 328.025600
     50     48     57     1   109.7800468 425.094400
     52     51    144     1   109.7800468 425.094400
     52     51     53     1   108.4600466 328.025600
     53     51    144     1   109.7800468 425.094400
     55     54    173     1   109.7800468 425.094400
     55     54     56     1   108.4600466 328.025600
     56     54    173     1   109.7800468 425.094400
     58     59     60     1   109.8800469 414.216000
     58     59     61     1   109.8800469 414.216000
     58     62     63     1   109.8800469 414.216000
     58     62     64     1   109.8800469 414.216000
     58     65     66     1   109.8800469 414.216000
     58     65     67     1   109.8800469 414.216000
     59     71     72     1   109.8000471 387.438400
     59     71     73     1   109.8000471 387.438400
     60     59     71     1   109.5600471 388.275200
     60     59     61     1   108.4600466 328.025600
     61     59     71     1   109.5600471 388.275200
     62     74     75     1   109.8000471 387.438400
     62     74     76     1   109.8000471 387.438400
     63     62     74     1   109.5600471 388.275200
     63     62     64     1   108.4600466 328.025600
     64     62     74     1   109.5600471 388.275200
     65     68     69     1   109.8000471 387.438400
     65     68     70     1   109.8000471 387.438400
     66     65     68     1   109.5600471 388.275200
     66     65     67     1   108.4600466 328.025600
     67     65     68     1   109.5600471 388.275200
     68     77     78     1   109.5600471 388.275200
     68     77     79     1   109.5600471 388.275200
     69     68     77     1   109.8000471 387.438400
     69     68     70     1   107.5800459 329.699200
     70     68     77     1   109.8000471 387.438400
     71     83     84     1   109.5600471 388.275200
     71     83     85     1   109.5600471 388.275200
     72     71     83     1   109.8000471 387.438400
     72     71     73     1   107.5800459 329.699200
     73     71     83     1   109.8000471 387.438400
     74     80     81     1   109.5600471 388.275200
     74     80     82     1   109.5600471 388.275200
     75     74     80     1   109.8000471 387.438400
     75     74     76     1   107.5800459 329.699200
     76     74     80     1   109.8000471 387.438400
     78     77     86     1   109.7800468 425.094400
     78     77     79     1   108.4600466 328.025600
     79     77     86     1   109.7800468 425.094400
     81     80    202     1   109.7800468 425.094400
     81     80     82     1   108.4600466 328.025600
     82     80    202     1   109.7800468 425.094400
     84     83    231     1   109.7800468 425.094400
     84     83     85     1   108.4600466 328.025600
     85     83    231     1   109.7800468 425.094400
     87     88     89     1   109.8800469 414.216000
     87     88     90     1   109.8800469 414.216000
     87     91     92     1   109.8800469 414.216000
     87     91     93     1   109.8800469 414.216000
     87     94     95     1   109.8800469 414.216000
     87     94     96     1   109.8800469 414.216000
     88    100    101     1   109.8000471 387.438400
     88    100    102     1   109.8000471 387.438400
     89     88    100     1   109.5600471 388.275200
     89     88     90     1   108.4600466 328.025600
     90     88    100     1   109.5600471 388.275200
     91    103    104     1   109.8000471 387.438400
     91    103    105     1   109.8000471 387.438400
     92     91    103     1   109.5600471 388.275200
     92     91     93     1   108.4600466 328.025600
     93     91    103     1   109.5600471 388.275200
     94     97     98     1   109.8000471 387.438400
     94     97     99     1   109.8000471 387.438400
     95     94     97     1   109.5600471 388.275200
     95     94     96     1   108.4600466 328.025600
     96     94     97     1   109.5600471 388.275200
     97    106    107     1   109.5600471 388.275200
     97    106    108     1   109.5600471 388.275200
     98     97    106     1   109.8000471 387.438400
     98     97     99     1   107.5800459 329.699200
     99     97    106     1   109.8000471 387.438400
    100    112    113     1   109.5600471 388.275200
    100    112    114     1   109.5600471 388.275200
    101    100    112     1   109.8000471 387.438400
    101    100    102     1   107.5800459 329.699200
    102    100    112     1   109.8000471 387.438400
    103    109    110     1   109.5600471 388.275200
    103    109    111     1   109.5600471 388.275200
    104    103    109     1   109.8000471 387.438400
    104    103    105     1   107.5800459 329.699200
    105    103    109     1   109.8000471 387.438400
    107    106    115     1   109.7800468 425.094400
    107    106    108     1   108.4600466 328.025600
    108    106    115     1   109.7800468 425.094400
    110    109    260     1   109.7800468 425.094400
    110    109    111     1   108.4600466 328.025600
    111    109    260     1   109.7800468 425.094400
    113    112    289     1   109.7800468 425.094400
    113    112    114     1   108.4600466 328.025600
    114    112    289     1   109.7800468 425.094400
    116    117    118     1   109.8800469 414.216000
    116    117    119     1   109.8800469 414.216000
    116    120    121     1   109.8800469 414.216000
    116    120    122     1   109.8800469 414.216000
    116    123    124     1   109.8800469 414.216000
    116    123    125     1   109.8800469 414.216000
    117    129    130     1   109.8000471 387.438400
    117    129    131     1   109.8000471 387.438400
    118    117    129     1   109.5600471 388.275200
    118    117    119     1   108.4600466 328.025600
    119    117    129     1   109.5600471 388.275200
    120    132    133     1   109.8000471 387.438400
    120    132    134     1   109.8000471 387.438400
    121    120    132     1   109.5600471 388.275200
    121    120    122     1   108.4600466 328.025600
    122    120    132     1   109.5600471 388.275200
    123    126    127     1   109.8000471 387.438400
    123    126    128     1   109.8000471 387.438400
    124    123    126     1   109.5600471 388.275200
    124    123    125     1   108.4600466 328.025600
    125    123    126     1   109.5600471 388.275200
    126    135    136     1   109.5600471 388.275200
    126    135    137     1   109.5600471 388.275200
    127    126    135     1   109.8000471 387.438400
    127    126    128     1   107.5800459 329.699200
    128    126    135     1   109.8000471 387.438400
    129    141    142     1   109.5600471 388.275200
    129    141    143     1   109.5600471 388.275200
    130    129    141     1   109.8000471 387.438400
    130    129    131     1   107.5800459 329.699200
    131    129    141     1   109.8000471 387.438400
    132    138    139     1   109.5600471 388.275200
    132    138    140     1   109.5600471 388.275200
    133    132    138     1   109.8000471 387.438400
    133    132    134     1   107.5800459 329.699200
    134    132    138     1   109.8000471 387.438400
    136    135    144     1   109.7800468 425.094400
    136    135    137     1   108.4600466 328.025600
    137    135    144     1   109.7800468 425.094400
    139    138    318     1   109.7800468 425.094400
    139    138    140     1   108.4600466 328.025600
    140    138    318     1   109.7800468 425.094400
    142    141    347     1   109.7800468 425.094400
    142    141    143     1   108.4600466 328.025600
    143    141    347     1   109.7800468 425.094400
    145    146    147     1   109.8800469 414.216000
    145    146    148     1   109.8800469 414.216000
    145    149    150     1   109.8800469 414.216000
    145    149    151     1   109.8800469 414.216000
    145    152    153     1   109.8800469 414.216000
    145    152    154     1   109.8800469 414.216000
    146    158    159     1   109.8000471 387.438400
    146    158    160     1   109.8000471 387.438400
    147    146    158     1   109.5600471 388.275200
    147    146    148     1   108.4600466 328.025600
    148    146    158     1   109.5600471 388.275200
    149    161    162     1   109.8000471 387.438400
    149    161    163     1   109.8000471 387.438400
    150    149    161     1   109.5600471 388.275200
    150    149    151     1   108.4600466 328.025600
    151    149    161     1   109.5600471 388.275200
    152    155    156     1   109.8000471 387.438400
    152    155    157     1   109.8000471 387.438400
    153    152    155     1   109.5600471 388.275200
    153    152    154     1   108.4600466 328.025600
    154    152    155     1   109.5600471 388.275200
    155    164    165     1   109.5600471 388.275200
    155    164    166     1   109.5600471 388.275200
    156    155    164     1   109.8000471 387.438400
    156    155    157     1   107.5800459 329.699200
    157    155    164     1   109.8000471 387.438400
    158    170    171     1   109.5600471 388.275200
    158    170    172     1   109.5600471 388.275200
    159    158    170     1   109.8000471 387.438400
    159    158    160     1   107.5800459 329.699200
    160    158    170     1   109.8000471 387.438400
    161    167    168     1   109.5600471 388.275200
    161    167    169     1   109.5600471 388.275200
    162    161    167     1   109.8000471 387.438400
    162    161    163     1   107.5800459 329.699200
    163    161    167     1   109.8000471 387.438400
    165    164    173     1   109.7800468 425.094400
    165    164    166     1   108.4600466 328.025600
    166    164    173     1   109.7800468 425.094400
    168    167    376     1   109.7800468 425.094400
    168    167    169     1   108.4600466 328.025600
    169    167    376     1   109.7800468 425.094400
    171    170    405     1   109.7800468 425.094400
    171    170    172     1   108.4600466 328.025600
    172    170    405     1   109.7800468 425.094400
    174    175    176     1   109.8800469 414.216000
    174    175    177     1   109.8800469 414.216000
    174    178    179     1   109.8800469 414.216000
    174    178    180     1   109.8800469 414.216000
    174    181    182     1   109.8800469 414.216000
    174    181    183     1   109.8800469 414.216000
    175    187    188     1   109.8000471 387.438400
    175    187    189     1   109.8000471 387.438400
    176    175    187     1   109.5600471 388.275200
    176    175    177     1   108.4600466 328.025600
    177    175    187     1   109.5600471 388.275200
    178    190    191     1   109.8000471 387.438400
    178    190    192     1   109.8000471 387.438400
    179    178    190     1   109.5600471 388.275200
    179    178    180     1   108.4600466 328.025600
    180    178    190     1   109.5600471 388.275200
    181    184    185     1   109.8000471 387.438400
    181    184    186     1   109.8000471 387.438400
    182    181    184     1   109.5600471 388.275200
    182    181    183     1   108.4600466 328.025600
    183    181    184     1   109.5600471 388.275200
    184    193    194     1   109.5600471 388.275200
    184    193    195     1   109.5600471 388.275200
    185    184    193     1   109.8000471 387.438400
    185    184    186     1   107.5800459 329.699200
    186    184    193     1   109.8000471 387.438400
    187    199    200     1   109.5600471 388.275200
    187    199    201     1   109.5600471 388.275200
    188    187    199     1   109.8000471 387.438400
    188    187    189     1   107.5800459 329.699200
    189    187    199     1   109.8000471 387.438400
    190    196    197     1   109.5600471 388.275200
    190    196    198     1   109.5600471 388.275200
    191    190    196     1   109.8000471 387.438400
    191    190    192     1   107.5800459 329.699200
    192    190    196     1   109.8000471 387.438400
    194    193    202     1   109.7800468 425.094400
    194    193    195     1   108.4600466 328.025600
    195    193    202     1   109.7800468 425.094400
    197    196    434     1   109.7800468 425.094400
    197    196    198     1   108.4600466 328.025600
    198    196    434     1   109.7800468 425.094400
    200    199    463     1   109.7800468 425.094400
    200    199    201     1   108.4600466 328.025600
    201    199    463     1   109.7800468 425.094400
    203    204    205     1   109.8800469 414.216000
    203    204    206     1   109.8800469 414.216000
    203    207    208     1   109.8800469 414.216000
    203    207    209     1   109.8800469 414.216000
    203    210    211     1   109.8800469 414.216000
    203    210    212     1   109.8800469 414.216000
    204    216    217     1   109.8000471 387.438400
    204    216    218     1   109.8000471 387.438400
    205    204    216     1   109.5600471 388.275200
    205    204    206     1   108.4600466 328.025600
    206    204    216     1   109.5600471 388.275200
    207    219    220     1   109.8000471 387.438400
    207    219    221     1   109.8000471 387.438400
    208    207    219     1   109.5600471 388.275200
    208    207    209     1   108.4600466 328.025600
    209    207    219     1   109.5600471 388.275200
    210    213    214     1   109.8000471 387.438400
    210    213    215     1   109.8000471 387.438400
    211    210    213     1   109.5600471 388.275200
    211    210    212     1   108.4600466 328.025600
    212    210    213     1   109.5600471 388.275200
    213    222    223     1   109.5600471 388.275200
    213    222    224     1   109.5600471 388.275200
    214    213    222     1   109.8000471 387.438400
    214    213    215     1   107.5800459 329.699200
    215    213    222     1   109.8000471 387.438400
    216    228    229     1   109.5600471 388.275200
    216    228    230     1   109.5600471 388.275200
    217    216    228     1   109.8000471 387.438400
    217    216    218     1   107.5800459 329.699200
    218    216    228     1   109.8000471 387.438400
    219    225    226     1   109.5600471 388.275200
    219    225    227     1   109.5600471 388.275200
    220    219    225     1   109.8000471 387.438400
    220    219    221     1   107.5800459 329.699200
    221    219    225     1   109.8000471 387.438400
    223    222    231     1   109.7800468 425.094400
    223    222    224     1   108.4600466 328.025600
    224    222    231     1   109.7800468 425.094400
    226    225    492     1   109.7800468 425.094400
    226    225    227     1   108.4600466 328.025600
    227    225    492     1   109.7800468 425.094400
    229    228    521     1   109.7800468 425.094400
    229    228    230     1   108.4600466 328.025600
    230    228    521     1   109.7800468 425.094400
    232    233    234     1   109.8800469 414.216000
    232    233    235     1   109.8800469 414.216000
    232    236    237     1   109.8800469 414.216000
    232    236    238     1   109.8800469 414.216000
    232    239    240     1   109.8800469 414.216000
    232    239    241     1   109.8800469 414.216000
    233    245    246     1   109.8000471 387.438400
    233    245    247     1   109.8000471 387.438400
    234    233    245     1   109.5600471 388.275200
    234    233    235     1   108.4600466 328.025600
    235    233    245     1   109.5600471 388.275200
    236    248    249     1   109.8000471 387.438400
    236    248    250     1   109.8000471 387.438400
    237    236    248     1   109.5600471 388.275200
    237    236    238     1   108.4600466 328.025600
    238    236    248     1   109.5600471 388.275200
    239    242    243     1   109.8000471 387.438400
    239    242    244     1   109.8000471 387.438400
    240    239    242     1   109.5600471 388.275200
    240    239    241     1   108.4600466 328.025600
    241    239    242     1   109.5600471 388.275200
    242    251    252     1   109.5600471 388.275200
    242    251    253     1   109.5600471 388.275200
    243    242    251     1   109.8000471 387.438400
    243    242    244     1   107.5800459 329.699200
    244    242    251     1   109.8000471 387.438400
    245    257    258     1   109.5600471 388.275200
    245    257    259     1   109.5600471 388.275200
    246    245    257     1   109.8000471 387.438400
    246    245    247     1   107.5800459 329.699200
    247    245    257     1   109.8000471 387.438400
    248    254    255     1   109.5600471 388.275200
    248    254    256     1   109.5600471 388.275200
    249    248    254     1   109.8000471 387.438400
    249    248    250     1   107.5800459 329.699200
    250    248    254     1   109.8000471 387.438400
    252    251    260     1   109.7800468 425.094400
    252    251    253     1   108.4600466 328.025600
    253    251    260     1   109.7800468 425.094400
    255    254    550     1   109.7800468 425.094400
    255    254    256     1   108.4600466 328.025600
    256    254    550     1   109.7800468 425.094400
    258    257    579     1   109.7800468 425.094400
    258    257    259     1   108.4600466 328.025600
    259    257    579     1   109.7800468 425.094400
    261    262    263     1   109.8800469 414.216000
    261    262    264     1   109.8800469 414.216000
    261    265    266     1   109.8800469 414.216000
    261    265    267     1   109.8800469 414.216000
    261    268    269     1   109.8800469 414.216000
    261    268    270     1   109.8800469 414.216000
    262    274    275     1   109.8000471 387.438400
    262    274    276     1   109.8000471 387.438400
    263    262    274     1   109.5600471 388.275200
    263    262    264     1   108.4600466 328.025600
    264    262    274     1   109.5600471 388.275200
    265    277    278     1   109.8000471 387.438400
    265    277    279     1   109.8000471 387.438400
    266    265    277     1   109.5600471 388.275200
    266    265    267     1   108.4600466 328.025600
    267    265    277     1   109.5600471 388.275200
    268    271    272     1   109.8000471 387.438400
    268    271    273     1   109.8000471 387.438400
    269    268    271     1   109.5600471 388.275200
    269    268    270     1   108.4600466 328.025600
    270    268    271     1   109.5600471 388.275200
    271    280    281     1   109.5600471 388.275200
    271    280    282     1   109.5600471 388.275200
    272    271    280     1   109.8000471 387.438400
    272    271    273     1   107.5800459 329.699200
    273    271    280     1   109.8000471 387.438400
    274    286    287     1   109.5600471 388.275200
    274    286    288     1   109.5600471 388.275200
    275    274    286     1   109.8000471 387.438400
    275    274    276     1   107.5800459 329.699200
    276    274    286     1   109.8000471 387.438400
    277    283    284     1   109.5600471 388.275200
    277    283    285     1   109.5600471 388.275200
    278    277    283     1   109.8000471 387.438400
    278    277    279     1   107.5800459 329.699200
    279    277    283     1   109.8000471 387.438400
    281    280    289     1   109.7800468 425.094400
    281    280    282     1   108.4600466 328.025600
    282    280    289     1   109.7800468 425.094400
    284    283    608     1   109.7800468 425.094400
    284    283    285     1   108.4600466 328.025600
    285    283    608     1   109.7800468 425.094400
    287    286    637     1   109.7800468 425.094400
    287    286    288     1   108.4600466 328.025600
    288    286    637     1   109.7800468 425.094400
    290    291    292     1   109.8800469 414.216000
    290    291    293     1   109.8800469 414.216000
    290    294    295     1   109.8800469 414.216000
    290    294    296     1   109.8800469 414.216000
    290    297    298     1   109.8800469 414.216000
    290    297    299     1   109.8800469 414.216000
    291    303    304     1   109.8000471 387.438400
    291    303    305     1   109.8000471 387.438400
    292    291    303     1   109.5600471 388.275200
    292    291    293     1   108.4600466 328.025600
    293    291    303     1   109.5600471 388.275200
    294    306    307     1   109.8000471 387.438400
    294    306    308     1   109.8000471 387.438400
    295    294    306     1   109.5600471 388.275200
    295    294    296     1   108.4600466 328.025600
    296    294    306     1   109.5600471 388.275200
    297    300    301     1   109.8000471 387.438400
    297    300    302     1   109.8000471 387.438400
    298    297    300     1   109.5600471 388.275200
    298    297    299     1   108.4600466 328.025600
    299    297    300     1   109.5600471 388.275200
    300    309    310     1   109.5600471 388.275200
    300    309    311     1   109.5600471 388.275200
    301    300    309     1   109.8000471 387.438400
    301    300    302     1   107.5800459 329.699200
    302    300    309     1   109.8000471 387.438400
    303    315    316     1   109.5600471 388.275200
    303    315    317     1   109.5600471 388.275200
    304    303    315     1   109.8000471 387.438400
    304    303    305     1   107.5800459 329.699200
    305    303    315     1   109.8000471 387.438400
    306    312    313     1   109.5600471 388.275200
    306    312    314     1   109.5600471 388.275200
    307    306    312     1   109.8000471 387.438400
    307    306    308     1   107.5800459 329.699200
    308    306    312     1   109.8000471 387.438400
    310    309    318     1   109.7800468 425.094400
    310    309    311     1   108.4600466 328.025600
    311    309    318     1   109.7800468 425.094400
    313    312    648     1   109.7800468 425.094400
    313    312    314     1   108.4600466 328.025600
    314    312    648     1   109.7800468 425.094400
    316    315    671     1   109.7800468 425.094400
    316    315    317     1   108.4600466 328.025600
    317    315    671     1   109.7800468 425.094400
    319    320    321     1   109.8800469 414.216000
    319    320    322     1   109.8800469 414.216000
    319    323    324     1   109.8800469 414.216000
    319    323    325     1   109.8800469 414.216000
    319    326    327     1   109.8800469 414.216000
    319    326    328     1   109.8800469 414.216000
    320    332    333     1   109.8000471 387.438400
    320    332    334     1   109.8000471 387.438400
    321    320    332     1   109.5600471 388.275200
    321    320    322     1   108.4600466 328.025600
    322    320    332     1   109.5600471 388.275200
    323    335    336     1   109.8000471 387.438400
    323    335    337     1   109.8000471 387.438400
    324    323    335     1   109.5600471 388.275200
    324    323    325     1   108.4600466 328.025600
    325    323    335     1   109.5600471 388.275200
    326    329    330     1   109.8000471 387.438400
    326    329    331     1   109.8000471 387.438400
    327    326    329     1   109.5600471 388.275200
    327    326    328     1   108.4600466 328.025600
    328    326    329     1   109.5600471 388.275200
    329    338    339     1   109.5600471 388.275200
    329    338    340     1   109.5600471 388.275200
    330    329    338     1   109.8000471 387.438400
    330    329    331     1   107.5800459 329.699200
    331    329    338     1   109.8000471 387.438400
    332    344    345     1   109.5600471 388.275200
    332    344    346     1   109.5600471 388.275200
    333    332    344     1   109.8000471 387.438400
    333    332    334     1   107.5800459 329.699200
    334    332    344     1   109.8000471 387.438400
    335    341    342     1   109.5600471 388.275200
    335    341    343     1   109.5600471 388.275200
    336    335    341     1   109.8000471 387.438400
    336    335    337     1   107.5800459 329.699200
    337    335    341     1   109.8000471 387.438400
    339    338    347     1   109.7800468 425.094400
    339    338    340     1   108.4600466 328.025600
    340    338    347     1   109.7800468 425.094400
    342    341    694     1   109.7800468 425.094400
    342    341    343     1   108.4600466 328.025600
    343    341    694     1   109.7800468 425.094400
    345    344    717     1   109.7800468 425.094400
    345    344    346     1   108.4600466 328.025600
    346    344    717     1   109.7800468 425.094400
    348    349    350     1   109.8800469 414.216000
    348    349    351     1   109.8800469 414.216000
    348    352    353     1   109.8800469 414.216000
    348    352    354     1   109.8800469 414.216000
    348    355    356     1   109.8800469 414.216000
    348    355    357     1   109.8800469 414.216000
    349    361    362     1   109.8000471 387.438400
    349    361    363     1   109.8000471 387.438400
    350    349    361     1   109.5600471 388.275200
    350    349    351     1   108.4600466 328.025600
    351    349    361     1   109.5600471 388.275200
    352    364    365     1   109.8000471 387.438400
    352    364    366     1   109.8000471 387.438400
    353    352    364     1   109.5600471 388.275200
    353    352    354     1   108.4600466 328.025600
    354    352    364     1   109.5600471 388.275200
    355    358    359     1   109.8000471 387.438400
    355    358    360     1   109.8000471 387.438400
    356    355    358     1   109.5600471 388.275200
    356    355    357     1   108.4600466 328.025600
    357    355    358     1   109.5600471 388.275200
    358    367    368     1   109.5600471 388.275200
    358    367    369     1   109.5600471 388.275200
    359    358    367     1   109.8000471 387.438400
    359    358    360     1   107.5800459 329.699200
    360    358    367     1   109.8000471 387.438400
    361    373    374     1   109.5600471 388.275200
    361    373    375     1   109.5600471 388.275200
    362    361    373     1   109.8000471 387.438400
    362    361    363     1   107.5800459 329.699200
    363    361    373     1   109.8000471 387.438400
    364    370    371     1   109.5600471 388.275200
    364    370    372     1   109.5600471 388.275200
    365    364    370     1   109.8000471 387.438400
    365    364    366     1   107.5800459 329.699200
    366    364    370     1   109.8000471 387.438400
    368    367    376     1   109.7800468 425.094400
    368    367    369     1   108.4600466 328.025600
    369    367    376     1   109.7800468 425.094400
    371    370    740     1   109.7800468 425.094400
    371    370    372     1   108.4600466 328.025600
    372    370    740     1   109.7800468 425.094400
    374    373    763     1   109.7800468 425.094400
    374    373    375     1   108.4600466 328.025600
    375    373    763     1   109.7800468 425.094400
    377    378    379     1   109.8800469 414.216000
    377    378    380     1   109.8800469 414.216000
    377    381    382     1   109.8800469 414.216000
    377    381    383     1   109.8800469 414.216000
    377    384    385     1   109.8800469 414.216000
    377    384    386     1   109.8800469 414.216000
    378    390    391     1   109.8000471 387.438400
    378    390    392     1   109.8000471 387.438400
    379    378    390     1   109.5600471 388.275200
    379    378    380     1   108.4600466 328.025600
    380    378    390     1   109.5600471 388.275200
    381    393    394     1   109.8000471 387.438400
    381    393    395     1   109.8000471 387.438400
    382    381    393     1   109.5600471 388.275200
    382    381    383     1   108.4600466 328.025600
    383    381    393     1   109.5600471 388.275200
    384    387    388     1   109.8000471 387.438400
    384    387    389     1   109.8000471 387.438400
    385    384    387     1   109.5600471 388.275200
    385    384    386     1   108.4600466 328.025600
    386    384    387     1   109.5600471 388.275200
    387    396    397     1   109.5600471 388.275200
    387    396    398     1   109.5600471 388.275200
    388    387    396     1   109.8000471 387.438400
    388    387    389     1   107.5800459 329.699200
    389    387    396     1   109.8000471 387.438400
    390    402    403     1   109.5600471 388.275200
    390    402    404     1   109.5600471 388.275200
    391    390    402     1   109.8000471 387.438400
    391    390    392     1   107.5800459 329.699200
    392    390    402     1   109.8000471 387.438400
    393    399    400     1   109.5600471 388.275200
    393    399    401     1   109.5600471 388.275200
    394    393    399     1   109.8000471 387.438400
    394    393    395     1   107.5800459 329.699200
    395    393    399     1   109.8000471 387.438400
    397    396    405     1   109.7800468 425.094400
    397    396    398     1   108.4600466 328.025600
    398    396    405     1   109.7800468 425.094400
    400    399    786     1   109.7800468 425.094400
    400    399    401     1   108.4600466 328.025600
    401    399    786     1   109.7800468 425.094400
    403    402    809     1   109.7800468 425.094400
    403    402    404     1   108.4600466 328.025600
    404    402    809     1   109.7800468 425.094400
    406    407    408     1   109.8800469 414.216000
    406    407    409     1   109.8800469 414.216000
    406    410    411     1   109.8800469 414.216000
    406    410    412     1   109.8800469 414.216000
    406    413    414     1   109.8800469 414.216000
    406    413    415     1   109.8800469 414.216000
    407    419    420     1   109.8000471 387.438400
    407    419    421     1   109.8000471 387.438400
    408    407    419     1   109.5600471 388.275200
    408    407    409     1   108.4600466 328.025600
    409    407    419     1   109.5600471 388.275200
    410    422    423     1   109.8000471 387.438400
    410    422    424     1   109.8000471 387.438400
    411    410    422     1   109.5600471 388.275200
    411    410    412     1   108.4600466 328.025600
    412    410    422     1   109.5600471 388.275200
    413    416    417     1   109.8000471 387.438400
    413    416    418     1   109.8000471 387.438400
    414    413    416     1   109.5600471 388.275200
    414    413    415     1   108.4600466 328.025600
    415    413    416     1   109.5600471 388.275200
    416    425    426     1   109.5600471 388.275200
    416    425    427     1   109.5600471 388.275200
    417    416    425     1   109.8000471 387.438400
    417    416    418     1   107.5800459 329.699200
    418    416    425     1   109.8000471 387.438400
    419    431    432     1   109.5600471 388.275200
    419    431    433     1   109.5600471 388.275200
    420    419    431     1   109.8000471 387.438400
    420    419    421     1   107.5800459 329.699200
    421    419    431     1   109.8000471 387.438400
    422    428    429     1   109.5600471 388.275200
    422    428    430     1   109.5600471 388.275200
    423    422    428     1   109.8000471 387.438400
    423    422    424     1   107.5800459 329.699200
    424    422    428     1   109.8000471 387.438400
    426    425    434     1   109.7800468 425.094400
    426    425    427     1   108.4600466 328.025600
    427    425    434     1   109.7800468 425.094400
    429    428    832     1   109.7800468 425.094400
    429    428    430     1   108.4600466 328.025600
    430    428    832     1   109.7800468 425.094400
    432    431    855     1   109.7800468 425.094400
    432    431    433     1   108.4600466 328.025600
    433    431    855     1   109.7800468 425.094400
    435    436    437     1   109.8800469 414.216000
    435    436    438     1   109.8800469 414.216000
    435    439    440     1   109.8800469 414.216000
    435    439    441     1   109.8800469 414.216000
    435    442    443     1   109.8800469 414.216000
    435    442    444     1   109.8800469 414.216000
    436    448    449     1   109.8000471 387.438400
    436    448    450     1   109.8000471 387.438400
    437    436    448     1   109.5600471 388.275200
    437    436    438     1   108.4600466 328.025600
    438    436    448     1   109.5600471 388.275200
    439    451    452     1   109.8000471 387.438400
    439    451    453     1   109.8000471 387.438400
    440    439    451     1   109.5600471 388.275200
    440    439    441     1   108.4600466 328.025600
    441    439    451     1   109.5600471 388.275200
    442    445    446     1   109.8000471 387.438400
    442    445    447     1   109.8000471 387.438400
    443    442    445     1   109.5600471 388.275200
    443    442    444     1   108.4600466 328.025600
    444    442    445     1   109.5600471 388.275200
    445    454    455     1   109.5600471 388.275200
    445    454    456     1   109.5600471 388.275200
    446    445    454     1   109.8000471 387.438400
    446    445    447     1   107.5800459 329.699200
    447    445    454     1   109.8000471 387.438400
    448    460    461     1   109.5600471 388.275200
    448    460    462     1   109.5600471 388.275200
    449    448    460     1   109.8000471 387.438400
    449    448    450     1   107.5800459 329.699200
    450    448    460     1   109.8000471 387.438400
    451    457    458     1   109.5600471 388.275200
    451    457    459     1   109.5600471 388.275200
    452    451    457     1   109.8000471 387.438400
    452    451    453     1   107.5800459 329.699200
    453    451    457     1   109.8000471 387.438400
    455    454    463     1   109.7800468 425.094400
    455    454    456     1   108.4600466 328.025600
    456    454    463     1   109.7800468 425.094400
    458    457    878     1   109.7800468 425.094400
    458    457    459     1   108.4600466 328.025600
    459    457    878     1   109.7800468 425.094400
    461    460    901     1   109.7800468 425.094400
    461    460    462     1   108.4600466 328.025600
    462    460    901     1   109.7800468 425.094400
    464    465    466     1   109.8800469 414.216000
    464    465    467     1   109.8800469 414.216000
    464    468    469     1   109.8800469 414.216000
    464    468    470     1   109.8800469 414.216000
    464    471    472     1   109.8800469 414.216000
    464    471    473     1   109.8800469 414.216000
    465    477    478     1   109.8000471 387.438400
    465    477    479     1   109.8000471 387.438400
    466    465    477     1   109.5600471 388.275200
    466    465    467     1   108.4600466 328.025600
    467    465    477     1   109.5600471 388.275200
    468    480    481     1   109.8000471 387.438400
    468    480    482     1   109.8000471 387.438400
    469    468    480     1   109.5600471 388.275200
    469    468    470     1   108.4600466 328.025600
    470    468    480     1   109.5600471 388.275200
    471    474    475     1   109.8000471 387.438400
    471    474    476     1   109.8000471 387.438400
    472    471    474     1   109.5600471 388.275200
    472    471    473     1   108.4600466 328.025600
    473    471    474     1   109.5600471 388.275200
    474    483    484     1   109.5600471 388.275200
    474    483    485     1   109.5600471 388.275200
    475    474    483     1   109.8000471 387.438400
    475    474    476     1   107.5800459 329.699200
    476    474    483     1   109.8000471 387.438400
    477    489    490     1   109.5600471 388.275200
    477    489    491     1   109.5600471 388.275200
    478    477    489     1   109.8000471 387.438400
    478    477    479     1   107.5800459 329.699200
    479    477    489     1   109.8000471 387.438400
    480    486    487     1   109.5600471 388.275200
    480    486    488     1   109.5600471 388.275200
    481    480    486     1   109.8000471 387.438400
    481    480    482     1   107.5800459 329.699200
    482    480    486     1   109.8000471 387.438400
    484    483    492     1   109.7800468 425.094400
    484    483    485     1   108.4600466 328.025600
    485    483    492     1   109.7800468 425.094400
    487    486    924     1   109.7800468 425.094400
    487    486    488     1   108.4600466 328.025600
    488    486    924     1   109.7800468 425.094400
    490    489    947     1   109.7800468 425.094400
    490    489    491     1   108.4600466 328.025600
    491    489    947     1   109.7800468 425.094400
    493    494    495     1   109.8800469 414.216000
    493    494    496     1   109.8800469 414.216000
    493    497    498     1   109.8800469 414.216000
    493    497    499     1   109.8800469 414.216000
    493    500    501     1   109.8800469 414.216000
    493    500    502     1   109.8800469 414.216000
    494    506    507     1   109.8000471 387.438400
    494    506    508     1   109.8000471 387.438400
    495    494    506     1   109.5600471 388.275200
    495    494    496     1   108.4600466 328.025600
    496    494    506     1   109.5600471 388.275200
    497    509    510     1   109.8000471 387.438400
    497    509    511     1   109.8000471 387.438400
    498    497    509     1   109.5600471 388.275200
    498    497    499     1   108.4600466 328.025600
    499    497    509     1   109.5600471 388.275200
    500    503    504     1   109.8000471 387.438400
    500    503    505     1   109.8000471 387.438400
    501    500    503     1   109.5600471 388.275200
    501    500    502     1   108.4600466 328.025600
    502    500    503     1   109.5600471 388.275200
    503    512    513     1   109.5600471 388.275200
    503    512    514     1   109.5600471 388.275200
    504    503    512     1   109.8000471 387.438400
    504    503    505     1   107.5800459 329.699200
    505    503    512     1   109.8000471 387.438400
    506    518    519     1   109.5600471 388.275200
    506    518    520     1   109.5600471 388.275200
    507    506    518     1   109.8000471 387.438400
    507    506    508     1   107.5800459 329.699200
    508    506    518     1   109.8000471 387.438400
    509    515    516     1   109.5600471 388.275200
    509    515    517     1   109.5600471 388.275200
    510    509    515     1   109.8000471 387.438400
    510    509    511     1   107.5800459 329.699200
    511    509    515     1   109.8000471 387.438400
    513    512    521     1   109.7800468 425.094400
    513    512    514     1   108.4600466 328.025600
    514    512    521     1   109.7800468 425.094400
    516    515    970     1   109.7800468 425.094400
    516    515    517     1   108.4600466 328.025600
    517    515    970     1   109.7800468 425.094400
    519    518    993     1   109.7800468 425.094400
    519    518    520     1   108.4600466 328.025600
    520    518    993     1   109.7800468 425.094400
    522    523    524     1   109.8800469 414.216000
    522    523    525     1   109.8800469 414.216000
    522    526    527     1   109.8800469 414.216000
    522    526    528     1   109.8800469 414.216000
    522    529    530     1   109.8800469 414.216000
    522    529    531     1   109.8800469 414.216000
    523    535    536     1   109.8000471 387.438400
    523    535    537     1   109.8000471 387.438400
    524    523    535     1   109.5600471 388.275200
    524    523    525     1   108.4600466 328.025600
    525    523    535     1   109.5600471 388.275200
    526    538    539     1   109.8000471 387.438400
    526    538    540     1   109.8000471 387.438400
    527    526    538     1   109.5600471 388.275200
    527    526    528     1   108.4600466 328.025600
    528    526    538     1   109.5600471 388.275200
    529    532    533     1   109.8000471 387.438400
    529    532    534     1   109.8000471 387.438400
    530    529    532     1   109.5600471 388.275200
    530    529    531     1   108.4600466 328.025600
    531    529    532     1   109.5600471 388.275200
    532    541    542     1   109.5600471 388.275200
    532    541    543     1   109.5600471 388.275200
    533    532    541     1   109.8000471 387.438400
    533    532    534     1   107.5800459 329.699200
    534    532    541     1   109.8000471 387.438400
    535    547    548     1   109.5600471 388.275200
    535    547    549     1   109.5600471 388.275200
    536    535    547     1   109.8000471 387.438400
    536    535    537     1   107.5800459 329.699200
    537    535    547     1   109.8000471 387.438400
    538    544    545     1   109.5600471 388.275200
    538    544    546     1   109.5600471 388.275200
    539    538    544     1   109.8000471 387.438400
    539    538    540     1   107.5800459 329.699200
    540    538    544     1   109.8000471 387.438400
    542    541    550     1   109.7800468 425.094400
    542    541    543     1   108.4600466 328.025600
    543    541    550     1   109.7800468 425.094400
    545    544   1016     1   109.7800468 425.094400
    545    544    546     1   108.4600466 328.025600
    546    544   1016     1   109.7800468 425.094400
    548    547   1039     1   109.7800468 425.094400
    548    547    549     1   108.4600466 328.025600
    549    547   1039     1   109.7800468 425.094400
    551    552    553     1   109.8800469 414.216000
    551    552    554     1   109.8800469 414.216000
    551    555    556     1   109.8800469 414.216000
    551    555    557     1   109.8800469 414.216000
    551    558    559     1   109.8800469 414.216000
    551    558    560     1   109.8800469 414.216000
    552    564    565     1   109.8000471 387.438400
    552    564    566     1   109.8000471 387.438400
    553    552    564     1   109.5600471 388.275200
    553    552    554     1   108.4600466 328.025600
    554    552    564     1   109.5600471 388.275200
    555    567    568     1   109.8000471 387.438400
    555    567    569     1   109.8000471 387.438400
    556    555    567     1   109.5600471 388.275200
    556    555    557     1   108.4600466 328.025600
    557    555    567     1   109.5600471 388.275200
    558    561    562     1   109.8000471 387.438400
    558    561    563     1   109.8000471 387.438400
    559    558    561     1   109.5600471 388.275200
    559    558    560     1   108.4600466 328.025600
    560    558    561     1   109.5600471 388.275200
    561    570    571     1   109.5600471 388.275200
    561    570    572     1   109.5600471 388.275200
    562    561    570     1   109.8000471 387.438400
    562    561    563     1   107.5800459 329.699200
    563    561    570     1   109.8000471 387.438400
    564    576    577     1   109.5600471 388.275200
    564    576    578     1   109.5600471 388.275200
    565    564    576     1   109.8000471 387.438400
    565    564    566     1   107.5800459 329.699200
    566    564    576     1   109.8000471 387.438400
    567    573    574     1   109.5600471 388.275200
    567    573    575     1   109.5600471 388.275200
    568    567    573     1   109.8000471 387.438400
    568    567    569     1   107.5800459 329.699200
    569    567    573     1   109.8000471 387.438400
    571    570    579     1   109.7800468 425.094400
    571    570    572     1   108.4600466 328.025600
    572    570    579     1   109.7800468 425.094400
    574    573   1062     1   109.7800468 425.094400
    574    573    575     1   108.4600466 328.025600
    575    573   1062     1   109.7800468 425.094400
    577    576   1085     1   109.7800468 425.094400
    577    576    578     1   108.4600466 328.025600
    578    576   1085     1   109.7800468 425.094400
    580    581    582     1   109.8800469 414.216000
    580    581    583     1   109.8800469 414.216000
    580    584    585     1   109.8800469 414.216000
    580    584    586     1   109.8800469 414.216000
    580    587    588     1   109.8800469 414.216000
    580    587    589     1   109.8800469 414.216000
    581    593    594     1   109.8000471 387.438400
    581    593    595     1   109.8000471 387.438400
    582    581    593     1   109.5600471 388.275200
    582    581    583     1   108.4600466 328.025600
    583    581    593     1   109.5600471 388.275200
    584    596    597     1   109.8000471 387.438400
    584    596    598     1   109.8000471 387.438400
    585    584    596     1   109.5600471 388.275200
    585    584    586     1   108.4600466 328.025600
    586    584    596     1   109.5600471 388.275200
    587    590    591     1   109.8000471 387.438400
    587    590    592     1   109.8000471 387.438400
    588    587    590     1   109.5600471 388.275200
    588    587    589     1   108.4600466 328.025600
    589    587    590     1   109.5600471 388.275200
    590    599    600     1   109.5600471 388.275200
    590    599    601     1   109.5600471 388.275200
    591    590    599     1   109.8000471 387.438400
    591    590    592     1   107.5800459 329.699200
    592    590    599     1   109.8000471 387.438400
    593    605    606     1   109.5600471 388.275200
    593    605    607     1   109.5600471 388.275200
    594    593    605     1   109.8000471 387.438400
    594    593    595     1   107.5800459 329.699200
    595    593    605     1   109.8000471 387.438400
    596    602    603     1   109.5600471 388.275200
    596    602    604     1   109.5600471 388.275200
    597    596    602     1   109.8000471 387.438400
    597    596    598     1   107.5800459 329.699200
    598    596    602     1   109.8000471 387.438400
    600    599    608     1   109.7800468 425.094400
    600    599    601     1   108.4600466 328.025600
    601    599    608     1   109.7800468 425.094400
    603    602   1108     1   109.7800468 425.094400
    603    602    604     1   108.4600466 328.025600
    604    602   1108     1   109.7800468 425.094400
    606    605   1131     1   109.7800468 425.094400
    606    605    607     1   108.4600466 328.025600
    607    605   1131     1   109.7800468 425.094400
    609    610    611     1   109.8800469 414.216000
    609    610    612     1   109.8800469 414.216000
    609    613    614     1   109.8800469 414.216000
    609    613    615     1   109.8800469 414.216000
    609    616    617     1   109.8800469 414.216000
    609    616    618     1   109.8800469 414.216000
    610    622    623     1   109.8000471 387.438400
    610    622    624     1   109.8000471 387.438400
    611    610    622     1   109.5600471 388.275200
    611    610    612     1   108.4600466 328.025600
    612    610    622     1   109.5600471 388.275200
    613    625    626     1   109.8000471 387.438400
    613    625    627     1   109.8000471 387.438400
    614    613    625     1   109.5600471 388.275200
    614    613    615     1   108.4600466 328.025600
    615    613    625     1   109.5600471 388.275200
    616    619    620     1   109.8000471 387.438400
    616    619    621     1   109.8000471 387.438400
    617    616    619     1   109.5600471 388.275200
    617    616    618     1   108.4600466 328.025600
    618    616    619     1   109.5600471 388.275200
    619    628    629     1   109.5600471 388.275200
    619    628    630     1   109.5600471 388.275200
    620    619    628     1   109.8000471 387.438400
    620    619    621     1   107.5800459 329.699200
    621    619    628     1   109.8000471 387.438400
    622    634    635     1   109.5600471 388.275200
    622    634    636     1   109.5600471 388.275200
    623    622    634     1   109.8000471 387.438400
    623    622    624     1   107.5800459 329.699200
    624    622    634     1   109.8000471 387.438400
    625    631    632     1   109.5600471 388.275200
    625    631    633     1   109.5600471 388.275200
    626    625    631     1   109.8000471 387.438400
    626    625    627     1   107.5800459 329.699200
    627    625    631     1   109.8000471 387.438400
    629    628    637     1   109.7800468 425.094400
    629    628    630     1   108.4600466 328.025600
    630    628    637     1   109.7800468 425.094400
    632    631   1154     1   109.7800468 425.094400
    632    631    633     1   108.4600466 328.025600
    633    631   1154     1   109.7800468 425.094400
    635    634   1177     1   109.7800468 425.094400
    635    634    636     1   108.4600466 328.025600
    636    634   1177     1   109.7800468 425.094400
    638    639    641     1   109.5600471 388.275200
    638    652    656     1   109.5600471 388.275200
    638    652    657     1   109.5600471 388.275200
    639    638    640     1   109.5600471 388.275200
    639    642    646     1   109.5600471 388.275200
    639    651    654     1   107.2600461 396.643200
    640    638    652     1   109.5600471 388.275200
    640    638    660     1   109.7800468 425.094400
    641    639    642     1   109.5600471 388.275200
    641    639    651     1   110.2600474 425.931200
    642    643    645     1   109.5600471 388.275200
    642    650    653     1   107.2600461 396.643200
    643    642    646     1   109.5600471 388.275200
    643    644    647     1   110.2200475 386.601600
    643    649    655     1   107.2600461 396.643200
    644    643    645     1   109.5600471 388.275200
    645    643    649     1   110.2600474 425.931200
    646    642    650     1   110.2600474 425.931200
    647    644    648     1   109.5800467 425.931200
    647    644    660     1   109.5800467 425.931200
    652    658    659     1   107.2600461 396.643200
    656    652    658     1   110.2600474 425.931200
    656    652    657     1   108.4600466 328.025600
    657    652    658     1   110.2600474 425.931200
    661    662    664     1   109.5600471 388.275200
    661    675    679     1   109.5600471 388.275200
    661    675    680     1   109.5600471 388.275200
    662    665    669     1   109.5600471 388.275200
    662    674    677     1   107.2600461 396.643200
    662    661    663     1   109.5600471 388.275200
    663    661    675     1   109.5600471 388.275200
    663    661    683     1   109.7800468 425.094400
    664    662    665     1   109.5600471 388.275200
    664    662    674     1   110.2600474 425.931200
    665    666    668     1   109.5600471 388.275200
    665    673    676     1   107.2600461 396.643200
    666    667    670     1   110.2200475 386.601600
    666    672    678     1   107.2600461 396.643200
    666    665    669     1   109.5600471 388.275200
    667    666    668     1   109.5600471 388.275200
    668    666    672     1   110.2600474 425.931200
    669    665    673     1   110.2600474 425.931200
    670    667    671     1   109.5800467 425.931200
    670    667    683     1   109.5800467 425.931200
    675    681    682     1   107.2600461 396.643200
    679    675    681     1   110.2600474 425.931200
    679    675    680     1   108.4600466 328.025600
    680    675    681     1   110.2600474 425.931200
    684    685    687     1   109.5600471 388.275200
    684    698    702     1   109.5600471 388.275200
    684    698    703     1   109.5600471 388.275200
    685    684    686     1   109.5600471 388.275200
    685    688    692     1   109.5600471 388.275200
    685    697    700     1   107.2600461 396.643200
    686    684    698     1   109.5600471 388.275200
    686    684    706     1   109.7800468 425.094400
    687    685    688     1   109.5600471 388.275200
    687    685    697     1   110.2600474 425.931200
    688    689    691     1   109.5600471 388.275200
    688    696    699     1   107.2600461 396.643200
    689    688    692     1   109.5600471 388.275200
    689    690    693     1   110.2200475 386.601600
    689    695    701     1   107.2600461 396.643200
    690    689    691     1   109.5600471 388.275200
    691    689    695     1   110.2600474 425.931200
    692    688    696     1   110.2600474 425.931200
    693    690    694     1   109.5800467 425.931200
    693    690    706     1   109.5800467 425.931200
    698    704    705     1   107.2600461 396.643200
    702    698    704     1   110.2600474 425.931200
    702    698    703     1   108.4600466 328.025600
    703    698    704     1   110.2600474 425.931200
    707    708    710     1   109.5600471 388.275200
    707    721    725     1   109.5600471 388.275200
    707    721    726     1   109.5600471 388.275200
    708    711    715     1   109.5600471 388.275200
    708    720    723     1   107.2600461 396.643200
    708    707    709     1   109.5600471 388.275200
    709    707    721     1   109.5600471 388.275200
    709    707    729     1   109.7800468 425.094400
    710    708    711     1   109.5600471 388.275200
    710    708    720     1   110.2600474 425.931200
    711    712    714     1   109.5600471 388.275200
    711    719    722     1   107.2600461 396.643200
    712    713    716     1   110.2200475 386.601600
    712    718    724     1   107.2600461 396.643200
    712    711    715     1   109.5600471 388.275200
    713    712    714     1   109.5600471 388.275200
    714    712    718     1   110.2600474 425.931200
    715    711    719     1   110.2600474 425.931200
    716    713    717     1   109.5800467 425.931200
    716    713    729     1   109.5800467 425.931200
    721    727    728     1   107.2600461 396.643200
    725    721    727     1   110.2600474 425.931200
    725    721    726     1   108.4600466 328.025600
    726    721    727     1   110.2600474 425.931200
    730    731    733     1   109.5600471 388.275200
    730    744    748     1   109.5600471 388.275200
    730    744    749     1   109.5600471 388.275200
    731    730    732     1   109.5600471 388.275200
    731    734    738     1   109.5600471 388.275200
    731    743    746     1   107.2600461 396.643200
    732    730    744     1   109.5600471 388.275200
    732    730    752     1   109.7800468 425.094400
    733    731    734     1   109.5600471 388.275200
    733    731    743     1   110.2600474 425.931200
    734    735    737     1   109.5600471 388.275200
    734    742    745     1   107.2600461 396.643200
    735    734    738     1   109.5600471 388.275200
    735    736    739     1   110.2200475 386.601600
    735    741    747     1   107.2600461 396.643200
    736    735    737     1   109.5600471 388.275200
    737    735    741     1   110.2600474 425.931200
    738    734    742     1   110.2600474 425.931200
    739    736    740     1   109.5800467 425.931200
    739    736    752     1   109.5800467 425.931200
    744    750    751     1   107.2600461 396.643200
    748    744    750     1   110.2600474 425.931200
    748    744    749     1   108.4600466 328.025600
    749    744    750     1   110.2600474 425.931200
    753    754    756     1   109.5600471 388.275200
    753    767    771     1   109.5600471 388.275200
    753    767    772     1   109.5600471 388.275200
    754    757    761     1   109.5600471 388.275200
    754    766    769     1   107.2600461 396.643200
    754    753    755     1   109.5600471 388.275200
    755    753    767     1   109.5600471 388.275200
    755    753    775     1   109.7800468 425.094400
    756    754    757     1   109.5600471 388.275200
    756    754    766     1   110.2600474 425.931200
    757    758    760     1   109.5600471 388.275200
    757    765    768     1   107.2600461 396.643200
    758    759    762     1   110.2200475 386.601600
    758    764    770     1   107.2600461 396.643200
    758    757    761     1   109.5600471 388.275200
    759    758    760     1   109.5600471 388.275200
    760    758    764     1   110.2600474 425.931200
    761    757    765     1   110.2600474 425.931200
    762    759    763     1   109.5800467 425.931200
    762    759    775     1   109.5800467 425.931200
    767    773    774     1   107.2600461 396.643200
    771    767    773     1   110.2600474 425.931200
    771    767    772     1   108.4600466 328.025600
    772    767    773     1   110.2600474 425.931200
    776    777    779     1   109.5600471 388.275200
    776    790    794     1   109.5600471 388.275200
    776    790    795     1   109.5600471 388.275200
    777    776    778     1   109.5600471 388.275200
    777    780    784     1   109.5600471 388.275200
    777    789    792     1   107.2600461 396.643200
    778    776    790     1   109.5600471 388.275200
    778    776    798     1   109.7800468 425.094400
    779    777    780     1   109.5600471 388.275200
    779    777    789     1   110.2600474 425.931200
    780    781    783     1   109.5600471 388.275200
    780    788    791     1   107.2600461 396.643200
    781    780    784     1   109.5600471 388.275200
    781    782    785     1   110.2200475 386.601600
    781    787    793     1   107.2600461 396.643200
    782    781    783     1   109.5600471 388.275200
    783    781    787     1   110.2600474 425.931200
    784    780    788     1   110.2600474 425.931200
    785    782    786     1   109.5800467 425.931200
    785    782    798     1   109.5800467 425.931200
    790    796    797     1   107.2600461 396.643200
    794    790    796     1   110.2600474 425.931200
    794    790    795     1   108.4600466 328.025600
    795    790    796     1   110.2600474 425.931200
    799    800    802     1   109.5600471 388.275200
    799    813    817     1   109.5600471 388.275200
    799    813    818     1   109.5600471 388.275200
    800    803    807     1   109.5600471 388.275200
    800    812    815     1   107.2600461 396.643200
    800    799    801     1   109.5600471 388.275200
    801    799    813     1   109.5600471 388.275200
    801    799    821     1   109.7800468 425.094400
    802    800    803     1   109.5600471 388.275200
    802    800    812     1   110.2600474 425.931200
    803    804    806     1   109.5600471 388.275200
    803    811    814     1   107.2600461 396.643200
    804    805    808     1   110.2200475 386.601600
    804    810    816     1   107.2600461 396.643200
    804    803    807     1   109.5600471 388.275200
    805    804    806     1   109.5600471 388.275200
    806    804    810     1   110.2600474 425.931200
    807    803    811     1   110.2600474 425.931200
    808    805    809     1   109.5800467 425.931200
    808    805    821     1   109.5800467 425.931200
    813    819    820     1   107.2600461 396.643200
    817    813    819     1   110.2600474 425.931200
    817    813    818     1   108.4600466 328.025600
    818    813    819     1   110.2600474 425.931200
    822    823    825     1   109.5600471 388.275200
    822    836    840     1   109.5600471 388.275200
    822    836    841     1   109.5600471 388.275200
    823    822    824     1   109.5600471 388.275200
    823    826    830     1   109.5600471 388.275200
    823    835    838     1   107.2600461 396.643200
    824    822    836     1   109.5600471 388.275200
    824    822    844     1   109.7800468 425.094400
    825    823    826     1   109.5600471 388.275200
    825    823    835     1   110.2600474 425.931200
    826    827    829     1   109.5600471 388.275200
    826    834    837     1   107.2600461 396.643200
    827    826    830     1   109.5600471 388.275200
    827    828    831     1   110.2200475 386.601600
    827    833    839     1   107.2600461 396.643200
    828    827    829     1   109.5600471 388.275200
    829    827    833     1   110.2600474 425.931200
    830    826    834     1   110.2600474 425.931200
    831    828    832     1   109.5800467 425.931200
    831    828    844     1   109.5800467 425.931200
    836    842    843     1   107.2600461 396.643200
    840    836    842     1   110.2600474 425.931200
    840    836    841     1   108.4600466 328.025600
    841    836    842     1   110.2600474 425.931200
    845    846    848     1   109.5600471 388.275200
    845    859    863     1   109.5600471 388.275200
    845    859    864     1   109.5600471 388.275200
    846    849    853     1   109.5600471 388.275200
    846    858    861     1   107.2600461 396.643200
    846    845    847     1   109.5600471 388.275200
    847    845    859     1   109.5600471 388.275200
    847    845    867     1   109.7800468 425.094400
    848    846    849     1   109.5600471 388.275200
    848    846    858     1   110.2600474 425.931200
    849    850    852     1   109.5600471 388.275200
    849    857    860     1   107.2600461 396.643200
    850    851    854     1   110.2200475 386.601600
    850    856    862     1   107.2600461 396.643200
    850    849    853     1   109.5600471 388.275200
    851    850    852     1   109.5600471 388.275200
    852    850    856     1   110.2600474 425.931200
    853    849    857     1   110.2600474 425.931200
    854    851    855     1   109.5800467 425.931200
    854    851    867     1   109.5800467 425.931200
    859    865    866     1   107.2600461 396.643200
    863    859    865     1   110.2600474 425.931200
    863    859    864     1   108.4600466 328.025600
    864    859    865     1   110.2600474 425.931200
    868    869    871     1   109.5600471 388.275200
    868    882    886     1   109.5600471 388.275200
    868    882    887     1   109.5600471 388.275200
    869    868    870     1   109.5600471 388.275200
    869    872    876     1   109.5600471 388.275200
    869    881    884     1   107.2600461 396.643200
    870    868    882     1   109.5600471 388.275200
    870    868    890     1   109.7800468 425.094400
    871    869    872     1   109.5600471 388.275200
    871    869    881     1   110.2600474 425.931200
    872    873    875     1   109.5600471 388.275200
    872    880    883     1   107.2600461 396.643200
    873    872    876     1   109.5600471 388.275200
    873    874    877     1   110.2200475 386.601600
    873    879    885     1   107.2600461 396.643200
    874    873    875     1   109.5600471 388.275200
    875    873    879     1   110.2600474 425.931200
    876    872    880     1   110.2600474 425.931200
    877    874    878     1   109.5800467 425.931200
    877    874    890     1   109.5800467 425.931200
    882    888    889     1   107.2600461 396.643200
    886    882    888     1   110.2600474 425.931200
    886    882    887     1   108.4600466 328.025600
    887    882    888     1   110.2600474 425.931200
    891    892    894     1   109.5600471 388.275200
    891    905    909     1   109.5600471 388.275200
    891    905    910     1   109.5600471 388.275200
    892    895    899     1   109.5600471 388.275200
    892    904    907     1   107.2600461 396.643200
    892    891    893     1   109.5600471 388.275200
    893    891    905     1   109.5600471 388.275200
    893    891    913     1   109.7800468 425.094400
    894    892    895     1   109.5600471 388.275200
    894    892    904     1   110.2600474 425.931200
    895    896    898     1   109.5600471 388.275200
    895    903    906     1   107.2600461 396.643200
    896    897    900     1   110.2200475 386.601600
    896    902    908     1   107.2600461 396.643200
    896    895    899     1   109.5600471 388.275200
    897    896    898     1   109.5600471 388.275200
    898    896    902     1   110.2600474 425.931200
    899    895    903     1   110.2600474 425.931200
    900    897    901     1   109.5800467 425.931200
    900    897    913     1   109.5800467 425.931200
    905    911    912     1   107.2600461 396.643200
    909    905    911     1   110.2600474 425.931200
    909    905    910     1   108.4600466 328.025600
    910    905    911     1   110.2600474 425.931200
    914    915    917     1   109.5600471 388.275200
    914    928    932     1   109.5600471 388.275200
    914    928    933     1   109.5600471 388.275200
    915    914    916     1   109.5600471 388.275200
    915    918    922     1   109.5600471 388.275200
    915    927    930     1   107.2600461 396.643200
    916    914    928     1   109.5600471 388.275200
    916    914    936     1   109.7800468 425.094400
    917    915    918     1   109.5600471 388.275200
    917    915    927     1   110.2600474 425.931200
    918    919    921     1   109.5600471 388.275200
    918    926    929     1   107.2600461 396.643200
    919    918    922     1   109.5600471 388.275200
    919    920    923     1   110.2200475 386.601600
    919    925    931     1   107.2600461 396.643200
    920    919    921     1   109.5600471 388.275200
    921    919    925     1   110.2600474 425.931200
    922    918    926     1   110.2600474 425.931200
    923    920    924     1   109.5800467 425.931200
    923    920    936     1   109.5800467 425.931200
    928    934    935     1   107.2600461 396.643200
    932    928    934     1   110.2600474 425.931200
    932    928    933     1   108.4600466 328.025600
    933    928    934     1   110.2600474 425.931200
    937    938    940     1   109.5600471 388.275200
    937    951    955     1   109.5600471 388.275200
    937    951    956     1   109.5600471 388.275200
    938    941    945     1   109.5600471 388.275200
    938    950    953     1   107.2600461 396.643200
    938    937    939     1   109.5600471 388.275200
    939    937    951     1   109.5600471 388.275200
    939    937    959     1   109.7800468 425.094400
    940    938    941     1   109.5600471 388.275200
    940    938    950     1   110.2600474 425.931200
    941    942    944     1   109.5600471 388.275200
    941    949    952     1   107.2600461 396.643200
    942    943    946     1   110.2200475 386.601600
    942    948    954     1   107.2600461 396.643200
    942    941    945     1   109.5600471 388.275200
    943    942    944     1   109.5600471 388.275200
    944    942    948     1   110.2600474 425.931200
    945    941    949     1   110.2600474 425.931200
    946    943    947     1   109.5800467 425.931200
    946    943    959     1   109.5800467 425.931200
    951    957    958     1   107.2600461 396.643200
    955    951    957     1   110.2600474 425.931200
    955    951    956     1   108.4600466 328.025600
    956    951    957     1   110.2600474 425.931200
    960    961    963     1   109.5600471 388.275200
    960    974    978     1   109.5600471 388.275200
    960    974    979     1   109.5600471 388.275200
    961    960    962     1   109.5600471 388.275200
    961    964    968     1   109.5600471 388.275200
    961    973    976     1   107.2600461 396.643200
    962    960    974     1   109.5600471 388.275200
    962    960    982     1   109.7800468 425.094400
    963    961    964     1   109.5600471 388.275200
    963    961    973     1   110.2600474 425.931200
    964    965    967     1   109.5600471 388.275200
    964    972    975     1   107.2600461 396.643200
    965    964    968     1   109.5600471 388.275200
    965    966    969     1   110.2200475 386.601600
    965    971    977     1   107.2600461 396.643200
    966    965    967     1   109.5600471 388.275200
    967    965    971     1   110.2600474 425.931200
    968    964    972     1   110.2600474 425.931200
    969    966    970     1   109.5800467 425.931200
    969    966    982     1   109.5800467 425.931200
    974    980    981     1   107.2600461 396.643200
    978    974    980     1   110.2600474 425.931200
    978    974    979     1   108.4600466 328.025600
    979    974    980     1   110.2600474 425.931200
    983    984    986     1   109.5600471 388.275200
    983    997   1001     1   109.5600471 388.275200
    983    997   1002     1   109.5600471 388.275200
    984    987    991     1   109.5600471 388.275200
    984    996    999     1   107.2600461 396.643200
    984    983    985     1   109.5600471 388.275200
    985    983    997     1   109.5600471 388.275200
    985    983   1005     1   109.7800468 425.094400
    986    984    987     1   109.5600471 388.275200
    986    984    996     1   110.2600474 425.931200
    987    988    990     1   109.5600471 388.275200
    987    995    998     1   107.2600461 396.643200
    988    989    992     1   110.2200475 386.601600
    988    994   1000     1   107.2600461 396.643200
    988    987    991     1   109.5600471 388.275200
    989    988    990     1   109.5600471 388.275200
    990    988    994     1   110.2600474 425.931200
    991    987    995     1   110.2600474 425.931200
    992    989    993     1   109.5800467 425.931200
    992    989   1005     1   109.5800467 425.931200
    997   1003   1004     1   107.2600461 396.643200
   1001    997   1003     1   110.2600474 425.931200
   1001    997   1002     1   108.4600466 328.025600
   1002    997   1003     1   110.2600474 425.931200
   1006   1007   1009     1   109.5600471 388.275200
   1006   1020   1024     1   109.5600471 388.275200
   1006   1020   1025     1   109.5600471 388.275200
   1007   1006   1008     1   109.5600471 388.275200
   1007   1010   1014     1   109.5600471 388.275200
   1007   1019   1022     1   107.2600461 396.643200
   1008   1006   1020     1   109.5600471 388.275200
   1008   1006   1028     1   109.7800468 425.094400
   1009   1007   1010     1   109.5600471 388.275200
   1009   1007   1019     1   110.2600474 425.931200
   1010   1011   1013     1   109.5600471 388.275200
   1010   1018   1021     1   107.2600461 396.643200
   1011   1010   1014     1   109.5600471 388.275200
   1011   1012   1015     1   110.2200475 386.601600
   1011   1017   1023     1   107.2600461 396.643200
   1012   1011   1013     1   109.5600471 388.275200
   1013   1011   1017     1   110.2600474 425.931200
   1014   1010   1018     1   110.2600474 425.931200
   1015   1012   1016     1   109.5800467 425.931200
   1015   1012   1028     1   109.5800467 425.931200
   1020   1026   1027     1   107.2600461 396.643200
   1024   1020   1026     1   110.2600474 425.931200
   1024   1020   1025     1   108.4600466 328.025600
   1025   1020   1026     1   110.2600474 425.931200
   1029   1030   1032     1   109.5600471 388.275200
   1029   1043   1047     1   109.5600471 388.275200
   1029   1043   1048     1   109.5600471 388.275200
   1030   1033   1037     1   109.5600471 388.275200
   1030   1042   1045     1   107.2600461 396.643200
   1030   1029   1031     1   109.5600471 388.275200
   1031   1029   1043     1   109.5600471 388.275200
   1031   1029   1051     1   109.7800468 425.094400
   1032   1030   1033     1   109.5600471 388.275200
   1032   1030   1042     1   110.2600474 425.931200
   1033   1034   1036     1   109.5600471 388.275200
   1033   1041   1044     1   107.2600461 396.643200
   1034   1035   1038     1   110.2200475 386.601600
   1034   1040   1046     1   107.2600461 396.643200
   1034   1033   1037     1   109.5600471 388.275200
   1035   1034   1036     1   109.5600471 388.275200
   1036   1034   1040     1   110.2600474 425.931200
   1037   1033   1041     1   110.2600474 425.931200
   1038   1035   1039     1   109.5800467 425.931200
   1038   1035   1051     1   109.5800467 425.931200
   1043   1049   1050     1   107.2600461 396.643200
   1047   1043   1049     1   110.2600474 425.931200
   1047   1043   1048     1   108.4600466 328.025600
   1048   1043   1049     1   110.2600474 425.931200
   1052   1053   1055     1   109.5600471 388.275200
   1052   1066   1070     1   109.5600471 388.275200
   1052   1066   1071     1   109.5600471 388.275200
   1053   1052   1054     1   109.5600471 388.275200
   1053   1056   1060     1   109.5600471 388.275200
   1053   1065   1068     1   107.2600461 396.643200
   1054   1052   1066     1   109.5600471 388.275200
   1054   1052   1074     1   109.7800468 425.094400
   1055   1053   1056     1   109.5600471 388.275200
   1055   1053   1065     1   110.2600474 425.931200
   1056   1057   1059     1   109.5600471 388.275200
   1056   1064   1067     1   107.2600461 396.643200
   1057   1056   1060     1   109.5600471 388.275200
   1057   1058   1061     1   110.2200475 386.601600
   1057   1063   1069     1   107.2600461 396.643200
   1058   1057   1059     1   109.5600471 388.275200
   1059   1057   1063     1   110.2600474 425.931200
   1060   1056   1064     1   110.2600474 425.931200
   1061   1058   1062     1   109.5800467 425.931200
   1061   1058   1074     1   109.5800467 425.931200
   1066   1072   1073     1   107.2600461 396.643200
   1070   1066   1072     1   110.2600474 425.931200
   1070   1066   1071     1   108.4600466 328.025600
   1071   1066   1072     1   110.2600474 425.931200
   1075   1076   1078     1   109.5600471 388.275200
   1075   1089   1093     1   109.5600471 388.275200
   1075   1089   1094     1   109.5600471 388.275200
   1076   1079   1083     1   109.5600471 388.275200
   1076   1088   1091     1   107.2600461 396.643200
   1076   1075   1077     1   109.5600471 388.275200
   1077   1075   1089     1   109.5600471 388.275200
   1077   1075   1097     1   109.7800468 425.094400
   1078   1076   1079     1   109.5600471 388.275200
   1078   1076   1088     1   110.2600474 425.931200
   1079   1080   1082     1   109.5600471 388.275200
   1079   1087   1090     1   107.2600461 396.643200
   1080   1081   1084     1   110.2200475 386.601600
   1080   1086   1092     1   107.2600461 396.643200
   1080   1079   1083     1   109.5600471 388.275200
   1081   1080   1082     1   109.5600471 388.275200
   1082   1080   1086     1   110.2600474 425.931200
   1083   1079   1087     1   110.2600474 425.931200
   1084   1081   1085     1   109.5800467 425.931200
   1084   1081   1097     1   109.5800467 425.931200
   1089   1095   1096     1   107.2600461 396.643200
   1093   1089   1095     1   110.2600474 425.931200
   1093   1089   1094     1   108.4600466 328.025600
   1094   1089   1095     1   110.2600474 425.931200
   1098   1099   1101     1   109.5600471 388.275200
   1098   1112   1116     1   109.5600471 388.275200
   1098   1112   1117     1   109.5600471 388.275200
   1099   1098   1100     1   109.5600471 388.275200
   1099   1102   1106     1   109.5600471 388.275200
   1099   1111   1114     1   107.2600461 396.643200
   1100   1098   1112     1   109.5600471 388.275200
   1100   1098   1120     1   109.7800468 425.094400
   1101   1099   1102     1   109.5600471 388.275200
   1101   1099   1111     1   110.2600474 425.931200
   1102   1103   1105     1   109.5600471 388.275200
   1102   1110   1113     1   107.2600461 396.643200
   1103   1102   1106     1   109.5600471 388.275200
   1103   1104   1107     1   110.2200475 386.601600
   1103   1109   1115     1   107.2600461 396.643200
   1104   1103   1105     1   109.5600471 388.275200
   1105   1103   1109     1   110.2600474 425.931200
   1106   1102   1110     1   110.2600474 425.931200
   1107   1104   1108     1   109.5800467 425.931200
   1107   1104   1120     1   109.5800467 425.931200
   1112   1118   1119     1   107.2600461 396.643200
   1116   1112   1118     1   110.2600474 425.931200
   1116   1112   1117     1   108.4600466 328.025600
   1117   1112   1118     1   110.2600474 425.931200
   1121   1122   1124     1   109.5600471 388.275200
   1121   1135   1139     1   109.5600471 388.275200
   1121   1135   1140     1   109.5600471 388.275200
   1122   1125   1129     1   109.5600471 388.275200
   1122   1134   1137     1   107.2600461 396.643200
   1122   1121   1123     1   109.5600471 388.275200
   1123   1121   1135     1   109.5600471 388.275200
   1123   1121   1143     1   109.7800468 425.094400
   1124   1122   1125     1   109.5600471 388.275200
   1124   1122   1134     1   110.2600474 425.931200
   1125   1126   1128     1   109.5600471 388.275200
   1125   1133   1136     1   107.2600461 396.643200
   1126   1127   1130     1   110.2200475 386.601600
   1126   1132   1138     1   107.2600461 396.643200
   1126   1125   1129     1   109.5600471 388.275200
   1127   1126   1128     1   109.5600471 388.275200
   1128   1126   1132     1   110.2600474 425.931200
   1129   1125   1133     1   110.2600474 425.931200
   1130   1127   1131     1   109.5800467 425.931200
   1130   1127   1143     1   109.5800467 425.931200
   1135   1141   1142     1   107.2600461 396.643200
   1139   1135   1141     1   110.2600474 425.931200
   1139   1135   1140     1   108.4600466 328.025600
   1140   1135   1141     1   110.2600474 425.931200
   1144   1145   1147     1   109.5600471 388.275200
   1144   1158   1162     1   109.5600471 388.275200
   1144   1158   1163     1   109.5600471 388.275200
   1145   1144   1146     1   109.5600471 388.275200
   1145   1148   1152     1   109.5600471 388.275200
   1145   1157   1160     1   107.2600461 396.643200
   1146   1144   1158     1   109.5600471 388.275200
   1146   1144   1166     1   109.7800468 425.094400
   1147   1145   1148     1   109.5600471 388.275200
   1147   1145   1157     1   110.2600474 425.931200
   1148   1149   1151     1   109.5600471 388.275200
   1148   1156   1159     1   107.2600461 396.643200
   1149   1148   1152     1   109.5600471 388.275200
   1149   1150   1153     1   110.2200475 386.601600
   1149   1155   1161     1   107.2600461 396.643200
   1150   1149   1151     1   109.5600471 388.275200
   1151   1149   1155     1   110.2600474 425.931200
   1152   1148   1156     1   110.2600474 425.931200
   1153   1150   1154     1   109.5800467 425.931200
   1153   1150   1166     1   109.5800467 425.931200
   1158   1164   1165     1   107.2600461 396.643200
   1162   1158   1164     1   110.2600474 425.931200
   1162   1158   1163     1   108.4600466 328.025600
   1163   1158   1164     1   110.2600474 425.931200
   1167   1168   1170     1   109.5600471 388.275200
   1167   1181   1185     1   109.5600471 388.275200
   1167   1181   1186     1   109.5600471 388.275200
   1168   1171   1175     1   109.5600471 388.275200
   1168   1180   1183     1   107.2600461 396.643200
   1168   1167   1169     1   109.5600471 388.275200
   1169   1167   1181     1   109.5600471 388.275200
   1169   1167   1189     1   109.7800468 425.094400
   1170   1168   1171     1   109.5600471 388.275200
   1170   1168   1180     1   110.2600474 425.931200
   1171   1172   1174     1   109.5600471 388.275200
   1171   1179   1182     1   107.2600461 396.643200
   1172   1173   1176     1   110.2200475 386.601600
   1172   1178   1184     1   107.2600461 396.643200
   1172   1171   1175     1   109.5600471 388.275200
   1173   1172   1174     1   109.5600471 388.275200
   1174   1172   1178     1   110.2600474 425.931200
   1175   1171   1179     1   110.2600474 425.931200
   1176   1173   1177     1   109.5800467 425.931200
   1176   1173   1189     1   109.5800467 425.931200
   1181   1187   1188     1   107.2600461 396.643200
   1185   1181   1187     1   110.2600474 425.931200
   1185   1181   1186     1   108.4600466 328.025600
   1186   1181   1187     1   110.2600474 425.931200

[ dihedrals ]
;    ai     aj     ak     al funct         c0         c1         c2         c3         c4         c5
      1      2     14     26     1  0.0000000  0.6508444  3
      1      5     17     20     1  0.0000000  0.6508444  3
      1      8     11     23     1  0.0000000  0.6508444  3
      2      1      5     17     1  180.0000771  2.0083200  2
      2      1      5     17     1  0.0000000  1.2552000  3
      2      1      8     11     1  180.0000771  2.0083200  2
      2      1      8     11     1  0.0000000  1.2552000  3
      2     14     26    115     1  0.0000000  0.6508444  3
      5      1      2     14     1  180.0000771  2.0083200  2
      5      1      2     14     1  0.0000000  1.2552000  3
      5      1      8     11     1  180.0000771  2.0083200  2
      5      1      8     11     1  0.0000000  1.2552000  3
      5     17     20     57     1  0.0000000  0.6508444  3
      8      1      2     14     1  180.0000771  2.0083200  2
      8      1      2     14     1  0.0000000  1.2552000  3
      8      1      5     17     1  180.0000771  2.0083200  2
      8      1      5     17     1  0.0000000  1.2552000  3
      8     11     23     86     1  0.0000000  0.6508444  3
     11     23     86     77     1  180.0000771  0.4184000  2
     11     23     86     77     1  0.0000000  1.6024720  3
     14     26    115    106     1  180.0000771  0.4184000  2
     14     26    115    106     1  0.0000000  1.6024720  3
     17     20     57     48     1  180.0000771  0.4184000  2
     17     20     57     48     1  0.0000000  1.6024720  3
     20     57     48     39     1  180.0000771  0.4184000  2
     20     57     48     39     1  0.0000000  1.6024720  3
     23     86     77     68     1  180.0000771  0.4184000  2
     23     86     77     68     1  0.0000000  1.6024720  3
     26    115    106     97     1  180.0000771  0.4184000  2
     26    115    106     97     1  0.0000000  1.6024720  3
     29     30     42     54     1  0.0000000  0.6508444  3
     29     33     45     51     1  0.0000000  0.6508444  3
     29     36     39     48     1  0.0000000  0.6508444  3
     30     29     33     45     1  180.0000771  2.0083200  2
     30     29     33     45     1  0.0000000  1.2552000  3
     30     29     36     39     1  180.0000771  2.0083200  2
     30     29     36     39     1  0.0000000  1.2552000  3
     30     42     54    173     1  0.0000000  0.6508444  3
     33     29     30     42     1  180.0000771  2.0083200  2
     33     29     30     42     1  0.0000000  1.2552000  3
     33     29     36     39     1  180.0000771  2.0083200  2
     33     29     36     39     1  0.0000000  1.2552000  3
     33     45     51    144     1  0.0000000  0.6508444  3
     36     29     30     42     1  180.0000771  2.0083200  2
     36     29     30     42     1  0.0000000  1.2552000  3
     36     29     33     45     1  180.0000771  2.0083200  2
     36     29     33     45     1  0.0000000  1.2552000  3
     36     39     48     57     1  0.0000000  0.6508444  3
     42     54    173    164     1  180.0000771  0.4184000  2
     42     54    173    164     1  0.0000000  1.6024720  3
     45     51    144    135     1  180.0000771  0.4184000  2
     45     51    144    135     1  0.0000000  1.6024720  3
     51    144    135    126     1  180.0000771  0.4184000  2
     51    144    135    126     1  0.0000000  1.6024720  3
     54    173    164    155     1  180.0000771  0.4184000  2
     54    173    164    155     1  0.0000000  1.6024720  3
     58     59     71     83     1  0.0000000  0.6508444  3
     58     62     74     80     1  0.0000000  0.6508444  3
     58     65     68     77     1  0.0000000  0.6508444  3
     59     58     62     74     1  180.0000771  2.0083200  2
     59     58     62     74     1  0.0000000  1.2552000  3
     59     58     65     68     1  180.0000771  2.0083200  2
     59     58     65     68     1  0.0000000  1.2552000  3
     59     71     83    231     1  0.0000000  0.6508444  3
     62     58     59     71     1  180.0000771  2.0083200  2
     62     58     59     71     1  0.0000000  1.2552000  3
     62     58     65     68     1  180.0000771  2.0083200  2
     62     58     65     68     1  0.0000000  1.2552000  3
     62     74     80    202     1  0.0000000  0.6508444  3
     65     58     59     71     1  180.0000771  2.0083200  2
     65     58     59     71     1  0.0000000  1.2552000  3
     65     58     62     74     1  180.0000771  2.0083200  2
     65     58     62     74     1  0.0000000  1.2552000  3
     65     68     77     86     1  0.0000000  0.6508444  3
     71     83    231    222     1  180.0000771  0.4184000  2
     71     83    231    222     1  0.0000000  1.6024720  3
     74     80    202    193     1  180.0000771  0.4184000  2
     74     80    202    193     1  0.0000000  1.6024720  3
     80    202    193    184     1  180.0000771  0.4184000  2
     80    202    193    184     1  0.0000000  1.6024720  3
     83    231    222    213     1  180.0000771  0.4184000  2
     83    231    222    213     1  0.0000000  1.6024720  3
     87     88    100    112     1  0.0000000  0.6508444  3
     87     91    103    109     1  0.0000000  0.6508444  3
     87     94     97    106     1  0.0000000  0.6508444  3
     88     87     91    103     1  180.0000771  2.0083200  2
     88     87     91    103     1  0.0000000  1.2552000  3
     88     87     94     97     1  180.0000771  2.0083200  2
     88     87     94     97     1  0.0000000  1.2552000  3
     88    100    112    289     1  0.0000000  0.6508444  3
     91     87     88    100     1  180.0000771  2.0083200  2
     91     87     88    100     1  0.0000000  1.2552000  3
     91     87     94     97     1  180.0000771  2.0083200  2
     91     87     94     97     1  0.0000000  1.2552000  3
     91    103    109    260     1  0.0000000  0.6508444  3
     94     87     88    100     1  180.0000771  2.0083200  2
     94     87     88    100     1  0.0000000  1.2552000  3
     94     87     91    103     1  180.0000771  2.0083200  2
     94     87     91    103     1  0.0000000  1.2552000  3
     94     97    106    115     1  0.0000000  0.6508444  3
    100    112    289    280     1  180.0000771  0.4184000  2
    100    112    289    280     1  0.0000000  1.6024720  3
    103    109    260    251     1  180.0000771  0.4184000  2
    103    109    260    251     1  0.0000000  1.6024720  3
    109    260    251    242     1  180.0000771  0.4184000  2
    109    260    251    242     1  0.0000000  1.6024720  3
    112    289    280    271     1  180.0000771  0.4184000  2
    112    289    280    271     1  0.0000000  1.6024720  3
    116    117    129    141     1  0.0000000  0.6508444  3
    116    120    132    138     1  0.0000000  0.6508444  3
    116    123    126    135     1  0.0000000  0.6508444  3
    117    116    120    132     1  180.0000771  2.0083200  2
    117    116    120    132     1  0.0000000  1.2552000  3
    117    116    123    126     1  180.0000771  2.0083200  2
    117    116    123    126     1  0.0000000  1.2552000  3
    117    129    141    347     1  0.0000000  0.6508444  3
    120    116    117    129     1  180.0000771  2.0083200  2
    120    116    117    129     1  0.0000000  1.2552000  3
    120    116    123    126     1  180.0000771  2.0083200  2
    120    116    123    126     1  0.0000000  1.2552000  3
    120    132    138    318     1  0.0000000  0.6508444  3
    123    116    117    129     1  180.0000771  2.0083200  2
    123    116    117    129     1  0.0000000  1.2552000  3
    123    116    120    132     1  180.0000771  2.0083200  2
    123    116    120    132     1  0.0000000  1.2552000  3
    123    126    135    144     1  0.0000000  0.6508444  3
    129    141    347    338     1  180.0000771  0.4184000  2
    129    141    347    338     1  0.0000000  1.6024720  3
    132    138    318    309     1  180.0000771  0.4184000  2
    132    138    318    309     1  0.0000000  1.6024720  3
    138    318    309    300     1  180.0000771  0.4184000  2
    138    318    309    300     1  0.0000000  1.6024720  3
    141    347    338    329     1  180.0000771  0.4184000  2
    141    347    338    329     1  0.0000000  1.6024720  3
    145    146    158    170     1  0.0000000  0.6508444  3
    145    149    161    167     1  0.0000000  0.6508444  3
    145    152    155    164     1  0.0000000  0.6508444  3
    146    145    149    161     1  180.0000771  2.0083200  2
    146    145    149    161     1  0.0000000  1.2552000  3
    146    145    152    155     1  180.0000771  2.0083200  2
    146    145    152    155     1  0.0000000  1.2552000  3
    146    158    170    405     1  0.0000000  0.6508444  3
    149    145    146    158     1  180.0000771  2.0083200  2
    149    145    146    158     1  0.0000000  1.2552000  3
    149    145    152    155     1  180.0000771  2.0083200  2
    149    145    152    155     1  0.0000000  1.2552000  3
    149    161    167    376     1  0.0000000  0.6508444  3
    152    145    146    158     1  180.0000771  2.0083200  2
    152    145    146    158     1  0.0000000  1.2552000  3
    152    145    149    161     1  180.0000771  2.0083200  2
    152    145    149    161     1  0.0000000  1.2552000  3
    152    155    164    173     1  0.0000000  0.6508444  3
    158    170    405    396     1  180.0000771  0.4184000  2
    158    170    405    396     1  0.0000000  1.6024720  3
    161    167    376    367     1  180.0000771  0.4184000  2
    161    167    376    367     1  0.0000000  1.6024720  3
    167    376    367    358     1  180.0000771  0.4184000  2
    167    376    367    358     1  0.0000000  1.6024720  3
    170    405    396    387     1  180.0000771  0.4184000  2
    170    405    396    387     1  0.0000000  1.6024720  3
    174    175    187    199     1  0.0000000  0.6508444  3
    174    178    190    196     1  0.0000000  0.6508444  3
    174    181    184    193     1  0.0000000  0.6508444  3
    175    174    178    190     1  180.0000771  2.0083200  2
    175    174    178    190     1  0.0000000  1.2552000  3
    175    174    181    184     1  180.0000771  2.0083200  2
    175    174    181    184     1  0.0000000  1.2552000  3
    175    187    199    463     1  0.0000000  0.6508444  3
    178    174    175    187     1  180.0000771  2.0083200  2
    178    174    175    187     1  0.0000000  1.2552000  3
    178    174    181    184     1  180.0000771  2.0083200  2
    178    174    181    184     1  0.0000000  1.2552000  3
    178    190    196    434     1  0.0000000  0.6508444  3
    181    174    175    187     1  180.0000771  2.0083200  2
    181    174    175    187     1  0.0000000  1.2552000  3
    181    174    178    190     1  180.0000771  2.0083200  2
    181    174    178    190     1  0.0000000  1.2552000  3
    181    184    193    202     1  0.0000000  0.6508444  3
    187    199    463    454     1  180.0000771  0.4184000  2
    187    199    463    454     1  0.0000000  1.6024720  3
    190    196    434    425     1  180.0000771  0.4184000  2
    190    196    434    425     1  0.0000000  1.6024720  3
    196    434    425    416     1  180.0000771  0.4184000  2
    196    434    425    416     1  0.0000000  1.6024720  3
    199    463    454    445     1  180.0000771  0.4184000  2
    199    463    454    445     1  0.0000000  1.6024720  3
    203    204    216    228     1  0.0000000  0.6508444  3
    203    207    219    225     1  0.0000000  0.6508444  3
    203    210    213    222     1  0.0000000  0.6508444  3
    204    203    207    219     1  180.0000771  2.0083200  2
    204    203    207    219     1  0.0000000  1.2552000  3
    204    203    210    213     1  180.0000771  2.0083200  2
    204    203    210    213     1  0.0000000  1.2552000  3
    204    216    228    521     1  0.0000000  0.6508444  3
    207    203    204    216     1  180.0000771  2.0083200  2
    207    203    204    216     1  0.0000000  1.2552000  3
    207    203    210    213     1  180.0000771  2.0083200  2
    207    203    210    213     1  0.0000000  1.2552000  3
    207    219    225    492     1  0.0000000  0.6508444  3
    210    203    204    216     1  180.0000771  2.0083200  2
    210    203    204    216     1  0.0000000  1.2552000  3
    210    203    207    219     1  180.0000771  2.0083200  2
    210    203    207    219     1  0.0000000  1.2552000  3
    210    213    222    231     1  0.0000000  0.6508444  3
    216    228    521    512     1  180.0000771  0.4184000  2
    216    228    521    512     1  0.0000000  1.6024720  3
    219    225    492    483     1  180.0000771  0.4184000  2
    219    225    492    483     1  0.0000000  1.6024720  3
    225    492    483    474     1  180.0000771  0.4184000  2
    225    492    483    474     1  0.0000000  1.6024720  3
    228    521    512    503     1  180.0000771  0.4184000  2
    228    521    512    503     1  0.0000000  1.6024720  3
    232    233    245    257     1  0.0000000  0.6508444  3
    232    236    248    254     1  0.0000000  0.6508444  3
    232    239    242    251     1  0.0000000  0.6508444  3
    233    232    236    248     1  180.0000771  2.0083200  2
    233    232    236    248     1  0.0000000  1.2552000  3
    233    232    239    242     1  180.0000771  2.0083200  2
    233    232    239    242     1  0.0000000  1.2552000  3
    233    245    257    579     1  0.0000000  0.6508444  3
    236    232    233    245     1  180.0000771  2.0083200  2
    236    232    233    245     1  0.0000000  1.2552000  3
    236    232    239    242     1  180.0000771  2.0083200  2
    236    232    239    242     1  0.0000000  1.2552000  3
    236    248    254    550     1  0.0000000  0.6508444  3
    239    232    233    245     1  180.0000771  2.0083200  2
    239    232    233    245     1  0.0000000  1.2552000  3
    239    232    236    248     1  180.0000771  2.0083200  2
    239    232    236    248     1  0.0000000  1.2552000  3
    239    242    251    260     1  0.0000000  0.6508444  3
    245    257    579    570     1  180.0000771  0.4184000  2
    245    257    579    570     1  0.0000000  1.6024720  3
    248    254    550    541     1  180.0000771  0.4184000  2
    248    254    550    541     1  0.0000000  1.6024720  3
    254    550    541    532     1  180.0000771  0.4184000  2
    254    550    541    532     1  0.0000000  1.6024720  3
    257    579    570    561     1  180.0000771  0.4184000  2
    257    579    570    561     1  0.0000000  1.6024720  3
    261    262    274    286     1  0.0000000  0.6508444  3
    261    265    277    283     1  0.0000000  0.6508444  3
    261    268    271    280     1  0.0000000  0.6508444  3
    262    261    265    277     1  180.0000771  2.0083200  2
    262    261    265    277     1  0.0000000  1.2552000  3
    262    261    268    271     1  180.0000771  2.0083200  2
    262    261    268    271     1  0.0000000  1.2552000  3
    262    274    286    637     1  0.0000000  0.6508444  3
    265    261    262    274     1  180.0000771  2.0083200  2
    265    261    262    274     1  0.0000000  1.2552000  3
    265    261    268    271     1  180.0000771  2.0083200  2
    265    261    268    271     1  0.0000000  1.2552000  3
    265    277    283    608     1  0.0000000  0.6508444  3
    268    261    262    274     1  180.0000771  2.0083200  2
    268    261    262    274     1  0.0000000  1.2552000  3
    268    261    265    277     1  180.0000771  2.0083200  2
    268    261    265    277     1  0.0000000  1.2552000  3
    268    271    280    289     1  0.0000000  0.6508444  3
    274    286    637    628     1  180.0000771  0.4184000  2
    274    286    637    628     1  0.0000000  1.6024720  3
    277    283    608    599     1  180.0000771  0.4184000  2
    277    283    608    599     1  0.0000000  1.6024720  3
    283    608    599    590     1  180.0000771  0.4184000  2
    283    608    599    590     1  0.0000000  1.6024720  3
    286    637    628    619     1  180.0000771  0.4184000  2
    286    637    628    619     1  0.0000000  1.6024720  3
    290    291    303    315     1  0.0000000  0.6508444  3
    290    294    306    312     1  0.0000000  0.6508444  3
    290    297    300    309     1  0.0000000  0.6508444  3
    291    290    294    306     1  180.0000771  2.0083200  2
    291    290    294    306     1  0.0000000  1.2552000  3
    291    290    297    300     1  180.0000771  2.0083200  2
    291    290    297    300     1  0.0000000  1.2552000  3
    291    303    315    671     1  0.0000000  0.6508444  3
    294    290    291    303     1  180.0000771  2.0083200  2
    294    290    291    303     1  0.0000000  1.2552000  3
    294    290    297    300     1  180.0000771  2.0083200  2
    294    290    297    300     1  0.0000000  1.2552000  3
    294    306    312    648     1  0.0000000  0.6508444  3
    297    290    291    303     1  180.0000771  2.0083200  2
    297    290    291    303     1  0.0000000  1.2552000  3
    297    290    294    306     1  180.0000771  2.0083200  2
    297    290    294    306     1  0.0000000  1.2552000  3
    297    300    309    318     1  0.0000000  0.6508444  3
    303    315    671    667     1  180.0000771  0.4184000  2
    303    315    671    667     1  0.0000000  1.6024720  3
    306    312    648    644     1  180.0000771  0.4184000  2
    306    312    648    644     1  0.0000000  1.6024720  3
    312    648    644    643     1  180.0000771  0.4184000  2
    312    648    644    643     1  0.0000000  1.6024720  3
    312    648    644    660     1  180.0000771  5.6484000  1
    312    648    644    660     1  180.0000771  3.5564000  2
    312    648    644    660     1  0.0000000  0.4184000  3
    315    671    667    683     1  180.0000771  5.6484000  1
    315    671    667    683     1  180.0000771  3.5564000  2
    315    671    667    683     1  0.0000000  0.4184000  3
    315    671    667    666     1  180.0000771  0.4184000  2
    315    671    667    666     1  0.0000000  1.6024720  3
    319    320    332    344     1  0.0000000  0.6508444  3
    319    323    335    341     1  0.0000000  0.6508444  3
    319    326    329    338     1  0.0000000  0.6508444  3
    320    319    323    335     1  180.0000771  2.0083200  2
    320    319    323    335     1  0.0000000  1.2552000  3
    320    319    326    329     1  180.0000771  2.0083200  2
    320    319    326    329     1  0.0000000  1.2552000  3
    320    332    344    717     1  0.0000000  0.6508444  3
    323    319    320    332     1  180.0000771  2.0083200  2
    323    319    320    332     1  0.0000000  1.2552000  3
    323    319    326    329     1  180.0000771  2.0083200  2
    323    319    326    329     1  0.0000000  1.2552000  3
    323    335    341    694     1  0.0000000  0.6508444  3
    326    319    320    332     1  180.0000771  2.0083200  2
    326    319    320    332     1  0.0000000  1.2552000  3
    326    319    323    335     1  180.0000771  2.0083200  2
    326    319    323    335     1  0.0000000  1.2552000  3
    326    329    338    347     1  0.0000000  0.6508444  3
    332    344    717    713     1  180.0000771  0.4184000  2
    332    344    717    713     1  0.0000000  1.6024720  3
    335    341    694    690     1  180.0000771  0.4184000  2
    335    341    694    690     1  0.0000000  1.6024720  3
    341    694    690    689     1  180.0000771  0.4184000  2
    341    694    690    689     1  0.0000000  1.6024720  3
    341    694    690    706     1  180.0000771  5.6484000  1
    341    694    690    706     1  180.0000771  3.5564000  2
    341    694    690    706     1  0.0000000  0.4184000  3
    344    717    713    729     1  180.0000771  5.6484000  1
    344    717    713    729     1  180.0000771  3.5564000  2
    344    717    713    729     1  0.0000000  0.4184000  3
    344    717    713    712     1  180.0000771  0.4184000  2
    344    717    713    712     1  0.0000000  1.6024720  3
    348    349    361    373     1  0.0000000  0.6508444  3
    348    352    364    370     1  0.0000000  0.6508444  3
    348    355    358    367     1  0.0000000  0.6508444  3
    349    348    352    364     1  180.0000771  2.0083200  2
    349    348    352    364     1  0.0000000  1.2552000  3
    349    348    355    358     1  180.0000771  2.0083200  2
    349    348    355    358     1  0.0000000  1.2552000  3
    349    361    373    763     1  0.0000000  0.6508444  3
    352    348    349    361     1  180.0000771  2.0083200  2
    352    348    349    361     1  0.0000000  1.2552000  3
    352    348    355    358     1  180.0000771  2.0083200  2
    352    348    355    358     1  0.0000000  1.2552000  3
    352    364    370    740     1  0.0000000  0.6508444  3
    355    348    349    361     1  180.0000771  2.0083200  2
    355    348    349    361     1  0.0000000  1.2552000  3
    355    348    352    364     1  180.0000771  2.0083200  2
    355    348    352    364     1  0.0000000  1.2552000  3
    355    358    367    376     1  0.0000000  0.6508444  3
    361    373    763    759     1  180.0000771  0.4184000  2
    361    373    763    759     1  0.0000000  1.6024720  3
    364    370    740    736     1  180.0000771  0.4184000  2
    364    370    740    736     1  0.0000000  1.6024720  3
    370    740    736    735     1  180.0000771  0.4184000  2
    370    740    736    735     1  0.0000000  1.6024720  3
    370    740    736    752     1  180.0000771  5.6484000  1
    370    740    736    752     1  180.0000771  3.5564000  2
    370    740    736    752     1  0.0000000  0.4184000  3
    373    763    759    775     1  180.0000771  5.6484000  1
    373    763    759    775     1  180.0000771  3.5564000  2
    373    763    759    775     1  0.0000000  0.4184000  3
    373    763    759    758     1  180.0000771  0.4184000  2
    373    763    759    758     1  0.0000000  1.6024720  3
    377    378    390    402     1  0.0000000  0.6508444  3
    377    381    393    399     1  0.0000000  0.6508444  3
    377    384    387    396     1  0.0000000  0.6508444  3
    378    377    381    393     1  180.0000771  2.0083200  2
    378    377    381    393     1  0.0000000  1.2552000  3
    378    377    384    387     1  180.0000771  2.0083200  2
    378    377    384    387     1  0.0000000  1.2552000  3
    378    390    402    809     1  0.0000000  0.6508444  3
    381    377    378    390     1  180.0000771  2.0083200  2
    381    377    378    390     1  0.0000000  1.2552000  3
    381    377    384    387     1  180.0000771  2.0083200  2
    381    377    384    387     1  0.0000000  1.2552000  3
    381    393    399    786     1  0.0000000  0.6508444  3
    384    377    378    390     1  180.0000771  2.0083200  2
    384    377    378    390     1  0.0000000  1.2552000  3
    384    377    381    393     1  180.0000771  2.0083200  2
    384    377    381    393     1  0.0000000  1.2552000  3
    384    387    396    405     1  0.0000000  0.6508444  3
    390    402    809    805     1  180.0000771  0.4184000  2
    390    402    809    805     1  0.0000000  1.6024720  3
    393    399    786    782     1  180.0000771  0.4184000  2
    393    399    786    782     1  0.0000000  1.6024720  3
    399    786    782    781     1  180.0000771  0.4184000  2
    399    786    782    781     1  0.0000000  1.6024720  3
    399    786    782    798     1  180.0000771  5.6484000  1
    399    786    782    798     1  180.0000771  3.5564000  2
    399    786    782    798     1  0.0000000  0.4184000  3
    402    809    805    821     1  180.0000771  5.6484000  1
    402    809    805    821     1  180.0000771  3.5564000  2
    402    809    805    821     1  0.0000000  0.4184000  3
    402    809    805    804     1  180.0000771  0.4184000  2
    402    809    805    804     1  0.0000000  1.6024720  3
    406    407    419    431     1  0.0000000  0.6508444  3
    406    410    422    428     1  0.0000000  0.6508444  3
    406    413    416    425     1  0.0000000  0.6508444  3
    407    406    410    422     1  180.0000771  2.0083200  2
    407    406    410    422     1  0.0000000  1.2552000  3
    407    406    413    416     1  180.0000771  2.0083200  2
    407    406    413    416     1  0.0000000  1.2552000  3
    407    419    431    855     1  0.0000000  0.6508444  3
    410    406    407    419     1  180.0000771  2.0083200  2
    410    406    407    419     1  0.0000000  1.2552000  3
    410    406    413    416     1  180.0000771  2.0083200  2
    410    406    413    416     1  0.0000000  1.2552000  3
    410    422    428    832     1  0.0000000  0.6508444  3
    413    406    407    419     1  180.0000771  2.0083200  2
    413    406    407    419     1  0.0000000  1.2552000  3
    413    406    410    422     1  180.0000771  2.0083200  2
    413    406    410    422     1  0.0000000  1.2552000  3
    413    416    425    434     1  0.0000000  0.6508444  3
    419    431    855    851     1  180.0000771  0.4184000  2
    419    431    855    851     1  0.0000000  1.6024720  3
    422    428    832    828     1  180.0000771  0.4184000  2
    422    428    832    828     1  0.0000000  1.6024720  3
    428    832    828    827     1  180.0000771  0.4184000  2
    428    832    828    827     1  0.0000000  1.6024720  3
    428    832    828    844     1  180.0000771  5.6484000  1
    428    832    828    844     1  180.0000771  3.5564000  2
    428    832    828    844     1  0.0000000  0.4184000  3
    431    855    851    867     1  180.0000771  5.6484000  1
    431    855    851    867     1  180.0000771  3.5564000  2
    431    855    851    867     1  0.0000000  0.4184000  3
    431    855    851    850     1  180.0000771  0.4184000  2
    431    855    851    850     1  0.0000000  1.6024720  3
    435    436    448    460     1  0.0000000  0.6508444  3
    435    439    451    457     1  0.0000000  0.6508444  3
    435    442    445    454     1  0.0000000  0.6508444  3
    436    435    439    451     1  180.0000771  2.0083200  2
    436    435    439    451     1  0.0000000  1.2552000  3
    436    435    442    445     1  180.0000771  2.0083200  2
    436    435    442    445     1  0.0000000  1.2552000  3
    436    448    460    901     1  0.0000000  0.6508444  3
    439    435    436    448     1  180.0000771  2.0083200  2
    439    435    436    448     1  0.0000000  1.2552000  3
    439    435    442    445     1  180.0000771  2.0083200  2
    439    435    442    445     1  0.0000000  1.2552000  3
    439    451    457    878     1  0.0000000  0.6508444  3
    442    435    436    448     1  180.0000771  2.0083200  2
    442    435    436    448     1  0.0000000  1.2552000  3
    442    435    439    451     1  180.0000771  2.0083200  2
    442    435    439    451     1  0.0000000  1.2552000  3
    442    445    454    463     1  0.0000000  0.6508444  3
    448    460    901    897     1  180.0000771  0.4184000  2
    448    460    901    897     1  0.0000000  1.6024720  3
    451    457    878    874     1  180.0000771  0.4184000  2
    451    457    878    874     1  0.0000000  1.6024720  3
    457    878    874    873     1  180.0000771  0.4184000  2
    457    878    874    873     1  0.0000000  1.6024720  3
    457    878    874    890     1  180.0000771  5.6484000  1
    457    878    874    890     1  180.0000771  3.5564000  2
    457    878    874    890     1  0.0000000  0.4184000  3
    460    901    897    913     1  180.0000771  5.6484000  1
    460    901    897    913     1  180.0000771  3.5564000  2
    460    901    897    913     1  0.0000000  0.4184000  3
    460    901    897    896     1  180.0000771  0.4184000  2
    460    901    897    896     1  0.0000000  1.6024720  3
    464    465    477    489     1  0.0000000  0.6508444  3
    464    468    480    486     1  0.0000000  0.6508444  3
    464    471    474    483     1  0.0000000  0.6508444  3
    465    464    468    480     1  180.0000771  2.0083200  2
    465    464    468    480     1  0.0000000  1.2552000  3
    465    464    471    474     1  180.0000771  2.0083200  2
    465    464    471    474     1  0.0000000  1.2552000  3
    465    477    489    947     1  0.0000000  0.6508444  3
    468    464    465    477     1  180.0000771  2.0083200  2
    468    464    465    477     1  0.0000000  1.2552000  3
    468    464    471    474     1  180.0000771  2.0083200  2
    468    464    471    474     1  0.0000000  1.2552000  3
    468    480    486    924     1  0.0000000  0.6508444  3
    471    464    465    477     1  180.0000771  2.0083200  2
    471    464    465    477     1  0.0000000  1.2552000  3
    471    464    468    480     1  180.0000771  2.0083200  2
    471    464    468    480     1  0.0000000  1.2552000  3
    471    474    483    492     1  0.0000000  0.6508444  3
    477    489    947    943     1  180.0000771  0.4184000  2
    477    489    947    943     1  0.0000000  1.6024720  3
    480    486    924    920     1  180.0000771  0.4184000  2
    480    486    924    920     1  0.0000000  1.6024720  3
    486    924    920    919     1  180.0000771  0.4184000  2
    486    924    920    919     1  0.0000000  1.6024720  3
    486    924    920    936     1  180.0000771  5.6484000  1
    486    924    920    936     1  180.0000771  3.5564000  2
    486    924    920    936     1  0.0000000  0.4184000  3
    489    947    943    959     1  180.0000771  5.6484000  1
    489    947    943    959     1  180.0000771  3.5564000  2
    489    947    943    959     1  0.0000000  0.4184000  3
    489    947    943    942     1  180.0000771  0.4184000  2
    489    947    943    942     1  0.0000000  1.6024720  3
    493    494    506    518     1  0.0000000  0.6508444  3
    493    497    509    515     1  0.0000000  0.6508444  3
    493    500    503    512     1  0.0000000  0.6508444  3
    494    493    497    509     1  180.0000771  2.0083200  2
    494    493    497    509     1  0.0000000  1.2552000  3
    494    493    500    503     1  180.0000771  2.0083200  2
    494    493    500    503     1  0.0000000  1.2552000  3
    494    506    518    993     1  0.0000000  0.6508444  3
    497    493    494    506     1  180.0000771  2.0083200  2
    497    493    494    506     1  0.0000000  1.2552000  3
    497    493    500    503     1  180.0000771  2.0083200  2
    497    493    500    503     1  0.0000000  1.2552000  3
    497    509    515    970     1  0.0000000  0.6508444  3
    500    493    494    506     1  180.0000771  2.0083200  2
    500    493    494    506     1  0.0000000  1.2552000  3
    500    493    497    509     1  180.0000771  2.0083200  2
    500    493    497    509     1  0.0000000  1.2552000  3
    500    503    512    521     1  0.0000000  0.6508444  3
    506    518    993    989     1  180.0000771  0.4184000  2
    506    518    993    989     1  0.0000000  1.6024720  3
    509    515    970    966     1  180.0000771  0.4184000  2
    509    515    970    966     1  0.0000000  1.6024720  3
    515    970    966    965     1  180.0000771  0.4184000  2
    515    970    966    965     1  0.0000000  1.6024720  3
    515    970    966    982     1  180.0000771  5.6484000  1
    515    970    966    982     1  180.0000771  3.5564000  2
    515    970    966    982     1  0.0000000  0.4184000  3
    518    993    989   1005     1  180.0000771  5.6484000  1
    518    993    989   1005     1  180.0000771  3.5564000  2
    518    993    989   1005     1  0.0000000  0.4184000  3
    518    993    989    988     1  180.0000771  0.4184000  2
    518    993    989    988     1  0.0000000  1.6024720  3
    522    523    535    547     1  0.0000000  0.6508444  3
    522    526    538    544     1  0.0000000  0.6508444  3
    522    529    532    541     1  0.0000000  0.6508444  3
    523    522    526    538     1  180.0000771  2.0083200  2
    523    522    526    538     1  0.0000000  1.2552000  3
    523    522    529    532     1  180.0000771  2.0083200  2
    523    522    529    532     1  0.0000000  1.2552000  3
    523    535    547   1039     1  0.0000000  0.6508444  3
    526    522    523    535     1  180.0000771  2.0083200  2
    526    522    523    535     1  0.0000000  1.2552000  3
    526    522    529    532     1  180.0000771  2.0083200  2
    526    522    529    532     1  0.0000000  1.2552000  3
    526    538    544   1016     1  0.0000000  0.6508444  3
    529    522    523    535     1  180.0000771  2.0083200  2
    529    522    523    535     1  0.0000000  1.2552000  3
    529    522    526    538     1  180.0000771  2.0083200  2
    529    522    526    538     1  0.0000000  1.2552000  3
    529    532    541    550     1  0.0000000  0.6508444  3
    535    547   1039   1035     1  180.0000771  0.4184000  2
    535    547   1039   1035     1  0.0000000  1.6024720  3
    538    544   1016   1012     1  180.0000771  0.4184000  2
    538    544   1016   1012     1  0.0000000  1.6024720  3
    544   1016   1012   1011     1  180.0000771  0.4184000  2
    544   1016   1012   1011     1  0.0000000  1.6024720  3
    544   1016   1012   1028     1  180.0000771  5.6484000  1
    544   1016   1012   1028     1  180.0000771  3.5564000  2
    544   1016   1012   1028     1  0.0000000  0.4184000  3
    547   1039   1035   1051     1  180.0000771  5.6484000  1
    547   1039   1035   1051     1  180.0000771  3.5564000  2
    547   1039   1035   1051     1  0.0000000  0.4184000  3
    547   1039   1035   1034     1  180.0000771  0.4184000  2
    547   1039   1035   1034     1  0.0000000  1.6024720  3
    551    552    564    576     1  0.0000000  0.6508444  3
    551    555    567    573     1  0.0000000  0.6508444  3
    551    558    561    570     1  0.0000000  0.6508444  3
    552    551    555    567     1  180.0000771  2.0083200  2
    552    551    555    567     1  0.0000000  1.2552000  3
    552    551    558    561     1  180.0000771  2.0083200  2
    552    551    558    561     1  0.0000000  1.2552000  3
    552    564    576   1085     1  0.0000000  0.6508444  3
    555    551    552    564     1  180.0000771  2.0083200  2
    555    551    552    564     1  0.0000000  1.2552000  3
    555    551    558    561     1  180.0000771  2.0083200  2
    555    551    558    561     1  0.0000000  1.2552000  3
    555    567    573   1062     1  0.0000000  0.6508444  3
    558    551    552    564     1  180.0000771  2.0083200  2
    558    551    552    564     1  0.0000000  1.2552000  3
    558    551    555    567     1  180.0000771  2.0083200  2
    558    551    555    567     1  0.0000000  1.2552000  3
    558    561    570    579     1  0.0000000  0.6508444  3
    564    576   1085   1081     1  180.0000771  0.4184000  2
    564    576   1085   1081     1  0.0000000  1.6024720  3
    567    573   1062   1058     1  180.0000771  0.4184000  2
    567    573   1062   1058     1  0.0000000  1.6024720  3
    573   1062   1058   1057     1  180.0000771  0.4184000  2
    573   1062   1058   1057     1  0.0000000  1.6024720  3
    573   1062   1058   1074     1  180.0000771  5.6484000  1
    573   1062   1058   1074     1  180.0000771  3.5564000  2
    573   1062   1058   1074     1  0.0000000  0.4184000  3
    576   1085   1081   1097     1  180.0000771  5.6484000  1
    576   1085   1081   1097     1  180.0000771  3.5564000  2
    576   1085   1081   1097     1  0.0000000  0.4184000  3
    576   1085   1081   1080     1  180.0000771  0.4184000  2
    576   1085   1081   1080     1  0.0000000  1.6024720  3
    580    581    593    605     1  0.0000000  0.6508444  3
    580    584    596    602     1  0.0000000  0.6508444  3
    580    587    590    599     1  0.0000000  0.6508444  3
    581    580    584    596     1  180.0000771  2.0083200  2
    581    580    584    596     1  0.0000000  1.2552000  3
    581    580    587    590     1  180.0000771  2.0083200  2
    581    580    587    590     1  0.0000000  1.2552000  3
    581    593    605   1131     1  0.0000000  0.6508444  3
    584    580    581    593     1  180.0000771  2.0083200  2
    584    580    581    593     1  0.0000000  1.2552000  3
    584    580    587    590     1  180.0000771  2.0083200  2
    584    580    587    590     1  0.0000000  1.2552000  3
    584    596    602   1108     1  0.0000000  0.6508444  3
    587    580    581    593     1  180.0000771  2.0083200  2
    587    580    581    593     1  0.0000000  1.2552000  3
    587    580    584    596     1  180.0000771  2.0083200  2
    587    580    584    596     1  0.0000000  1.2552000  3
    587    590    599    608     1  0.0000000  0.6508444  3
    593    605   1131   1127     1  180.0000771  0.4184000  2
    593    605   1131   1127     1  0.0000000  1.6024720  3
    596    602   1108   1104     1  180.0000771  0.4184000  2
    596    602   1108   1104     1  0.0000000  1.6024720  3
    602   1108   1104   1103     1  180.0000771  0.4184000  2
    602   1108   1104   1103     1  0.0000000  1.6024720  3
    602   1108   1104   1120     1  180.0000771  5.6484000  1
    602   1108   1104   1120     1  180.0000771  3.5564000  2
    602   1108   1104   1120     1  0.0000000  0.4184000  3
    605   1131   1127   1143     1  180.0000771  5.6484000  1
    605   1131   1127   1143     1  180.0000771  3.5564000  2
    605   1131   1127   1143     1  0.0000000  0.4184000  3
    605   1131   1127   1126     1  180.0000771  0.4184000  2
    605   1131   1127   1126     1  0.0000000  1.6024720  3
    609    610    622    634     1  0.0000000  0.6508444  3
    609    613    625    631     1  0.0000000  0.6508444  3
    609    616    619    628     1  0.0000000  0.6508444  3
    610    609    613    625     1  180.0000771  2.0083200  2
    610    609    613    625     1  0.0000000  1.2552000  3
    610    609    616    619     1  180.0000771  2.0083200  2
    610    609    616    619     1  0.0000000  1.2552000  3
    610    622    634   1177     1  0.0000000  0.6508444  3
    613    609    610    622     1  180.0000771  2.0083200  2
    613    609    610    622     1  0.0000000  1.2552000  3
    613    609    616    619     1  180.0000771  2.0083200  2
    613    609    616    619     1  0.0000000  1.2552000  3
    613    625    631   1154     1  0.0000000  0.6508444  3
    616    609    610    622     1  180.0000771  2.0083200  2
    616    609    610    622     1  0.0000000  1.2552000  3
    616    609    613    625     1  180.0000771  2.0083200  2
    616    609    613    625     1  0.0000000  1.2552000  3
    616    619    628    637     1  0.0000000  0.6508444  3
    622    634   1177   1173     1  180.0000771  0.4184000  2
    622    634   1177   1173     1  0.0000000  1.6024720  3
    625    631   1154   1150     1  180.0000771  0.4184000  2
    625    631   1154   1150     1  0.0000000  1.6024720  3
    631   1154   1150   1149     1  180.0000771  0.4184000  2
    631   1154   1150   1149     1  0.0000000  1.6024720  3
    631   1154   1150   1166     1  180.0000771  5.6484000  1
    631   1154   1150   1166     1  180.0000771  3.5564000  2
    631   1154   1150   1166     1  0.0000000  0.4184000  3
    634   1177   1173   1189     1  180.0000771  5.6484000  1
    634   1177   1173   1189     1  180.0000771  3.5564000  2
    634   1177   1173   1189     1  0.0000000  0.4184000  3
    634   1177   1173   1172     1  180.0000771  0.4184000  2
    634   1177   1173   1172     1  0.0000000  1.6024720  3
    638    639    642    643     1  180.0000771  0.8368000  1
    638    639    642    643     1  180.0000771  1.0460000  2
    638    639    642    643     1  0.0000000  0.7531200  3
    638    639    642    650     1  0.0000000  0.6508444  3
    638    660    644    643     1  180.0000771  0.4184000  2
    638    660    644    643     1  0.0000000  1.6024720  3
    638    660    644    648     1  180.0000771  5.6484000  1
    638    660    644    648     1  180.0000771  3.5564000  2
    638    660    644    648     1  0.0000000  0.4184000  3
    639    638    652    658     1  0.0000000  0.6508444  3
    639    638    660    644     1  180.0000771  0.4184000  2
    639    638    660    644     1  0.0000000  1.6024720  3
    639    642    643    644     1  180.0000771  0.8368000  1
    639    642    643    644     1  180.0000771  1.0460000  2
    639    642    643    644     1  0.0000000  0.7531200  3
    639    642    643    649     1  0.0000000  0.6508444  3
    642    639    638    652     1  180.0000771  0.8368000  1
    642    639    638    652     1  180.0000771  1.0460000  2
    642    639    638    652     1  0.0000000  0.7531200  3
    642    639    638    660     1  0.0000000  0.6508444  3
    642    643    644    648     1  0.0000000  0.6508444  3
    642    643    644    660     1  0.0000000  0.6508444  3
    643    642    639    651     1  0.0000000  0.6508444  3
    644    643    642    650     1  0.0000000  0.6508444  3
    644    660    638    652     1  180.0000771  0.4184000  2
    644    660    638    652     1  0.0000000  1.6024720  3
    648    644    643    649     1  0.0000000  4.9162000  2
    648    644    643    649     1  0.0000000  0.6024960  3
    649    643    642    650     1  0.0000000  4.9162000  2
    649    643    642    650     1  0.0000000  0.6024960  3
    649    643    644    660     1  0.0000000  4.9162000  2
    649    643    644    660     1  0.0000000  0.6024960  3
    650    642    639    651     1  0.0000000  4.9162000  2
    650    642    639    651     1  0.0000000  0.6024960  3
    651    639    638    652     1  0.0000000  0.6508444  3
    651    639    638    660     1  0.0000000  4.9162000  2
    651    639    638    660     1  0.0000000  0.6024960  3
    658    652    638    660     1  0.0000000  4.9162000  2
    658    652    638    660     1  0.0000000  0.6024960  3
    661    662    665    666     1  180.0000771  0.8368000  1
    661    662    665    666     1  180.0000771  1.0460000  2
    661    662    665    666     1  0.0000000  0.7531200  3
    661    662    665    673     1  0.0000000  0.6508444  3
    661    683    667    671     1  180.0000771  5.6484000  1
    661    683    667    671     1  180.0000771  3.5564000  2
    661    683    667    671     1  0.0000000  0.4184000  3
    661    683    667    666     1  180.0000771  0.4184000  2
    661    683    667    666     1  0.0000000  1.6024720  3
    662    665    666    667     1  180.0000771  0.8368000  1
    662    665    666    667     1  180.0000771  1.0460000  2
    662    665    666    667     1  0.0000000  0.7531200  3
    662    665    666    672     1  0.0000000  0.6508444  3
    662    661    675    681     1  0.0000000  0.6508444  3
    662    661    683    667     1  180.0000771  0.4184000  2
    662    661    683    667     1  0.0000000  1.6024720  3
    665    666    667    671     1  0.0000000  0.6508444  3
    665    666    667    683     1  0.0000000  0.6508444  3
    665    662    661    675     1  180.0000771  0.8368000  1
    665    662    661    675     1  180.0000771  1.0460000  2
    665    662    661    675     1  0.0000000  0.7531200  3
    665    662    661    683     1  0.0000000  0.6508444  3
    666    665    662    674     1  0.0000000  0.6508444  3
    667    683    661    675     1  180.0000771  0.4184000  2
    667    683    661    675     1  0.0000000  1.6024720  3
    667    666    665    673     1  0.0000000  0.6508444  3
    671    667    666    672     1  0.0000000  4.9162000  2
    671    667    666    672     1  0.0000000  0.6024960  3
    672    666    667    683     1  0.0000000  4.9162000  2
    672    666    667    683     1  0.0000000  0.6024960  3
    672    666    665    673     1  0.0000000  4.9162000  2
    672    666    665    673     1  0.0000000  0.6024960  3
    673    665    662    674     1  0.0000000  4.9162000  2
    673    665    662    674     1  0.0000000  0.6024960  3
    674    662    661    675     1  0.0000000  0.6508444  3
    674    662    661    683     1  0.0000000  4.9162000  2
    674    662    661    683     1  0.0000000  0.6024960  3
    681    675    661    683     1  0.0000000  4.9162000  2
    681    675    661    683     1  0.0000000  0.6024960  3
    684    685    688    689     1  180.0000771  0.8368000  1
    684    685    688    689     1  180.0000771  1.0460000  2
    684    685    688    689     1  0.0000000  0.7531200  3
    684    685    688    696     1  0.0000000  0.6508444  3
    684    706    690    689     1  180.0000771  0.4184000  2
    684    706    690    689     1  0.0000000  1.6024720  3
    684    706    690    694     1  180.0000771  5.6484000  1
    684    706    690    694     1  180.0000771  3.5564000  2
    684    706    690    694     1  0.0000000  0.4184000  3
    685    684    698    704     1  0.0000000  0.6508444  3
    685    684    706    690     1  180.0000771  0.4184000  2
    685    684    706    690     1  0.0000000  1.6024720  3
    685    688    689    690     1  180.0000771  0.8368000  1
    685    688    689    690     1  180.0000771  1.0460000  2
    685    688    689    690     1  0.0000000  0.7531200  3
    685    688    689    695     1  0.0000000  0.6508444  3
    688    685    684    698     1  180.0000771  0.8368000  1
    688    685    684    698     1  180.0000771  1.0460000  2
    688    685    684    698     1  0.0000000  0.7531200  3
    688    685    684    706     1  0.0000000  0.6508444  3
    688    689    690    694     1  0.0000000  0.6508444  3
    688    689    690    706     1  0.0000000  0.6508444  3
    689    688    685    697     1  0.0000000  0.6508444  3
    690    689    688    696     1  0.0000000  0.6508444  3
    690    706    684    698     1  180.0000771  0.4184000  2
    690    706    684    698     1  0.0000000  1.6024720  3
    694    690    689    695     1  0.0000000  4.9162000  2
    694    690    689    695     1  0.0000000  0.6024960  3
    695    689    688    696     1  0.0000000  4.9162000  2
    695    689    688    696     1  0.0000000  0.6024960  3
    695    689    690    706     1  0.0000000  4.9162000  2
    695    689    690    706     1  0.0000000  0.6024960  3
    696    688    685    697     1  0.0000000  4.9162000  2
    696    688    685    697     1  0.0000000  0.6024960  3
    697    685    684    698     1  0.0000000  0.6508444  3
    697    685    684    706     1  0.0000000  4.9162000  2
    697    685    684    706     1  0.0000000  0.6024960  3
    704    698    684    706     1  0.0000000  4.9162000  2
    704    698    684    706     1  0.0000000  0.6024960  3
    707    708    711    712     1  180.0000771  0.8368000  1
    707    708    711    712     1  180.0000771  1.0460000  2
    707    708    711    712     1  0.0000000  0.7531200  3
    707    708    711    719     1  0.0000000  0.6508444  3
    707    729    713    717     1  180.0000771  5.6484000  1
    707    729    713    717     1  180.0000771  3.5564000  2
    707    729    713    717     1  0.0000000  0.4184000  3
    707    729    713    712     1  180.0000771  0.4184000  2
    707    729    713    712     1  0.0000000  1.6024720  3
    708    711    712    713     1  180.0000771  0.8368000  1
    708    711    712    713     1  180.0000771  1.0460000  2
    708    711    712    713     1  0.0000000  0.7531200  3
    708    711    712    718     1  0.0000000  0.6508444  3
    708    707    721    727     1  0.0000000  0.6508444  3
    708    707    729    713     1  180.0000771  0.4184000  2
    708    707    729    713     1  0.0000000  1.6024720  3
    711    712    713    717     1  0.0000000  0.6508444  3
    711    712    713    729     1  0.0000000  0.6508444  3
    711    708    707    721     1  180.0000771  0.8368000  1
    711    708    707    721     1  180.0000771  1.0460000  2
    711    708    707    721     1  0.0000000  0.7531200  3
    711    708    707    729     1  0.0000000  0.6508444  3
    712    711    708    720     1  0.0000000  0.6508444  3
    713    729    707    721     1  180.0000771  0.4184000  2
    713    729    707    721     1  0.0000000  1.6024720  3
    713    712    711    719     1  0.0000000  0.6508444  3
    717    713    712    718     1  0.0000000  4.9162000  2
    717    713    712    718     1  0.0000000  0.6024960  3
    718    712    713    729     1  0.0000000  4.9162000  2
    718    712    713    729     1  0.0000000  0.6024960  3
    718    712    711    719     1  0.0000000  4.9162000  2
    718    712    711    719     1  0.0000000  0.6024960  3
    719    711    708    720     1  0.0000000  4.9162000  2
    719    711    708    720     1  0.0000000  0.6024960  3
    720    708    707    721     1  0.0000000  0.6508444  3
    720    708    707    729     1  0.0000000  4.9162000  2
    720    708    707    729     1  0.0000000  0.6024960  3
    727    721    707    729     1  0.0000000  4.9162000  2
    727    721    707    729     1  0.0000000  0.6024960  3
    730    731    734    735     1  180.0000771  0.8368000  1
    730    731    734    735     1  180.0000771  1.0460000  2
    730    731    734    735     1  0.0000000  0.7531200  3
    730    731    734    742     1  0.0000000  0.6508444  3
    730    752    736    735     1  180.0000771  0.4184000  2
    730    752    736    735     1  0.0000000  1.6024720  3
    730    752    736    740     1  180.0000771  5.6484000  1
    730    752    736    740     1  180.0000771  3.5564000  2
    730    752    736    740     1  0.0000000  0.4184000  3
    731    730    744    750     1  0.0000000  0.6508444  3
    731    730    752    736     1  180.0000771  0.4184000  2
    731    730    752    736     1  0.0000000  1.6024720  3
    731    734    735    736     1  180.0000771  0.8368000  1
    731    734    735    736     1  180.0000771  1.0460000  2
    731    734    735    736     1  0.0000000  0.7531200  3
    731    734    735    741     1  0.0000000  0.6508444  3
    734    731    730    744     1  180.0000771  0.8368000  1
    734    731    730    744     1  180.0000771  1.0460000  2
    734    731    730    744     1  0.0000000  0.7531200  3
    734    731    730    752     1  0.0000000  0.6508444  3
    734    735    736    740     1  0.0000000  0.6508444  3
    734    735    736    752     1  0.0000000  0.6508444  3
    735    734    731    743     1  0.0000000  0.6508444  3
    736    735    734    742     1  0.0000000  0.6508444  3
    736    752    730    744     1  180.0000771  0.4184000  2
    736    752    730    744     1  0.0000000  1.6024720  3
    740    736    735    741     1  0.0000000  4.9162000  2
    740    736    735    741     1  0.0000000  0.6024960  3
    741    735    734    742     1  0.0000000  4.9162000  2
    741    735    734    742     1  0.0000000  0.6024960  3
    741    735    736    752     1  0.0000000  4.9162000  2
    741    735    736    752     1  0.0000000  0.6024960  3
    742    734    731    743     1  0.0000000  4.9162000  2
    742    734    731    743     1  0.0000000  0.6024960  3
    743    731    730    744     1  0.0000000  0.6508444  3
    743    731    730    752     1  0.0000000  4.9162000  2
    743    731    730    752     1  0.0000000  0.6024960  3
    750    744    730    752     1  0.0000000  4.9162000  2
    750    744    730    752     1  0.0000000  0.6024960  3
    753    754    757    758     1  180.0000771  0.8368000  1
    753    754    757    758     1  180.0000771  1.0460000  2
    753    754    757    758     1  0.0000000  0.7531200  3
    753    754    757    765     1  0.0000000  0.6508444  3
    753    775    759    763     1  180.0000771  5.6484000  1
    753    775    759    763     1  180.0000771  3.5564000  2
    753    775    759    763     1  0.0000000  0.4184000  3
    753    775    759    758     1  180.0000771  0.4184000  2
    753    775    759    758     1  0.0000000  1.6024720  3
    754    757    758    759     1  180.0000771  0.8368000  1
    754    757    758    759     1  180.0000771  1.0460000  2
    754    757    758    759     1  0.0000000  0.7531200  3
    754    757    758    764     1  0.0000000  0.6508444  3
    754    753    767    773     1  0.0000000  0.6508444  3
    754    753    775    759     1  180.0000771  0.4184000  2
    754    753    775    759     1  0.0000000  1.6024720  3
    757    758    759    763     1  0.0000000  0.6508444  3
    757    758    759    775     1  0.0000000  0.6508444  3
    757    754    753    767     1  180.0000771  0.8368000  1
    757    754    753    767     1  180.0000771  1.0460000  2
    757    754    753    767     1  0.0000000  0.7531200  3
    757    754    753    775     1  0.0000000  0.6508444  3
    758    757    754    766     1  0.0000000  0.6508444  3
    759    775    753    767     1  180.0000771  0.4184000  2
    759    775    753    767     1  0.0000000  1.6024720  3
    759    758    757    765     1  0.0000000  0.6508444  3
    763    759    758    764     1  0.0000000  4.9162000  2
    763    759    758    764     1  0.0000000  0.6024960  3
    764    758    759    775     1  0.0000000  4.9162000  2
    764    758    759    775     1  0.0000000  0.6024960  3
    764    758    757    765     1  0.0000000  4.9162000  2
    764    758    757    765     1  0.0000000  0.6024960  3
    765    757    754    766     1  0.0000000  4.9162000  2
    765    757    754    766     1  0.0000000  0.6024960  3
    766    754    753    767     1  0.0000000  0.6508444  3
    766    754    753    775     1  0.0000000  4.9162000  2
    766    754    753    775     1  0.0000000  0.6024960  3
    773    767    753    775     1  0.0000000  4.9162000  2
    773    767    753    775     1  0.0000000  0.6024960  3
    776    777    780    781     1  180.0000771  0.8368000  1
    776    777    780    781     1  180.0000771  1.0460000  2
    776    777    780    781     1  0.0000000  0.7531200  3
    776    777    780    788     1  0.0000000  0.6508444  3
    776    798    782    781     1  180.0000771  0.4184000  2
    776    798    782    781     1  0.0000000  1.6024720  3
    776    798    782    786     1  180.0000771  5.6484000  1
    776    798    782    786     1  180.0000771  3.5564000  2
    776    798    782    786     1  0.0000000  0.4184000  3
    777    776    790    796     1  0.0000000  0.6508444  3
    777    776    798    782     1  180.0000771  0.4184000  2
    777    776    798    782     1  0.0000000  1.6024720  3
    777    780    781    782     1  180.0000771  0.8368000  1
    777    780    781    782     1  180.0000771  1.0460000  2
    777    780    781    782     1  0.0000000  0.7531200  3
    777    780    781    787     1  0.0000000  0.6508444  3
    780    777    776    790     1  180.0000771  0.8368000  1
    780    777    776    790     1  180.0000771  1.0460000  2
    780    777    776    790     1  0.0000000  0.7531200  3
    780    777    776    798     1  0.0000000  0.6508444  3
    780    781    782    786     1  0.0000000  0.6508444  3
    780    781    782    798     1  0.0000000  0.6508444  3
    781    780    777    789     1  0.0000000  0.6508444  3
    782    781    780    788     1  0.0000000  0.6508444  3
    782    798    776    790     1  180.0000771  0.4184000  2
    782    798    776    790     1  0.0000000  1.6024720  3
    786    782    781    787     1  0.0000000  4.9162000  2
    786    782    781    787     1  0.0000000  0.6024960  3
    787    781    780    788     1  0.0000000  4.9162000  2
    787    781    780    788     1  0.0000000  0.6024960  3
    787    781    782    798     1  0.0000000  4.9162000  2
    787    781    782    798     1  0.0000000  0.6024960  3
    788    780    777    789     1  0.0000000  4.9162000  2
    788    780    777    789     1  0.0000000  0.6024960  3
    789    777    776    790     1  0.0000000  0.6508444  3
    789    777    776    798     1  0.0000000  4.9162000  2
    789    777    776    798     1  0.0000000  0.6024960  3
    796    790    776    798     1  0.0000000  4.9162000  2
    796    790    776    798     1  0.0000000  0.6024960  3
    799    800    803    804     1  180.0000771  0.8368000  1
    799    800    803    804     1  180.0000771  1.0460000  2
    799    800    803    804     1  0.0000000  0.7531200  3
    799    800    803    811     1  0.0000000  0.6508444  3
    799    821    805    809     1  180.0000771  5.6484000  1
    799    821    805    809     1  180.0000771  3.5564000  2
    799    821    805    809     1  0.0000000  0.4184000  3
    799    821    805    804     1  180.0000771  0.4184000  2
    799    821    805    804     1  0.0000000  1.6024720  3
    800    803    804    805     1  180.0000771  0.8368000  1
    800    803    804    805     1  180.0000771  1.0460000  2
    800    803    804    805     1  0.0000000  0.7531200  3
    800    803    804    810     1  0.0000000  0.6508444  3
    800    799    813    819     1  0.0000000  0.6508444  3
    800    799    821    805     1  180.0000771  0.4184000  2
    800    799    821    805     1  0.0000000  1.6024720  3
    803    804    805    809     1  0.0000000  0.6508444  3
    803    804    805    821     1  0.0000000  0.6508444  3
    803    800    799    813     1  180.0000771  0.8368000  1
    803    800    799    813     1  180.0000771  1.0460000  2
    803    800    799    813     1  0.0000000  0.7531200  3
    803    800    799    821     1  0.0000000  0.6508444  3
    804    803    800    812     1  0.0000000  0.6508444  3
    805    821    799    813     1  180.0000771  0.4184000  2
    805    821    799    813     1  0.0000000  1.6024720  3
    805    804    803    811     1  0.0000000  0.6508444  3
    809    805    804    810     1  0.0000000  4.9162000  2
    809    805    804    810     1  0.0000000  0.6024960  3
    810    804    805    821     1  0.0000000  4.9162000  2
    810    804    805    821     1  0.0000000  0.6024960  3
    810    804    803    811     1  0.0000000  4.9162000  2
    810    804    803    811     1  0.0000000  0.6024960  3
    811    803    800    812     1  0.0000000  4.9162000  2
    811    803    800    812     1  0.0000000  0.6024960  3
    812    800    799    813     1  0.0000000  0.6508444  3
    812    800    799    821     1  0.0000000  4.9162000  2
    812    800    799    821     1  0.0000000  0.6024960  3
    819    813    799    821     1  0.0000000  4.9162000  2
    819    813    799    821     1  0.0000000  0.6024960  3
    822    823    826    827     1  180.0000771  0.8368000  1
    822    823    826    827     1  180.0000771  1.0460000  2
    822    823    826    827     1  0.0000000  0.7531200  3
    822    823    826    834     1  0.0000000  0.6508444  3
    822    844    828    827     1  180.0000771  0.4184000  2
    822    844    828    827     1  0.0000000  1.6024720  3
    822    844    828    832     1  180.0000771  5.6484000  1
    822    844    828    832     1  180.0000771  3.5564000  2
    822    844    828    832     1  0.0000000  0.4184000  3
    823    822    836    842     1  0.0000000  0.6508444  3
    823    822    844    828     1  180.0000771  0.4184000  2
    823    822    844    828     1  0.0000000  1.6024720  3
    823    826    827    828     1  180.0000771  0.8368000  1
    823    826    827    828     1  180.0000771  1.0460000  2
    823    826    827    828     1  0.0000000  0.7531200  3
    823    826    827    833     1  0.0000000  0.6508444  3
    826    823    822    836     1  180.0000771  0.8368000  1
    826    823    822    836     1  180.0000771  1.0460000  2
    826    823    822    836     1  0.0000000  0.7531200  3
    826    823    822    844     1  0.0000000  0.6508444  3
    826    827    828    832     1  0.0000000  0.6508444  3
    826    827    828    844     1  0.0000000  0.6508444  3
    827    826    823    835     1  0.0000000  0.6508444  3
    828    827    826    834     1  0.0000000  0.6508444  3
    828    844    822    836     1  180.0000771  0.4184000  2
    828    844    822    836     1  0.0000000  1.6024720  3
    832    828    827    833     1  0.0000000  4.9162000  2
    832    828    827    833     1  0.0000000  0.6024960  3
    833    827    826    834     1  0.0000000  4.9162000  2
    833    827    826    834     1  0.0000000  0.6024960  3
    833    827    828    844     1  0.0000000  4.9162000  2
    833    827    828    844     1  0.0000000  0.6024960  3
    834    826    823    835     1  0.0000000  4.9162000  2
    834    826    823    835     1  0.0000000  0.6024960  3
    835    823    822    836     1  0.0000000  0.6508444  3
    835    823    822    844     1  0.0000000  4.9162000  2
    835    823    822    844     1  0.0000000  0.6024960  3
    842    836    822    844     1  0.0000000  4.9162000  2
    842    836    822    844     1  0.0000000  0.6024960  3
    845    846    849    850     1  180.0000771  0.8368000  1
    845    846    849    850     1  180.0000771  1.0460000  2
    845    846    849    850     1  0.0000000  0.7531200  3
    845    846    849    857     1  0.0000000  0.6508444  3
    845    867    851    855     1  180.0000771  5.6484000  1
    845    867    851    855     1  180.0000771  3.5564000  2
    845    867    851    855     1  0.0000000  0.4184000  3
    845    867    851    850     1  180.0000771  0.4184000  2
    845    867    851    850     1  0.0000000  1.6024720  3
    846    849    850    851     1  180.0000771  0.8368000  1
    846    849    850    851     1  180.0000771  1.0460000  2
    846    849    850    851     1  0.0000000  0.7531200  3
    846    849    850    856     1  0.0000000  0.6508444  3
    846    845    859    865     1  0.0000000  0.6508444  3
    846    845    867    851     1  180.0000771  0.4184000  2
    846    845    867    851     1  0.0000000  1.6024720  3
    849    850    851    855     1  0.0000000  0.6508444  3
    849    850    851    867     1  0.0000000  0.6508444  3
    849    846    845    859     1  180.0000771  0.8368000  1
    849    846    845    859     1  180.0000771  1.0460000  2
    849    846    845    859     1  0.0000000  0.7531200  3
    849    846    845    867     1  0.0000000  0.6508444  3
    850    849    846    858     1  0.0000000  0.6508444  3
    851    867    845    859     1  180.0000771  0.4184000  2
    851    867    845    859     1  0.0000000  1.6024720  3
    851    850    849    857     1  0.0000000  0.6508444  3
    855    851    850    856     1  0.0000000  4.9162000  2
    855    851    850    856     1  0.0000000  0.6024960  3
    856    850    851    867     1  0.0000000  4.9162000  2
    856    850    851    867     1  0.0000000  0.6024960  3
    856    850    849    857     1  0.0000000  4.9162000  2
    856    850    849    857     1  0.0000000  0.6024960  3
    857    849    846    858     1  0.0000000  4.9162000  2
    857    849    846    858     1  0.0000000  0.6024960  3
    858    846    845    859     1  0.0000000  0.6508444  3
    858    846    845    867     1  0.0000000  4.9162000  2
    858    846    845    867     1  0.0000000  0.6024960  3
    865    859    845    867     1  0.0000000  4.9162000  2
    865    859    845    867     1  0.0000000  0.6024960  3
    868    869    872    873     1  180.0000771  0.8368000  1
    868    869    872    873     1  180.0000771  1.0460000  2
    868    869    872    873     1  0.0000000  0.7531200  3
    868    869    872    880     1  0.0000000  0.6508444  3
    868    890    874    873     1  180.0000771  0.4184000  2
    868    890    874    873     1  0.0000000  1.6024720  3
    868    890    874    878     1  180.0000771  5.6484000  1
    868    890    874    878     1  180.0000771  3.5564000  2
    868    890    874    878     1  0.0000000  0.4184000  3
    869    868    882    888     1  0.0000000  0.6508444  3
    869    868    890    874     1  180.0000771  0.4184000  2
    869    868    890    874     1  0.0000000  1.6024720  3
    869    872    873    874     1  180.0000771  0.8368000  1
    869    872    873    874     1  180.0000771  1.0460000  2
    869    872    873    874     1  0.0000000  0.7531200  3
    869    872    873    879     1  0.0000000  0.6508444  3
    872    869    868    882     1  180.0000771  0.8368000  1
    872    869    868    882     1  180.0000771  1.0460000  2
    872    869    868    882     1  0.0000000  0.7531200  3
    872    869    868    890     1  0.0000000  0.6508444  3
    872    873    874    878     1  0.0000000  0.6508444  3
    872    873    874    890     1  0.0000000  0.6508444  3
    873    872    869    881     1  0.0000000  0.6508444  3
    874    873    872    880     1  0.0000000  0.6508444  3
    874    890    868    882     1  180.0000771  0.4184000  2
    874    890    868    882     1  0.0000000  1.6024720  3
    878    874    873    879     1  0.0000000  4.9162000  2
    878    874    873    879     1  0.0000000  0.6024960  3
    879    873    872    880     1  0.0000000  4.9162000  2
    879    873    872    880     1  0.0000000  0.6024960  3
    879    873    874    890     1  0.0000000  4.9162000  2
    879    873    874    890     1  0.0000000  0.6024960  3
    880    872    869    881     1  0.0000000  4.9162000  2
    880    872    869    881     1  0.0000000  0.6024960  3
    881    869    868    882     1  0.0000000  0.6508444  3
    881    869    868    890     1  0.0000000  4.9162000  2
    881    869    868    890     1  0.0000000  0.6024960  3
    888    882    868    890     1  0.0000000  4.9162000  2
    888    882    868    890     1  0.0000000  0.6024960  3
    891    892    895    896     1  180.0000771  0.8368000  1
    891    892    895    896     1  180.0000771  1.0460000  2
    891    892    895    896     1  0.0000000  0.7531200  3
    891    892    895    903     1  0.0000000  0.6508444  3
    891    913    897    901     1  180.0000771  5.6484000  1
    891    913    897    901     1  180.0000771  3.5564000  2
    891    913    897    901     1  0.0000000  0.4184000  3
    891    913    897    896     1  180.0000771  0.4184000  2
    891    913    897    896     1  0.0000000  1.6024720  3
    892    895    896    897     1  180.0000771  0.8368000  1
    892    895    896    897     1  180.0000771  1.0460000  2
    892    895    896    897     1  0.0000000  0.7531200  3
    892    895    896    902     1  0.0000000  0.6508444  3
    892    891    905    911     1  0.0000000  0.6508444  3
    892    891    913    897     1  180.0000771  0.4184000  2
    892    891    913    897     1  0.0000000  1.6024720  3
    895    896    897    901     1  0.0000000  0.6508444  3
    895    896    897    913     1  0.0000000  0.6508444  3
    895    892    891    905     1  180.0000771  0.8368000  1
    895    892    891    905     1  180.0000771  1.0460000  2
    895    892    891    905     1  0.0000000  0.7531200  3
    895    892    891    913     1  0.0000000  0.6508444  3
    896    895    892    904     1  0.0000000  0.6508444  3
    897    913    891    905     1  180.0000771  0.4184000  2
    897    913    891    905     1  0.0000000  1.6024720  3
    897    896    895    903     1  0.0000000  0.6508444  3
    901    897    896    902     1  0.0000000  4.9162000  2
    901    897    896    902     1  0.0000000  0.6024960  3
    902    896    897    913     1  0.0000000  4.9162000  2
    902    896    897    913     1  0.0000000  0.6024960  3
    902    896    895    903     1  0.0000000  4.9162000  2
    902    896    895    903     1  0.0000000  0.6024960  3
    903    895    892    904     1  0.0000000  4.9162000  2
    903    895    892    904     1  0.0000000  0.6024960  3
    904    892    891    905     1  0.0000000  0.6508444  3
    904    892    891    913     1  0.0000000  4.9162000  2
    904    892    891    913     1  0.0000000  0.6024960  3
    911    905    891    913     1  0.0000000  4.9162000  2
    911    905    891    913     1  0.0000000  0.6024960  3
    914    915    918    919     1  180.0000771  0.8368000  1
    914    915    918    919     1  180.0000771  1.0460000  2
    914    915    918    919     1  0.0000000  0.7531200  3
    914    915    918    926     1  0.0000000  0.6508444  3
    914    936    920    919     1  180.0000771  0.4184000  2
    914    936    920    919     1  0.0000000  1.6024720  3
    914    936    920    924     1  180.0000771  5.6484000  1
    914    936    920    924     1  180.0000771  3.5564000  2
    914    936    920    924     1  0.0000000  0.4184000  3
    915    914    928    934     1  0.0000000  0.6508444  3
    915    914    936    920     1  180.0000771  0.4184000  2
    915    914    936    920     1  0.0000000  1.6024720  3
    915    918    919    920     1  180.0000771  0.8368000  1
    915    918    919    920     1  180.0000771  1.0460000  2
    915    918    919    920     1  0.0000000  0.7531200  3
    915    918    919    925     1  0.0000000  0.6508444  3
    918    915    914    928     1  180.0000771  0.8368000  1
    918    915    914    928     1  180.0000771  1.0460000  2
    918    915    914    928     1  0.0000000  0.7531200  3
    918    915    914    936     1  0.0000000  0.6508444  3
    918    919    920    924     1  0.0000000  0.6508444  3
    918    919    920    936     1  0.0000000  0.6508444  3
    919    918    915    927     1  0.0000000  0.6508444  3
    920    919    918    926     1  0.0000000  0.6508444  3
    920    936    914    928     1  180.0000771  0.4184000  2
    920    936    914    928     1  0.0000000  1.6024720  3
    924    920    919    925     1  0.0000000  4.9162000  2
    924    920    919    925     1  0.0000000  0.6024960  3
    925    919    918    926     1  0.0000000  4.9162000  2
    925    919    918    926     1  0.0000000  0.6024960  3
    925    919    920    936     1  0.0000000  4.9162000  2
    925    919    920    936     1  0.0000000  0.6024960  3
    926    918    915    927     1  0.0000000  4.9162000  2
    926    918    915    927     1  0.0000000  0.6024960  3
    927    915    914    928     1  0.0000000  0.6508444  3
    927    915    914    936     1  0.0000000  4.9162000  2
    927    915    914    936     1  0.0000000  0.6024960  3
    934    928    914    936     1  0.0000000  4.9162000  2
    934    928    914    936     1  0.0000000  0.6024960  3
    937    938    941    942     1  180.0000771  0.8368000  1
    937    938    941    942     1  180.0000771  1.0460000  2
    937    938    941    942     1  0.0000000  0.7531200  3
    937    938    941    949     1  0.0000000  0.6508444  3
    937    959    943    947     1  180.0000771  5.6484000  1
    937    959    943    947     1  180.0000771  3.5564000  2
    937    959    943    947     1  0.0000000  0.4184000  3
    937    959    943    942     1  180.0000771  0.4184000  2
    937    959    943    942     1  0.0000000  1.6024720  3
    938    941    942    943     1  180.0000771  0.8368000  1
    938    941    942    943     1  180.0000771  1.0460000  2
    938    941    942    943     1  0.0000000  0.7531200  3
    938    941    942    948     1  0.0000000  0.6508444  3
    938    937    951    957     1  0.0000000  0.6508444  3
    938    937    959    943     1  180.0000771  0.4184000  2
    938    937    959    943     1  0.0000000  1.6024720  3
    941    942    943    947     1  0.0000000  0.6508444  3
    941    942    943    959     1  0.0000000  0.6508444  3
    941    938    937    951     1  180.0000771  0.8368000  1
    941    938    937    951     1  180.0000771  1.0460000  2
    941    938    937    951     1  0.0000000  0.7531200  3
    941    938    937    959     1  0.0000000  0.6508444  3
    942    941    938    950     1  0.0000000  0.6508444  3
    943    959    937    951     1  180.0000771  0.4184000  2
    943    959    937    951     1  0.0000000  1.6024720  3
    943    942    941    949     1  0.0000000  0.6508444  3
    947    943    942    948     1  0.0000000  4.9162000  2
    947    943    942    948     1  0.0000000  0.6024960  3
    948    942    943    959     1  0.0000000  4.9162000  2
    948    942    943    959     1  0.0000000  0.6024960  3
    948    942    941    949     1  0.0000000  4.9162000  2
    948    942    941    949     1  0.0000000  0.6024960  3
    949    941    938    950     1  0.0000000  4.9162000  2
    949    941    938    950     1  0.0000000  0.6024960  3
    950    938    937    951     1  0.0000000  0.6508444  3
    950    938    937    959     1  0.0000000  4.9162000  2
    950    938    937    959     1  0.0000000  0.6024960  3
    957    951    937    959     1  0.0000000  4.9162000  2
    957    951    937    959     1  0.0000000  0.6024960  3
    960    961    964    965     1  180.0000771  0.8368000  1
    960    961    964    965     1  180.0000771  1.0460000  2
    960    961    964    965     1  0.0000000  0.7531200  3
    960    961    964    972     1  0.0000000  0.6508444  3
    960    982    966    965     1  180.0000771  0.4184000  2
    960    982    966    965     1  0.0000000  1.6024720  3
    960    982    966    970     1  180.0000771  5.6484000  1
    960    982    966    970     1  180.0000771  3.5564000  2
    960    982    966    970     1  0.0000000  0.4184000  3
    961    960    974    980     1  0.0000000  0.6508444  3
    961    960    982    966     1  180.0000771  0.4184000  2
    961    960    982    966     1  0.0000000  1.6024720  3
    961    964    965    966     1  180.0000771  0.8368000  1
    961    964    965    966     1  180.0000771  1.0460000  2
    961    964    965    966     1  0.0000000  0.7531200  3
    961    964    965    971     1  0.0000000  0.6508444  3
    964    961    960    974     1  180.0000771  0.8368000  1
    964    961    960    974     1  180.0000771  1.0460000  2
    964    961    960    974     1  0.0000000  0.7531200  3
    964    961    960    982     1  0.0000000  0.6508444  3
    964    965    966    970     1  0.0000000  0.6508444  3
    964    965    966    982     1  0.0000000  0.6508444  3
    965    964    961    973     1  0.0000000  0.6508444  3
    966    965    964    972     1  0.0000000  0.6508444  3
    966    982    960    974     1  180.0000771  0.4184000  2
    966    982    960    974     1  0.0000000  1.6024720  3
    970    966    965    971     1  0.0000000  4.9162000  2
    970    966    965    971     1  0.0000000  0.6024960  3
    971    965    964    972     1  0.0000000  4.9162000  2
    971    965    964    972     1  0.0000000  0.6024960  3
    971    965    966    982     1  0.0000000  4.9162000  2
    971    965    966    982     1  0.0000000  0.6024960  3
    972    964    961    973     1  0.0000000  4.9162000  2
    972    964    961    973     1  0.0000000  0.6024960  3
    973    961    960    974     1  0.0000000  0.6508444  3
    973    961    960    982     1  0.0000000  4.9162000  2
    973    961    960    982     1  0.0000000  0.6024960  3
    980    974    960    982     1  0.0000000  4.9162000  2
    980    974    960    982     1  0.0000000  0.6024960  3
    983    984    987    988     1  180.0000771  0.8368000  1
    983    984    987    988     1  180.0000771  1.0460000  2
    983    984    987    988     1  0.0000000  0.7531200  3
    983    984    987    995     1  0.0000000  0.6508444  3
    983   1005    989    993     1  180.0000771  5.6484000  1
    983   1005    989    993     1  180.0000771  3.5564000  2
    983   1005    989    993     1  0.0000000  0.4184000  3
    983   1005    989    988     1  180.0000771  0.4184000  2
    983   1005    989    988     1  0.0000000  1.6024720  3
    984    987    988    989     1  180.0000771  0.8368000  1
    984    987    988    989     1  180.0000771  1.0460000  2
    984    987    988    989     1  0.0000000  0.7531200  3
    984    987    988    994     1  0.0000000  0.6508444  3
    984    983    997   1003     1  0.0000000  0.6508444  3
    984    983   1005    989     1  180.0000771  0.4184000  2
    984    983   1005    989     1  0.0000000  1.6024720  3
    987    988    989    993     1  0.0000000  0.6508444  3
    987    988    989   1005     1  0.0000000  0.6508444  3
    987    984    983    997     1  180.0000771  0.8368000  1
    987    984    983    997     1  180.0000771  1.0460000  2
    987    984    983    997     1  0.0000000  0.7531200  3
    987    984    983   1005     1  0.0000000  0.6508444  3
    988    987    984    996     1  0.0000000  0.6508444  3
    989   1005    983    997     1  180.0000771  0.4184000  2
    989   1005    983    997     1  0.0000000  1.6024720  3
    989    988    987    995     1  0.0000000  0.6508444  3
    993    989    988    994     1  0.0000000  4.9162000  2
    993    989    988    994     1  0.0000000  0.6024960  3
    994    988    989   1005     1  0.0000000  4.9162000  2
    994    988    989   1005     1  0.0000000  0.6024960  3
    994    988    987    995     1  0.0000000  4.9162000  2
    994    988    987    995     1  0.0000000  0.6024960  3
    995    987    984    996     1  0.0000000  4.9162000  2
    995    987    984    996     1  0.0000000  0.6024960  3
    996    984    983    997     1  0.0000000  0.6508444  3
    996    984    983   1005     1  0.0000000  4.9162000  2
    996    984    983   1005     1  0.0000000  0.6024960  3
   1003    997    983   1005     1  0.0000000  4.9162000  2
   1003    997    983   1005     1  0.0000000  0.6024960  3
   1006   1007   1010   1011     1  180.0000771  0.8368000  1
   1006   1007   1010   1011     1  180.0000771  1.0460000  2
   1006   1007   1010   1011     1  0.0000000  0.7531200  3
   1006   1007   1010   1018     1  0.0000000  0.6508444  3
   1006   1028   1012   1011     1  180.0000771  0.4184000  2
   1006   1028   1012   1011     1  0.0000000  1.6024720  3
   1006   1028   1012   1016     1  180.0000771  5.6484000  1
   1006   1028   1012   1016     1  180.0000771  3.5564000  2
   1006   1028   1012   1016     1  0.0000000  0.4184000  3
   1007   1006   1020   1026     1  0.0000000  0.6508444  3
   1007   1006   1028   1012     1  180.0000771  0.4184000  2
   1007   1006   1028   1012     1  0.0000000  1.6024720  3
   1007   1010   1011   1012     1  180.0000771  0.8368000  1
   1007   1010   1011   1012     1  180.0000771  1.0460000  2
   1007   1010   1011   1012     1  0.0000000  0.7531200  3
   1007   1010   1011   1017     1  0.0000000  0.6508444  3
   1010   1007   1006   1020     1  180.0000771  0.8368000  1
   1010   1007   1006   1020     1  180.0000771  1.0460000  2
   1010   1007   1006   1020     1  0.0000000  0.7531200  3
   1010   1007   1006   1028     1  0.0000000  0.6508444  3
   1010   1011   1012   1016     1  0.0000000  0.6508444  3
   1010   1011   1012   1028     1  0.0000000  0.6508444  3
   1011   1010   1007   1019     1  0.0000000  0.6508444  3
   1012   1011   1010   1018     1  0.0000000  0.6508444  3
   1012   1028   1006   1020     1  180.0000771  0.4184000  2
   1012   1028   1006   1020     1  0.0000000  1.6024720  3
   1016   1012   1011   1017     1  0.0000000  4.9162000  2
   1016   1012   1011   1017     1  0.0000000  0.6024960  3
   1017   1011   1010   1018     1  0.0000000  4.9162000  2
   1017   1011   1010   1018     1  0.0000000  0.6024960  3
   1017   1011   1012   1028     1  0.0000000  4.9162000  2
   1017   1011   1012   1028     1  0.0000000  0.6024960  3
   1018   1010   1007   1019     1  0.0000000  4.9162000  2
   1018   1010   1007   1019     1  0.0000000  0.6024960  3
   1019   1007   1006   1020     1  0.0000000  0.6508444  3
   1019   1007   1006   1028     1  0.0000000  4.9162000  2
   1019   1007   1006   1028     1  0.0000000  0.6024960  3
   1026   1020   1006   1028     1  0.0000000  4.9162000  2
   1026   1020   1006   1028     1  0.0000000  0.6024960  3
   1029   1030   1033   1034     1  180.0000771  0.8368000  1
   1029   1030   1033   1034     1  180.0000771  1.0460000  2
   1029   1030   1033   1034     1  0.0000000  0.7531200  3
   1029   1030   1033   1041     1  0.0000000  0.6508444  3
   1029   1051   1035   1039     1  180.0000771  5.6484000  1
   1029   1051   1035   1039     1  180.0000771  3.5564000  2
   1029   1051   1035   1039     1  0.0000000  0.4184000  3
   1029   1051   1035   1034     1  180.0000771  0.4184000  2
   1029   1051   1035   1034     1  0.0000000  1.6024720  3
   1030   1033   1034   1035     1  180.0000771  0.8368000  1
   1030   1033   1034   1035     1  180.0000771  1.0460000  2
   1030   1033   1034   1035     1  0.0000000  0.7531200  3
   1030   1033   1034   1040     1  0.0000000  0.6508444  3
   1030   1029   1043   1049     1  0.0000000  0.6508444  3
   1030   1029   1051   1035     1  180.0000771  0.4184000  2
   1030   1029   1051   1035     1  0.0000000  1.6024720  3
   1033   1034   1035   1039     1  0.0000000  0.6508444  3
   1033   1034   1035   1051     1  0.0000000  0.6508444  3
   1033   1030   1029   1043     1  180.0000771  0.8368000  1
   1033   1030   1029   1043     1  180.0000771  1.0460000  2
   1033   1030   1029   1043     1  0.0000000  0.7531200  3
   1033   1030   1029   1051     1  0.0000000  0.6508444  3
   1034   1033   1030   1042     1  0.0000000  0.6508444  3
   1035   1051   1029   1043     1  180.0000771  0.4184000  2
   1035   1051   1029   1043     1  0.0000000  1.6024720  3
   1035   1034   1033   1041     1  0.0000000  0.6508444  3
   1039   1035   1034   1040     1  0.0000000  4.9162000  2
   1039   1035   1034   1040     1  0.0000000  0.6024960  3
   1040   1034   1035   1051     1  0.0000000  4.9162000  2
   1040   1034   1035   1051     1  0.0000000  0.6024960  3
   1040   1034   1033   1041     1  0.0000000  4.9162000  2
   1040   1034   1033   1041     1  0.0000000  0.6024960  3
   1041   1033   1030   1042     1  0.0000000  4.9162000  2
   1041   1033   1030   1042     1  0.0000000  0.6024960  3
   1042   1030   1029   1043     1  0.0000000  0.6508444  3
   1042   1030   1029   1051     1  0.0000000  4.9162000  2
   1042   1030   1029   1051     1  0.0000000  0.6024960  3
   1049   1043   1029   1051     1  0.0000000  4.9162000  2
   1049   1043   1029   1051     1  0.0000000  0.6024960  3
   1052   1053   1056   1057     1  180.0000771  0.8368000  1
   1052   1053   1056   1057     1  180.0000771  1.0460000  2
   1052   1053   1056   1057     1  0.0000000  0.7531200  3
   1052   1053   1056   1064     1  0.0000000  0.6508444  3
   1052   1074   1058   1057     1  180.0000771  0.4184000  2
   1052   1074   1058   1057     1  0.0000000  1.6024720  3
   1052   1074   1058   1062     1  180.0000771  5.6484000  1
   1052   1074   1058   1062     1  180.0000771  3.5564000  2
   1052   1074   1058   1062     1  0.0000000  0.4184000  3
   1053   1052   1066   1072     1  0.0000000  0.6508444  3
   1053   1052   1074   1058     1  180.0000771  0.4184000  2
   1053   1052   1074   1058     1  0.0000000  1.6024720  3
   1053   1056   1057   1058     1  180.0000771  0.8368000  1
   1053   1056   1057   1058     1  180.0000771  1.0460000  2
   1053   1056   1057   1058     1  0.0000000  0.7531200  3
   1053   1056   1057   1063     1  0.0000000  0.6508444  3
   1056   1053   1052   1066     1  180.0000771  0.8368000  1
   1056   1053   1052   1066     1  180.0000771  1.0460000  2
   1056   1053   1052   1066     1  0.0000000  0.7531200  3
   1056   1053   1052   1074     1  0.0000000  0.6508444  3
   1056   1057   1058   1062     1  0.0000000  0.6508444  3
   1056   1057   1058   1074     1  0.0000000  0.6508444  3
   1057   1056   1053   1065     1  0.0000000  0.6508444  3
   1058   1057   1056   1064     1  0.0000000  0.6508444  3
   1058   1074   1052   1066     1  180.0000771  0.4184000  2
   1058   1074   1052   1066     1  0.0000000  1.6024720  3
   1062   1058   1057   1063     1  0.0000000  4.9162000  2
   1062   1058   1057   1063     1  0.0000000  0.6024960  3
   1063   1057   1056   1064     1  0.0000000  4.9162000  2
   1063   1057   1056   1064     1  0.0000000  0.6024960  3
   1063   1057   1058   1074     1  0.0000000  4.9162000  2
   1063   1057   1058   1074     1  0.0000000  0.6024960  3
   1064   1056   1053   1065     1  0.0000000  4.9162000  2
   1064   1056   1053   1065     1  0.0000000  0.6024960  3
   1065   1053   1052   1066     1  0.0000000  0.6508444  3
   1065   1053   1052   1074     1  0.0000000  4.9162000  2
   1065   1053   1052   1074     1  0.0000000  0.6024960  3
   1072   1066   1052   1074     1  0.0000000  4.9162000  2
   1072   1066   1052   1074     1  0.0000000  0.6024960  3
   1075   1076   1079   1080     1  180.0000771  0.8368000  1
   1075   1076   1079   1080     1  180.0000771  1.0460000  2
   1075   1076   1079   1080     1  0.0000000  0.7531200  3
   1075   1076   1079   1087     1  0.0000000  0.6508444  3
   1075   1097   1081   1085     1  180.0000771  5.6484000  1
   1075   1097   1081   1085     1  180.0000771  3.5564000  2
   1075   1097   1081   1085     1  0.0000000  0.4184000  3
   1075   1097   1081   1080     1  180.0000771  0.4184000  2
   1075   1097   1081   1080     1  0.0000000  1.6024720  3
   1076   1079   1080   1081     1  180.0000771  0.8368000  1
   1076   1079   1080   1081     1  180.0000771  1.0460000  2
   1076   1079   1080   1081     1  0.0000000  0.7531200  3
   1076   1079   1080   1086     1  0.0000000  0.6508444  3
   1076   1075   1089   1095     1  0.0000000  0.6508444  3
   1076   1075   1097   1081     1  180.0000771  0.4184000  2
   1076   1075   1097   1081     1  0.0000000  1.6024720  3
   1079   1080   1081   1085     1  0.0000000  0.6508444  3
   1079   1080   1081   1097     1  0.0000000  0.6508444  3
   1079   1076   1075   1089     1  180.0000771  0.8368000  1
   1079   1076   1075   1089     1  180.0000771  1.0460000  2
   1079   1076   1075   1089     1  0.0000000  0.7531200  3
   1079   1076   1075   1097     1  0.0000000  0.6508444  3
   1080   1079   1076   1088     1  0.0000000  0.6508444  3
   1081   1097   1075   1089     1  180.0000771  0.4184000  2
   1081   1097   1075   1089     1  0.0000000  1.6024720  3
   1081   1080   1079   1087     1  0.0000000  0.6508444  3
   1085   1081   1080   1086     1  0.0000000  4.9162000  2
   1085   1081   1080   1086     1  0.0000000  0.6024960  3
   1086   1080   1081   1097     1  0.0000000  4.9162000  2
   1086   1080   1081   1097     1  0.0000000  0.6024960  3
   1086   1080   1079   1087     1  0.0000000  4.9162000  2
   1086   1080   1079   1087     1  0.0000000  0.6024960  3
   1087   1079   1076   1088     1  0.0000000  4.9162000  2
   1087   1079   1076   1088     1  0.0000000  0.6024960  3
   1088   1076   1075   1089     1  0.0000000  0.6508444  3
   1088   1076   1075   1097     1  0.0000000  4.9162000  2
   1088   1076   1075   1097     1  0.0000000  0.6024960  3
   1095   1089   1075   1097     1  0.0000000  4.9162000  2
   1095   1089   1075   1097     1  0.0000000  0.6024960  3
   1098   1099   1102   1103     1  180.0000771  0.8368000  1
   1098   1099   1102   1103     1  180.0000771  1.0460000  2
   1098   1099   1102   1103     1  0.0000000  0.7531200  3
   1098   1099   1102   1110     1  0.0000000  0.6508444  3
   1098   1120   1104   1103     1  180.0000771  0.4184000  2
   1098   1120   1104   1103     1  0.0000000  1.6024720  3
   1098   1120   1104   1108     1  180.0000771  5.6484000  1
   1098   1120   1104   1108     1  180.0000771  3.5564000  2
   1098   1120   1104   1108     1  0.0000000  0.4184000  3
   1099   1098   1112   1118     1  0.0000000  0.6508444  3
   1099   1098   1120   1104     1  180.0000771  0.4184000  2
   1099   1098   1120   1104     1  0.0000000  1.6024720  3
   1099   1102   1103   1104     1  180.0000771  0.8368000  1
   1099   1102   1103   1104     1  180.0000771  1.0460000  2
   1099   1102   1103   1104     1  0.0000000  0.7531200  3
   1099   1102   1103   1109     1  0.0000000  0.6508444  3
   1102   1099   1098   1112     1  180.0000771  0.8368000  1
   1102   1099   1098   1112     1  180.0000771  1.0460000  2
   1102   1099   1098   1112     1  0.0000000  0.7531200  3
   1102   1099   1098   1120     1  0.0000000  0.6508444  3
   1102   1103   1104   1108     1  0.0000000  0.6508444  3
   1102   1103   1104   1120     1  0.0000000  0.6508444  3
   1103   1102   1099   1111     1  0.0000000  0.6508444  3
   1104   1103   1102   1110     1  0.0000000  0.6508444  3
   1104   1120   1098   1112     1  180.0000771  0.4184000  2
   1104   1120   1098   1112     1  0.0000000  1.6024720  3
   1108   1104   1103   1109     1  0.0000000  4.9162000  2
   1108   1104   1103   1109     1  0.0000000  0.6024960  3
   1109   1103   1102   1110     1  0.0000000  4.9162000  2
   1109   1103   1102   1110     1  0.0000000  0.6024960  3
   1109   1103   1104   1120     1  0.0000000  4.9162000  2
   1109   1103   1104   1120     1  0.0000000  0.6024960  3
   1110   1102   1099   1111     1  0.0000000  4.9162000  2
   1110   1102   1099   1111     1  0.0000000  0.6024960  3
   1111   1099   1098   1112     1  0.0000000  0.6508444  3
   1111   1099   1098   1120     1  0.0000000  4.9162000  2
   1111   1099   1098   1120     1  0.0000000  0.6024960  3
   1118   1112   1098   1120     1  0.0000000  4.9162000  2
   1118   1112   1098   1120     1  0.0000000  0.6024960  3
   1121   1122   1125   1126     1  180.0000771  0.8368000  1
   1121   1122   1125   1126     1  180.0000771  1.0460000  2
   1121   1122   1125   1126     1  0.0000000  0.7531200  3
   1121   1122   1125   1133     1  0.0000000  0.6508444  3
   1121   1143   1127   1131     1  180.0000771  5.6484000  1
   1121   1143   1127   1131     1  180.0000771  3.5564000  2
   1121   1143   1127   1131     1  0.0000000  0.4184000  3
   1121   1143   1127   1126     1  180.0000771  0.4184000  2
   1121   1143   1127   1126     1  0.0000000  1.6024720  3
   1122   1125   1126   1127     1  180.0000771  0.8368000  1
   1122   1125   1126   1127     1  180.0000771  1.0460000  2
   1122   1125   1126   1127     1  0.0000000  0.7531200  3
   1122   1125   1126   1132     1  0.0000000  0.6508444  3
   1122   1121   1135   1141     1  0.0000000  0.6508444  3
   1122   1121   1143   1127     1  180.0000771  0.4184000  2
   1122   1121   1143   1127     1  0.0000000  1.6024720  3
   1125   1126   1127   1131     1  0.0000000  0.6508444  3
   1125   1126   1127   1143     1  0.0000000  0.6508444  3
   1125   1122   1121   1135     1  180.0000771  0.8368000  1
   1125   1122   1121   1135     1  180.0000771  1.0460000  2
   1125   1122   1121   1135     1  0.0000000  0.7531200  3
   1125   1122   1121   1143     1  0.0000000  0.6508444  3
   1126   1125   1122   1134     1  0.0000000  0.6508444  3
   1127   1143   1121   1135     1  180.0000771  0.4184000  2
   1127   1143   1121   1135     1  0.0000000  1.6024720  3
   1127   1126   1125   1133     1  0.0000000  0.6508444  3
   1131   1127   1126   1132     1  0.0000000  4.9162000  2
   1131   1127   1126   1132     1  0.0000000  0.6024960  3
   1132   1126   1127   1143     1  0.0000000  4.9162000  2
   1132   1126   1127   1143     1  0.0000000  0.6024960  3
   1132   1126   1125   1133     1  0.0000000  4.9162000  2
   1132   1126   1125   1133     1  0.0000000  0.6024960  3
   1133   1125   1122   1134     1  0.0000000  4.9162000  2
   1133   1125   1122   1134     1  0.0000000  0.6024960  3
   1134   1122   1121   1135     1  0.0000000  0.6508444  3
   1134   1122   1121   1143     1  0.0000000  4.9162000  2
   1134   1122   1121   1143     1  0.0000000  0.6024960  3
   1141   1135   1121   1143     1  0.0000000  4.9162000  2
   1141   1135   1121   1143     1  0.0000000  0.6024960  3
   1144   1145   1148   1149     1  180.0000771  0.8368000  1
   1144   1145   1148   1149     1  180.0000771  1.0460000  2
   1144   1145   1148   1149     1  0.0000000  0.7531200  3
   1144   1145   1148   1156     1  0.0000000  0.6508444  3
   1144   1166   1150   1149     1  180.0000771  0.4184000  2
   1144   1166   1150   1149     1  0.0000000  1.6024720  3
   1144   1166   1150   1154     1  180.0000771  5.6484000  1
   1144   1166   1150   1154     1  180.0000771  3.5564000  2
   1144   1166   1150   1154     1  0.0000000  0.4184000  3
   1145   1144   1158   1164     1  0.0000000  0.6508444  3
   1145   1144   1166   1150     1  180.0000771  0.4184000  2
   1145   1144   1166   1150     1  0.0000000  1.6024720  3
   1145   1148   1149   1150     1  180.0000771  0.8368000  1
   1145   1148   1149   1150     1  180.0000771  1.0460000  2
   1145   1148   1149   1150     1  0.0000000  0.7531200  3
   1145   1148   1149   1155     1  0.0000000  0.6508444  3
   1148   1145   1144   1158     1  180.0000771  0.8368000  1
   1148   1145   1144   1158     1  180.0000771  1.0460000  2
   1148   1145   1144   1158     1  0.0000000  0.7531200  3
   1148   1145   1144   1166     1  0.0000000  0.6508444  3
   1148   1149   1150   1154     1  0.0000000  0.6508444  3
   1148   1149   1150   1166     1  0.0000000  0.6508444  3
   1149   1148   1145   1157     1  0.0000000  0.6508444  3
   1150   1149   1148   1156     1  0.0000000  0.6508444  3
   1150   1166   1144   1158     1  180.0000771  0.4184000  2
   1150   1166   1144   1158     1  0.0000000  1.6024720  3
   1154   1150   1149   1155     1  0.0000000  4.9162000  2
   1154   1150   1149   1155     1  0.0000000  0.6024960  3
   1155   1149   1148   1156     1  0.0000000  4.9162000  2
   1155   1149   1148   1156     1  0.0000000  0.6024960  3
   1155   1149   1150   1166     1  0.0000000  4.9162000  2
   1155   1149   1150   1166     1  0.0000000  0.6024960  3
   1156   1148   1145   1157     1  0.0000000  4.9162000  2
   1156   1148   1145   1157     1  0.0000000  0.6024960  3
   1157   1145   1144   1158     1  0.0000000  0.6508444  3
   1157   1145   1144   1166     1  0.0000000  4.9162000  2
   1157   1145   1144   1166     1  0.0000000  0.6024960  3
   1164   1158   1144   1166     1  0.0000000  4.9162000  2
   1164   1158   1144   1166     1  0.0000000  0.6024960  3
   1167   1168   1171   1172     1  180.0000771  0.8368000  1
   1167   1168   1171   1172     1  180.0000771  1.0460000  2
   1167   1168   1171   1172     1  0.0000000  0.7531200  3
   1167   1168   1171   1179     1  0.0000000  0.6508444  3
   1167   1189   1173   1177     1  180.0000771  5.6484000  1
   1167   1189   1173   1177     1  180.0000771  3.5564000  2
   1167   1189   1173   1177     1  0.0000000  0.4184000  3
   1167   1189   1173   1172     1  180.0000771  0.4184000  2
   1167   1189   1173   1172     1  0.0000000  1.6024720  3
   1168   1171   1172   1173     1  180.0000771  0.8368000  1
   1168   1171   1172   1173     1  180.0000771  1.0460000  2
   1168   1171   1172   1173     1  0.0000000  0.7531200  3
   1168   1171   1172   1178     1  0.0000000  0.6508444  3
   1168   1167   1181   1187     1  0.0000000  0.6508444  3
   1168   1167   1189   1173     1  180.0000771  0.4184000  2
   1168   1167   1189   1173     1  0.0000000  1.6024720  3
   1171   1172   1173   1177     1  0.0000000  0.6508444  3
   1171   1172   1173   1189     1  0.0000000  0.6508444  3
   1171   1168   1167   1181     1  180.0000771  0.8368000  1
   1171   1168   1167   1181     1  180.0000771  1.0460000  2
   1171   1168   1167   1181     1  0.0000000  0.7531200  3
   1171   1168   1167   1189     1  0.0000000  0.6508444  3
   1172   1171   1168   1180     1  0.0000000  0.6508444  3
   1173   1189   1167   1181     1  180.0000771  0.4184000  2
   1173   1189   1167   1181     1  0.0000000  1.6024720  3
   1173   1172   1171   1179     1  0.0000000  0.6508444  3
   1177   1173   1172   1178     1  0.0000000  4.9162000  2
   1177   1173   1172   1178     1  0.0000000  0.6024960  3
   1178   1172   1173   1189     1  0.0000000  4.9162000  2
   1178   1172   1173   1189     1  0.0000000  0.6024960  3
   1178   1172   1171   1179     1  0.0000000  4.9162000  2
   1178   1172   1171   1179     1  0.0000000  0.6024960  3
   1179   1171   1168   1180     1  0.0000000  4.9162000  2
   1179   1171   1168   1180     1  0.0000000  0.6024960  3
   1180   1168   1167   1181     1  0.0000000  0.6508444  3
   1180   1168   1167   1189     1  0.0000000  4.9162000  2
   1180   1168   1167   1189     1  0.0000000  0.6024960  3
   1187   1181   1167   1189     1  0.0000000  4.9162000  2
   1187   1181   1167   1189     1  0.0000000  0.6024960  3
      1      2     14     15     1  0.0000000  0.6508444  3
      1      2     14     16     1  0.0000000  0.6508444  3
      1      5     17     18     1  0.0000000  0.6508444  3
      1      5     17     19     1  0.0000000  0.6508444  3
      1      8     11     12     1  0.0000000  0.6508444  3
      1      8     11     13     1  0.0000000  0.6508444  3
      2      1      5      6     1  0.0000000  1.2552000  3
      2      1      5      7     1  0.0000000  1.2552000  3
      2      1      8      9     1  0.0000000  1.2552000  3
      2      1      8     10     1  0.0000000  1.2552000  3
      2     14     26     27     1  0.0000000  0.6508444  3
      2     14     26     28     1  0.0000000  0.6508444  3
      5      1      2      3     1  0.0000000  1.2552000  3
      8      1      2      3     1  0.0000000  1.2552000  3
      3      2     14     26     1  0.0000000  0.6508444  3
      3      2     14     15     1  0.0000000  0.6508444  3
      3      2     14     16     1  0.0000000  0.6508444  3
      5      1      2      4     1  0.0000000  1.2552000  3
      8      1      2      4     1  0.0000000  1.2552000  3
      4      2     14     26     1  0.0000000  0.6508444  3
      4      2     14     15     1  0.0000000  0.6508444  3
      4      2     14     16     1  0.0000000  0.6508444  3
      5      1      8      9     1  0.0000000  1.2552000  3
      5      1      8     10     1  0.0000000  1.2552000  3
      5     17     20     21     1  0.0000000  0.6508444  3
      5     17     20     22     1  0.0000000  0.6508444  3
      8      1      5      6     1  0.0000000  1.2552000  3
      6      5     17     20     1  0.0000000  0.6508444  3
      6      5     17     18     1  0.0000000  0.6508444  3
      6      5     17     19     1  0.0000000  0.6508444  3
      8      1      5      7     1  0.0000000  1.2552000  3
      7      5     17     20     1  0.0000000  0.6508444  3
      7      5     17     18     1  0.0000000  0.6508444  3
      7      5     17     19     1  0.0000000  0.6508444  3
      8     11     23     24     1  0.0000000  0.6508444  3
      8     11     23     25     1  0.0000000  0.6508444  3
      9      8     11     23     1  0.0000000  0.6508444  3
      9      8     11     12     1  0.0000000  0.6508444  3
      9      8     11     13     1  0.0000000  0.6508444  3
     10      8     11     23     1  0.0000000  0.6508444  3
     10      8     11     12     1  0.0000000  0.6508444  3
     10      8     11     13     1  0.0000000  0.6508444  3
     12     11     23     86     1  0.0000000  1.0460000  1
     12     11     23     86     1  0.0000000  0.0000000  3
     12     11     23     24     1  0.0000000  0.6508444  3
     12     11     23     25     1  0.0000000  0.6508444  3
     13     11     23     86     1  0.0000000  1.0460000  1
     13     11     23     86     1  0.0000000  0.0000000  3
     13     11     23     24     1  0.0000000  0.6508444  3
     13     11     23     25     1  0.0000000  0.6508444  3
     15     14     26    115     1  0.0000000  1.0460000  1
     15     14     26    115     1  0.0000000  0.0000000  3
     15     14     26     27     1  0.0000000  0.6508444  3
     15     14     26     28     1  0.0000000  0.6508444  3
     16     14     26    115     1  0.0000000  1.0460000  1
     16     14     26    115     1  0.0000000  0.0000000  3
     16     14     26     27     1  0.0000000  0.6508444  3
     16     14     26     28     1  0.0000000  0.6508444  3
     18     17     20     57     1  0.0000000  1.0460000  1
     18     17     20     57     1  0.0000000  0.0000000  3
     18     17     20     21     1  0.0000000  0.6508444  3
     18     17     20     22     1  0.0000000  0.6508444  3
     19     17     20     57     1  0.0000000  1.0460000  1
     19     17     20     57     1  0.0000000  0.0000000  3
     19     17     20     21     1  0.0000000  0.6508444  3
     19     17     20     22     1  0.0000000  0.6508444  3
     20     57     48     49     1  0.0000000  1.6038667  3
     20     57     48     50     1  0.0000000  1.6038667  3
     21     20     57     48     1  0.0000000  1.6038667  3
     22     20     57     48     1  0.0000000  1.6038667  3
     23     86     77     78     1  0.0000000  1.6038667  3
     23     86     77     79     1  0.0000000  1.6038667  3
     24     23     86     77     1  0.0000000  1.6038667  3
     25     23     86     77     1  0.0000000  1.6038667  3
     26    115    106    107     1  0.0000000  1.6038667  3
     26    115    106    108     1  0.0000000  1.6038667  3
     27     26    115    106     1  0.0000000  1.6038667  3
     28     26    115    106     1  0.0000000  1.6038667  3
     29     30     42     43     1  0.0000000  0.6508444  3
     29     30     42     44     1  0.0000000  0.6508444  3
     29     33     45     46     1  0.0000000  0.6508444  3
     29     33     45     47     1  0.0000000  0.6508444  3
     29     36     39     40     1  0.0000000  0.6508444  3
     29     36     39     41     1  0.0000000  0.6508444  3
     30     29     33     34     1  0.0000000  1.2552000  3
     30     29     33     35     1  0.0000000  1.2552000  3
     30     29     36     37     1  0.0000000  1.2552000  3
     30     29     36     38     1  0.0000000  1.2552000  3
     30     42     54     55     1  0.0000000  0.6508444  3
     30     42     54     56     1  0.0000000  0.6508444  3
     31     30     29     33     1  0.0000000  1.2552000  3
     31     30     29     36     1  0.0000000  1.2552000  3
     31     30     42     54     1  0.0000000  0.6508444  3
     31     30     42     43     1  0.0000000  0.6508444  3
     31     30     42     44     1  0.0000000  0.6508444  3
     32     30     29     33     1  0.0000000  1.2552000  3
     32     30     29     36     1  0.0000000  1.2552000  3
     32     30     42     54     1  0.0000000  0.6508444  3
     32     30     42     43     1  0.0000000  0.6508444  3
     32     30     42     44     1  0.0000000  0.6508444  3
     33     29     36     37     1  0.0000000  1.2552000  3
     33     29     36     38     1  0.0000000  1.2552000  3
     33     45     51     52     1  0.0000000  0.6508444  3
     33     45     51     53     1  0.0000000  0.6508444  3
     34     33     29     36     1  0.0000000  1.2552000  3
     34     33     45     51     1  0.0000000  0.6508444  3
     34     33     45     46     1  0.0000000  0.6508444  3
     34     33     45     47     1  0.0000000  0.6508444  3
     35     33     29     36     1  0.0000000  1.2552000  3
     35     33     45     51     1  0.0000000  0.6508444  3
     35     33     45     46     1  0.0000000  0.6508444  3
     35     33     45     47     1  0.0000000  0.6508444  3
     36     39     48     49     1  0.0000000  0.6508444  3
     36     39     48     50     1  0.0000000  0.6508444  3
     37     36     39     48     1  0.0000000  0.6508444  3
     37     36     39     40     1  0.0000000  0.6508444  3
     37     36     39     41     1  0.0000000  0.6508444  3
     38     36     39     48     1  0.0000000  0.6508444  3
     38     36     39     40     1  0.0000000  0.6508444  3
     38     36     39     41     1  0.0000000  0.6508444  3
     40     39     48     57     1  0.0000000  1.0460000  1
     40     39     48     57     1  0.0000000  0.0000000  3
     40     39     48     49     1  0.0000000  0.6508444  3
     40     39     48     50     1  0.0000000  0.6508444  3
     41     39     48     57     1  0.0000000  1.0460000  1
     41     39     48     57     1  0.0000000  0.0000000  3
     41     39     48     49     1  0.0000000  0.6508444  3
     41     39     48     50     1  0.0000000  0.6508444  3
     43     42     54    173     1  0.0000000  1.0460000  1
     43     42     54    173     1  0.0000000  0.0000000  3
     43     42     54     55     1  0.0000000  0.6508444  3
     43     42     54     56     1  0.0000000  0.6508444  3
     44     42     54    173     1  0.0000000  1.0460000  1
     44     42     54    173     1  0.0000000  0.0000000  3
     44     42     54     55     1  0.0000000  0.6508444  3
     44     42     54     56     1  0.0000000  0.6508444  3
     46     45     51    144     1  0.0000000  1.0460000  1
     46     45     51    144     1  0.0000000  0.0000000  3
     46     45     51     52     1  0.0000000  0.6508444  3
     46     45     51     53     1  0.0000000  0.6508444  3
     47     45     51    144     1  0.0000000  1.0460000  1
     47     45     51    144     1  0.0000000  0.0000000  3
     47     45     51     52     1  0.0000000  0.6508444  3
     47     45     51     53     1  0.0000000  0.6508444  3
     51    144    135    136     1  0.0000000  1.6038667  3
     51    144    135    137     1  0.0000000  1.6038667  3
     52     51    144    135     1  0.0000000  1.6038667  3
     53     51    144    135     1  0.0000000  1.6038667  3
     54    173    164    165     1  0.0000000  1.6038667  3
     54    173    164    166     1  0.0000000  1.6038667  3
     55     54    173    164     1  0.0000000  1.6038667  3
     56     54    173    164     1  0.0000000  1.6038667  3
     58     59     71     72     1  0.0000000  0.6508444  3
     58     59     71     73     1  0.0000000  0.6508444  3
     58     62     74     75     1  0.0000000  0.6508444  3
     58     62     74     76     1  0.0000000  0.6508444  3
     58     65     68     69     1  0.0000000  0.6508444  3
     58     65     68     70     1  0.0000000  0.6508444  3
     59     58     62     63     1  0.0000000  1.2552000  3
     59     58     62     64     1  0.0000000  1.2552000  3
     59     58     65     66     1  0.0000000  1.2552000  3
     59     58     65     67     1  0.0000000  1.2552000  3
     59     71     83     84     1  0.0000000  0.6508444  3
     59     71     83     85     1  0.0000000  0.6508444  3
     60     59     58     62     1  0.0000000  1.2552000  3
     60     59     58     65     1  0.0000000  1.2552000  3
     60     59     71     83     1  0.0000000  0.6508444  3
     60     59     71     72     1  0.0000000  0.6508444  3
     60     59     71     73     1  0.0000000  0.6508444  3
     61     59     58     62     1  0.0000000  1.2552000  3
     61     59     58     65     1  0.0000000  1.2552000  3
     61     59     71     83     1  0.0000000  0.6508444  3
     61     59     71     72     1  0.0000000  0.6508444  3
     61     59     71     73     1  0.0000000  0.6508444  3
     62     58     65     66     1  0.0000000  1.2552000  3
     62     58     65     67     1  0.0000000  1.2552000  3
     62     74     80     81     1  0.0000000  0.6508444  3
     62     74     80     82     1  0.0000000  0.6508444  3
     63     62     58     65     1  0.0000000  1.2552000  3
     63     62     74     80     1  0.0000000  0.6508444  3
     63     62     74     75     1  0.0000000  0.6508444  3
     63     62     74     76     1  0.0000000  0.6508444  3
     64     62     58     65     1  0.0000000  1.2552000  3
     64     62     74     80     1  0.0000000  0.6508444  3
     64     62     74     75     1  0.0000000  0.6508444  3
     64     62     74     76     1  0.0000000  0.6508444  3
     65     68     77     78     1  0.0000000  0.6508444  3
     65     68     77     79     1  0.0000000  0.6508444  3
     66     65     68     77     1  0.0000000  0.6508444  3
     66     65     68     69     1  0.0000000  0.6508444  3
     66     65     68     70     1  0.0000000  0.6508444  3
     67     65     68     77     1  0.0000000  0.6508444  3
     67     65     68     69     1  0.0000000  0.6508444  3
     67     65     68     70     1  0.0000000  0.6508444  3
     69     68     77     86     1  0.0000000  1.0460000  1
     69     68     77     86     1  0.0000000  0.0000000  3
     69     68     77     78     1  0.0000000  0.6508444  3
     69     68     77     79     1  0.0000000  0.6508444  3
     70     68     77     86     1  0.0000000  1.0460000  1
     70     68     77     86     1  0.0000000  0.0000000  3
     70     68     77     78     1  0.0000000  0.6508444  3
     70     68     77     79     1  0.0000000  0.6508444  3
     72     71     83    231     1  0.0000000  1.0460000  1
     72     71     83    231     1  0.0000000  0.0000000  3
     72     71     83     84     1  0.0000000  0.6508444  3
     72     71     83     85     1  0.0000000  0.6508444  3
     73     71     83    231     1  0.0000000  1.0460000  1
     73     71     83    231     1  0.0000000  0.0000000  3
     73     71     83     84     1  0.0000000  0.6508444  3
     73     71     83     85     1  0.0000000  0.6508444  3
     75     74     80    202     1  0.0000000  1.0460000  1
     75     74     80    202     1  0.0000000  0.0000000  3
     75     74     80     81     1  0.0000000  0.6508444  3
     75     74     80     82     1  0.0000000  0.6508444  3
     76     74     80    202     1  0.0000000  1.0460000  1
     76     74     80    202     1  0.0000000  0.0000000  3
     76     74     80     81     1  0.0000000  0.6508444  3
     76     74     80     82     1  0.0000000  0.6508444  3
     80    202    193    194     1  0.0000000  1.6038667  3
     80    202    193    195     1  0.0000000  1.6038667  3
     81     80    202    193     1  0.0000000  1.6038667  3
     82     80    202    193     1  0.0000000  1.6038667  3
     83    231    222    223     1  0.0000000  1.6038667  3
     83    231    222    224     1  0.0000000  1.6038667  3
     84     83    231    222     1  0.0000000  1.6038667  3
     85     83    231    222     1  0.0000000  1.6038667  3
     87     88    100    101     1  0.0000000  0.6508444  3
     87     88    100    102     1  0.0000000  0.6508444  3
     87     91    103    104     1  0.0000000  0.6508444  3
     87     91    103    105     1  0.0000000  0.6508444  3
     87     94     97     98     1  0.0000000  0.6508444  3
     87     94     97     99     1  0.0000000  0.6508444  3
     88     87     91     92     1  0.0000000  1.2552000  3
     88     87     91     93     1  0.0000000  1.2552000  3
     88     87     94     95     1  0.0000000  1.2552000  3
     88     87     94     96     1  0.0000000  1.2552000  3
     88    100    112    113     1  0.0000000  0.6508444  3
     88    100    112    114     1  0.0000000  0.6508444  3
     89     88     87     91     1  0.0000000  1.2552000  3
     89     88     87     94     1  0.0000000  1.2552000  3
     89     88    100    112     1  0.0000000  0.6508444  3
     89     88    100    101     1  0.0000000  0.6508444  3
     89     88    100    102     1  0.0000000  0.6508444  3
     90     88     87     91     1  0.0000000  1.2552000  3
     90     88     87     94     1  0.0000000  1.2552000  3
     90     88    100    112     1  0.0000000  0.6508444  3
     90     88    100    101     1  0.0000000  0.6508444  3
     90     88    100    102     1  0.0000000  0.6508444  3
     91     87     94     95     1  0.0000000  1.2552000  3
     91     87     94     96     1  0.0000000  1.2552000  3
     91    103    109    110     1  0.0000000  0.6508444  3
     91    103    109    111     1  0.0000000  0.6508444  3
     92     91     87     94     1  0.0000000  1.2552000  3
     92     91    103    109     1  0.0000000  0.6508444  3
     92     91    103    104     1  0.0000000  0.6508444  3
     92     91    103    105     1  0.0000000  0.6508444  3
     93     91     87     94     1  0.0000000  1.2552000  3
     93     91    103    109     1  0.0000000  0.6508444  3
     93     91    103    104     1  0.0000000  0.6508444  3
     93     91    103    105     1  0.0000000  0.6508444  3
     94     97    106    107     1  0.0000000  0.6508444  3
     94     97    106    108     1  0.0000000  0.6508444  3
     95     94     97    106     1  0.0000000  0.6508444  3
     95     94     97     98     1  0.0000000  0.6508444  3
     95     94     97     99     1  0.0000000  0.6508444  3
     96     94     97    106     1  0.0000000  0.6508444  3
     96     94     97     98     1  0.0000000  0.6508444  3
     96     94     97     99     1  0.0000000  0.6508444  3
     98     97    106    115     1  0.0000000  1.0460000  1
     98     97    106    115     1  0.0000000  0.0000000  3
     98     97    106    107     1  0.0000000  0.6508444  3
     98     97    106    108     1  0.0000000  0.6508444  3
     99     97    106    115     1  0.0000000  1.0460000  1
     99     97    106    115     1  0.0000000  0.0000000  3
     99     97    106    107     1  0.0000000  0.6508444  3
     99     97    106    108     1  0.0000000  0.6508444  3
    101    100    112    289     1  0.0000000  1.0460000  1
    101    100    112    289     1  0.0000000  0.0000000  3
    101    100    112    113     1  0.0000000  0.6508444  3
    101    100    112    114     1  0.0000000  0.6508444  3
    102    100    112    289     1  0.0000000  1.0460000  1
    102    100    112    289     1  0.0000000  0.0000000  3
    102    100    112    113     1  0.0000000  0.6508444  3
    102    100    112    114     1  0.0000000  0.6508444  3
    104    103    109    260     1  0.0000000  1.0460000  1
    104    103    109    260     1  0.0000000  0.0000000  3
    104    103    109    110     1  0.0000000  0.6508444  3
    104    103    109    111     1  0.0000000  0.6508444  3
    105    103    109    260     1  0.0000000  1.0460000  1
    105    103    109    260     1  0.0000000  0.0000000  3
    105    103    109    110     1  0.0000000  0.6508444  3
    105    103    109    111     1  0.0000000  0.6508444  3
    109    260    251    252     1  0.0000000  1.6038667  3
    109    260    251    253     1  0.0000000  1.6038667  3
    110    109    260    251     1  0.0000000  1.6038667  3
    111    109    260    251     1  0.0000000  1.6038667  3
    112    289    280    281     1  0.0000000  1.6038667  3
    112    289    280    282     1  0.0000000  1.6038667  3
    113    112    289    280     1  0.0000000  1.6038667  3
    114    112    289    280     1  0.0000000  1.6038667  3
    116    117    129    130     1  0.0000000  0.6508444  3
    116    117    129    131     1  0.0000000  0.6508444  3
    116    120    132    133     1  0.0000000  0.6508444  3
    116    120    132    134     1  0.0000000  0.6508444  3
    116    123    126    127     1  0.0000000  0.6508444  3
    116    123    126    128     1  0.0000000  0.6508444  3
    117    116    120    121     1  0.0000000  1.2552000  3
    117    116    120    122     1  0.0000000  1.2552000  3
    117    116    123    124     1  0.0000000  1.2552000  3
    117    116    123    125     1  0.0000000  1.2552000  3
    117    129    141    142     1  0.0000000  0.6508444  3
    117    129    141    143     1  0.0000000  0.6508444  3
    118    117    116    120     1  0.0000000  1.2552000  3
    118    117    116    123     1  0.0000000  1.2552000  3
    118    117    129    141     1  0.0000000  0.6508444  3
    118    117    129    130     1  0.0000000  0.6508444  3
    118    117    129    131     1  0.0000000  0.6508444  3
    119    117    116    120     1  0.0000000  1.2552000  3
    119    117    116    123     1  0.0000000  1.2552000  3
    119    117    129    141     1  0.0000000  0.6508444  3
    119    117    129    130     1  0.0000000  0.6508444  3
    119    117    129    131     1  0.0000000  0.6508444  3
    120    116    123    124     1  0.0000000  1.2552000  3
    120    116    123    125     1  0.0000000  1.2552000  3
    120    132    138    139     1  0.0000000  0.6508444  3
    120    132    138    140     1  0.0000000  0.6508444  3
    121    120    116    123     1  0.0000000  1.2552000  3
    121    120    132    138     1  0.0000000  0.6508444  3
    121    120    132    133     1  0.0000000  0.6508444  3
    121    120    132    134     1  0.0000000  0.6508444  3
    122    120    116    123     1  0.0000000  1.2552000  3
    122    120    132    138     1  0.0000000  0.6508444  3
    122    120    132    133     1  0.0000000  0.6508444  3
    122    120    132    134     1  0.0000000  0.6508444  3
    123    126    135    136     1  0.0000000  0.6508444  3
    123    126    135    137     1  0.0000000  0.6508444  3
    124    123    126    135     1  0.0000000  0.6508444  3
    124    123    126    127     1  0.0000000  0.6508444  3
    124    123    126    128     1  0.0000000  0.6508444  3
    125    123    126    135     1  0.0000000  0.6508444  3
    125    123    126    127     1  0.0000000  0.6508444  3
    125    123    126    128     1  0.0000000  0.6508444  3
    127    126    135    144     1  0.0000000  1.0460000  1
    127    126    135    144     1  0.0000000  0.0000000  3
    127    126    135    136     1  0.0000000  0.6508444  3
    127    126    135    137     1  0.0000000  0.6508444  3
    128    126    135    144     1  0.0000000  1.0460000  1
    128    126    135    144     1  0.0000000  0.0000000  3
    128    126    135    136     1  0.0000000  0.6508444  3
    128    126    135    137     1  0.0000000  0.6508444  3
    130    129    141    347     1  0.0000000  1.0460000  1
    130    129    141    347     1  0.0000000  0.0000000  3
    130    129    141    142     1  0.0000000  0.6508444  3
    130    129    141    143     1  0.0000000  0.6508444  3
    131    129    141    347     1  0.0000000  1.0460000  1
    131    129    141    347     1  0.0000000  0.0000000  3
    131    129    141    142     1  0.0000000  0.6508444  3
    131    129    141    143     1  0.0000000  0.6508444  3
    133    132    138    318     1  0.0000000  1.0460000  1
    133    132    138    318     1  0.0000000  0.0000000  3
    133    132    138    139     1  0.0000000  0.6508444  3
    133    132    138    140     1  0.0000000  0.6508444  3
    134    132    138    318     1  0.0000000  1.0460000  1
    134    132    138    318     1  0.0000000  0.0000000  3
    134    132    138    139     1  0.0000000  0.6508444  3
    134    132    138    140     1  0.0000000  0.6508444  3
    138    318    309    310     1  0.0000000  1.6038667  3
    138    318    309    311     1  0.0000000  1.6038667  3
    139    138    318    309     1  0.0000000  1.6038667  3
    140    138    318    309     1  0.0000000  1.6038667  3
    141    347    338    339     1  0.0000000  1.6038667  3
    141    347    338    340     1  0.0000000  1.6038667  3
    142    141    347    338     1  0.0000000  1.6038667  3
    143    141    347    338     1  0.0000000  1.6038667  3
    145    146    158    159     1  0.0000000  0.6508444  3
    145    146    158    160     1  0.0000000  0.6508444  3
    145    149    161    162     1  0.0000000  0.6508444  3
    145    149    161    163     1  0.0000000  0.6508444  3
    145    152    155    156     1  0.0000000  0.6508444  3
    145    152    155    157     1  0.0000000  0.6508444  3
    146    145    149    150     1  0.0000000  1.2552000  3
    146    145    149    151     1  0.0000000  1.2552000  3
    146    145    152    153     1  0.0000000  1.2552000  3
    146    145    152    154     1  0.0000000  1.2552000  3
    146    158    170    171     1  0.0000000  0.6508444  3
    146    158    170    172     1  0.0000000  0.6508444  3
    147    146    145    149     1  0.0000000  1.2552000  3
    147    146    145    152     1  0.0000000  1.2552000  3
    147    146    158    170     1  0.0000000  0.6508444  3
    147    146    158    159     1  0.0000000  0.6508444  3
    147    146    158    160     1  0.0000000  0.6508444  3
    148    146    145    149     1  0.0000000  1.2552000  3
    148    146    145    152     1  0.0000000  1.2552000  3
    148    146    158    170     1  0.0000000  0.6508444  3
    148    146    158    159     1  0.0000000  0.6508444  3
    148    146    158    160     1  0.0000000  0.6508444  3
    149    145    152    153     1  0.0000000  1.2552000  3
    149    145    152    154     1  0.0000000  1.2552000  3
    149    161    167    168     1  0.0000000  0.6508444  3
    149    161    167    169     1  0.0000000  0.6508444  3
    150    149    145    152     1  0.0000000  1.2552000  3
    150    149    161    167     1  0.0000000  0.6508444  3
    150    149    161    162     1  0.0000000  0.6508444  3
    150    149    161    163     1  0.0000000  0.6508444  3
    151    149    145    152     1  0.0000000  1.2552000  3
    151    149    161    167     1  0.0000000  0.6508444  3
    151    149    161    162     1  0.0000000  0.6508444  3
    151    149    161    163     1  0.0000000  0.6508444  3
    152    155    164    165     1  0.0000000  0.6508444  3
    152    155    164    166     1  0.0000000  0.6508444  3
    153    152    155    164     1  0.0000000  0.6508444  3
    153    152    155    156     1  0.0000000  0.6508444  3
    153    152    155    157     1  0.0000000  0.6508444  3
    154    152    155    164     1  0.0000000  0.6508444  3
    154    152    155    156     1  0.0000000  0.6508444  3
    154    152    155    157     1  0.0000000  0.6508444  3
    156    155    164    173     1  0.0000000  1.0460000  1
    156    155    164    173     1  0.0000000  0.0000000  3
    156    155    164    165     1  0.0000000  0.6508444  3
    156    155    164    166     1  0.0000000  0.6508444  3
    157    155    164    173     1  0.0000000  1.0460000  1
    157    155    164    173     1  0.0000000  0.0000000  3
    157    155    164    165     1  0.0000000  0.6508444  3
    157    155    164    166     1  0.0000000  0.6508444  3
    159    158    170    405     1  0.0000000  1.0460000  1
    159    158    170    405     1  0.0000000  0.0000000  3
    159    158    170    171     1  0.0000000  0.6508444  3
    159    158    170    172     1  0.0000000  0.6508444  3
    160    158    170    405     1  0.0000000  1.0460000  1
    160    158    170    405     1  0.0000000  0.0000000  3
    160    158    170    171     1  0.0000000  0.6508444  3
    160    158    170    172     1  0.0000000  0.6508444  3
    162    161    167    376     1  0.0000000  1.0460000  1
    162    161    167    376     1  0.0000000  0.0000000  3
    162    161    167    168     1  0.0000000  0.6508444  3
    162    161    167    169     1  0.0000000  0.6508444  3
    163    161    167    376     1  0.0000000  1.0460000  1
    163    161    167    376     1  0.0000000  0.0000000  3
    163    161    167    168     1  0.0000000  0.6508444  3
    163    161    167    169     1  0.0000000  0.6508444  3
    167    376    367    368     1  0.0000000  1.6038667  3
    167    376    367    369     1  0.0000000  1.6038667  3
    168    167    376    367     1  0.0000000  1.6038667  3
    169    167    376    367     1  0.0000000  1.6038667  3
    170    405    396    397     1  0.0000000  1.6038667  3
    170    405    396    398     1  0.0000000  1.6038667  3
    171    170    405    396     1  0.0000000  1.6038667  3
    172    170    405    396     1  0.0000000  1.6038667  3
    174    175    187    188     1  0.0000000  0.6508444  3
    174    175    187    189     1  0.0000000  0.6508444  3
    174    178    190    191     1  0.0000000  0.6508444  3
    174    178    190    192     1  0.0000000  0.6508444  3
    174    181    184    185     1  0.0000000  0.6508444  3
    174    181    184    186     1  0.0000000  0.6508444  3
    175    174    178    179     1  0.0000000  1.2552000  3
    175    174    178    180     1  0.0000000  1.2552000  3
    175    174    181    182     1  0.0000000  1.2552000  3
    175    174    181    183     1  0.0000000  1.2552000  3
    175    187    199    200     1  0.0000000  0.6508444  3
    175    187    199    201     1  0.0000000  0.6508444  3
    176    175    174    178     1  0.0000000  1.2552000  3
    176    175    174    181     1  0.0000000  1.2552000  3
    176    175    187    199     1  0.0000000  0.6508444  3
    176    175    187    188     1  0.0000000  0.6508444  3
    176    175    187    189     1  0.0000000  0.6508444  3
    177    175    174    178     1  0.0000000  1.2552000  3
    177    175    174    181     1  0.0000000  1.2552000  3
    177    175    187    199     1  0.0000000  0.6508444  3
    177    175    187    188     1  0.0000000  0.6508444  3
    177    175    187    189     1  0.0000000  0.6508444  3
    178    174    181    182     1  0.0000000  1.2552000  3
    178    174    181    183     1  0.0000000  1.2552000  3
    178    190    196    197     1  0.0000000  0.6508444  3
    178    190    196    198     1  0.0000000  0.6508444  3
    179    178    174    181     1  0.0000000  1.2552000  3
    179    178    190    196     1  0.0000000  0.6508444  3
    179    178    190    191     1  0.0000000  0.6508444  3
    179    178    190    192     1  0.0000000  0.6508444  3
    180    178    174    181     1  0.0000000  1.2552000  3
    180    178    190    196     1  0.0000000  0.6508444  3
    180    178    190    191     1  0.0000000  0.6508444  3
    180    178    190    192     1  0.0000000  0.6508444  3
    181    184    193    194     1  0.0000000  0.6508444  3
    181    184    193    195     1  0.0000000  0.6508444  3
    182    181    184    193     1  0.0000000  0.6508444  3
    182    181    184    185     1  0.0000000  0.6508444  3
    182    181    184    186     1  0.0000000  0.6508444  3
    183    181    184    193     1  0.0000000  0.6508444  3
    183    181    184    185     1  0.0000000  0.6508444  3
    183    181    184    186     1  0.0000000  0.6508444  3
    185    184    193    202     1  0.0000000  1.0460000  1
    185    184    193    202     1  0.0000000  0.0000000  3
    185    184    193    194     1  0.0000000  0.6508444  3
    185    184    193    195     1  0.0000000  0.6508444  3
    186    184    193    202     1  0.0000000  1.0460000  1
    186    184    193    202     1  0.0000000  0.0000000  3
    186    184    193    194     1  0.0000000  0.6508444  3
    186    184    193    195     1  0.0000000  0.6508444  3
    188    187    199    463     1  0.0000000  1.0460000  1
    188    187    199    463     1  0.0000000  0.0000000  3
    188    187    199    200     1  0.0000000  0.6508444  3
    188    187    199    201     1  0.0000000  0.6508444  3
    189    187    199    463     1  0.0000000  1.0460000  1
    189    187    199    463     1  0.0000000  0.0000000  3
    189    187    199    200     1  0.0000000  0.6508444  3
    189    187    199    201     1  0.0000000  0.6508444  3
    191    190    196    434     1  0.0000000  1.0460000  1
    191    190    196    434     1  0.0000000  0.0000000  3
    191    190    196    197     1  0.0000000  0.6508444  3
    191    190    196    198     1  0.0000000  0.6508444  3
    192    190    196    434     1  0.0000000  1.0460000  1
    192    190    196    434     1  0.0000000  0.0000000  3
    192    190    196    197     1  0.0000000  0.6508444  3
    192    190    196    198     1  0.0000000  0.6508444  3
    196    434    425    426     1  0.0000000  1.6038667  3
    196    434    425    427     1  0.0000000  1.6038667  3
    197    196    434    425     1  0.0000000  1.6038667  3
    198    196    434    425     1  0.0000000  1.6038667  3
    199    463    454    455     1  0.0000000  1.6038667  3
    199    463    454    456     1  0.0000000  1.6038667  3
    200    199    463    454     1  0.0000000  1.6038667  3
    201    199    463    454     1  0.0000000  1.6038667  3
    203    204    216    217     1  0.0000000  0.6508444  3
    203    204    216    218     1  0.0000000  0.6508444  3
    203    207    219    220     1  0.0000000  0.6508444  3
    203    207    219    221     1  0.0000000  0.6508444  3
    203    210    213    214     1  0.0000000  0.6508444  3
    203    210    213    215     1  0.0000000  0.6508444  3
    204    203    207    208     1  0.0000000  1.2552000  3
    204    203    207    209     1  0.0000000  1.2552000  3
    204    203    210    211     1  0.0000000  1.2552000  3
    204    203    210    212     1  0.0000000  1.2552000  3
    204    216    228    229     1  0.0000000  0.6508444  3
    204    216    228    230     1  0.0000000  0.6508444  3
    205    204    203    207     1  0.0000000  1.2552000  3
    205    204    203    210     1  0.0000000  1.2552000  3
    205    204    216    228     1  0.0000000  0.6508444  3
    205    204    216    217     1  0.0000000  0.6508444  3
    205    204    216    218     1  0.0000000  0.6508444  3
    206    204    203    207     1  0.0000000  1.2552000  3
    206    204    203    210     1  0.0000000  1.2552000  3
    206    204    216    228     1  0.0000000  0.6508444  3
    206    204    216    217     1  0.0000000  0.6508444  3
    206    204    216    218     1  0.0000000  0.6508444  3
    207    203    210    211     1  0.0000000  1.2552000  3
    207    203    210    212     1  0.0000000  1.2552000  3
    207    219    225    226     1  0.0000000  0.6508444  3
    207    219    225    227     1  0.0000000  0.6508444  3
    208    207    203    210     1  0.0000000  1.2552000  3
    208    207    219    225     1  0.0000000  0.6508444  3
    208    207    219    220     1  0.0000000  0.6508444  3
    208    207    219    221     1  0.0000000  0.6508444  3
    209    207    203    210     1  0.0000000  1.2552000  3
    209    207    219    225     1  0.0000000  0.6508444  3
    209    207    219    220     1  0.0000000  0.6508444  3
    209    207    219    221     1  0.0000000  0.6508444  3
    210    213    222    223     1  0.0000000  0.6508444  3
    210    213    222    224     1  0.0000000  0.6508444  3
    211    210    213    222     1  0.0000000  0.6508444  3
    211    210    213    214     1  0.0000000  0.6508444  3
    211    210    213    215     1  0.0000000  0.6508444  3
    212    210    213    222     1  0.0000000  0.6508444  3
    212    210    213    214     1  0.0000000  0.6508444  3
    212    210    213    215     1  0.0000000  0.6508444  3
    214    213    222    231     1  0.0000000  1.0460000  1
    214    213    222    231     1  0.0000000  0.0000000  3
    214    213    222    223     1  0.0000000  0.6508444  3
    214    213    222    224     1  0.0000000  0.6508444  3
    215    213    222    231     1  0.0000000  1.0460000  1
    215    213    222    231     1  0.0000000  0.0000000  3
    215    213    222    223     1  0.0000000  0.6508444  3
    215    213    222    224     1  0.0000000  0.6508444  3
    217    216    228    521     1  0.0000000  1.0460000  1
    217    216    228    521     1  0.0000000  0.0000000  3
    217    216    228    229     1  0.0000000  0.6508444  3
    217    216    228    230     1  0.0000000  0.6508444  3
    218    216    228    521     1  0.0000000  1.0460000  1
    218    216    228    521     1  0.0000000  0.0000000  3
    218    216    228    229     1  0.0000000  0.6508444  3
    218    216    228    230     1  0.0000000  0.6508444  3
    220    219    225    492     1  0.0000000  1.0460000  1
    220    219    225    492     1  0.0000000  0.0000000  3
    220    219    225    226     1  0.0000000  0.6508444  3
    220    219    225    227     1  0.0000000  0.6508444  3
    221    219    225    492     1  0.0000000  1.0460000  1
    221    219    225    492     1  0.0000000  0.0000000  3
    221    219    225    226     1  0.0000000  0.6508444  3
    221    219    225    227     1  0.0000000  0.6508444  3
    225    492    483    484     1  0.0000000  1.6038667  3
    225    492    483    485     1  0.0000000  1.6038667  3
    226    225    492    483     1  0.0000000  1.6038667  3
    227    225    492    483     1  0.0000000  1.6038667  3
    228    521    512    513     1  0.0000000  1.6038667  3
    228    521    512    514     1  0.0000000  1.6038667  3
    229    228    521    512     1  0.0000000  1.6038667  3
    230    228    521    512     1  0.0000000  1.6038667  3
    232    233    245    246     1  0.0000000  0.6508444  3
    232    233    245    247     1  0.0000000  0.6508444  3
    232    236    248    249     1  0.0000000  0.6508444  3
    232    236    248    250     1  0.0000000  0.6508444  3
    232    239    242    243     1  0.0000000  0.6508444  3
    232    239    242    244     1  0.0000000  0.6508444  3
    233    232    236    237     1  0.0000000  1.2552000  3
    233    232    236    238     1  0.0000000  1.2552000  3
    233    232    239    240     1  0.0000000  1.2552000  3
    233    232    239    241     1  0.0000000  1.2552000  3
    233    245    257    258     1  0.0000000  0.6508444  3
    233    245    257    259     1  0.0000000  0.6508444  3
    234    233    232    236     1  0.0000000  1.2552000  3
    234    233    232    239     1  0.0000000  1.2552000  3
    234    233    245    257     1  0.0000000  0.6508444  3
    234    233    245    246     1  0.0000000  0.6508444  3
    234    233    245    247     1  0.0000000  0.6508444  3
    235    233    232    236     1  0.0000000  1.2552000  3
    235    233    232    239     1  0.0000000  1.2552000  3
    235    233    245    257     1  0.0000000  0.6508444  3
    235    233    245    246     1  0.0000000  0.6508444  3
    235    233    245    247     1  0.0000000  0.6508444  3
    236    232    239    240     1  0.0000000  1.2552000  3
    236    232    239    241     1  0.0000000  1.2552000  3
    236    248    254    255     1  0.0000000  0.6508444  3
    236    248    254    256     1  0.0000000  0.6508444  3
    237    236    232    239     1  0.0000000  1.2552000  3
    237    236    248    254     1  0.0000000  0.6508444  3
    237    236    248    249     1  0.0000000  0.6508444  3
    237    236    248    250     1  0.0000000  0.6508444  3
    238    236    232    239     1  0.0000000  1.2552000  3
    238    236    248    254     1  0.0000000  0.6508444  3
    238    236    248    249     1  0.0000000  0.6508444  3
    238    236    248    250     1  0.0000000  0.6508444  3
    239    242    251    252     1  0.0000000  0.6508444  3
    239    242    251    253     1  0.0000000  0.6508444  3
    240    239    242    251     1  0.0000000  0.6508444  3
    240    239    242    243     1  0.0000000  0.6508444  3
    240    239    242    244     1  0.0000000  0.6508444  3
    241    239    242    251     1  0.0000000  0.6508444  3
    241    239    242    243     1  0.0000000  0.6508444  3
    241    239    242    244     1  0.0000000  0.6508444  3
    243    242    251    260     1  0.0000000  1.0460000  1
    243    242    251    260     1  0.0000000  0.0000000  3
    243    242    251    252     1  0.0000000  0.6508444  3
    243    242    251    253     1  0.0000000  0.6508444  3
    244    242    251    260     1  0.0000000  1.0460000  1
    244    242    251    260     1  0.0000000  0.0000000  3
    244    242    251    252     1  0.0000000  0.6508444  3
    244    242    251    253     1  0.0000000  0.6508444  3
    246    245    257    579     1  0.0000000  1.0460000  1
    246    245    257    579     1  0.0000000  0.0000000  3
    246    245    257    258     1  0.0000000  0.6508444  3
    246    245    257    259     1  0.0000000  0.6508444  3
    247    245    257    579     1  0.0000000  1.0460000  1
    247    245    257    579     1  0.0000000  0.0000000  3
    247    245    257    258     1  0.0000000  0.6508444  3
    247    245    257    259     1  0.0000000  0.6508444  3
    249    248    254    550     1  0.0000000  1.0460000  1
    249    248    254    550     1  0.0000000  0.0000000  3
    249    248    254    255     1  0.0000000  0.6508444  3
    249    248    254    256     1  0.0000000  0.6508444  3
    250    248    254    550     1  0.0000000  1.0460000  1
    250    248    254    550     1  0.0000000  0.0000000  3
    250    248    254    255     1  0.0000000  0.6508444  3
    250    248    254    256     1  0.0000000  0.6508444  3
    254    550    541    542     1  0.0000000  1.6038667  3
    254    550    541    543     1  0.0000000  1.6038667  3
    255    254    550    541     1  0.0000000  1.6038667  3
    256    254    550    541     1  0.0000000  1.6038667  3
    257    579    570    571     1  0.0000000  1.6038667  3
    257    579    570    572     1  0.0000000  1.6038667  3
    258    257    579    570     1  0.0000000  1.6038667  3
    259    257    579    570     1  0.0000000  1.6038667  3
    261    262    274    275     1  0.0000000  0.6508444  3
    261    262    274    276     1  0.0000000  0.6508444  3
    261    265    277    278     1  0.0000000  0.6508444  3
    261    265    277    279     1  0.0000000  0.6508444  3
    261    268    271    272     1  0.0000000  0.6508444  3
    261    268    271    273     1  0.0000000  0.6508444  3
    262    261    265    266     1  0.0000000  1.2552000  3
    262    261    265    267     1  0.0000000  1.2552000  3
    262    261    268    269     1  0.0000000  1.2552000  3
    262    261    268    270     1  0.0000000  1.2552000  3
    262    274    286    287     1  0.0000000  0.6508444  3
    262    274    286    288     1  0.0000000  0.6508444  3
    263    262    261    265     1  0.0000000  1.2552000  3
    263    262    261    268     1  0.0000000  1.2552000  3
    263    262    274    286     1  0.0000000  0.6508444  3
    263    262    274    275     1  0.0000000  0.6508444  3
    263    262    274    276     1  0.0000000  0.6508444  3
    264    262    261    265     1  0.0000000  1.2552000  3
    264    262    261    268     1  0.0000000  1.2552000  3
    264    262    274    286     1  0.0000000  0.6508444  3
    264    262    274    275     1  0.0000000  0.6508444  3
    264    262    274    276     1  0.0000000  0.6508444  3
    265    261    268    269     1  0.0000000  1.2552000  3
    265    261    268    270     1  0.0000000  1.2552000  3
    265    277    283    284     1  0.0000000  0.6508444  3
    265    277    283    285     1  0.0000000  0.6508444  3
    266    265    261    268     1  0.0000000  1.2552000  3
    266    265    277    283     1  0.0000000  0.6508444  3
    266    265    277    278     1  0.0000000  0.6508444  3
    266    265    277    279     1  0.0000000  0.6508444  3
    267    265    261    268     1  0.0000000  1.2552000  3
    267    265    277    283     1  0.0000000  0.6508444  3
    267    265    277    278     1  0.0000000  0.6508444  3
    267    265    277    279     1  0.0000000  0.6508444  3
    268    271    280    281     1  0.0000000  0.6508444  3
    268    271    280    282     1  0.0000000  0.6508444  3
    269    268    271    280     1  0.0000000  0.6508444  3
    269    268    271    272     1  0.0000000  0.6508444  3
    269    268    271    273     1  0.0000000  0.6508444  3
    270    268    271    280     1  0.0000000  0.6508444  3
    270    268    271    272     1  0.0000000  0.6508444  3
    270    268    271    273     1  0.0000000  0.6508444  3
    272    271    280    289     1  0.0000000  1.0460000  1
    272    271    280    289     1  0.0000000  0.0000000  3
    272    271    280    281     1  0.0000000  0.6508444  3
    272    271    280    282     1  0.0000000  0.6508444  3
    273    271    280    289     1  0.0000000  1.0460000  1
    273    271    280    289     1  0.0000000  0.0000000  3
    273    271    280    281     1  0.0000000  0.6508444  3
    273    271    280    282     1  0.0000000  0.6508444  3
    275    274    286    637     1  0.0000000  1.0460000  1
    275    274    286    637     1  0.0000000  0.0000000  3
    275    274    286    287     1  0.0000000  0.6508444  3
    275    274    286    288     1  0.0000000  0.6508444  3
    276    274    286    637     1  0.0000000  1.0460000  1
    276    274    286    637     1  0.0000000  0.0000000  3
    276    274    286    287     1  0.0000000  0.6508444  3
    276    274    286    288     1  0.0000000  0.6508444  3
    278    277    283    608     1  0.0000000  1.0460000  1
    278    277    283    608     1  0.0000000  0.0000000  3
    278    277    283    284     1  0.0000000  0.6508444  3
    278    277    283    285     1  0.0000000  0.6508444  3
    279    277    283    608     1  0.0000000  1.0460000  1
    279    277    283    608     1  0.0000000  0.0000000  3
    279    277    283    284     1  0.0000000  0.6508444  3
    279    277    283    285     1  0.0000000  0.6508444  3
    283    608    599    600     1  0.0000000  1.6038667  3
    283    608    599    601     1  0.0000000  1.6038667  3
    284    283    608    599     1  0.0000000  1.6038667  3
    285    283    608    599     1  0.0000000  1.6038667  3
    286    637    628    629     1  0.0000000  1.6038667  3
    286    637    628    630     1  0.0000000  1.6038667  3
    287    286    637    628     1  0.0000000  1.6038667  3
    288    286    637    628     1  0.0000000  1.6038667  3
    290    291    303    304     1  0.0000000  0.6508444  3
    290    291    303    305     1  0.0000000  0.6508444  3
    290    294    306    307     1  0.0000000  0.6508444  3
    290    294    306    308     1  0.0000000  0.6508444  3
    290    297    300    301     1  0.0000000  0.6508444  3
    290    297    300    302     1  0.0000000  0.6508444  3
    291    290    294    295     1  0.0000000  1.2552000  3
    291    290    294    296     1  0.0000000  1.2552000  3
    291    290    297    298     1  0.0000000  1.2552000  3
    291    290    297    299     1  0.0000000  1.2552000  3
    291    303    315    316     1  0.0000000  0.6508444  3
    291    303    315    317     1  0.0000000  0.6508444  3
    292    291    290    294     1  0.0000000  1.2552000  3
    292    291    290    297     1  0.0000000  1.2552000  3
    292    291    303    315     1  0.0000000  0.6508444  3
    292    291    303    304     1  0.0000000  0.6508444  3
    292    291    303    305     1  0.0000000  0.6508444  3
    293    291    290    294     1  0.0000000  1.2552000  3
    293    291    290    297     1  0.0000000  1.2552000  3
    293    291    303    315     1  0.0000000  0.6508444  3
    293    291    303    304     1  0.0000000  0.6508444  3
    293    291    303    305     1  0.0000000  0.6508444  3
    294    290    297    298     1  0.0000000  1.2552000  3
    294    290    297    299     1  0.0000000  1.2552000  3
    294    306    312    313     1  0.0000000  0.6508444  3
    294    306    312    314     1  0.0000000  0.6508444  3
    295    294    290    297     1  0.0000000  1.2552000  3
    295    294    306    312     1  0.0000000  0.6508444  3
    295    294    306    307     1  0.0000000  0.6508444  3
    295    294    306    308     1  0.0000000  0.6508444  3
    296    294    290    297     1  0.0000000  1.2552000  3
    296    294    306    312     1  0.0000000  0.6508444  3
    296    294    306    307     1  0.0000000  0.6508444  3
    296    294    306    308     1  0.0000000  0.6508444  3
    297    300    309    310     1  0.0000000  0.6508444  3
    297    300    309    311     1  0.0000000  0.6508444  3
    298    297    300    309     1  0.0000000  0.6508444  3
    298    297    300    301     1  0.0000000  0.6508444  3
    298    297    300    302     1  0.0000000  0.6508444  3
    299    297    300    309     1  0.0000000  0.6508444  3
    299    297    300    301     1  0.0000000  0.6508444  3
    299    297    300    302     1  0.0000000  0.6508444  3
    301    300    309    318     1  0.0000000  1.0460000  1
    301    300    309    318     1  0.0000000  0.0000000  3
    301    300    309    310     1  0.0000000  0.6508444  3
    301    300    309    311     1  0.0000000  0.6508444  3
    302    300    309    318     1  0.0000000  1.0460000  1
    302    300    309    318     1  0.0000000  0.0000000  3
    302    300    309    310     1  0.0000000  0.6508444  3
    302    300    309    311     1  0.0000000  0.6508444  3
    304    303    315    671     1  0.0000000  1.0460000  1
    304    303    315    671     1  0.0000000  0.0000000  3
    304    303    315    316     1  0.0000000  0.6508444  3
    304    303    315    317     1  0.0000000  0.6508444  3
    305    303    315    671     1  0.0000000  1.0460000  1
    305    303    315    671     1  0.0000000  0.0000000  3
    305    303    315    316     1  0.0000000  0.6508444  3
    305    303    315    317     1  0.0000000  0.6508444  3
    307    306    312    648     1  0.0000000  1.0460000  1
    307    306    312    648     1  0.0000000  0.0000000  3
    307    306    312    313     1  0.0000000  0.6508444  3
    307    306    312    314     1  0.0000000  0.6508444  3
    308    306    312    648     1  0.0000000  1.0460000  1
    308    306    312    648     1  0.0000000  0.0000000  3
    308    306    312    313     1  0.0000000  0.6508444  3
    308    306    312    314     1  0.0000000  0.6508444  3
    312    648    644    647     1  0.0000000  1.6038667  3
    313    312    648    644     1  0.0000000  1.6038667  3
    314    312    648    644     1  0.0000000  1.6038667  3
    315    671    667    670     1  0.0000000  1.6038667  3
    316    315    671    667     1  0.0000000  1.6038667  3
    317    315    671    667     1  0.0000000  1.6038667  3
    319    320    332    333     1  0.0000000  0.6508444  3
    319    320    332    334     1  0.0000000  0.6508444  3
    319    323    335    336     1  0.0000000  0.6508444  3
    319    323    335    337     1  0.0000000  0.6508444  3
    319    326    329    330     1  0.0000000  0.6508444  3
    319    326    329    331     1  0.0000000  0.6508444  3
    320    319    323    324     1  0.0000000  1.2552000  3
    320    319    323    325     1  0.0000000  1.2552000  3
    320    319    326    327     1  0.0000000  1.2552000  3
    320    319    326    328     1  0.0000000  1.2552000  3
    320    332    344    345     1  0.0000000  0.6508444  3
    320    332    344    346     1  0.0000000  0.6508444  3
    321    320    319    323     1  0.0000000  1.2552000  3
    321    320    319    326     1  0.0000000  1.2552000  3
    321    320    332    344     1  0.0000000  0.6508444  3
    321    320    332    333     1  0.0000000  0.6508444  3
    321    320    332    334     1  0.0000000  0.6508444  3
    322    320    319    323     1  0.0000000  1.2552000  3
    322    320    319    326     1  0.0000000  1.2552000  3
    322    320    332    344     1  0.0000000  0.6508444  3
    322    320    332    333     1  0.0000000  0.6508444  3
    322    320    332    334     1  0.0000000  0.6508444  3
    323    319    326    327     1  0.0000000  1.2552000  3
    323    319    326    328     1  0.0000000  1.2552000  3
    323    335    341    342     1  0.0000000  0.6508444  3
    323    335    341    343     1  0.0000000  0.6508444  3
    324    323    319    326     1  0.0000000  1.2552000  3
    324    323    335    341     1  0.0000000  0.6508444  3
    324    323    335    336     1  0.0000000  0.6508444  3
    324    323    335    337     1  0.0000000  0.6508444  3
    325    323    319    326     1  0.0000000  1.2552000  3
    325    323    335    341     1  0.0000000  0.6508444  3
    325    323    335    336     1  0.0000000  0.6508444  3
    325    323    335    337     1  0.0000000  0.6508444  3
    326    329    338    339     1  0.0000000  0.6508444  3
    326    329    338    340     1  0.0000000  0.6508444  3
    327    326    329    338     1  0.0000000  0.6508444  3
    327    326    329    330     1  0.0000000  0.6508444  3
    327    326    329    331     1  0.0000000  0.6508444  3
    328    326    329    338     1  0.0000000  0.6508444  3
    328    326    329    330     1  0.0000000  0.6508444  3
    328    326    329    331     1  0.0000000  0.6508444  3
    330    329    338    347     1  0.0000000  1.0460000  1
    330    329    338    347     1  0.0000000  0.0000000  3
    330    329    338    339     1  0.0000000  0.6508444  3
    330    329    338    340     1  0.0000000  0.6508444  3
    331    329    338    347     1  0.0000000  1.0460000  1
    331    329    338    347     1  0.0000000  0.0000000  3
    331    329    338    339     1  0.0000000  0.6508444  3
    331    329    338    340     1  0.0000000  0.6508444  3
    333    332    344    717     1  0.0000000  1.0460000  1
    333    332    344    717     1  0.0000000  0.0000000  3
    333    332    344    345     1  0.0000000  0.6508444  3
    333    332    344    346     1  0.0000000  0.6508444  3
    334    332    344    717     1  0.0000000  1.0460000  1
    334    332    344    717     1  0.0000000  0.0000000  3
    334    332    344    345     1  0.0000000  0.6508444  3
    334    332    344    346     1  0.0000000  0.6508444  3
    336    335    341    694     1  0.0000000  1.0460000  1
    336    335    341    694     1  0.0000000  0.0000000  3
    336    335    341    342     1  0.0000000  0.6508444  3
    336    335    341    343     1  0.0000000  0.6508444  3
    337    335    341    694     1  0.0000000  1.0460000  1
    337    335    341    694     1  0.0000000  0.0000000  3
    337    335    341    342     1  0.0000000  0.6508444  3
    337    335    341    343     1  0.0000000  0.6508444  3
    341    694    690    693     1  0.0000000  1.6038667  3
    342    341    694    690     1  0.0000000  1.6038667  3
    343    341    694    690     1  0.0000000  1.6038667  3
    344    717    713    716     1  0.0000000  1.6038667  3
    345    344    717    713     1  0.0000000  1.6038667  3
    346    344    717    713     1  0.0000000  1.6038667  3
    348    349    361    362     1  0.0000000  0.6508444  3
    348    349    361    363     1  0.0000000  0.6508444  3
    348    352    364    365     1  0.0000000  0.6508444  3
    348    352    364    366     1  0.0000000  0.6508444  3
    348    355    358    359     1  0.0000000  0.6508444  3
    348    355    358    360     1  0.0000000  0.6508444  3
    349    348    352    353     1  0.0000000  1.2552000  3
    349    348    352    354     1  0.0000000  1.2552000  3
    349    348    355    356     1  0.0000000  1.2552000  3
    349    348    355    357     1  0.0000000  1.2552000  3
    349    361    373    374     1  0.0000000  0.6508444  3
    349    361    373    375     1  0.0000000  0.6508444  3
    350    349    348    352     1  0.0000000  1.2552000  3
    350    349    348    355     1  0.0000000  1.2552000  3
    350    349    361    373     1  0.0000000  0.6508444  3
    350    349    361    362     1  0.0000000  0.6508444  3
    350    349    361    363     1  0.0000000  0.6508444  3
    351    349    348    352     1  0.0000000  1.2552000  3
    351    349    348    355     1  0.0000000  1.2552000  3
    351    349    361    373     1  0.0000000  0.6508444  3
    351    349    361    362     1  0.0000000  0.6508444  3
    351    349    361    363     1  0.0000000  0.6508444  3
    352    348    355    356     1  0.0000000  1.2552000  3
    352    348    355    357     1  0.0000000  1.2552000  3
    352    364    370    371     1  0.0000000  0.6508444  3
    352    364    370    372     1  0.0000000  0.6508444  3
    353    352    348    355     1  0.0000000  1.2552000  3
    353    352    364    370     1  0.0000000  0.6508444  3
    353    352    364    365     1  0.0000000  0.6508444  3
    353    352    364    366     1  0.0000000  0.6508444  3
    354    352    348    355     1  0.0000000  1.2552000  3
    354    352    364    370     1  0.0000000  0.6508444  3
    354    352    364    365     1  0.0000000  0.6508444  3
    354    352    364    366     1  0.0000000  0.6508444  3
    355    358    367    368     1  0.0000000  0.6508444  3
    355    358    367    369     1  0.0000000  0.6508444  3
    356    355    358    367     1  0.0000000  0.6508444  3
    356    355    358    359     1  0.0000000  0.6508444  3
    356    355    358    360     1  0.0000000  0.6508444  3
    357    355    358    367     1  0.0000000  0.6508444  3
    357    355    358    359     1  0.0000000  0.6508444  3
    357    355    358    360     1  0.0000000  0.6508444  3
    359    358    367    376     1  0.0000000  1.0460000  1
    359    358    367    376     1  0.0000000  0.0000000  3
    359    358    367    368     1  0.0000000  0.6508444  3
    359    358    367    369     1  0.0000000  0.6508444  3
    360    358    367    376     1  0.0000000  1.0460000  1
    360    358    367    376     1  0.0000000  0.0000000  3
    360    358    367    368     1  0.0000000  0.6508444  3
    360    358    367    369     1  0.0000000  0.6508444  3
    362    361    373    763     1  0.0000000  1.0460000  1
    362    361    373    763     1  0.0000000  0.0000000  3
    362    361    373    374     1  0.0000000  0.6508444  3
    362    361    373    375     1  0.0000000  0.6508444  3
    363    361    373    763     1  0.0000000  1.0460000  1
    363    361    373    763     1  0.0000000  0.0000000  3
    363    361    373    374     1  0.0000000  0.6508444  3
    363    361    373    375     1  0.0000000  0.6508444  3
    365    364    370    740     1  0.0000000  1.0460000  1
    365    364    370    740     1  0.0000000  0.0000000  3
    365    364    370    371     1  0.0000000  0.6508444  3
    365    364    370    372     1  0.0000000  0.6508444  3
    366    364    370    740     1  0.0000000  1.0460000  1
    366    364    370    740     1  0.0000000  0.0000000  3
    366    364    370    371     1  0.0000000  0.6508444  3
    366    364    370    372     1  0.0000000  0.6508444  3
    370    740    736    739     1  0.0000000  1.6038667  3
    371    370    740    736     1  0.0000000  1.6038667  3
    372    370    740    736     1  0.0000000  1.6038667  3
    373    763    759    762     1  0.0000000  1.6038667  3
    374    373    763    759     1  0.0000000  1.6038667  3
    375    373    763    759     1  0.0000000  1.6038667  3
    377    378    390    391     1  0.0000000  0.6508444  3
    377    378    390    392     1  0.0000000  0.6508444  3
    377    381    393    394     1  0.0000000  0.6508444  3
    377    381    393    395     1  0.0000000  0.6508444  3
    377    384    387    388     1  0.0000000  0.6508444  3
    377    384    387    389     1  0.0000000  0.6508444  3
    378    377    381    382     1  0.0000000  1.2552000  3
    378    377    381    383     1  0.0000000  1.2552000  3
    378    377    384    385     1  0.0000000  1.2552000  3
    378    377    384    386     1  0.0000000  1.2552000  3
    378    390    402    403     1  0.0000000  0.6508444  3
    378    390    402    404     1  0.0000000  0.6508444  3
    379    378    377    381     1  0.0000000  1.2552000  3
    379    378    377    384     1  0.0000000  1.2552000  3
    379    378    390    402     1  0.0000000  0.6508444  3
    379    378    390    391     1  0.0000000  0.6508444  3
    379    378    390    392     1  0.0000000  0.6508444  3
    380    378    377    381     1  0.0000000  1.2552000  3
    380    378    377    384     1  0.0000000  1.2552000  3
    380    378    390    402     1  0.0000000  0.6508444  3
    380    378    390    391     1  0.0000000  0.6508444  3
    380    378    390    392     1  0.0000000  0.6508444  3
    381    377    384    385     1  0.0000000  1.2552000  3
    381    377    384    386     1  0.0000000  1.2552000  3
    381    393    399    400     1  0.0000000  0.6508444  3
    381    393    399    401     1  0.0000000  0.6508444  3
    382    381    377    384     1  0.0000000  1.2552000  3
    382    381    393    399     1  0.0000000  0.6508444  3
    382    381    393    394     1  0.0000000  0.6508444  3
    382    381    393    395     1  0.0000000  0.6508444  3
    383    381    377    384     1  0.0000000  1.2552000  3
    383    381    393    399     1  0.0000000  0.6508444  3
    383    381    393    394     1  0.0000000  0.6508444  3
    383    381    393    395     1  0.0000000  0.6508444  3
    384    387    396    397     1  0.0000000  0.6508444  3
    384    387    396    398     1  0.0000000  0.6508444  3
    385    384    387    396     1  0.0000000  0.6508444  3
    385    384    387    388     1  0.0000000  0.6508444  3
    385    384    387    389     1  0.0000000  0.6508444  3
    386    384    387    396     1  0.0000000  0.6508444  3
    386    384    387    388     1  0.0000000  0.6508444  3
    386    384    387    389     1  0.0000000  0.6508444  3
    388    387    396    405     1  0.0000000  1.0460000  1
    388    387    396    405     1  0.0000000  0.0000000  3
    388    387    396    397     1  0.0000000  0.6508444  3
    388    387    396    398     1  0.0000000  0.6508444  3
    389    387    396    405     1  0.0000000  1.0460000  1
    389    387    396    405     1  0.0000000  0.0000000  3
    389    387    396    397     1  0.0000000  0.6508444  3
    389    387    396    398     1  0.0000000  0.6508444  3
    391    390    402    809     1  0.0000000  1.0460000  1
    391    390    402    809     1  0.0000000  0.0000000  3
    391    390    402    403     1  0.0000000  0.6508444  3
    391    390    402    404     1  0.0000000  0.6508444  3
    392    390    402    809     1  0.0000000  1.0460000  1
    392    390    402    809     1  0.0000000  0.0000000  3
    392    390    402    403     1  0.0000000  0.6508444  3
    392    390    402    404     1  0.0000000  0.6508444  3
    394    393    399    786     1  0.0000000  1.0460000  1
    394    393    399    786     1  0.0000000  0.0000000  3
    394    393    399    400     1  0.0000000  0.6508444  3
    394    393    399    401     1  0.0000000  0.6508444  3
    395    393    399    786     1  0.0000000  1.0460000  1
    395    393    399    786     1  0.0000000  0.0000000  3
    395    393    399    400     1  0.0000000  0.6508444  3
    395    393    399    401     1  0.0000000  0.6508444  3
    399    786    782    785     1  0.0000000  1.6038667  3
    400    399    786    782     1  0.0000000  1.6038667  3
    401    399    786    782     1  0.0000000  1.6038667  3
    402    809    805    808     1  0.0000000  1.6038667  3
    403    402    809    805     1  0.0000000  1.6038667  3
    404    402    809    805     1  0.0000000  1.6038667  3
    406    407    419    420     1  0.0000000  0.6508444  3
    406    407    419    421     1  0.0000000  0.6508444  3
    406    410    422    423     1  0.0000000  0.6508444  3
    406    410    422    424     1  0.0000000  0.6508444  3
    406    413    416    417     1  0.0000000  0.6508444  3
    406    413    416    418     1  0.0000000  0.6508444  3
    407    406    410    411     1  0.0000000  1.2552000  3
    407    406    410    412     1  0.0000000  1.2552000  3
    407    406    413    414     1  0.0000000  1.2552000  3
    407    406    413    415     1  0.0000000  1.2552000  3
    407    419    431    432     1  0.0000000  0.6508444  3
    407    419    431    433     1  0.0000000  0.6508444  3
    408    407    406    410     1  0.0000000  1.2552000  3
    408    407    406    413     1  0.0000000  1.2552000  3
    408    407    419    431     1  0.0000000  0.6508444  3
    408    407    419    420     1  0.0000000  0.6508444  3
    408    407    419    421     1  0.0000000  0.6508444  3
    409    407    406    410     1  0.0000000  1.2552000  3
    409    407    406    413     1  0.0000000  1.2552000  3
    409    407    419    431     1  0.0000000  0.6508444  3
    409    407    419    420     1  0.0000000  0.6508444  3
    409    407    419    421     1  0.0000000  0.6508444  3
    410    406    413    414     1  0.0000000  1.2552000  3
    410    406    413    415     1  0.0000000  1.2552000  3
    410    422    428    429     1  0.0000000  0.6508444  3
    410    422    428    430     1  0.0000000  0.6508444  3
    411    410    406    413     1  0.0000000  1.2552000  3
    411    410    422    428     1  0.0000000  0.6508444  3
    411    410    422    423     1  0.0000000  0.6508444  3
    411    410    422    424     1  0.0000000  0.6508444  3
    412    410    406    413     1  0.0000000  1.2552000  3
    412    410    422    428     1  0.0000000  0.6508444  3
    412    410    422    423     1  0.0000000  0.6508444  3
    412    410    422    424     1  0.0000000  0.6508444  3
    413    416    425    426     1  0.0000000  0.6508444  3
    413    416    425    427     1  0.0000000  0.6508444  3
    414    413    416    425     1  0.0000000  0.6508444  3
    414    413    416    417     1  0.0000000  0.6508444  3
    414    413    416    418     1  0.0000000  0.6508444  3
    415    413    416    425     1  0.0000000  0.6508444  3
    415    413    416    417     1  0.0000000  0.6508444  3
    415    413    416    418     1  0.0000000  0.6508444  3
    417    416    425    434     1  0.0000000  1.0460000  1
    417    416    425    434     1  0.0000000  0.0000000  3
    417    416    425    426     1  0.0000000  0.6508444  3
    417    416    425    427     1  0.0000000  0.6508444  3
    418    416    425    434     1  0.0000000  1.0460000  1
    418    416    425    434     1  0.0000000  0.0000000  3
    418    416    425    426     1  0.0000000  0.6508444  3
    418    416    425    427     1  0.0000000  0.6508444  3
    420    419    431    855     1  0.0000000  1.0460000  1
    420    419    431    855     1  0.0000000  0.0000000  3
    420    419    431    432     1  0.0000000  0.6508444  3
    420    419    431    433     1  0.0000000  0.6508444  3
    421    419    431    855     1  0.0000000  1.0460000  1
    421    419    431    855     1  0.0000000  0.0000000  3
    421    419    431    432     1  0.0000000  0.6508444  3
    421    419    431    433     1  0.0000000  0.6508444  3
    423    422    428    832     1  0.0000000  1.0460000  1
    423    422    428    832     1  0.0000000  0.0000000  3
    423    422    428    429     1  0.0000000  0.6508444  3
    423    422    428    430     1  0.0000000  0.6508444  3
    424    422    428    832     1  0.0000000  1.0460000  1
    424    422    428    832     1  0.0000000  0.0000000  3
    424    422    428    429     1  0.0000000  0.6508444  3
    424    422    428    430     1  0.0000000  0.6508444  3
    428    832    828    831     1  0.0000000  1.6038667  3
    429    428    832    828     1  0.0000000  1.6038667  3
    430    428    832    828     1  0.0000000  1.6038667  3
    431    855    851    854     1  0.0000000  1.6038667  3
    432    431    855    851     1  0.0000000  1.6038667  3
    433    431    855    851     1  0.0000000  1.6038667  3
    435    436    448    449     1  0.0000000  0.6508444  3
    435    436    448    450     1  0.0000000  0.6508444  3
    435    439    451    452     1  0.0000000  0.6508444  3
    435    439    451    453     1  0.0000000  0.6508444  3
    435    442    445    446     1  0.0000000  0.6508444  3
    435    442    445    447     1  0.0000000  0.6508444  3
    436    435    439    440     1  0.0000000  1.2552000  3
    436    435    439    441     1  0.0000000  1.2552000  3
    436    435    442    443     1  0.0000000  1.2552000  3
    436    435    442    444     1  0.0000000  1.2552000  3
    436    448    460    461     1  0.0000000  0.6508444  3
    436    448    460    462     1  0.0000000  0.6508444  3
    437    436    435    439     1  0.0000000  1.2552000  3
    437    436    435    442     1  0.0000000  1.2552000  3
    437    436    448    460     1  0.0000000  0.6508444  3
    437    436    448    449     1  0.0000000  0.6508444  3
    437    436    448    450     1  0.0000000  0.6508444  3
    438    436    435    439     1  0.0000000  1.2552000  3
    438    436    435    442     1  0.0000000  1.2552000  3
    438    436    448    460     1  0.0000000  0.6508444  3
    438    436    448    449     1  0.0000000  0.6508444  3
    438    436    448    450     1  0.0000000  0.6508444  3
    439    435    442    443     1  0.0000000  1.2552000  3
    439    435    442    444     1  0.0000000  1.2552000  3
    439    451    457    458     1  0.0000000  0.6508444  3
    439    451    457    459     1  0.0000000  0.6508444  3
    440    439    435    442     1  0.0000000  1.2552000  3
    440    439    451    457     1  0.0000000  0.6508444  3
    440    439    451    452     1  0.0000000  0.6508444  3
    440    439    451    453     1  0.0000000  0.6508444  3
    441    439    435    442     1  0.0000000  1.2552000  3
    441    439    451    457     1  0.0000000  0.6508444  3
    441    439    451    452     1  0.0000000  0.6508444  3
    441    439    451    453     1  0.0000000  0.6508444  3
    442    445    454    455     1  0.0000000  0.6508444  3
    442    445    454    456     1  0.0000000  0.6508444  3
    443    442    445    454     1  0.0000000  0.6508444  3
    443    442    445    446     1  0.0000000  0.6508444  3
    443    442    445    447     1  0.0000000  0.6508444  3
    444    442    445    454     1  0.0000000  0.6508444  3
    444    442    445    446     1  0.0000000  0.6508444  3
    444    442    445    447     1  0.0000000  0.6508444  3
    446    445    454    463     1  0.0000000  1.0460000  1
    446    445    454    463     1  0.0000000  0.0000000  3
    446    445    454    455     1  0.0000000  0.6508444  3
    446    445    454    456     1  0.0000000  0.6508444  3
    447    445    454    463     1  0.0000000  1.0460000  1
    447    445    454    463     1  0.0000000  0.0000000  3
    447    445    454    455     1  0.0000000  0.6508444  3
    447    445    454    456     1  0.0000000  0.6508444  3
    449    448    460    901     1  0.0000000  1.0460000  1
    449    448    460    901     1  0.0000000  0.0000000  3
    449    448    460    461     1  0.0000000  0.6508444  3
    449    448    460    462     1  0.0000000  0.6508444  3
    450    448    460    901     1  0.0000000  1.0460000  1
    450    448    460    901     1  0.0000000  0.0000000  3
    450    448    460    461     1  0.0000000  0.6508444  3
    450    448    460    462     1  0.0000000  0.6508444  3
    452    451    457    878     1  0.0000000  1.0460000  1
    452    451    457    878     1  0.0000000  0.0000000  3
    452    451    457    458     1  0.0000000  0.6508444  3
    452    451    457    459     1  0.0000000  0.6508444  3
    453    451    457    878     1  0.0000000  1.0460000  1
    453    451    457    878     1  0.0000000  0.0000000  3
    453    451    457    458     1  0.0000000  0.6508444  3
    453    451    457    459     1  0.0000000  0.6508444  3
    457    878    874    877     1  0.0000000  1.6038667  3
    458    457    878    874     1  0.0000000  1.6038667  3
    459    457    878    874     1  0.0000000  1.6038667  3
    460    901    897    900     1  0.0000000  1.6038667  3
    461    460    901    897     1  0.0000000  1.6038667  3
    462    460    901    897     1  0.0000000  1.6038667  3
    464    465    477    478     1  0.0000000  0.6508444  3
    464    465    477    479     1  0.0000000  0.6508444  3
    464    468    480    481     1  0.0000000  0.6508444  3
    464    468    480    482     1  0.0000000  0.6508444  3
    464    471    474    475     1  0.0000000  0.6508444  3
    464    471    474    476     1  0.0000000  0.6508444  3
    465    464    468    469     1  0.0000000  1.2552000  3
    465    464    468    470     1  0.0000000  1.2552000  3
    465    464    471    472     1  0.0000000  1.2552000  3
    465    464    471    473     1  0.0000000  1.2552000  3
    465    477    489    490     1  0.0000000  0.6508444  3
    465    477    489    491     1  0.0000000  0.6508444  3
    466    465    464    468     1  0.0000000  1.2552000  3
    466    465    464    471     1  0.0000000  1.2552000  3
    466    465    477    489     1  0.0000000  0.6508444  3
    466    465    477    478     1  0.0000000  0.6508444  3
    466    465    477    479     1  0.0000000  0.6508444  3
    467    465    464    468     1  0.0000000  1.2552000  3
    467    465    464    471     1  0.0000000  1.2552000  3
    467    465    477    489     1  0.0000000  0.6508444  3
    467    465    477    478     1  0.0000000  0.6508444  3
    467    465    477    479     1  0.0000000  0.6508444  3
    468    464    471    472     1  0.0000000  1.2552000  3
    468    464    471    473     1  0.0000000  1.2552000  3
    468    480    486    487     1  0.0000000  0.6508444  3
    468    480    486    488     1  0.0000000  0.6508444  3
    469    468    464    471     1  0.0000000  1.2552000  3
    469    468    480    486     1  0.0000000  0.6508444  3
    469    468    480    481     1  0.0000000  0.6508444  3
    469    468    480    482     1  0.0000000  0.6508444  3
    470    468    464    471     1  0.0000000  1.2552000  3
    470    468    480    486     1  0.0000000  0.6508444  3
    470    468    480    481     1  0.0000000  0.6508444  3
    470    468    480    482     1  0.0000000  0.6508444  3
    471    474    483    484     1  0.0000000  0.6508444  3
    471    474    483    485     1  0.0000000  0.6508444  3
    472    471    474    483     1  0.0000000  0.6508444  3
    472    471    474    475     1  0.0000000  0.6508444  3
    472    471    474    476     1  0.0000000  0.6508444  3
    473    471    474    483     1  0.0000000  0.6508444  3
    473    471    474    475     1  0.0000000  0.6508444  3
    473    471    474    476     1  0.0000000  0.6508444  3
    475    474    483    492     1  0.0000000  1.0460000  1
    475    474    483    492     1  0.0000000  0.0000000  3
    475    474    483    484     1  0.0000000  0.6508444  3
    475    474    483    485     1  0.0000000  0.6508444  3
    476    474    483    492     1  0.0000000  1.0460000  1
    476    474    483    492     1  0.0000000  0.0000000  3
    476    474    483    484     1  0.0000000  0.6508444  3
    476    474    483    485     1  0.0000000  0.6508444  3
    478    477    489    947     1  0.0000000  1.0460000  1
    478    477    489    947     1  0.0000000  0.0000000  3
    478    477    489    490     1  0.0000000  0.6508444  3
    478    477    489    491     1  0.0000000  0.6508444  3
    479    477    489    947     1  0.0000000  1.0460000  1
    479    477    489    947     1  0.0000000  0.0000000  3
    479    477    489    490     1  0.0000000  0.6508444  3
    479    477    489    491     1  0.0000000  0.6508444  3
    481    480    486    924     1  0.0000000  1.0460000  1
    481    480    486    924     1  0.0000000  0.0000000  3
    481    480    486    487     1  0.0000000  0.6508444  3
    481    480    486    488     1  0.0000000  0.6508444  3
    482    480    486    924     1  0.0000000  1.0460000  1
    482    480    486    924     1  0.0000000  0.0000000  3
    482    480    486    487     1  0.0000000  0.6508444  3
    482    480    486    488     1  0.0000000  0.6508444  3
    486    924    920    923     1  0.0000000  1.6038667  3
    487    486    924    920     1  0.0000000  1.6038667  3
    488    486    924    920     1  0.0000000  1.6038667  3
    489    947    943    946     1  0.0000000  1.6038667  3
    490    489    947    943     1  0.0000000  1.6038667  3
    491    489    947    943     1  0.0000000  1.6038667  3
    493    494    506    507     1  0.0000000  0.6508444  3
    493    494    506    508     1  0.0000000  0.6508444  3
    493    497    509    510     1  0.0000000  0.6508444  3
    493    497    509    511     1  0.0000000  0.6508444  3
    493    500    503    504     1  0.0000000  0.6508444  3
    493    500    503    505     1  0.0000000  0.6508444  3
    494    493    497    498     1  0.0000000  1.2552000  3
    494    493    497    499     1  0.0000000  1.2552000  3
    494    493    500    501     1  0.0000000  1.2552000  3
    494    493    500    502     1  0.0000000  1.2552000  3
    494    506    518    519     1  0.0000000  0.6508444  3
    494    506    518    520     1  0.0000000  0.6508444  3
    495    494    493    497     1  0.0000000  1.2552000  3
    495    494    493    500     1  0.0000000  1.2552000  3
    495    494    506    518     1  0.0000000  0.6508444  3
    495    494    506    507     1  0.0000000  0.6508444  3
    495    494    506    508     1  0.0000000  0.6508444  3
    496    494    493    497     1  0.0000000  1.2552000  3
    496    494    493    500     1  0.0000000  1.2552000  3
    496    494    506    518     1  0.0000000  0.6508444  3
    496    494    506    507     1  0.0000000  0.6508444  3
    496    494    506    508     1  0.0000000  0.6508444  3
    497    493    500    501     1  0.0000000  1.2552000  3
    497    493    500    502     1  0.0000000  1.2552000  3
    497    509    515    516     1  0.0000000  0.6508444  3
    497    509    515    517     1  0.0000000  0.6508444  3
    498    497    493    500     1  0.0000000  1.2552000  3
    498    497    509    515     1  0.0000000  0.6508444  3
    498    497    509    510     1  0.0000000  0.6508444  3
    498    497    509    511     1  0.0000000  0.6508444  3
    499    497    493    500     1  0.0000000  1.2552000  3
    499    497    509    515     1  0.0000000  0.6508444  3
    499    497    509    510     1  0.0000000  0.6508444  3
    499    497    509    511     1  0.0000000  0.6508444  3
    500    503    512    513     1  0.0000000  0.6508444  3
    500    503    512    514     1  0.0000000  0.6508444  3
    501    500    503    512     1  0.0000000  0.6508444  3
    501    500    503    504     1  0.0000000  0.6508444  3
    501    500    503    505     1  0.0000000  0.6508444  3
    502    500    503    512     1  0.0000000  0.6508444  3
    502    500    503    504     1  0.0000000  0.6508444  3
    502    500    503    505     1  0.0000000  0.6508444  3
    504    503    512    521     1  0.0000000  1.0460000  1
    504    503    512    521     1  0.0000000  0.0000000  3
    504    503    512    513     1  0.0000000  0.6508444  3
    504    503    512    514     1  0.0000000  0.6508444  3
    505    503    512    521     1  0.0000000  1.0460000  1
    505    503    512    521     1  0.0000000  0.0000000  3
    505    503    512    513     1  0.0000000  0.6508444  3
    505    503    512    514     1  0.0000000  0.6508444  3
    507    506    518    993     1  0.0000000  1.0460000  1
    507    506    518    993     1  0.0000000  0.0000000  3
    507    506    518    519     1  0.0000000  0.6508444  3
    507    506    518    520     1  0.0000000  0.6508444  3
    508    506    518    993     1  0.0000000  1.0460000  1
    508    506    518    993     1  0.0000000  0.0000000  3
    508    506    518    519     1  0.0000000  0.6508444  3
    508    506    518    520     1  0.0000000  0.6508444  3
    510    509    515    970     1  0.0000000  1.0460000  1
    510    509    515    970     1  0.0000000  0.0000000  3
    510    509    515    516     1  0.0000000  0.6508444  3
    510    509    515    517     1  0.0000000  0.6508444  3
    511    509    515    970     1  0.0000000  1.0460000  1
    511    509    515    970     1  0.0000000  0.0000000  3
    511    509    515    516     1  0.0000000  0.6508444  3
    511    509    515    517     1  0.0000000  0.6508444  3
    515    970    966    969     1  0.0000000  1.6038667  3
    516    515    970    966     1  0.0000000  1.6038667  3
    517    515    970    966     1  0.0000000  1.6038667  3
    518    993    989    992     1  0.0000000  1.6038667  3
    519    518    993    989     1  0.0000000  1.6038667  3
    520    518    993    989     1  0.0000000  1.6038667  3
    522    523    535    536     1  0.0000000  0.6508444  3
    522    523    535    537     1  0.0000000  0.6508444  3
    522    526    538    539     1  0.0000000  0.6508444  3
    522    526    538    540     1  0.0000000  0.6508444  3
    522    529    532    533     1  0.0000000  0.6508444  3
    522    529    532    534     1  0.0000000  0.6508444  3
    523    522    526    527     1  0.0000000  1.2552000  3
    523    522    526    528     1  0.0000000  1.2552000  3
    523    522    529    530     1  0.0000000  1.2552000  3
    523    522    529    531     1  0.0000000  1.2552000  3
    523    535    547    548     1  0.0000000  0.6508444  3
    523    535    547    549     1  0.0000000  0.6508444  3
    524    523    522    526     1  0.0000000  1.2552000  3
    524    523    522    529     1  0.0000000  1.2552000  3
    524    523    535    547     1  0.0000000  0.6508444  3
    524    523    535    536     1  0.0000000  0.6508444  3
    524    523    535    537     1  0.0000000  0.6508444  3
    525    523    522    526     1  0.0000000  1.2552000  3
    525    523    522    529     1  0.0000000  1.2552000  3
    525    523    535    547     1  0.0000000  0.6508444  3
    525    523    535    536     1  0.0000000  0.6508444  3
    525    523    535    537     1  0.0000000  0.6508444  3
    526    522    529    530     1  0.0000000  1.2552000  3
    526    522    529    531     1  0.0000000  1.2552000  3
    526    538    544    545     1  0.0000000  0.6508444  3
    526    538    544    546     1  0.0000000  0.6508444  3
    527    526    522    529     1  0.0000000  1.2552000  3
    527    526    538    544     1  0.0000000  0.6508444  3
    527    526    538    539     1  0.0000000  0.6508444  3
    527    526    538    540     1  0.0000000  0.6508444  3
    528    526    522    529     1  0.0000000  1.2552000  3
    528    526    538    544     1  0.0000000  0.6508444  3
    528    526    538    539     1  0.0000000  0.6508444  3
    528    526    538    540     1  0.0000000  0.6508444  3
    529    532    541    542     1  0.0000000  0.6508444  3
    529    532    541    543     1  0.0000000  0.6508444  3
    530    529    532    541     1  0.0000000  0.6508444  3
    530    529    532    533     1  0.0000000  0.6508444  3
    530    529    532    534     1  0.0000000  0.6508444  3
    531    529    532    541     1  0.0000000  0.6508444  3
    531    529    532    533     1  0.0000000  0.6508444  3
    531    529    532    534     1  0.0000000  0.6508444  3
    533    532    541    550     1  0.0000000  1.0460000  1
    533    532    541    550     1  0.0000000  0.0000000  3
    533    532    541    542     1  0.0000000  0.6508444  3
    533    532    541    543     1  0.0000000  0.6508444  3
    534    532    541    550     1  0.0000000  1.0460000  1
    534    532    541    550     1  0.0000000  0.0000000  3
    534    532    541    542     1  0.0000000  0.6508444  3
    534    532    541    543     1  0.0000000  0.6508444  3
    536    535    547   1039     1  0.0000000  1.0460000  1
    536    535    547   1039     1  0.0000000  0.0000000  3
    536    535    547    548     1  0.0000000  0.6508444  3
    536    535    547    549     1  0.0000000  0.6508444  3
    537    535    547   1039     1  0.0000000  1.0460000  1
    537    535    547   1039     1  0.0000000  0.0000000  3
    537    535    547    548     1  0.0000000  0.6508444  3
    537    535    547    549     1  0.0000000  0.6508444  3
    539    538    544   1016     1  0.0000000  1.0460000  1
    539    538    544   1016     1  0.0000000  0.0000000  3
    539    538    544    545     1  0.0000000  0.6508444  3
    539    538    544    546     1  0.0000000  0.6508444  3
    540    538    544   1016     1  0.0000000  1.0460000  1
    540    538    544   1016     1  0.0000000  0.0000000  3
    540    538    544    545     1  0.0000000  0.6508444  3
    540    538    544    546     1  0.0000000  0.6508444  3
    544   1016   1012   1015     1  0.0000000  1.6038667  3
    545    544   1016   1012     1  0.0000000  1.6038667  3
    546    544   1016   1012     1  0.0000000  1.6038667  3
    547   1039   1035   1038     1  0.0000000  1.6038667  3
    548    547   1039   1035     1  0.0000000  1.6038667  3
    549    547   1039   1035     1  0.0000000  1.6038667  3
    551    552    564    565     1  0.0000000  0.6508444  3
    551    552    564    566     1  0.0000000  0.6508444  3
    551    555    567    568     1  0.0000000  0.6508444  3
    551    555    567    569     1  0.0000000  0.6508444  3
    551    558    561    562     1  0.0000000  0.6508444  3
    551    558    561    563     1  0.0000000  0.6508444  3
    552    551    555    556     1  0.0000000  1.2552000  3
    552    551    555    557     1  0.0000000  1.2552000  3
    552    551    558    559     1  0.0000000  1.2552000  3
    552    551    558    560     1  0.0000000  1.2552000  3
    552    564    576    577     1  0.0000000  0.6508444  3
    552    564    576    578     1  0.0000000  0.6508444  3
    553    552    551    555     1  0.0000000  1.2552000  3
    553    552    551    558     1  0.0000000  1.2552000  3
    553    552    564    576     1  0.0000000  0.6508444  3
    553    552    564    565     1  0.0000000  0.6508444  3
    553    552    564    566     1  0.0000000  0.6508444  3
    554    552    551    555     1  0.0000000  1.2552000  3
    554    552    551    558     1  0.0000000  1.2552000  3
    554    552    564    576     1  0.0000000  0.6508444  3
    554    552    564    565     1  0.0000000  0.6508444  3
    554    552    564    566     1  0.0000000  0.6508444  3
    555    551    558    559     1  0.0000000  1.2552000  3
    555    551    558    560     1  0.0000000  1.2552000  3
    555    567    573    574     1  0.0000000  0.6508444  3
    555    567    573    575     1  0.0000000  0.6508444  3
    556    555    551    558     1  0.0000000  1.2552000  3
    556    555    567    573     1  0.0000000  0.6508444  3
    556    555    567    568     1  0.0000000  0.6508444  3
    556    555    567    569     1  0.0000000  0.6508444  3
    557    555    551    558     1  0.0000000  1.2552000  3
    557    555    567    573     1  0.0000000  0.6508444  3
    557    555    567    568     1  0.0000000  0.6508444  3
    557    555    567    569     1  0.0000000  0.6508444  3
    558    561    570    571     1  0.0000000  0.6508444  3
    558    561    570    572     1  0.0000000  0.6508444  3
    559    558    561    570     1  0.0000000  0.6508444  3
    559    558    561    562     1  0.0000000  0.6508444  3
    559    558    561    563     1  0.0000000  0.6508444  3
    560    558    561    570     1  0.0000000  0.6508444  3
    560    558    561    562     1  0.0000000  0.6508444  3
    560    558    561    563     1  0.0000000  0.6508444  3
    562    561    570    579     1  0.0000000  1.0460000  1
    562    561    570    579     1  0.0000000  0.0000000  3
    562    561    570    571     1  0.0000000  0.6508444  3
    562    561    570    572     1  0.0000000  0.6508444  3
    563    561    570    579     1  0.0000000  1.0460000  1
    563    561    570    579     1  0.0000000  0.0000000  3
    563    561    570    571     1  0.0000000  0.6508444  3
    563    561    570    572     1  0.0000000  0.6508444  3
    565    564    576   1085     1  0.0000000  1.0460000  1
    565    564    576   1085     1  0.0000000  0.0000000  3
    565    564    576    577     1  0.0000000  0.6508444  3
    565    564    576    578     1  0.0000000  0.6508444  3
    566    564    576   1085     1  0.0000000  1.0460000  1
    566    564    576   1085     1  0.0000000  0.0000000  3
    566    564    576    577     1  0.0000000  0.6508444  3
    566    564    576    578     1  0.0000000  0.6508444  3
    568    567    573   1062     1  0.0000000  1.0460000  1
    568    567    573   1062     1  0.0000000  0.0000000  3
    568    567    573    574     1  0.0000000  0.6508444  3
    568    567    573    575     1  0.0000000  0.6508444  3
    569    567    573   1062     1  0.0000000  1.0460000  1
    569    567    573   1062     1  0.0000000  0.0000000  3
    569    567    573    574     1  0.0000000  0.6508444  3
    569    567    573    575     1  0.0000000  0.6508444  3
    573   1062   1058   1061     1  0.0000000  1.6038667  3
    574    573   1062   1058     1  0.0000000  1.6038667  3
    575    573   1062   1058     1  0.0000000  1.6038667  3
    576   1085   1081   1084     1  0.0000000  1.6038667  3
    577    576   1085   1081     1  0.0000000  1.6038667  3
    578    576   1085   1081     1  0.0000000  1.6038667  3
    580    581    593    594     1  0.0000000  0.6508444  3
    580    581    593    595     1  0.0000000  0.6508444  3
    580    584    596    597     1  0.0000000  0.6508444  3
    580    584    596    598     1  0.0000000  0.6508444  3
    580    587    590    591     1  0.0000000  0.6508444  3
    580    587    590    592     1  0.0000000  0.6508444  3
    581    580    584    585     1  0.0000000  1.2552000  3
    581    580    584    586     1  0.0000000  1.2552000  3
    581    580    587    588     1  0.0000000  1.2552000  3
    581    580    587    589     1  0.0000000  1.2552000  3
    581    593    605    606     1  0.0000000  0.6508444  3
    581    593    605    607     1  0.0000000  0.6508444  3
    582    581    580    584     1  0.0000000  1.2552000  3
    582    581    580    587     1  0.0000000  1.2552000  3
    582    581    593    605     1  0.0000000  0.6508444  3
    582    581    593    594     1  0.0000000  0.6508444  3
    582    581    593    595     1  0.0000000  0.6508444  3
    583    581    580    584     1  0.0000000  1.2552000  3
    583    581    580    587     1  0.0000000  1.2552000  3
    583    581    593    605     1  0.0000000  0.6508444  3
    583    581    593    594     1  0.0000000  0.6508444  3
    583    581    593    595     1  0.0000000  0.6508444  3
    584    580    587    588     1  0.0000000  1.2552000  3
    584    580    587    589     1  0.0000000  1.2552000  3
    584    596    602    603     1  0.0000000  0.6508444  3
    584    596    602    604     1  0.0000000  0.6508444  3
    585    584    580    587     1  0.0000000  1.2552000  3
    585    584    596    602     1  0.0000000  0.6508444  3
    585    584    596    597     1  0.0000000  0.6508444  3
    585    584    596    598     1  0.0000000  0.6508444  3
    586    584    580    587     1  0.0000000  1.2552000  3
    586    584    596    602     1  0.0000000  0.6508444  3
    586    584    596    597     1  0.0000000  0.6508444  3
    586    584    596    598     1  0.0000000  0.6508444  3
    587    590    599    600     1  0.0000000  0.6508444  3
    587    590    599    601     1  0.0000000  0.6508444  3
    588    587    590    599     1  0.0000000  0.6508444  3
    588    587    590    591     1  0.0000000  0.6508444  3
    588    587    590    592     1  0.0000000  0.6508444  3
    589    587    590    599     1  0.0000000  0.6508444  3
    589    587    590    591     1  0.0000000  0.6508444  3
    589    587    590    592     1  0.0000000  0.6508444  3
    591    590    599    608     1  0.0000000  1.0460000  1
    591    590    599    608     1  0.0000000  0.0000000  3
    591    590    599    600     1  0.0000000  0.6508444  3
    591    590    599    601     1  0.0000000  0.6508444  3
    592    590    599    608     1  0.0000000  1.0460000  1
    592    590    599    608     1  0.0000000  0.0000000  3
    592    590    599    600     1  0.0000000  0.6508444  3
    592    590    599    601     1  0.0000000  0.6508444  3
    594    593    605   1131     1  0.0000000  1.0460000  1
    594    593    605   1131     1  0.0000000  0.0000000  3
    594    593    605    606     1  0.0000000  0.6508444  3
    594    593    605    607     1  0.0000000  0.6508444  3
    595    593    605   1131     1  0.0000000  1.0460000  1
    595    593    605   1131     1  0.0000000  0.0000000  3
    595    593    605    606     1  0.0000000  0.6508444  3
    595    593    605    607     1  0.0000000  0.6508444  3
    597    596    602   1108     1  0.0000000  1.0460000  1
    597    596    602   1108     1  0.0000000  0.0000000  3
    597    596    602    603     1  0.0000000  0.6508444  3
    597    596    602    604     1  0.0000000  0.6508444  3
    598    596    602   1108     1  0.0000000  1.0460000  1
    598    596    602   1108     1  0.0000000  0.0000000  3
    598    596    602    603     1  0.0000000  0.6508444  3
    598    596    602    604     1  0.0000000  0.6508444  3
    602   1108   1104   1107     1  0.0000000  1.6038667  3
    603    602   1108   1104     1  0.0000000  1.6038667  3
    604    602   1108   1104     1  0.0000000  1.6038667  3
    605   1131   1127   1130     1  0.0000000  1.6038667  3
    606    605   1131   1127     1  0.0000000  1.6038667  3
    607    605   1131   1127     1  0.0000000  1.6038667  3
    609    610    622    623     1  0.0000000  0.6508444  3
    609    610    622    624     1  0.0000000  0.6508444  3
    609    613    625    626     1  0.0000000  0.6508444  3
    609    613    625    627     1  0.0000000  0.6508444  3
    609    616    619    620     1  0.0000000  0.6508444  3
    609    616    619    621     1  0.0000000  0.6508444  3
    610    609    613    614     1  0.0000000  1.2552000  3
    610    609    613    615     1  0.0000000  1.2552000  3
    610    609    616    617     1  0.0000000  1.2552000  3
    610    609    616    618     1  0.0000000  1.2552000  3
    610    622    634    635     1  0.0000000  0.6508444  3
    610    622    634    636     1  0.0000000  0.6508444  3
    611    610    609    613     1  0.0000000  1.2552000  3
    611    610    609    616     1  0.0000000  1.2552000  3
    611    610    622    634     1  0.0000000  0.6508444  3
    611    610    622    623     1  0.0000000  0.6508444  3
    611    610    622    624     1  0.0000000  0.6508444  3
    612    610    609    613     1  0.0000000  1.2552000  3
    612    610    609    616     1  0.0000000  1.2552000  3
    612    610    622    634     1  0.0000000  0.6508444  3
    612    610    622    623     1  0.0000000  0.6508444  3
    612    610    622    624     1  0.0000000  0.6508444  3
    613    609    616    617     1  0.0000000  1.2552000  3
    613    609    616    618     1  0.0000000  1.2552000  3
    613    625    631    632     1  0.0000000  0.6508444  3
    613    625    631    633     1  0.0000000  0.6508444  3
    614    613    609    616     1  0.0000000  1.2552000  3
    614    613    625    631     1  0.0000000  0.6508444  3
    614    613    625    626     1  0.0000000  0.6508444  3
    614    613    625    627     1  0.0000000  0.6508444  3
    615    613    609    616     1  0.0000000  1.2552000  3
    615    613    625    631     1  0.0000000  0.6508444  3
    615    613    625    626     1  0.0000000  0.6508444  3
    615    613    625    627     1  0.0000000  0.6508444  3
    616    619    628    629     1  0.0000000  0.6508444  3
    616    619    628    630     1  0.0000000  0.6508444  3
    617    616    619    628     1  0.0000000  0.6508444  3
    617    616    619    620     1  0.0000000  0.6508444  3
    617    616    619    621     1  0.0000000  0.6508444  3
    618    616    619    628     1  0.0000000  0.6508444  3
    618    616    619    620     1  0.0000000  0.6508444  3
    618    616    619    621     1  0.0000000  0.6508444  3
    620    619    628    637     1  0.0000000  1.0460000  1
    620    619    628    637     1  0.0000000  0.0000000  3
    620    619    628    629     1  0.0000000  0.6508444  3
    620    619    628    630     1  0.0000000  0.6508444  3
    621    619    628    637     1  0.0000000  1.0460000  1
    621    619    628    637     1  0.0000000  0.0000000  3
    621    619    628    629     1  0.0000000  0.6508444  3
    621    619    628    630     1  0.0000000  0.6508444  3
    623    622    634   1177     1  0.0000000  1.0460000  1
    623    622    634   1177     1  0.0000000  0.0000000  3
    623    622    634    635     1  0.0000000  0.6508444  3
    623    622    634    636     1  0.0000000  0.6508444  3
    624    622    634   1177     1  0.0000000  1.0460000  1
    624    622    634   1177     1  0.0000000  0.0000000  3
    624    622    634    635     1  0.0000000  0.6508444  3
    624    622    634    636     1  0.0000000  0.6508444  3
    626    625    631   1154     1  0.0000000  1.0460000  1
    626    625    631   1154     1  0.0000000  0.0000000  3
    626    625    631    632     1  0.0000000  0.6508444  3
    626    625    631    633     1  0.0000000  0.6508444  3
    627    625    631   1154     1  0.0000000  1.0460000  1
    627    625    631   1154     1  0.0000000  0.0000000  3
    627    625    631    632     1  0.0000000  0.6508444  3
    627    625    631    633     1  0.0000000  0.6508444  3
    631   1154   1150   1153     1  0.0000000  1.6038667  3
    632    631   1154   1150     1  0.0000000  1.6038667  3
    633    631   1154   1150     1  0.0000000  1.6038667  3
    634   1177   1173   1176     1  0.0000000  1.6038667  3
    635    634   1177   1173     1  0.0000000  1.6038667  3
    636    634   1177   1173     1  0.0000000  1.6038667  3
    638    639    642    646     1  0.0000000  0.6508444  3
    638    639    651    654     1  0.0000000  1.0460000  1
    638    639    651    654     1  0.0000000  0.6694400  3
    638    652    658    659     1  0.0000000  1.0460000  1
    638    652    658    659     1  0.0000000  0.6694400  3
    638    660    644    647     1  0.0000000  1.6038667  3
    639    638    652    656     1  0.0000000  0.6508444  3
    639    638    652    657     1  0.0000000  0.6508444  3
    639    642    643    645     1  0.0000000  0.6508444  3
    639    642    650    653     1  0.0000000  1.0460000  1
    639    642    650    653     1  0.0000000  0.6694400  3
    640    638    639    642     1  0.0000000  0.6508444  3
    640    638    639    651     1  0.0000000  1.0460000  1
    640    638    639    651     1  0.0000000  0.0000000  3
    640    638    639    641     1  0.0000000  0.6508444  3
    640    638    652    658     1  0.0000000  1.0460000  1
    640    638    652    658     1  0.0000000  0.0000000  3
    640    638    652    656     1  0.0000000  0.6508444  3
    640    638    652    657     1  0.0000000  0.6508444  3
    640    638    660    644     1  0.0000000  1.6038667  3
    641    639    638    652     1  0.0000000  0.6508444  3
    641    639    638    660     1  0.0000000  1.0460000  1
    641    639    638    660     1  0.0000000  0.0000000  3
    641    639    642    643     1  0.0000000  0.6508444  3
    641    639    642    650     1  0.0000000  1.0460000  1
    641    639    642    650     1  0.0000000  0.0000000  3
    641    639    642    646     1  0.0000000  0.6508444  3
    641    639    651    654     1  0.0000000  0.6973333  3
    642    639    651    654     1  0.0000000  1.0460000  1
    642    639    651    654     1  0.0000000  0.6694400  3
    642    643    644    647     1  0.0000000  0.6508444  3
    642    643    649    655     1  0.0000000  1.0460000  1
    642    643    649    655     1  0.0000000  0.6694400  3
    643    642    650    653     1  0.0000000  1.0460000  1
    643    642    650    653     1  0.0000000  0.6694400  3
    644    643    642    646     1  0.0000000  0.6508444  3
    644    643    649    655     1  0.0000000  1.0460000  1
    644    643    649    655     1  0.0000000  0.6694400  3
    645    643    642    650     1  0.0000000  1.0460000  1
    645    643    642    650     1  0.0000000  0.0000000  3
    645    643    642    646     1  0.0000000  0.6508444  3
    645    643    644    648     1  0.0000000  1.0460000  1
    645    643    644    648     1  0.0000000  0.0000000  3
    645    643    644    660     1  0.0000000  1.0460000  1
    645    643    644    660     1  0.0000000  0.0000000  3
    645    643    644    647     1  0.0000000  0.6508444  3
    645    643    649    655     1  0.0000000  0.6973333  3
    646    642    639    651     1  0.0000000  1.0460000  1
    646    642    639    651     1  0.0000000  0.0000000  3
    646    642    643    649     1  0.0000000  1.0460000  1
    646    642    643    649     1  0.0000000  0.0000000  3
    646    642    650    653     1  0.0000000  0.6973333  3
    647    644    643    649     1  0.0000000  0.6508444  3
    656    652    638    660     1  0.0000000  1.0460000  1
    656    652    638    660     1  0.0000000  0.0000000  3
    656    652    658    659     1  0.0000000  0.6973333  3
    657    652    638    660     1  0.0000000  1.0460000  1
    657    652    638    660     1  0.0000000  0.0000000  3
    657    652    658    659     1  0.0000000  0.6973333  3
    661    662    665    669     1  0.0000000  0.6508444  3
    661    662    674    677     1  0.0000000  1.0460000  1
    661    662    674    677     1  0.0000000  0.6694400  3
    661    675    681    682     1  0.0000000  1.0460000  1
    661    675    681    682     1  0.0000000  0.6694400  3
    661    683    667    670     1  0.0000000  1.6038667  3
    662    665    666    668     1  0.0000000  0.6508444  3
    662    665    673    676     1  0.0000000  1.0460000  1
    662    665    673    676     1  0.0000000  0.6694400  3
    662    661    675    679     1  0.0000000  0.6508444  3
    662    661    675    680     1  0.0000000  0.6508444  3
    663    661    662    665     1  0.0000000  0.6508444  3
    663    661    662    674     1  0.0000000  1.0460000  1
    663    661    662    674     1  0.0000000  0.0000000  3
    663    661    662    664     1  0.0000000  0.6508444  3
    663    661    675    681     1  0.0000000  1.0460000  1
    663    661    675    681     1  0.0000000  0.0000000  3
    663    661    675    679     1  0.0000000  0.6508444  3
    663    661    675    680     1  0.0000000  0.6508444  3
    663    661    683    667     1  0.0000000  1.6038667  3
    664    662    665    666     1  0.0000000  0.6508444  3
    664    662    665    673     1  0.0000000  1.0460000  1
    664    662    665    673     1  0.0000000  0.0000000  3
    664    662    665    669     1  0.0000000  0.6508444  3
    664    662    674    677     1  0.0000000  0.6973333  3
    664    662    661    675     1  0.0000000  0.6508444  3
    664    662    661    683     1  0.0000000  1.0460000  1
    664    662    661    683     1  0.0000000  0.0000000  3
    665    666    667    670     1  0.0000000  0.6508444  3
    665    666    672    678     1  0.0000000  1.0460000  1
    665    666    672    678     1  0.0000000  0.6694400  3
    665    662    674    677     1  0.0000000  1.0460000  1
    665    662    674    677     1  0.0000000  0.6694400  3
    666    665    673    676     1  0.0000000  1.0460000  1
    666    665    673    676     1  0.0000000  0.6694400  3
    667    666    672    678     1  0.0000000  1.0460000  1
    667    666    672    678     1  0.0000000  0.6694400  3
    667    666    665    669     1  0.0000000  0.6508444  3
    668    666    667    671     1  0.0000000  1.0460000  1
    668    666    667    671     1  0.0000000  0.0000000  3
    668    666    667    683     1  0.0000000  1.0460000  1
    668    666    667    683     1  0.0000000  0.0000000  3
    668    666    667    670     1  0.0000000  0.6508444  3
    668    666    672    678     1  0.0000000  0.6973333  3
    668    666    665    673     1  0.0000000  1.0460000  1
    668    666    665    673     1  0.0000000  0.0000000  3
    668    666    665    669     1  0.0000000  0.6508444  3
    669    665    666    672     1  0.0000000  1.0460000  1
    669    665    666    672     1  0.0000000  0.0000000  3
    669    665    673    676     1  0.0000000  0.6973333  3
    669    665    662    674     1  0.0000000  1.0460000  1
    669    665    662    674     1  0.0000000  0.0000000  3
    670    667    666    672     1  0.0000000  0.6508444  3
    679    675    681    682     1  0.0000000  0.6973333  3
    679    675    661    683     1  0.0000000  1.0460000  1
    679    675    661    683     1  0.0000000  0.0000000  3
    680    675    681    682     1  0.0000000  0.6973333  3
    680    675    661    683     1  0.0000000  1.0460000  1
    680    675    661    683     1  0.0000000  0.0000000  3
    684    685    688    692     1  0.0000000  0.6508444  3
    684    685    697    700     1  0.0000000  1.0460000  1
    684    685    697    700     1  0.0000000  0.6694400  3
    684    698    704    705     1  0.0000000  1.0460000  1
    684    698    704    705     1  0.0000000  0.6694400  3
    684    706    690    693     1  0.0000000  1.6038667  3
    685    684    698    702     1  0.0000000  0.6508444  3
    685    684    698    703     1  0.0000000  0.6508444  3
    685    688    689    691     1  0.0000000  0.6508444  3
    685    688    696    699     1  0.0000000  1.0460000  1
    685    688    696    699     1  0.0000000  0.6694400  3
    686    684    685    688     1  0.0000000  0.6508444  3
    686    684    685    697     1  0.0000000  1.0460000  1
    686    684    685    697     1  0.0000000  0.0000000  3
    686    684    685    687     1  0.0000000  0.6508444  3
    686    684    698    704     1  0.0000000  1.0460000  1
    686    684    698    704     1  0.0000000  0.0000000  3
    686    684    698    702     1  0.0000000  0.6508444  3
    686    684    698    703     1  0.0000000  0.6508444  3
    686    684    706    690     1  0.0000000  1.6038667  3
    687    685    684    698     1  0.0000000  0.6508444  3
    687    685    684    706     1  0.0000000  1.0460000  1
    687    685    684    706     1  0.0000000  0.0000000  3
    687    685    688    689     1  0.0000000  0.6508444  3
    687    685    688    696     1  0.0000000  1.0460000  1
    687    685    688    696     1  0.0000000  0.0000000  3
    687    685    688    692     1  0.0000000  0.6508444  3
    687    685    697    700     1  0.0000000  0.6973333  3
    688    685    697    700     1  0.0000000  1.0460000  1
    688    685    697    700     1  0.0000000  0.6694400  3
    688    689    690    693     1  0.0000000  0.6508444  3
    688    689    695    701     1  0.0000000  1.0460000  1
    688    689    695    701     1  0.0000000  0.6694400  3
    689    688    696    699     1  0.0000000  1.0460000  1
    689    688    696    699     1  0.0000000  0.6694400  3
    690    689    688    692     1  0.0000000  0.6508444  3
    690    689    695    701     1  0.0000000  1.0460000  1
    690    689    695    701     1  0.0000000  0.6694400  3
    691    689    688    696     1  0.0000000  1.0460000  1
    691    689    688    696     1  0.0000000  0.0000000  3
    691    689    688    692     1  0.0000000  0.6508444  3
    691    689    690    694     1  0.0000000  1.0460000  1
    691    689    690    694     1  0.0000000  0.0000000  3
    691    689    690    706     1  0.0000000  1.0460000  1
    691    689    690    706     1  0.0000000  0.0000000  3
    691    689    690    693     1  0.0000000  0.6508444  3
    691    689    695    701     1  0.0000000  0.6973333  3
    692    688    685    697     1  0.0000000  1.0460000  1
    692    688    685    697     1  0.0000000  0.0000000  3
    692    688    689    695     1  0.0000000  1.0460000  1
    692    688    689    695     1  0.0000000  0.0000000  3
    692    688    696    699     1  0.0000000  0.6973333  3
    693    690    689    695     1  0.0000000  0.6508444  3
    702    698    684    706     1  0.0000000  1.0460000  1
    702    698    684    706     1  0.0000000  0.0000000  3
    702    698    704    705     1  0.0000000  0.6973333  3
    703    698    684    706     1  0.0000000  1.0460000  1
    703    698    684    706     1  0.0000000  0.0000000  3
    703    698    704    705     1  0.0000000  0.6973333  3
    707    708    711    715     1  0.0000000  0.6508444  3
    707    708    720    723     1  0.0000000  1.0460000  1
    707    708    720    723     1  0.0000000  0.6694400  3
    707    721    727    728     1  0.0000000  1.0460000  1
    707    721    727    728     1  0.0000000  0.6694400  3
    707    729    713    716     1  0.0000000  1.6038667  3
    708    711    712    714     1  0.0000000  0.6508444  3
    708    711    719    722     1  0.0000000  1.0460000  1
    708    711    719    722     1  0.0000000  0.6694400  3
    708    707    721    725     1  0.0000000  0.6508444  3
    708    707    721    726     1  0.0000000  0.6508444  3
    709    707    708    711     1  0.0000000  0.6508444  3
    709    707    708    720     1  0.0000000  1.0460000  1
    709    707    708    720     1  0.0000000  0.0000000  3
    709    707    708    710     1  0.0000000  0.6508444  3
    709    707    721    727     1  0.0000000  1.0460000  1
    709    707    721    727     1  0.0000000  0.0000000  3
    709    707    721    725     1  0.0000000  0.6508444  3
    709    707    721    726     1  0.0000000  0.6508444  3
    709    707    729    713     1  0.0000000  1.6038667  3
    710    708    711    712     1  0.0000000  0.6508444  3
    710    708    711    719     1  0.0000000  1.0460000  1
    710    708    711    719     1  0.0000000  0.0000000  3
    710    708    711    715     1  0.0000000  0.6508444  3
    710    708    720    723     1  0.0000000  0.6973333  3
    710    708    707    721     1  0.0000000  0.6508444  3
    710    708    707    729     1  0.0000000  1.0460000  1
    710    708    707    729     1  0.0000000  0.0000000  3
    711    712    713    716     1  0.0000000  0.6508444  3
    711    712    718    724     1  0.0000000  1.0460000  1
    711    712    718    724     1  0.0000000  0.6694400  3
    711    708    720    723     1  0.0000000  1.0460000  1
    711    708    720    723     1  0.0000000  0.6694400  3
    712    711    719    722     1  0.0000000  1.0460000  1
    712    711    719    722     1  0.0000000  0.6694400  3
    713    712    718    724     1  0.0000000  1.0460000  1
    713    712    718    724     1  0.0000000  0.6694400  3
    713    712    711    715     1  0.0000000  0.6508444  3
    714    712    713    717     1  0.0000000  1.0460000  1
    714    712    713    717     1  0.0000000  0.0000000  3
    714    712    713    729     1  0.0000000  1.0460000  1
    714    712    713    729     1  0.0000000  0.0000000  3
    714    712    713    716     1  0.0000000  0.6508444  3
    714    712    718    724     1  0.0000000  0.6973333  3
    714    712    711    719     1  0.0000000  1.0460000  1
    714    712    711    719     1  0.0000000  0.0000000  3
    714    712    711    715     1  0.0000000  0.6508444  3
    715    711    712    718     1  0.0000000  1.0460000  1
    715    711    712    718     1  0.0000000  0.0000000  3
    715    711    719    722     1  0.0000000  0.6973333  3
    715    711    708    720     1  0.0000000  1.0460000  1
    715    711    708    720     1  0.0000000  0.0000000  3
    716    713    712    718     1  0.0000000  0.6508444  3
    725    721    727    728     1  0.0000000  0.6973333  3
    725    721    707    729     1  0.0000000  1.0460000  1
    725    721    707    729     1  0.0000000  0.0000000  3
    726    721    727    728     1  0.0000000  0.6973333  3
    726    721    707    729     1  0.0000000  1.0460000  1
    726    721    707    729     1  0.0000000  0.0000000  3
    730    731    734    738     1  0.0000000  0.6508444  3
    730    731    743    746     1  0.0000000  1.0460000  1
    730    731    743    746     1  0.0000000  0.6694400  3
    730    744    750    751     1  0.0000000  1.0460000  1
    730    744    750    751     1  0.0000000  0.6694400  3
    730    752    736    739     1  0.0000000  1.6038667  3
    731    730    744    748     1  0.0000000  0.6508444  3
    731    730    744    749     1  0.0000000  0.6508444  3
    731    734    735    737     1  0.0000000  0.6508444  3
    731    734    742    745     1  0.0000000  1.0460000  1
    731    734    742    745     1  0.0000000  0.6694400  3
    732    730    731    734     1  0.0000000  0.6508444  3
    732    730    731    743     1  0.0000000  1.0460000  1
    732    730    731    743     1  0.0000000  0.0000000  3
    732    730    731    733     1  0.0000000  0.6508444  3
    732    730    744    750     1  0.0000000  1.0460000  1
    732    730    744    750     1  0.0000000  0.0000000  3
    732    730    744    748     1  0.0000000  0.6508444  3
    732    730    744    749     1  0.0000000  0.6508444  3
    732    730    752    736     1  0.0000000  1.6038667  3
    733    731    730    744     1  0.0000000  0.6508444  3
    733    731    730    752     1  0.0000000  1.0460000  1
    733    731    730    752     1  0.0000000  0.0000000  3
    733    731    734    735     1  0.0000000  0.6508444  3
    733    731    734    742     1  0.0000000  1.0460000  1
    733    731    734    742     1  0.0000000  0.0000000  3
    733    731    734    738     1  0.0000000  0.6508444  3
    733    731    743    746     1  0.0000000  0.6973333  3
    734    731    743    746     1  0.0000000  1.0460000  1
    734    731    743    746     1  0.0000000  0.6694400  3
    734    735    736    739     1  0.0000000  0.6508444  3
    734    735    741    747     1  0.0000000  1.0460000  1
    734    735    741    747     1  0.0000000  0.6694400  3
    735    734    742    745     1  0.0000000  1.0460000  1
    735    734    742    745     1  0.0000000  0.6694400  3
    736    735    734    738     1  0.0000000  0.6508444  3
    736    735    741    747     1  0.0000000  1.0460000  1
    736    735    741    747     1  0.0000000  0.6694400  3
    737    735    734    742     1  0.0000000  1.0460000  1
    737    735    734    742     1  0.0000000  0.0000000  3
    737    735    734    738     1  0.0000000  0.6508444  3
    737    735    736    740     1  0.0000000  1.0460000  1
    737    735    736    740     1  0.0000000  0.0000000  3
    737    735    736    752     1  0.0000000  1.0460000  1
    737    735    736    752     1  0.0000000  0.0000000  3
    737    735    736    739     1  0.0000000  0.6508444  3
    737    735    741    747     1  0.0000000  0.6973333  3
    738    734    731    743     1  0.0000000  1.0460000  1
    738    734    731    743     1  0.0000000  0.0000000  3
    738    734    735    741     1  0.0000000  1.0460000  1
    738    734    735    741     1  0.0000000  0.0000000  3
    738    734    742    745     1  0.0000000  0.6973333  3
    739    736    735    741     1  0.0000000  0.6508444  3
    748    744    730    752     1  0.0000000  1.0460000  1
    748    744    730    752     1  0.0000000  0.0000000  3
    748    744    750    751     1  0.0000000  0.6973333  3
    749    744    730    752     1  0.0000000  1.0460000  1
    749    744    730    752     1  0.0000000  0.0000000  3
    749    744    750    751     1  0.0000000  0.6973333  3
    753    754    757    761     1  0.0000000  0.6508444  3
    753    754    766    769     1  0.0000000  1.0460000  1
    753    754    766    769     1  0.0000000  0.6694400  3
    753    767    773    774     1  0.0000000  1.0460000  1
    753    767    773    774     1  0.0000000  0.6694400  3
    753    775    759    762     1  0.0000000  1.6038667  3
    754    757    758    760     1  0.0000000  0.6508444  3
    754    757    765    768     1  0.0000000  1.0460000  1
    754    757    765    768     1  0.0000000  0.6694400  3
    754    753    767    771     1  0.0000000  0.6508444  3
    754    753    767    772     1  0.0000000  0.6508444  3
    755    753    754    757     1  0.0000000  0.6508444  3
    755    753    754    766     1  0.0000000  1.0460000  1
    755    753    754    766     1  0.0000000  0.0000000  3
    755    753    754    756     1  0.0000000  0.6508444  3
    755    753    767    773     1  0.0000000  1.0460000  1
    755    753    767    773     1  0.0000000  0.0000000  3
    755    753    767    771     1  0.0000000  0.6508444  3
    755    753    767    772     1  0.0000000  0.6508444  3
    755    753    775    759     1  0.0000000  1.6038667  3
    756    754    757    758     1  0.0000000  0.6508444  3
    756    754    757    765     1  0.0000000  1.0460000  1
    756    754    757    765     1  0.0000000  0.0000000  3
    756    754    757    761     1  0.0000000  0.6508444  3
    756    754    766    769     1  0.0000000  0.6973333  3
    756    754    753    767     1  0.0000000  0.6508444  3
    756    754    753    775     1  0.0000000  1.0460000  1
    756    754    753    775     1  0.0000000  0.0000000  3
    757    758    759    762     1  0.0000000  0.6508444  3
    757    758    764    770     1  0.0000000  1.0460000  1
    757    758    764    770     1  0.0000000  0.6694400  3
    757    754    766    769     1  0.0000000  1.0460000  1
    757    754    766    769     1  0.0000000  0.6694400  3
    758    757    765    768     1  0.0000000  1.0460000  1
    758    757    765    768     1  0.0000000  0.6694400  3
    759    758    764    770     1  0.0000000  1.0460000  1
    759    758    764    770     1  0.0000000  0.6694400  3
    759    758    757    761     1  0.0000000  0.6508444  3
    760    758    759    763     1  0.0000000  1.0460000  1
    760    758    759    763     1  0.0000000  0.0000000  3
    760    758    759    775     1  0.0000000  1.0460000  1
    760    758    759    775     1  0.0000000  0.0000000  3
    760    758    759    762     1  0.0000000  0.6508444  3
    760    758    764    770     1  0.0000000  0.6973333  3
    760    758    757    765     1  0.0000000  1.0460000  1
    760    758    757    765     1  0.0000000  0.0000000  3
    760    758    757    761     1  0.0000000  0.6508444  3
    761    757    758    764     1  0.0000000  1.0460000  1
    761    757    758    764     1  0.0000000  0.0000000  3
    761    757    765    768     1  0.0000000  0.6973333  3
    761    757    754    766     1  0.0000000  1.0460000  1
    761    757    754    766     1  0.0000000  0.0000000  3
    762    759    758    764     1  0.0000000  0.6508444  3
    771    767    773    774     1  0.0000000  0.6973333  3
    771    767    753    775     1  0.0000000  1.0460000  1
    771    767    753    775     1  0.0000000  0.0000000  3
    772    767    773    774     1  0.0000000  0.6973333  3
    772    767    753    775     1  0.0000000  1.0460000  1
    772    767    753    775     1  0.0000000  0.0000000  3
    776    777    780    784     1  0.0000000  0.6508444  3
    776    777    789    792     1  0.0000000  1.0460000  1
    776    777    789    792     1  0.0000000  0.6694400  3
    776    790    796    797     1  0.0000000  1.0460000  1
    776    790    796    797     1  0.0000000  0.6694400  3
    776    798    782    785     1  0.0000000  1.6038667  3
    777    776    790    794     1  0.0000000  0.6508444  3
    777    776    790    795     1  0.0000000  0.6508444  3
    777    780    781    783     1  0.0000000  0.6508444  3
    777    780    788    791     1  0.0000000  1.0460000  1
    777    780    788    791     1  0.0000000  0.6694400  3
    778    776    777    780     1  0.0000000  0.6508444  3
    778    776    777    789     1  0.0000000  1.0460000  1
    778    776    777    789     1  0.0000000  0.0000000  3
    778    776    777    779     1  0.0000000  0.6508444  3
    778    776    790    796     1  0.0000000  1.0460000  1
    778    776    790    796     1  0.0000000  0.0000000  3
    778    776    790    794     1  0.0000000  0.6508444  3
    778    776    790    795     1  0.0000000  0.6508444  3
    778    776    798    782     1  0.0000000  1.6038667  3
    779    777    776    790     1  0.0000000  0.6508444  3
    779    777    776    798     1  0.0000000  1.0460000  1
    779    777    776    798     1  0.0000000  0.0000000  3
    779    777    780    781     1  0.0000000  0.6508444  3
    779    777    780    788     1  0.0000000  1.0460000  1
    779    777    780    788     1  0.0000000  0.0000000  3
    779    777    780    784     1  0.0000000  0.6508444  3
    779    777    789    792     1  0.0000000  0.6973333  3
    780    777    789    792     1  0.0000000  1.0460000  1
    780    777    789    792     1  0.0000000  0.6694400  3
    780    781    782    785     1  0.0000000  0.6508444  3
    780    781    787    793     1  0.0000000  1.0460000  1
    780    781    787    793     1  0.0000000  0.6694400  3
    781    780    788    791     1  0.0000000  1.0460000  1
    781    780    788    791     1  0.0000000  0.6694400  3
    782    781    780    784     1  0.0000000  0.6508444  3
    782    781    787    793     1  0.0000000  1.0460000  1
    782    781    787    793     1  0.0000000  0.6694400  3
    783    781    780    788     1  0.0000000  1.0460000  1
    783    781    780    788     1  0.0000000  0.0000000  3
    783    781    780    784     1  0.0000000  0.6508444  3
    783    781    782    786     1  0.0000000  1.0460000  1
    783    781    782    786     1  0.0000000  0.0000000  3
    783    781    782    798     1  0.0000000  1.0460000  1
    783    781    782    798     1  0.0000000  0.0000000  3
    783    781    782    785     1  0.0000000  0.6508444  3
    783    781    787    793     1  0.0000000  0.6973333  3
    784    780    777    789     1  0.0000000  1.0460000  1
    784    780    777    789     1  0.0000000  0.0000000  3
    784    780    781    787     1  0.0000000  1.0460000  1
    784    780    781    787     1  0.0000000  0.0000000  3
    784    780    788    791     1  0.0000000  0.6973333  3
    785    782    781    787     1  0.0000000  0.6508444  3
    794    790    776    798     1  0.0000000  1.0460000  1
    794    790    776    798     1  0.0000000  0.0000000  3
    794    790    796    797     1  0.0000000  0.6973333  3
    795    790    776    798     1  0.0000000  1.0460000  1
    795    790    776    798     1  0.0000000  0.0000000  3
    795    790    796    797     1  0.0000000  0.6973333  3
    799    800    803    807     1  0.0000000  0.6508444  3
    799    800    812    815     1  0.0000000  1.0460000  1
    799    800    812    815     1  0.0000000  0.6694400  3
    799    813    819    820     1  0.0000000  1.0460000  1
    799    813    819    820     1  0.0000000  0.6694400  3
    799    821    805    808     1  0.0000000  1.6038667  3
    800    803    804    806     1  0.0000000  0.6508444  3
    800    803    811    814     1  0.0000000  1.0460000  1
    800    803    811    814     1  0.0000000  0.6694400  3
    800    799    813    817     1  0.0000000  0.6508444  3
    800    799    813    818     1  0.0000000  0.6508444  3
    801    799    800    803     1  0.0000000  0.6508444  3
    801    799    800    812     1  0.0000000  1.0460000  1
    801    799    800    812     1  0.0000000  0.0000000  3
    801    799    800    802     1  0.0000000  0.6508444  3
    801    799    813    819     1  0.0000000  1.0460000  1
    801    799    813    819     1  0.0000000  0.0000000  3
    801    799    813    817     1  0.0000000  0.6508444  3
    801    799    813    818     1  0.0000000  0.6508444  3
    801    799    821    805     1  0.0000000  1.6038667  3
    802    800    803    804     1  0.0000000  0.6508444  3
    802    800    803    811     1  0.0000000  1.0460000  1
    802    800    803    811     1  0.0000000  0.0000000  3
    802    800    803    807     1  0.0000000  0.6508444  3
    802    800    812    815     1  0.0000000  0.6973333  3
    802    800    799    813     1  0.0000000  0.6508444  3
    802    800    799    821     1  0.0000000  1.0460000  1
    802    800    799    821     1  0.0000000  0.0000000  3
    803    804    805    808     1  0.0000000  0.6508444  3
    803    804    810    816     1  0.0000000  1.0460000  1
    803    804    810    816     1  0.0000000  0.6694400  3
    803    800    812    815     1  0.0000000  1.0460000  1
    803    800    812    815     1  0.0000000  0.6694400  3
    804    803    811    814     1  0.0000000  1.0460000  1
    804    803    811    814     1  0.0000000  0.6694400  3
    805    804    810    816     1  0.0000000  1.0460000  1
    805    804    810    816     1  0.0000000  0.6694400  3
    805    804    803    807     1  0.0000000  0.6508444  3
    806    804    805    809     1  0.0000000  1.0460000  1
    806    804    805    809     1  0.0000000  0.0000000  3
    806    804    805    821     1  0.0000000  1.0460000  1
    806    804    805    821     1  0.0000000  0.0000000  3
    806    804    805    808     1  0.0000000  0.6508444  3
    806    804    810    816     1  0.0000000  0.6973333  3
    806    804    803    811     1  0.0000000  1.0460000  1
    806    804    803    811     1  0.0000000  0.0000000  3
    806    804    803    807     1  0.0000000  0.6508444  3
    807    803    804    810     1  0.0000000  1.0460000  1
    807    803    804    810     1  0.0000000  0.0000000  3
    807    803    811    814     1  0.0000000  0.6973333  3
    807    803    800    812     1  0.0000000  1.0460000  1
    807    803    800    812     1  0.0000000  0.0000000  3
    808    805    804    810     1  0.0000000  0.6508444  3
    817    813    819    820     1  0.0000000  0.6973333  3
    817    813    799    821     1  0.0000000  1.0460000  1
    817    813    799    821     1  0.0000000  0.0000000  3
    818    813    819    820     1  0.0000000  0.6973333  3
    818    813    799    821     1  0.0000000  1.0460000  1
    818    813    799    821     1  0.0000000  0.0000000  3
    822    823    826    830     1  0.0000000  0.6508444  3
    822    823    835    838     1  0.0000000  1.0460000  1
    822    823    835    838     1  0.0000000  0.6694400  3
    822    836    842    843     1  0.0000000  1.0460000  1
    822    836    842    843     1  0.0000000  0.6694400  3
    822    844    828    831     1  0.0000000  1.6038667  3
    823    822    836    840     1  0.0000000  0.6508444  3
    823    822    836    841     1  0.0000000  0.6508444  3
    823    826    827    829     1  0.0000000  0.6508444  3
    823    826    834    837     1  0.0000000  1.0460000  1
    823    826    834    837     1  0.0000000  0.6694400  3
    824    822    823    826     1  0.0000000  0.6508444  3
    824    822    823    835     1  0.0000000  1.0460000  1
    824    822    823    835     1  0.0000000  0.0000000  3
    824    822    823    825     1  0.0000000  0.6508444  3
    824    822    836    842     1  0.0000000  1.0460000  1
    824    822    836    842     1  0.0000000  0.0000000  3
    824    822    836    840     1  0.0000000  0.6508444  3
    824    822    836    841     1  0.0000000  0.6508444  3
    824    822    844    828     1  0.0000000  1.6038667  3
    825    823    822    836     1  0.0000000  0.6508444  3
    825    823    822    844     1  0.0000000  1.0460000  1
    825    823    822    844     1  0.0000000  0.0000000  3
    825    823    826    827     1  0.0000000  0.6508444  3
    825    823    826    834     1  0.0000000  1.0460000  1
    825    823    826    834     1  0.0000000  0.0000000  3
    825    823    826    830     1  0.0000000  0.6508444  3
    825    823    835    838     1  0.0000000  0.6973333  3
    826    823    835    838     1  0.0000000  1.0460000  1
    826    823    835    838     1  0.0000000  0.6694400  3
    826    827    828    831     1  0.0000000  0.6508444  3
    826    827    833    839     1  0.0000000  1.0460000  1
    826    827    833    839     1  0.0000000  0.6694400  3
    827    826    834    837     1  0.0000000  1.0460000  1
    827    826    834    837     1  0.0000000  0.6694400  3
    828    827    826    830     1  0.0000000  0.6508444  3
    828    827    833    839     1  0.0000000  1.0460000  1
    828    827    833    839     1  0.0000000  0.6694400  3
    829    827    826    834     1  0.0000000  1.0460000  1
    829    827    826    834     1  0.0000000  0.0000000  3
    829    827    826    830     1  0.0000000  0.6508444  3
    829    827    828    832     1  0.0000000  1.0460000  1
    829    827    828    832     1  0.0000000  0.0000000  3
    829    827    828    844     1  0.0000000  1.0460000  1
    829    827    828    844     1  0.0000000  0.0000000  3
    829    827    828    831     1  0.0000000  0.6508444  3
    829    827    833    839     1  0.0000000  0.6973333  3
    830    826    823    835     1  0.0000000  1.0460000  1
    830    826    823    835     1  0.0000000  0.0000000  3
    830    826    827    833     1  0.0000000  1.0460000  1
    830    826    827    833     1  0.0000000  0.0000000  3
    830    826    834    837     1  0.0000000  0.6973333  3
    831    828    827    833     1  0.0000000  0.6508444  3
    840    836    822    844     1  0.0000000  1.0460000  1
    840    836    822    844     1  0.0000000  0.0000000  3
    840    836    842    843     1  0.0000000  0.6973333  3
    841    836    822    844     1  0.0000000  1.0460000  1
    841    836    822    844     1  0.0000000  0.0000000  3
    841    836    842    843     1  0.0000000  0.6973333  3
    845    846    849    853     1  0.0000000  0.6508444  3
    845    846    858    861     1  0.0000000  1.0460000  1
    845    846    858    861     1  0.0000000  0.6694400  3
    845    859    865    866     1  0.0000000  1.0460000  1
    845    859    865    866     1  0.0000000  0.6694400  3
    845    867    851    854     1  0.0000000  1.6038667  3
    846    849    850    852     1  0.0000000  0.6508444  3
    846    849    857    860     1  0.0000000  1.0460000  1
    846    849    857    860     1  0.0000000  0.6694400  3
    846    845    859    863     1  0.0000000  0.6508444  3
    846    845    859    864     1  0.0000000  0.6508444  3
    847    845    846    849     1  0.0000000  0.6508444  3
    847    845    846    858     1  0.0000000  1.0460000  1
    847    845    846    858     1  0.0000000  0.0000000  3
    847    845    846    848     1  0.0000000  0.6508444  3
    847    845    859    865     1  0.0000000  1.0460000  1
    847    845    859    865     1  0.0000000  0.0000000  3
    847    845    859    863     1  0.0000000  0.6508444  3
    847    845    859    864     1  0.0000000  0.6508444  3
    847    845    867    851     1  0.0000000  1.6038667  3
    848    846    849    850     1  0.0000000  0.6508444  3
    848    846    849    857     1  0.0000000  1.0460000  1
    848    846    849    857     1  0.0000000  0.0000000  3
    848    846    849    853     1  0.0000000  0.6508444  3
    848    846    858    861     1  0.0000000  0.6973333  3
    848    846    845    859     1  0.0000000  0.6508444  3
    848    846    845    867     1  0.0000000  1.0460000  1
    848    846    845    867     1  0.0000000  0.0000000  3
    849    850    851    854     1  0.0000000  0.6508444  3
    849    850    856    862     1  0.0000000  1.0460000  1
    849    850    856    862     1  0.0000000  0.6694400  3
    849    846    858    861     1  0.0000000  1.0460000  1
    849    846    858    861     1  0.0000000  0.6694400  3
    850    849    857    860     1  0.0000000  1.0460000  1
    850    849    857    860     1  0.0000000  0.6694400  3
    851    850    856    862     1  0.0000000  1.0460000  1
    851    850    856    862     1  0.0000000  0.6694400  3
    851    850    849    853     1  0.0000000  0.6508444  3
    852    850    851    855     1  0.0000000  1.0460000  1
    852    850    851    855     1  0.0000000  0.0000000  3
    852    850    851    867     1  0.0000000  1.0460000  1
    852    850    851    867     1  0.0000000  0.0000000  3
    852    850    851    854     1  0.0000000  0.6508444  3
    852    850    856    862     1  0.0000000  0.6973333  3
    852    850    849    857     1  0.0000000  1.0460000  1
    852    850    849    857     1  0.0000000  0.0000000  3
    852    850    849    853     1  0.0000000  0.6508444  3
    853    849    850    856     1  0.0000000  1.0460000  1
    853    849    850    856     1  0.0000000  0.0000000  3
    853    849    857    860     1  0.0000000  0.6973333  3
    853    849    846    858     1  0.0000000  1.0460000  1
    853    849    846    858     1  0.0000000  0.0000000  3
    854    851    850    856     1  0.0000000  0.6508444  3
    863    859    865    866     1  0.0000000  0.6973333  3
    863    859    845    867     1  0.0000000  1.0460000  1
    863    859    845    867     1  0.0000000  0.0000000  3
    864    859    865    866     1  0.0000000  0.6973333  3
    864    859    845    867     1  0.0000000  1.0460000  1
    864    859    845    867     1  0.0000000  0.0000000  3
    868    869    872    876     1  0.0000000  0.6508444  3
    868    869    881    884     1  0.0000000  1.0460000  1
    868    869    881    884     1  0.0000000  0.6694400  3
    868    882    888    889     1  0.0000000  1.0460000  1
    868    882    888    889     1  0.0000000  0.6694400  3
    868    890    874    877     1  0.0000000  1.6038667  3
    869    868    882    886     1  0.0000000  0.6508444  3
    869    868    882    887     1  0.0000000  0.6508444  3
    869    872    873    875     1  0.0000000  0.6508444  3
    869    872    880    883     1  0.0000000  1.0460000  1
    869    872    880    883     1  0.0000000  0.6694400  3
    870    868    869    872     1  0.0000000  0.6508444  3
    870    868    869    881     1  0.0000000  1.0460000  1
    870    868    869    881     1  0.0000000  0.0000000  3
    870    868    869    871     1  0.0000000  0.6508444  3
    870    868    882    888     1  0.0000000  1.0460000  1
    870    868    882    888     1  0.0000000  0.0000000  3
    870    868    882    886     1  0.0000000  0.6508444  3
    870    868    882    887     1  0.0000000  0.6508444  3
    870    868    890    874     1  0.0000000  1.6038667  3
    871    869    868    882     1  0.0000000  0.6508444  3
    871    869    868    890     1  0.0000000  1.0460000  1
    871    869    868    890     1  0.0000000  0.0000000  3
    871    869    872    873     1  0.0000000  0.6508444  3
    871    869    872    880     1  0.0000000  1.0460000  1
    871    869    872    880     1  0.0000000  0.0000000  3
    871    869    872    876     1  0.0000000  0.6508444  3
    871    869    881    884     1  0.0000000  0.6973333  3
    872    869    881    884     1  0.0000000  1.0460000  1
    872    869    881    884     1  0.0000000  0.6694400  3
    872    873    874    877     1  0.0000000  0.6508444  3
    872    873    879    885     1  0.0000000  1.0460000  1
    872    873    879    885     1  0.0000000  0.6694400  3
    873    872    880    883     1  0.0000000  1.0460000  1
    873    872    880    883     1  0.0000000  0.6694400  3
    874    873    872    876     1  0.0000000  0.6508444  3
    874    873    879    885     1  0.0000000  1.0460000  1
    874    873    879    885     1  0.0000000  0.6694400  3
    875    873    872    880     1  0.0000000  1.0460000  1
    875    873    872    880     1  0.0000000  0.0000000  3
    875    873    872    876     1  0.0000000  0.6508444  3
    875    873    874    878     1  0.0000000  1.0460000  1
    875    873    874    878     1  0.0000000  0.0000000  3
    875    873    874    890     1  0.0000000  1.0460000  1
    875    873    874    890     1  0.0000000  0.0000000  3
    875    873    874    877     1  0.0000000  0.6508444  3
    875    873    879    885     1  0.0000000  0.6973333  3
    876    872    869    881     1  0.0000000  1.0460000  1
    876    872    869    881     1  0.0000000  0.0000000  3
    876    872    873    879     1  0.0000000  1.0460000  1
    876    872    873    879     1  0.0000000  0.0000000  3
    876    872    880    883     1  0.0000000  0.6973333  3
    877    874    873    879     1  0.0000000  0.6508444  3
    886    882    868    890     1  0.0000000  1.0460000  1
    886    882    868    890     1  0.0000000  0.0000000  3
    886    882    888    889     1  0.0000000  0.6973333  3
    887    882    868    890     1  0.0000000  1.0460000  1
    887    882    868    890     1  0.0000000  0.0000000  3
    887    882    888    889     1  0.0000000  0.6973333  3
    891    892    895    899     1  0.0000000  0.6508444  3
    891    892    904    907     1  0.0000000  1.0460000  1
    891    892    904    907     1  0.0000000  0.6694400  3
    891    905    911    912     1  0.0000000  1.0460000  1
    891    905    911    912     1  0.0000000  0.6694400  3
    891    913    897    900     1  0.0000000  1.6038667  3
    892    895    896    898     1  0.0000000  0.6508444  3
    892    895    903    906     1  0.0000000  1.0460000  1
    892    895    903    906     1  0.0000000  0.6694400  3
    892    891    905    909     1  0.0000000  0.6508444  3
    892    891    905    910     1  0.0000000  0.6508444  3
    893    891    892    895     1  0.0000000  0.6508444  3
    893    891    892    904     1  0.0000000  1.0460000  1
    893    891    892    904     1  0.0000000  0.0000000  3
    893    891    892    894     1  0.0000000  0.6508444  3
    893    891    905    911     1  0.0000000  1.0460000  1
    893    891    905    911     1  0.0000000  0.0000000  3
    893    891    905    909     1  0.0000000  0.6508444  3
    893    891    905    910     1  0.0000000  0.6508444  3
    893    891    913    897     1  0.0000000  1.6038667  3
    894    892    895    896     1  0.0000000  0.6508444  3
    894    892    895    903     1  0.0000000  1.0460000  1
    894    892    895    903     1  0.0000000  0.0000000  3
    894    892    895    899     1  0.0000000  0.6508444  3
    894    892    904    907     1  0.0000000  0.6973333  3
    894    892    891    905     1  0.0000000  0.6508444  3
    894    892    891    913     1  0.0000000  1.0460000  1
    894    892    891    913     1  0.0000000  0.0000000  3
    895    896    897    900     1  0.0000000  0.6508444  3
    895    896    902    908     1  0.0000000  1.0460000  1
    895    896    902    908     1  0.0000000  0.6694400  3
    895    892    904    907     1  0.0000000  1.0460000  1
    895    892    904    907     1  0.0000000  0.6694400  3
    896    895    903    906     1  0.0000000  1.0460000  1
    896    895    903    906     1  0.0000000  0.6694400  3
    897    896    902    908     1  0.0000000  1.0460000  1
    897    896    902    908     1  0.0000000  0.6694400  3
    897    896    895    899     1  0.0000000  0.6508444  3
    898    896    897    901     1  0.0000000  1.0460000  1
    898    896    897    901     1  0.0000000  0.0000000  3
    898    896    897    913     1  0.0000000  1.0460000  1
    898    896    897    913     1  0.0000000  0.0000000  3
    898    896    897    900     1  0.0000000  0.6508444  3
    898    896    902    908     1  0.0000000  0.6973333  3
    898    896    895    903     1  0.0000000  1.0460000  1
    898    896    895    903     1  0.0000000  0.0000000  3
    898    896    895    899     1  0.0000000  0.6508444  3
    899    895    896    902     1  0.0000000  1.0460000  1
    899    895    896    902     1  0.0000000  0.0000000  3
    899    895    903    906     1  0.0000000  0.6973333  3
    899    895    892    904     1  0.0000000  1.0460000  1
    899    895    892    904     1  0.0000000  0.0000000  3
    900    897    896    902     1  0.0000000  0.6508444  3
    909    905    911    912     1  0.0000000  0.6973333  3
    909    905    891    913     1  0.0000000  1.0460000  1
    909    905    891    913     1  0.0000000  0.0000000  3
    910    905    911    912     1  0.0000000  0.6973333  3
    910    905    891    913     1  0.0000000  1.0460000  1
    910    905    891    913     1  0.0000000  0.0000000  3
    914    915    918    922     1  0.0000000  0.6508444  3
    914    915    927    930     1  0.0000000  1.0460000  1
    914    915    927    930     1  0.0000000  0.6694400  3
    914    928    934    935     1  0.0000000  1.0460000  1
    914    928    934    935     1  0.0000000  0.6694400  3
    914    936    920    923     1  0.0000000  1.6038667  3
    915    914    928    932     1  0.0000000  0.6508444  3
    915    914    928    933     1  0.0000000  0.6508444  3
    915    918    919    921     1  0.0000000  0.6508444  3
    915    918    926    929     1  0.0000000  1.0460000  1
    915    918    926    929     1  0.0000000  0.6694400  3
    916    914    915    918     1  0.0000000  0.6508444  3
    916    914    915    927     1  0.0000000  1.0460000  1
    916    914    915    927     1  0.0000000  0.0000000  3
    916    914    915    917     1  0.0000000  0.6508444  3
    916    914    928    934     1  0.0000000  1.0460000  1
    916    914    928    934     1  0.0000000  0.0000000  3
    916    914    928    932     1  0.0000000  0.6508444  3
    916    914    928    933     1  0.0000000  0.6508444  3
    916    914    936    920     1  0.0000000  1.6038667  3
    917    915    914    928     1  0.0000000  0.6508444  3
    917    915    914    936     1  0.0000000  1.0460000  1
    917    915    914    936     1  0.0000000  0.0000000  3
    917    915    918    919     1  0.0000000  0.6508444  3
    917    915    918    926     1  0.0000000  1.0460000  1
    917    915    918    926     1  0.0000000  0.0000000  3
    917    915    918    922     1  0.0000000  0.6508444  3
    917    915    927    930     1  0.0000000  0.6973333  3
    918    915    927    930     1  0.0000000  1.0460000  1
    918    915    927    930     1  0.0000000  0.6694400  3
    918    919    920    923     1  0.0000000  0.6508444  3
    918    919    925    931     1  0.0000000  1.0460000  1
    918    919    925    931     1  0.0000000  0.6694400  3
    919    918    926    929     1  0.0000000  1.0460000  1
    919    918    926    929     1  0.0000000  0.6694400  3
    920    919    918    922     1  0.0000000  0.6508444  3
    920    919    925    931     1  0.0000000  1.0460000  1
    920    919    925    931     1  0.0000000  0.6694400  3
    921    919    918    926     1  0.0000000  1.0460000  1
    921    919    918    926     1  0.0000000  0.0000000  3
    921    919    918    922     1  0.0000000  0.6508444  3
    921    919    920    924     1  0.0000000  1.0460000  1
    921    919    920    924     1  0.0000000  0.0000000  3
    921    919    920    936     1  0.0000000  1.0460000  1
    921    919    920    936     1  0.0000000  0.0000000  3
    921    919    920    923     1  0.0000000  0.6508444  3
    921    919    925    931     1  0.0000000  0.6973333  3
    922    918    915    927     1  0.0000000  1.0460000  1
    922    918    915    927     1  0.0000000  0.0000000  3
    922    918    919    925     1  0.0000000  1.0460000  1
    922    918    919    925     1  0.0000000  0.0000000  3
    922    918    926    929     1  0.0000000  0.6973333  3
    923    920    919    925     1  0.0000000  0.6508444  3
    932    928    914    936     1  0.0000000  1.0460000  1
    932    928    914    936     1  0.0000000  0.0000000  3
    932    928    934    935     1  0.0000000  0.6973333  3
    933    928    914    936     1  0.0000000  1.0460000  1
    933    928    914    936     1  0.0000000  0.0000000  3
    933    928    934    935     1  0.0000000  0.6973333  3
    937    938    941    945     1  0.0000000  0.6508444  3
    937    938    950    953     1  0.0000000  1.0460000  1
    937    938    950    953     1  0.0000000  0.6694400  3
    937    951    957    958     1  0.0000000  1.0460000  1
    937    951    957    958     1  0.0000000  0.6694400  3
    937    959    943    946     1  0.0000000  1.6038667  3
    938    941    942    944     1  0.0000000  0.6508444  3
    938    941    949    952     1  0.0000000  1.0460000  1
    938    941    949    952     1  0.0000000  0.6694400  3
    938    937    951    955     1  0.0000000  0.6508444  3
    938    937    951    956     1  0.0000000  0.6508444  3
    939    937    938    941     1  0.0000000  0.6508444  3
    939    937    938    950     1  0.0000000  1.0460000  1
    939    937    938    950     1  0.0000000  0.0000000  3
    939    937    938    940     1  0.0000000  0.6508444  3
    939    937    951    957     1  0.0000000  1.0460000  1
    939    937    951    957     1  0.0000000  0.0000000  3
    939    937    951    955     1  0.0000000  0.6508444  3
    939    937    951    956     1  0.0000000  0.6508444  3
    939    937    959    943     1  0.0000000  1.6038667  3
    940    938    941    942     1  0.0000000  0.6508444  3
    940    938    941    949     1  0.0000000  1.0460000  1
    940    938    941    949     1  0.0000000  0.0000000  3
    940    938    941    945     1  0.0000000  0.6508444  3
    940    938    950    953     1  0.0000000  0.6973333  3
    940    938    937    951     1  0.0000000  0.6508444  3
    940    938    937    959     1  0.0000000  1.0460000  1
    940    938    937    959     1  0.0000000  0.0000000  3
    941    942    943    946     1  0.0000000  0.6508444  3
    941    942    948    954     1  0.0000000  1.0460000  1
    941    942    948    954     1  0.0000000  0.6694400  3
    941    938    950    953     1  0.0000000  1.0460000  1
    941    938    950    953     1  0.0000000  0.6694400  3
    942    941    949    952     1  0.0000000  1.0460000  1
    942    941    949    952     1  0.0000000  0.6694400  3
    943    942    948    954     1  0.0000000  1.0460000  1
    943    942    948    954     1  0.0000000  0.6694400  3
    943    942    941    945     1  0.0000000  0.6508444  3
    944    942    943    947     1  0.0000000  1.0460000  1
    944    942    943    947     1  0.0000000  0.0000000  3
    944    942    943    959     1  0.0000000  1.0460000  1
    944    942    943    959     1  0.0000000  0.0000000  3
    944    942    943    946     1  0.0000000  0.6508444  3
    944    942    948    954     1  0.0000000  0.6973333  3
    944    942    941    949     1  0.0000000  1.0460000  1
    944    942    941    949     1  0.0000000  0.0000000  3
    944    942    941    945     1  0.0000000  0.6508444  3
    945    941    942    948     1  0.0000000  1.0460000  1
    945    941    942    948     1  0.0000000  0.0000000  3
    945    941    949    952     1  0.0000000  0.6973333  3
    945    941    938    950     1  0.0000000  1.0460000  1
    945    941    938    950     1  0.0000000  0.0000000  3
    946    943    942    948     1  0.0000000  0.6508444  3
    955    951    957    958     1  0.0000000  0.6973333  3
    955    951    937    959     1  0.0000000  1.0460000  1
    955    951    937    959     1  0.0000000  0.0000000  3
    956    951    957    958     1  0.0000000  0.6973333  3
    956    951    937    959     1  0.0000000  1.0460000  1
    956    951    937    959     1  0.0000000  0.0000000  3
    960    961    964    968     1  0.0000000  0.6508444  3
    960    961    973    976     1  0.0000000  1.0460000  1
    960    961    973    976     1  0.0000000  0.6694400  3
    960    974    980    981     1  0.0000000  1.0460000  1
    960    974    980    981     1  0.0000000  0.6694400  3
    960    982    966    969     1  0.0000000  1.6038667  3
    961    960    974    978     1  0.0000000  0.6508444  3
    961    960    974    979     1  0.0000000  0.6508444  3
    961    964    965    967     1  0.0000000  0.6508444  3
    961    964    972    975     1  0.0000000  1.0460000  1
    961    964    972    975     1  0.0000000  0.6694400  3
    962    960    961    964     1  0.0000000  0.6508444  3
    962    960    961    973     1  0.0000000  1.0460000  1
    962    960    961    973     1  0.0000000  0.0000000  3
    962    960    961    963     1  0.0000000  0.6508444  3
    962    960    974    980     1  0.0000000  1.0460000  1
    962    960    974    980     1  0.0000000  0.0000000  3
    962    960    974    978     1  0.0000000  0.6508444  3
    962    960    974    979     1  0.0000000  0.6508444  3
    962    960    982    966     1  0.0000000  1.6038667  3
    963    961    960    974     1  0.0000000  0.6508444  3
    963    961    960    982     1  0.0000000  1.0460000  1
    963    961    960    982     1  0.0000000  0.0000000  3
    963    961    964    965     1  0.0000000  0.6508444  3
    963    961    964    972     1  0.0000000  1.0460000  1
    963    961    964    972     1  0.0000000  0.0000000  3
    963    961    964    968     1  0.0000000  0.6508444  3
    963    961    973    976     1  0.0000000  0.6973333  3
    964    961    973    976     1  0.0000000  1.0460000  1
    964    961    973    976     1  0.0000000  0.6694400  3
    964    965    966    969     1  0.0000000  0.6508444  3
    964    965    971    977     1  0.0000000  1.0460000  1
    964    965    971    977     1  0.0000000  0.6694400  3
    965    964    972    975     1  0.0000000  1.0460000  1
    965    964    972    975     1  0.0000000  0.6694400  3
    966    965    964    968     1  0.0000000  0.6508444  3
    966    965    971    977     1  0.0000000  1.0460000  1
    966    965    971    977     1  0.0000000  0.6694400  3
    967    965    964    972     1  0.0000000  1.0460000  1
    967    965    964    972     1  0.0000000  0.0000000  3
    967    965    964    968     1  0.0000000  0.6508444  3
    967    965    966    970     1  0.0000000  1.0460000  1
    967    965    966    970     1  0.0000000  0.0000000  3
    967    965    966    982     1  0.0000000  1.0460000  1
    967    965    966    982     1  0.0000000  0.0000000  3
    967    965    966    969     1  0.0000000  0.6508444  3
    967    965    971    977     1  0.0000000  0.6973333  3
    968    964    961    973     1  0.0000000  1.0460000  1
    968    964    961    973     1  0.0000000  0.0000000  3
    968    964    965    971     1  0.0000000  1.0460000  1
    968    964    965    971     1  0.0000000  0.0000000  3
    968    964    972    975     1  0.0000000  0.6973333  3
    969    966    965    971     1  0.0000000  0.6508444  3
    978    974    960    982     1  0.0000000  1.0460000  1
    978    974    960    982     1  0.0000000  0.0000000  3
    978    974    980    981     1  0.0000000  0.6973333  3
    979    974    960    982     1  0.0000000  1.0460000  1
    979    974    960    982     1  0.0000000  0.0000000  3
    979    974    980    981     1  0.0000000  0.6973333  3
    983    984    987    991     1  0.0000000  0.6508444  3
    983    984    996    999     1  0.0000000  1.0460000  1
    983    984    996    999     1  0.0000000  0.6694400  3
    983    997   1003   1004     1  0.0000000  1.0460000  1
    983    997   1003   1004     1  0.0000000  0.6694400  3
    983   1005    989    992     1  0.0000000  1.6038667  3
    984    987    988    990     1  0.0000000  0.6508444  3
    984    987    995    998     1  0.0000000  1.0460000  1
    984    987    995    998     1  0.0000000  0.6694400  3
    984    983    997   1001     1  0.0000000  0.6508444  3
    984    983    997   1002     1  0.0000000  0.6508444  3
    985    983    984    987     1  0.0000000  0.6508444  3
    985    983    984    996     1  0.0000000  1.0460000  1
    985    983    984    996     1  0.0000000  0.0000000  3
    985    983    984    986     1  0.0000000  0.6508444  3
    985    983    997   1003     1  0.0000000  1.0460000  1
    985    983    997   1003     1  0.0000000  0.0000000  3
    985    983    997   1001     1  0.0000000  0.6508444  3
    985    983    997   1002     1  0.0000000  0.6508444  3
    985    983   1005    989     1  0.0000000  1.6038667  3
    986    984    987    988     1  0.0000000  0.6508444  3
    986    984    987    995     1  0.0000000  1.0460000  1
    986    984    987    995     1  0.0000000  0.0000000  3
    986    984    987    991     1  0.0000000  0.6508444  3
    986    984    996    999     1  0.0000000  0.6973333  3
    986    984    983    997     1  0.0000000  0.6508444  3
    986    984    983   1005     1  0.0000000  1.0460000  1
    986    984    983   1005     1  0.0000000  0.0000000  3
    987    988    989    992     1  0.0000000  0.6508444  3
    987    988    994   1000     1  0.0000000  1.0460000  1
    987    988    994   1000     1  0.0000000  0.6694400  3
    987    984    996    999     1  0.0000000  1.0460000  1
    987    984    996    999     1  0.0000000  0.6694400  3
    988    987    995    998     1  0.0000000  1.0460000  1
    988    987    995    998     1  0.0000000  0.6694400  3
    989    988    994   1000     1  0.0000000  1.0460000  1
    989    988    994   1000     1  0.0000000  0.6694400  3
    989    988    987    991     1  0.0000000  0.6508444  3
    990    988    989    993     1  0.0000000  1.0460000  1
    990    988    989    993     1  0.0000000  0.0000000  3
    990    988    989   1005     1  0.0000000  1.0460000  1
    990    988    989   1005     1  0.0000000  0.0000000  3
    990    988    989    992     1  0.0000000  0.6508444  3
    990    988    994   1000     1  0.0000000  0.6973333  3
    990    988    987    995     1  0.0000000  1.0460000  1
    990    988    987    995     1  0.0000000  0.0000000  3
    990    988    987    991     1  0.0000000  0.6508444  3
    991    987    988    994     1  0.0000000  1.0460000  1
    991    987    988    994     1  0.0000000  0.0000000  3
    991    987    995    998     1  0.0000000  0.6973333  3
    991    987    984    996     1  0.0000000  1.0460000  1
    991    987    984    996     1  0.0000000  0.0000000  3
    992    989    988    994     1  0.0000000  0.6508444  3
   1001    997   1003   1004     1  0.0000000  0.6973333  3
   1001    997    983   1005     1  0.0000000  1.0460000  1
   1001    997    983   1005     1  0.0000000  0.0000000  3
   1002    997   1003   1004     1  0.0000000  0.6973333  3
   1002    997    983   1005     1  0.0000000  1.0460000  1
   1002    997    983   1005     1  0.0000000  0.0000000  3
   1006   1007   1010   1014     1  0.0000000  0.6508444  3
   1006   1007   1019   1022     1  0.0000000  1.0460000  1
   1006   1007   1019   1022     1  0.0000000  0.6694400  3
   1006   1020   1026   1027     1  0.0000000  1.0460000  1
   1006   1020   1026   1027     1  0.0000000  0.6694400  3
   1006   1028   1012   1015     1  0.0000000  1.6038667  3
   1007   1006   1020   1024     1  0.0000000  0.6508444  3
   1007   1006   1020   1025     1  0.0000000  0.6508444  3
   1007   1010   1011   1013     1  0.0000000  0.6508444  3
   1007   1010   1018   1021     1  0.0000000  1.0460000  1
   1007   1010   1018   1021     1  0.0000000  0.6694400  3
   1008   1006   1007   1010     1  0.0000000  0.6508444  3
   1008   1006   1007   1019     1  0.0000000  1.0460000  1
   1008   1006   1007   1019     1  0.0000000  0.0000000  3
   1008   1006   1007   1009     1  0.0000000  0.6508444  3
   1008   1006   1020   1026     1  0.0000000  1.0460000  1
   1008   1006   1020   1026     1  0.0000000  0.0000000  3
   1008   1006   1020   1024     1  0.0000000  0.6508444  3
   1008   1006   1020   1025     1  0.0000000  0.6508444  3
   1008   1006   1028   1012     1  0.0000000  1.6038667  3
   1009   1007   1006   1020     1  0.0000000  0.6508444  3
   1009   1007   1006   1028     1  0.0000000  1.0460000  1
   1009   1007   1006   1028     1  0.0000000  0.0000000  3
   1009   1007   1010   1011     1  0.0000000  0.6508444  3
   1009   1007   1010   1018     1  0.0000000  1.0460000  1
   1009   1007   1010   1018     1  0.0000000  0.0000000  3
   1009   1007   1010   1014     1  0.0000000  0.6508444  3
   1009   1007   1019   1022     1  0.0000000  0.6973333  3
   1010   1007   1019   1022     1  0.0000000  1.0460000  1
   1010   1007   1019   1022     1  0.0000000  0.6694400  3
   1010   1011   1012   1015     1  0.0000000  0.6508444  3
   1010   1011   1017   1023     1  0.0000000  1.0460000  1
   1010   1011   1017   1023     1  0.0000000  0.6694400  3
   1011   1010   1018   1021     1  0.0000000  1.0460000  1
   1011   1010   1018   1021     1  0.0000000  0.6694400  3
   1012   1011   1010   1014     1  0.0000000  0.6508444  3
   1012   1011   1017   1023     1  0.0000000  1.0460000  1
   1012   1011   1017   1023     1  0.0000000  0.6694400  3
   1013   1011   1010   1018     1  0.0000000  1.0460000  1
   1013   1011   1010   1018     1  0.0000000  0.0000000  3
   1013   1011   1010   1014     1  0.0000000  0.6508444  3
   1013   1011   1012   1016     1  0.0000000  1.0460000  1
   1013   1011   1012   1016     1  0.0000000  0.0000000  3
   1013   1011   1012   1028     1  0.0000000  1.0460000  1
   1013   1011   1012   1028     1  0.0000000  0.0000000  3
   1013   1011   1012   1015     1  0.0000000  0.6508444  3
   1013   1011   1017   1023     1  0.0000000  0.6973333  3
   1014   1010   1007   1019     1  0.0000000  1.0460000  1
   1014   1010   1007   1019     1  0.0000000  0.0000000  3
   1014   1010   1011   1017     1  0.0000000  1.0460000  1
   1014   1010   1011   1017     1  0.0000000  0.0000000  3
   1014   1010   1018   1021     1  0.0000000  0.6973333  3
   1015   1012   1011   1017     1  0.0000000  0.6508444  3
   1024   1020   1006   1028     1  0.0000000  1.0460000  1
   1024   1020   1006   1028     1  0.0000000  0.0000000  3
   1024   1020   1026   1027     1  0.0000000  0.6973333  3
   1025   1020   1006   1028     1  0.0000000  1.0460000  1
   1025   1020   1006   1028     1  0.0000000  0.0000000  3
   1025   1020   1026   1027     1  0.0000000  0.6973333  3
   1029   1030   1033   1037     1  0.0000000  0.6508444  3
   1029   1030   1042   1045     1  0.0000000  1.0460000  1
   1029   1030   1042   1045     1  0.0000000  0.6694400  3
   1029   1043   1049   1050     1  0.0000000  1.0460000  1
   1029   1043   1049   1050     1  0.0000000  0.6694400  3
   1029   1051   1035   1038     1  0.0000000  1.6038667  3
   1030   1033   1034   1036     1  0.0000000  0.6508444  3
   1030   1033   1041   1044     1  0.0000000  1.0460000  1
   1030   1033   1041   1044     1  0.0000000  0.6694400  3
   1030   1029   1043   1047     1  0.0000000  0.6508444  3
   1030   1029   1043   1048     1  0.0000000  0.6508444  3
   1031   1029   1030   1033     1  0.0000000  0.6508444  3
   1031   1029   1030   1042     1  0.0000000  1.0460000  1
   1031   1029   1030   1042     1  0.0000000  0.0000000  3
   1031   1029   1030   1032     1  0.0000000  0.6508444  3
   1031   1029   1043   1049     1  0.0000000  1.0460000  1
   1031   1029   1043   1049     1  0.0000000  0.0000000  3
   1031   1029   1043   1047     1  0.0000000  0.6508444  3
   1031   1029   1043   1048     1  0.0000000  0.6508444  3
   1031   1029   1051   1035     1  0.0000000  1.6038667  3
   1032   1030   1033   1034     1  0.0000000  0.6508444  3
   1032   1030   1033   1041     1  0.0000000  1.0460000  1
   1032   1030   1033   1041     1  0.0000000  0.0000000  3
   1032   1030   1033   1037     1  0.0000000  0.6508444  3
   1032   1030   1042   1045     1  0.0000000  0.6973333  3
   1032   1030   1029   1043     1  0.0000000  0.6508444  3
   1032   1030   1029   1051     1  0.0000000  1.0460000  1
   1032   1030   1029   1051     1  0.0000000  0.0000000  3
   1033   1034   1035   1038     1  0.0000000  0.6508444  3
   1033   1034   1040   1046     1  0.0000000  1.0460000  1
   1033   1034   1040   1046     1  0.0000000  0.6694400  3
   1033   1030   1042   1045     1  0.0000000  1.0460000  1
   1033   1030   1042   1045     1  0.0000000  0.6694400  3
   1034   1033   1041   1044     1  0.0000000  1.0460000  1
   1034   1033   1041   1044     1  0.0000000  0.6694400  3
   1035   1034   1040   1046     1  0.0000000  1.0460000  1
   1035   1034   1040   1046     1  0.0000000  0.6694400  3
   1035   1034   1033   1037     1  0.0000000  0.6508444  3
   1036   1034   1035   1039     1  0.0000000  1.0460000  1
   1036   1034   1035   1039     1  0.0000000  0.0000000  3
   1036   1034   1035   1051     1  0.0000000  1.0460000  1
   1036   1034   1035   1051     1  0.0000000  0.0000000  3
   1036   1034   1035   1038     1  0.0000000  0.6508444  3
   1036   1034   1040   1046     1  0.0000000  0.6973333  3
   1036   1034   1033   1041     1  0.0000000  1.0460000  1
   1036   1034   1033   1041     1  0.0000000  0.0000000  3
   1036   1034   1033   1037     1  0.0000000  0.6508444  3
   1037   1033   1034   1040     1  0.0000000  1.0460000  1
   1037   1033   1034   1040     1  0.0000000  0.0000000  3
   1037   1033   1041   1044     1  0.0000000  0.6973333  3
   1037   1033   1030   1042     1  0.0000000  1.0460000  1
   1037   1033   1030   1042     1  0.0000000  0.0000000  3
   1038   1035   1034   1040     1  0.0000000  0.6508444  3
   1047   1043   1049   1050     1  0.0000000  0.6973333  3
   1047   1043   1029   1051     1  0.0000000  1.0460000  1
   1047   1043   1029   1051     1  0.0000000  0.0000000  3
   1048   1043   1049   1050     1  0.0000000  0.6973333  3
   1048   1043   1029   1051     1  0.0000000  1.0460000  1
   1048   1043   1029   1051     1  0.0000000  0.0000000  3
   1052   1053   1056   1060     1  0.0000000  0.6508444  3
   1052   1053   1065   1068     1  0.0000000  1.0460000  1
   1052   1053   1065   1068     1  0.0000000  0.6694400  3
   1052   1066   1072   1073     1  0.0000000  1.0460000  1
   1052   1066   1072   1073     1  0.0000000  0.6694400  3
   1052   1074   1058   1061     1  0.0000000  1.6038667  3
   1053   1052   1066   1070     1  0.0000000  0.6508444  3
   1053   1052   1066   1071     1  0.0000000  0.6508444  3
   1053   1056   1057   1059     1  0.0000000  0.6508444  3
   1053   1056   1064   1067     1  0.0000000  1.0460000  1
   1053   1056   1064   1067     1  0.0000000  0.6694400  3
   1054   1052   1053   1056     1  0.0000000  0.6508444  3
   1054   1052   1053   1065     1  0.0000000  1.0460000  1
   1054   1052   1053   1065     1  0.0000000  0.0000000  3
   1054   1052   1053   1055     1  0.0000000  0.6508444  3
   1054   1052   1066   1072     1  0.0000000  1.0460000  1
   1054   1052   1066   1072     1  0.0000000  0.0000000  3
   1054   1052   1066   1070     1  0.0000000  0.6508444  3
   1054   1052   1066   1071     1  0.0000000  0.6508444  3
   1054   1052   1074   1058     1  0.0000000  1.6038667  3
   1055   1053   1052   1066     1  0.0000000  0.6508444  3
   1055   1053   1052   1074     1  0.0000000  1.0460000  1
   1055   1053   1052   1074     1  0.0000000  0.0000000  3
   1055   1053   1056   1057     1  0.0000000  0.6508444  3
   1055   1053   1056   1064     1  0.0000000  1.0460000  1
   1055   1053   1056   1064     1  0.0000000  0.0000000  3
   1055   1053   1056   1060     1  0.0000000  0.6508444  3
   1055   1053   1065   1068     1  0.0000000  0.6973333  3
   1056   1053   1065   1068     1  0.0000000  1.0460000  1
   1056   1053   1065   1068     1  0.0000000  0.6694400  3
   1056   1057   1058   1061     1  0.0000000  0.6508444  3
   1056   1057   1063   1069     1  0.0000000  1.0460000  1
   1056   1057   1063   1069     1  0.0000000  0.6694400  3
   1057   1056   1064   1067     1  0.0000000  1.0460000  1
   1057   1056   1064   1067     1  0.0000000  0.6694400  3
   1058   1057   1056   1060     1  0.0000000  0.6508444  3
   1058   1057   1063   1069     1  0.0000000  1.0460000  1
   1058   1057   1063   1069     1  0.0000000  0.6694400  3
   1059   1057   1056   1064     1  0.0000000  1.0460000  1
   1059   1057   1056   1064     1  0.0000000  0.0000000  3
   1059   1057   1056   1060     1  0.0000000  0.6508444  3
   1059   1057   1058   1062     1  0.0000000  1.0460000  1
   1059   1057   1058   1062     1  0.0000000  0.0000000  3
   1059   1057   1058   1074     1  0.0000000  1.0460000  1
   1059   1057   1058   1074     1  0.0000000  0.0000000  3
   1059   1057   1058   1061     1  0.0000000  0.6508444  3
   1059   1057   1063   1069     1  0.0000000  0.6973333  3
   1060   1056   1053   1065     1  0.0000000  1.0460000  1
   1060   1056   1053   1065     1  0.0000000  0.0000000  3
   1060   1056   1057   1063     1  0.0000000  1.0460000  1
   1060   1056   1057   1063     1  0.0000000  0.0000000  3
   1060   1056   1064   1067     1  0.0000000  0.6973333  3
   1061   1058   1057   1063     1  0.0000000  0.6508444  3
   1070   1066   1052   1074     1  0.0000000  1.0460000  1
   1070   1066   1052   1074     1  0.0000000  0.0000000  3
   1070   1066   1072   1073     1  0.0000000  0.6973333  3
   1071   1066   1052   1074     1  0.0000000  1.0460000  1
   1071   1066   1052   1074     1  0.0000000  0.0000000  3
   1071   1066   1072   1073     1  0.0000000  0.6973333  3
   1075   1076   1079   1083     1  0.0000000  0.6508444  3
   1075   1076   1088   1091     1  0.0000000  1.0460000  1
   1075   1076   1088   1091     1  0.0000000  0.6694400  3
   1075   1089   1095   1096     1  0.0000000  1.0460000  1
   1075   1089   1095   1096     1  0.0000000  0.6694400  3
   1075   1097   1081   1084     1  0.0000000  1.6038667  3
   1076   1079   1080   1082     1  0.0000000  0.6508444  3
   1076   1079   1087   1090     1  0.0000000  1.0460000  1
   1076   1079   1087   1090     1  0.0000000  0.6694400  3
   1076   1075   1089   1093     1  0.0000000  0.6508444  3
   1076   1075   1089   1094     1  0.0000000  0.6508444  3
   1077   1075   1076   1079     1  0.0000000  0.6508444  3
   1077   1075   1076   1088     1  0.0000000  1.0460000  1
   1077   1075   1076   1088     1  0.0000000  0.0000000  3
   1077   1075   1076   1078     1  0.0000000  0.6508444  3
   1077   1075   1089   1095     1  0.0000000  1.0460000  1
   1077   1075   1089   1095     1  0.0000000  0.0000000  3
   1077   1075   1089   1093     1  0.0000000  0.6508444  3
   1077   1075   1089   1094     1  0.0000000  0.6508444  3
   1077   1075   1097   1081     1  0.0000000  1.6038667  3
   1078   1076   1079   1080     1  0.0000000  0.6508444  3
   1078   1076   1079   1087     1  0.0000000  1.0460000  1
   1078   1076   1079   1087     1  0.0000000  0.0000000  3
   1078   1076   1079   1083     1  0.0000000  0.6508444  3
   1078   1076   1088   1091     1  0.0000000  0.6973333  3
   1078   1076   1075   1089     1  0.0000000  0.6508444  3
   1078   1076   1075   1097     1  0.0000000  1.0460000  1
   1078   1076   1075   1097     1  0.0000000  0.0000000  3
   1079   1080   1081   1084     1  0.0000000  0.6508444  3
   1079   1080   1086   1092     1  0.0000000  1.0460000  1
   1079   1080   1086   1092     1  0.0000000  0.6694400  3
   1079   1076   1088   1091     1  0.0000000  1.0460000  1
   1079   1076   1088   1091     1  0.0000000  0.6694400  3
   1080   1079   1087   1090     1  0.0000000  1.0460000  1
   1080   1079   1087   1090     1  0.0000000  0.6694400  3
   1081   1080   1086   1092     1  0.0000000  1.0460000  1
   1081   1080   1086   1092     1  0.0000000  0.6694400  3
   1081   1080   1079   1083     1  0.0000000  0.6508444  3
   1082   1080   1081   1085     1  0.0000000  1.0460000  1
   1082   1080   1081   1085     1  0.0000000  0.0000000  3
   1082   1080   1081   1097     1  0.0000000  1.0460000  1
   1082   1080   1081   1097     1  0.0000000  0.0000000  3
   1082   1080   1081   1084     1  0.0000000  0.6508444  3
   1082   1080   1086   1092     1  0.0000000  0.6973333  3
   1082   1080   1079   1087     1  0.0000000  1.0460000  1
   1082   1080   1079   1087     1  0.0000000  0.0000000  3
   1082   1080   1079   1083     1  0.0000000  0.6508444  3
   1083   1079   1080   1086     1  0.0000000  1.0460000  1
   1083   1079   1080   1086     1  0.0000000  0.0000000  3
   1083   1079   1087   1090     1  0.0000000  0.6973333  3
   1083   1079   1076   1088     1  0.0000000  1.0460000  1
   1083   1079   1076   1088     1  0.0000000  0.0000000  3
   1084   1081   1080   1086     1  0.0000000  0.6508444  3
   1093   1089   1095   1096     1  0.0000000  0.6973333  3
   1093   1089   1075   1097     1  0.0000000  1.0460000  1
   1093   1089   1075   1097     1  0.0000000  0.0000000  3
   1094   1089   1095   1096     1  0.0000000  0.6973333  3
   1094   1089   1075   1097     1  0.0000000  1.0460000  1
   1094   1089   1075   1097     1  0.0000000  0.0000000  3
   1098   1099   1102   1106     1  0.0000000  0.6508444  3
   1098   1099   1111   1114     1  0.0000000  1.0460000  1
   1098   1099   1111   1114     1  0.0000000  0.6694400  3
   1098   1112   1118   1119     1  0.0000000  1.0460000  1
   1098   1112   1118   1119     1  0.0000000  0.6694400  3
   1098   1120   1104   1107     1  0.0000000  1.6038667  3
   1099   1098   1112   1116     1  0.0000000  0.6508444  3
   1099   1098   1112   1117     1  0.0000000  0.6508444  3
   1099   1102   1103   1105     1  0.0000000  0.6508444  3
   1099   1102   1110   1113     1  0.0000000  1.0460000  1
   1099   1102   1110   1113     1  0.0000000  0.6694400  3
   1100   1098   1099   1102     1  0.0000000  0.6508444  3
   1100   1098   1099   1111     1  0.0000000  1.0460000  1
   1100   1098   1099   1111     1  0.0000000  0.0000000  3
   1100   1098   1099   1101     1  0.0000000  0.6508444  3
   1100   1098   1112   1118     1  0.0000000  1.0460000  1
   1100   1098   1112   1118     1  0.0000000  0.0000000  3
   1100   1098   1112   1116     1  0.0000000  0.6508444  3
   1100   1098   1112   1117     1  0.0000000  0.6508444  3
   1100   1098   1120   1104     1  0.0000000  1.6038667  3
   1101   1099   1098   1112     1  0.0000000  0.6508444  3
   1101   1099   1098   1120     1  0.0000000  1.0460000  1
   1101   1099   1098   1120     1  0.0000000  0.0000000  3
   1101   1099   1102   1103     1  0.0000000  0.6508444  3
   1101   1099   1102   1110     1  0.0000000  1.0460000  1
   1101   1099   1102   1110     1  0.0000000  0.0000000  3
   1101   1099   1102   1106     1  0.0000000  0.6508444  3
   1101   1099   1111   1114     1  0.0000000  0.6973333  3
   1102   1099   1111   1114     1  0.0000000  1.0460000  1
   1102   1099   1111   1114     1  0.0000000  0.6694400  3
   1102   1103   1104   1107     1  0.0000000  0.6508444  3
   1102   1103   1109   1115     1  0.0000000  1.0460000  1
   1102   1103   1109   1115     1  0.0000000  0.6694400  3
   1103   1102   1110   1113     1  0.0000000  1.0460000  1
   1103   1102   1110   1113     1  0.0000000  0.6694400  3
   1104   1103   1102   1106     1  0.0000000  0.6508444  3
   1104   1103   1109   1115     1  0.0000000  1.0460000  1
   1104   1103   1109   1115     1  0.0000000  0.6694400  3
   1105   1103   1102   1110     1  0.0000000  1.0460000  1
   1105   1103   1102   1110     1  0.0000000  0.0000000  3
   1105   1103   1102   1106     1  0.0000000  0.6508444  3
   1105   1103   1104   1108     1  0.0000000  1.0460000  1
   1105   1103   1104   1108     1  0.0000000  0.0000000  3
   1105   1103   1104   1120     1  0.0000000  1.0460000  1
   1105   1103   1104   1120     1  0.0000000  0.0000000  3
   1105   1103   1104   1107     1  0.0000000  0.6508444  3
   1105   1103   1109   1115     1  0.0000000  0.6973333  3
   1106   1102   1099   1111     1  0.0000000  1.0460000  1
   1106   1102   1099   1111     1  0.0000000  0.0000000  3
   1106   1102   1103   1109     1  0.0000000  1.0460000  1
   1106   1102   1103   1109     1  0.0000000  0.0000000  3
   1106   1102   1110   1113     1  0.0000000  0.6973333  3
   1107   1104   1103   1109     1  0.0000000  0.6508444  3
   1116   1112   1098   1120     1  0.0000000  1.0460000  1
   1116   1112   1098   1120     1  0.0000000  0.0000000  3
   1116   1112   1118   1119     1  0.0000000  0.6973333  3
   1117   1112   1098   1120     1  0.0000000  1.0460000  1
   1117   1112   1098   1120     1  0.0000000  0.0000000  3
   1117   1112   1118   1119     1  0.0000000  0.6973333  3
   1121   1122   1125   1129     1  0.0000000  0.6508444  3
   1121   1122   1134   1137     1  0.0000000  1.0460000  1
   1121   1122   1134   1137     1  0.0000000  0.6694400  3
   1121   1135   1141   1142     1  0.0000000  1.0460000  1
   1121   1135   1141   1142     1  0.0000000  0.6694400  3
   1121   1143   1127   1130     1  0.0000000  1.6038667  3
   1122   1125   1126   1128     1  0.0000000  0.6508444  3
   1122   1125   1133   1136     1  0.0000000  1.0460000  1
   1122   1125   1133   1136     1  0.0000000  0.6694400  3
   1122   1121   1135   1139     1  0.0000000  0.6508444  3
   1122   1121   1135   1140     1  0.0000000  0.6508444  3
   1123   1121   1122   1125     1  0.0000000  0.6508444  3
   1123   1121   1122   1134     1  0.0000000  1.0460000  1
   1123   1121   1122   1134     1  0.0000000  0.0000000  3
   1123   1121   1122   1124     1  0.0000000  0.6508444  3
   1123   1121   1135   1141     1  0.0000000  1.0460000  1
   1123   1121   1135   1141     1  0.0000000  0.0000000  3
   1123   1121   1135   1139     1  0.0000000  0.6508444  3
   1123   1121   1135   1140     1  0.0000000  0.6508444  3
   1123   1121   1143   1127     1  0.0000000  1.6038667  3
   1124   1122   1125   1126     1  0.0000000  0.6508444  3
   1124   1122   1125   1133     1  0.0000000  1.0460000  1
   1124   1122   1125   1133     1  0.0000000  0.0000000  3
   1124   1122   1125   1129     1  0.0000000  0.6508444  3
   1124   1122   1134   1137     1  0.0000000  0.6973333  3
   1124   1122   1121   1135     1  0.0000000  0.6508444  3
   1124   1122   1121   1143     1  0.0000000  1.0460000  1
   1124   1122   1121   1143     1  0.0000000  0.0000000  3
   1125   1126   1127   1130     1  0.0000000  0.6508444  3
   1125   1126   1132   1138     1  0.0000000  1.0460000  1
   1125   1126   1132   1138     1  0.0000000  0.6694400  3
   1125   1122   1134   1137     1  0.0000000  1.0460000  1
   1125   1122   1134   1137     1  0.0000000  0.6694400  3
   1126   1125   1133   1136     1  0.0000000  1.0460000  1
   1126   1125   1133   1136     1  0.0000000  0.6694400  3
   1127   1126   1132   1138     1  0.0000000  1.0460000  1
   1127   1126   1132   1138     1  0.0000000  0.6694400  3
   1127   1126   1125   1129     1  0.0000000  0.6508444  3
   1128   1126   1127   1131     1  0.0000000  1.0460000  1
   1128   1126   1127   1131     1  0.0000000  0.0000000  3
   1128   1126   1127   1143     1  0.0000000  1.0460000  1
   1128   1126   1127   1143     1  0.0000000  0.0000000  3
   1128   1126   1127   1130     1  0.0000000  0.6508444  3
   1128   1126   1132   1138     1  0.0000000  0.6973333  3
   1128   1126   1125   1133     1  0.0000000  1.0460000  1
   1128   1126   1125   1133     1  0.0000000  0.0000000  3
   1128   1126   1125   1129     1  0.0000000  0.6508444  3
   1129   1125   1126   1132     1  0.0000000  1.0460000  1
   1129   1125   1126   1132     1  0.0000000  0.0000000  3
   1129   1125   1133   1136     1  0.0000000  0.6973333  3
   1129   1125   1122   1134     1  0.0000000  1.0460000  1
   1129   1125   1122   1134     1  0.0000000  0.0000000  3
   1130   1127   1126   1132     1  0.0000000  0.6508444  3
   1139   1135   1141   1142     1  0.0000000  0.6973333  3
   1139   1135   1121   1143     1  0.0000000  1.0460000  1
   1139   1135   1121   1143     1  0.0000000  0.0000000  3
   1140   1135   1141   1142     1  0.0000000  0.6973333  3
   1140   1135   1121   1143     1  0.0000000  1.0460000  1
   1140   1135   1121   1143     1  0.0000000  0.0000000  3
   1144   1145   1148   1152     1  0.0000000  0.6508444  3
   1144   1145   1157   1160     1  0.0000000  1.0460000  1
   1144   1145   1157   1160     1  0.0000000  0.6694400  3
   1144   1158   1164   1165     1  0.0000000  1.0460000  1
   1144   1158   1164   1165     1  0.0000000  0.6694400  3
   1144   1166   1150   1153     1  0.0000000  1.6038667  3
   1145   1144   1158   1162     1  0.0000000  0.6508444  3
   1145   1144   1158   1163     1  0.0000000  0.6508444  3
   1145   1148   1149   1151     1  0.0000000  0.6508444  3
   1145   1148   1156   1159     1  0.0000000  1.0460000  1
   1145   1148   1156   1159     1  0.0000000  0.6694400  3
   1146   1144   1145   1148     1  0.0000000  0.6508444  3
   1146   1144   1145   1157     1  0.0000000  1.0460000  1
   1146   1144   1145   1157     1  0.0000000  0.0000000  3
   1146   1144   1145   1147     1  0.0000000  0.6508444  3
   1146   1144   1158   1164     1  0.0000000  1.0460000  1
   1146   1144   1158   1164     1  0.0000000  0.0000000  3
   1146   1144   1158   1162     1  0.0000000  0.6508444  3
   1146   1144   1158   1163     1  0.0000000  0.6508444  3
   1146   1144   1166   1150     1  0.0000000  1.6038667  3
   1147   1145   1144   1158     1  0.0000000  0.6508444  3
   1147   1145   1144   1166     1  0.0000000  1.0460000  1
   1147   1145   1144   1166     1  0.0000000  0.0000000  3
   1147   1145   1148   1149     1  0.0000000  0.6508444  3
   1147   1145   1148   1156     1  0.0000000  1.0460000  1
   1147   1145   1148   1156     1  0.0000000  0.0000000  3
   1147   1145   1148   1152     1  0.0000000  0.6508444  3
   1147   1145   1157   1160     1  0.0000000  0.6973333  3
   1148   1145   1157   1160     1  0.0000000  1.0460000  1
   1148   1145   1157   1160     1  0.0000000  0.6694400  3
   1148   1149   1150   1153     1  0.0000000  0.6508444  3
   1148   1149   1155   1161     1  0.0000000  1.0460000  1
   1148   1149   1155   1161     1  0.0000000  0.6694400  3
   1149   1148   1156   1159     1  0.0000000  1.0460000  1
   1149   1148   1156   1159     1  0.0000000  0.6694400  3
   1150   1149   1148   1152     1  0.0000000  0.6508444  3
   1150   1149   1155   1161     1  0.0000000  1.0460000  1
   1150   1149   1155   1161     1  0.0000000  0.6694400  3
   1151   1149   1148   1156     1  0.0000000  1.0460000  1
   1151   1149   1148   1156     1  0.0000000  0.0000000  3
   1151   1149   1148   1152     1  0.0000000  0.6508444  3
   1151   1149   1150   1154     1  0.0000000  1.0460000  1
   1151   1149   1150   1154     1  0.0000000  0.0000000  3
   1151   1149   1150   1166     1  0.0000000  1.0460000  1
   1151   1149   1150   1166     1  0.0000000  0.0000000  3
   1151   1149   1150   1153     1  0.0000000  0.6508444  3
   1151   1149   1155   1161     1  0.0000000  0.6973333  3
   1152   1148   1145   1157     1  0.0000000  1.0460000  1
   1152   1148   1145   1157     1  0.0000000  0.0000000  3
   1152   1148   1149   1155     1  0.0000000  1.0460000  1
   1152   1148   1149   1155     1  0.0000000  0.0000000  3
   1152   1148   1156   1159     1  0.0000000  0.6973333  3
   1153   1150   1149   1155     1  0.0000000  0.6508444  3
   1162   1158   1144   1166     1  0.0000000  1.0460000  1
   1162   1158   1144   1166     1  0.0000000  0.0000000  3
   1162   1158   1164   1165     1  0.0000000  0.6973333  3
   1163   1158   1144   1166     1  0.0000000  1.0460000  1
   1163   1158   1144   1166     1  0.0000000  0.0000000  3
   1163   1158   1164   1165     1  0.0000000  0.6973333  3
   1167   1168   1171   1175     1  0.0000000  0.6508444  3
   1167   1168   1180   1183     1  0.0000000  1.0460000  1
   1167   1168   1180   1183     1  0.0000000  0.6694400  3
   1167   1181   1187   1188     1  0.0000000  1.0460000  1
   1167   1181   1187   1188     1  0.0000000  0.6694400  3
   1167   1189   1173   1176     1  0.0000000  1.6038667  3
   1168   1171   1172   1174     1  0.0000000  0.6508444  3
   1168   1171   1179   1182     1  0.0000000  1.0460000  1
   1168   1171   1179   1182     1  0.0000000  0.6694400  3
   1168   1167   1181   1185     1  0.0000000  0.6508444  3
   1168   1167   1181   1186     1  0.0000000  0.6508444  3
   1169   1167   1168   1171     1  0.0000000  0.6508444  3
   1169   1167   1168   1180     1  0.0000000  1.0460000  1
   1169   1167   1168   1180     1  0.0000000  0.0000000  3
   1169   1167   1168   1170     1  0.0000000  0.6508444  3
   1169   1167   1181   1187     1  0.0000000  1.0460000  1
   1169   1167   1181   1187     1  0.0000000  0.0000000  3
   1169   1167   1181   1185     1  0.0000000  0.6508444  3
   1169   1167   1181   1186     1  0.0000000  0.6508444  3
   1169   1167   1189   1173     1  0.0000000  1.6038667  3
   1170   1168   1171   1172     1  0.0000000  0.6508444  3
   1170   1168   1171   1179     1  0.0000000  1.0460000  1
   1170   1168   1171   1179     1  0.0000000  0.0000000  3
   1170   1168   1171   1175     1  0.0000000  0.6508444  3
   1170   1168   1180   1183     1  0.0000000  0.6973333  3
   1170   1168   1167   1181     1  0.0000000  0.6508444  3
   1170   1168   1167   1189     1  0.0000000  1.0460000  1
   1170   1168   1167   1189     1  0.0000000  0.0000000  3
   1171   1172   1173   1176     1  0.0000000  0.6508444  3
   1171   1172   1178   1184     1  0.0000000  1.0460000  1
   1171   1172   1178   1184     1  0.0000000  0.6694400  3
   1171   1168   1180   1183     1  0.0000000  1.0460000  1
   1171   1168   1180   1183     1  0.0000000  0.6694400  3
   1172   1171   1179   1182     1  0.0000000  1.0460000  1
   1172   1171   1179   1182     1  0.0000000  0.6694400  3
   1173   1172   1178   1184     1  0.0000000  1.0460000  1
   1173   1172   1178   1184     1  0.0000000  0.6694400  3
   1173   1172   1171   1175     1  0.0000000  0.6508444  3
   1174   1172   1173   1177     1  0.0000000  1.0460000  1
   1174   1172   1173   1177     1  0.0000000  0.0000000  3
   1174   1172   1173   1189     1  0.0000000  1.0460000  1
   1174   1172   1173   1189     1  0.0000000  0.0000000  3
   1174   1172   1173   1176     1  0.0000000  0.6508444  3
   1174   1172   1178   1184     1  0.0000000  0.6973333  3
   1174   1172   1171   1179     1  0.0000000  1.0460000  1
   1174   1172   1171   1179     1  0.0000000  0.0000000  3
   1174   1172   1171   1175     1  0.0000000  0.6508444  3
   1175   1171   1172   1178     1  0.0000000  1.0460000  1
   1175   1171   1172   1178     1  0.0000000  0.0000000  3
   1175   1171   1179   1182     1  0.0000000  0.6973333  3
   1175   1171   1168   1180     1  0.0000000  1.0460000  1
   1175   1171   1168   1180     1  0.0000000  0.0000000  3
   1176   1173   1172   1178     1  0.0000000  0.6508444  3
   1185   1181   1187   1188     1  0.0000000  0.6973333  3
   1185   1181   1167   1189     1  0.0000000  1.0460000  1
   1185   1181   1167   1189     1  0.0000000  0.0000000  3
   1186   1181   1187   1188     1  0.0000000  0.6973333  3
   1186   1181   1167   1189     1  0.0000000  1.0460000  1
   1186   1181   1167   1189     1  0.0000000  0.0000000  3

;[ system ]
;; Name
;Generic title
;
;[ molecules ]
;; Compound       #mols
;g2npncore_petim_betagalactose        1
