G2NPncore-PETIM in water
56298
    1aaa     N1    1   7.804   7.377   5.626 -0.5526  0.3439  0.1114
    1aaa     C1    2   7.656   7.401   5.634 -0.3933 -0.1069 -0.1632
    1aaa     H1    3   7.639   7.454   5.728 -0.6841 -2.1584  0.9988
    1aaa     H2    4   7.621   7.460   5.548  2.5206  0.0078 -1.3837
    1aaa     C2    5   7.884   7.500   5.606 -0.0207  0.5249  0.1454
    1aaa     H3    6   7.990   7.478   5.588 -0.2024 -0.1754 -0.0867
    1aaa     H4    7   7.862   7.566   5.521  1.0512  0.8478  0.0994
    1aaa     C3    8   7.863   7.274   5.725 -0.1163  0.4222 -0.0851
    1aaa     H5    9   7.853   7.312   5.828 -0.1093  2.1863 -0.6913
    1aaa     H6   10   7.813   7.177   5.716 -0.6584  0.8048 -1.3511
    1aaa     C4   11   8.011   7.239   5.708  0.2806 -0.0774  0.0234
    1aaa     H7   12   8.018   7.176   5.618  0.0995  0.7353 -0.5666
    1aaa     H8   13   8.068   7.332   5.698  1.7246 -1.0121 -0.8827
    1aaa     C5   14   7.571   7.258   5.644 -0.1317 -0.1120 -0.0551
    1aaa     H9   15   7.609   7.193   5.564  0.6951  2.2543 -1.7327
    1aaa    H10   16   7.602   7.205   5.735 -3.3027 -2.6123 -0.2710
    1aaa     C6   17   7.890   7.596   5.725  0.8728  0.0451  0.5300
    1aaa    H11   18   7.797   7.654   5.727  1.3487  0.8130  0.7621
    1aaa    H12   19   7.899   7.549   5.824  2.6109  0.0173  0.3834
    1aaa     C7   20   7.996   7.710   5.711  0.3612 -0.1304  0.9684
    1aaa    H13   21   8.000   7.754   5.610 -0.1652 -2.5144 -0.1726
    1aaa    H14   22   7.974   7.784   5.788 -1.0215  1.4780 -0.8642
    1aaa     C8   23   8.060   7.162   5.834  0.4543  0.0848 -0.1832
    1aaa    H15   24   8.000   7.071   5.847  2.5916 -1.2386  1.0012
    1aaa    H16   25   8.160   7.129   5.800  1.1493  1.0192  0.9005
    1aaa     C9   26   7.422   7.267   5.657  0.2121 -1.0294 -0.1550
    1aaa    H17   27   7.384   7.165   5.673 -0.9159 -0.6520 -0.3547
    1aaa    H18   28   7.384   7.322   5.744 -2.6444 -1.0700 -1.2834
    2bbb     N1   29   8.617   7.670   5.743  0.0001 -0.4360 -0.1151
    2bbb     C1   30   8.639   7.612   5.874 -0.2892  0.3949 -0.4614
    2bbb     H1   31   8.745   7.585   5.876  0.2348  1.7561 -3.7584
    2bbb     H2   32   8.581   7.520   5.886  3.1882 -1.8591  0.5578
    2bbb     C2   33   8.648   7.577   5.633 -0.1425  0.3912 -0.8663
    2bbb     H3   34   8.581   7.592   5.548 -1.6064 -2.4138 -0.3078
    2bbb     H4   35   8.617   7.478   5.667  1.1006 -0.3083 -1.6827
    2bbb     C3   36   8.489   7.744   5.725  0.3543 -0.2797  0.0043
    2bbb     H5   37   8.486   7.780   5.622  1.8554  0.4543  0.1943
    2bbb     H6   38   8.478   7.828   5.795  0.3575  0.1042 -0.4496
    2bbb     C4   39   8.370   7.656   5.735 -0.0059  0.4216  0.1140
    2bbb     H7   40   8.365   7.595   5.826 -0.8165  0.3687  0.0488
    2bbb     H8   41   8.365   7.585   5.651 -1.8745 -2.5398  2.5261
    2bbb     C5   42   8.615   7.698   6.003  0.7253  0.6753  0.4298
    2bbb     H9   43   8.506   7.700   6.016  0.7525  1.3297  0.6120
    2bbb    H10   44   8.656   7.797   5.976  2.0357 -0.1396 -0.7090
    2bbb     C6   45   8.796   7.574   5.597 -0.2563 -0.8614 -0.1134
    2bbb    H11   46   8.860   7.589   5.685 -2.7625  1.3590  1.4513
    2bbb    H12   47   8.799   7.672   5.548 -1.5794  1.0196  3.2590
    2bbb     C7   48   8.236   7.739   5.727  0.0424  0.2836  0.7925
    2bbb    H13   49   8.236   7.791   5.631  2.0462  0.4431  0.8263
    2bbb    H14   50   8.234   7.804   5.816  4.5491  0.8240  0.7309
    2bbb     C8   51   8.841   7.451   5.509 -0.3188  0.1212 -0.0315
    2bbb    H15   52   8.817   7.354   5.555 -0.6061  0.4989  0.6434
    2bbb    H16   53   8.949   7.445   5.493 -0.3314  1.8490 -0.9713
    2bbb     C9   54   8.699   7.632   6.117  0.1246  0.1839 -0.2383
    2bbb    H17   55   8.726   7.690   6.205 -0.4821  0.7325 -0.3985
    2bbb    H18   56   8.801   7.612   6.083  0.4801  0.5404  0.6145
    2bbb     O1   57   8.129   7.643   5.736  0.6255  0.0798 -0.0715
    3bbb     N1   58   8.078   7.642   6.154  0.3875 -0.0328 -0.5057
    3bbb     C1   59   8.076   7.625   6.301 -0.8512 -0.5004 -0.4274
    3bbb     H1   60   8.108   7.523   6.323  1.3134 -0.3276 -2.4760
    3bbb     H2   61   7.972   7.635   6.337 -1.4718 -1.2996 -1.9306
    3bbb     C2   62   8.010   7.756   6.097 -0.2117  0.4290  0.1765
    3bbb     H3   63   7.915   7.776   6.147  0.2656 -0.2170  1.3998
    3bbb     H4   64   8.003   7.721   5.994  1.5112  0.7158 -0.0698
    3bbb     C3   65   8.071   7.520   6.072  0.2055 -0.0724  0.2012
    3bbb     H5   66   8.077   7.548   5.966  1.0578 -0.1603  0.2239
    3bbb     H6   67   7.977   7.470   6.100  1.2175 -1.6918  0.8063
    3bbb     C4   68   8.183   7.421   6.083 -0.0154  0.4670 -0.1203
    3bbb     H7   69   8.162   7.358   6.171 -1.7696  0.1201 -0.7364
    3bbb     H8   70   8.284   7.460   6.101 -0.2381  0.5952  0.9549
    3bbb     C5   71   8.169   7.723   6.382  0.5452 -0.0888  0.3548
    3bbb     H9   72   8.163   7.698   6.489 -2.1273  2.2433  0.8986
    3bbb    H10   73   8.117   7.820   6.373 -2.2020 -1.5059 -0.0315
    3bbb     C6   74   8.101   7.883   6.089 -0.3103  0.3418  0.5720
    3bbb    H11   75   8.183   7.863   6.019  0.5405  1.7177  1.1283
    3bbb    H12   76   8.151   7.901   6.185  0.1702  0.4443  0.3075
    3bbb     C7   77   8.187   7.330   5.956  0.1982  0.5528 -0.6178
    3bbb    H13   78   8.272   7.260   5.965  0.7064  1.0280 -1.6075
    3bbb    H14   79   8.204   7.384   5.863  0.9632  1.9558  0.3027
    3bbb     C8   80   8.016   8.005   6.041  0.4813 -0.1282  1.0630
    3bbb    H15   81   8.064   8.098   6.075 -1.4176  2.1057 -1.8397
    3bbb    H16   82   7.916   8.024   6.083 -0.3914  0.2751 -1.0337
    3bbb     C9   83   8.312   7.725   6.339  0.8901  0.1663  0.3440
    3bbb    H17   84   8.315   7.708   6.230 -0.7417  0.0744  0.2795
    3bbb    H18   85   8.382   7.651   6.380  2.5065  0.5574 -1.5581
    3bbb     O1   86   8.071   7.246   5.952  0.2120 -0.4464  0.1743
    4bbb     N1   87   7.283   7.721   5.438 -0.2212 -0.2052 -0.2860
    4bbb     C1   88   7.353   7.786   5.325 -0.2019  0.8243 -0.0026
    4bbb     H1   89   7.459   7.757   5.324 -0.4800 -0.2296 -1.2531
    4bbb     H2   90   7.321   7.891   5.324  0.2322  0.9896 -2.4225
    4bbb     C2   91   7.325   7.772   5.569 -0.9377 -0.5416  0.1923
    4bbb     H3   92   7.262   7.730   5.648 -2.3659 -1.2414 -1.2712
    4bbb     H4   93   7.302   7.879   5.573 -0.6905 -0.5076  2.8055
    4bbb     C3   94   7.277   7.570   5.432 -0.3202 -0.1505 -0.8753
    4bbb     H5   95   7.382   7.538   5.420  0.6894  2.5924 -0.1756
    4bbb     H6   96   7.221   7.533   5.346  0.0626 -0.2492 -1.0876
    4bbb     C4   97   7.229   7.503   5.562 -0.5565  0.6385  0.0087
    4bbb     H7   98   7.125   7.535   5.581 -1.6632 -2.1646 -0.8223
    4bbb     H8   99   7.288   7.530   5.650 -0.9965  1.2156  0.1373
    4bbb     C5  100   7.316   7.738   5.183 -0.4539  0.6316 -0.6393
    4bbb     H9  101   7.207   7.733   5.171 -0.5012 -1.0056  0.1581
    4bbb    H10  102   7.328   7.629   5.174  1.1285  0.9328 -3.2709
    4bbb     C6  103   7.474   7.750   5.602 -0.6389 -0.8196 -0.5717
    4bbb    H11  104   7.539   7.804   5.531 -1.9273  0.6844 -0.6784
    4bbb    H12  105   7.507   7.646   5.612  2.6303  0.1884  0.7158
    4bbb     C7  106   7.231   7.353   5.540 -0.0514 -0.1307 -0.4582
    4bbb    H13  107   7.180   7.317   5.450  0.6536  0.1064 -0.9657
    4bbb    H14  108   7.185   7.304   5.626 -0.8814  0.6711 -0.4395
    4bbb     C8  109   7.517   7.821   5.733 -0.0271  0.0331 -0.6085
    4bbb    H15  110   7.445   7.898   5.765  0.0247 -0.4795  0.8472
    4bbb    H16  111   7.612   7.872   5.717 -0.7889  1.9299  0.5627
    4bbb     C9  112   7.400   7.804   5.063  0.3951 -0.2625 -0.7918
    4bbb    H17  113   7.385   7.913   5.064  2.6718  0.1088 -0.5749
    4bbb    H18  114   7.351   7.773   4.970  0.9253  2.0101 -1.9193
    4bbb     O1  115   7.371   7.319   5.528 -0.0551  0.0251 -0.1934
    5bbb     N1  116   8.529   7.330   5.043  0.6078  0.0929 -0.2895
    5bbb     C1  117   8.395   7.262   5.054  0.1577 -0.4860  0.1825
    5bbb     H1  118   8.354   7.260   4.952  0.5941 -2.2137  0.0009
    5bbb     H2  119   8.322   7.310   5.119 -0.2044 -0.7867  0.0067
    5bbb     C2  120   8.510   7.470   4.983 -0.3250 -0.4980  0.0377
    5bbb     H3  121   8.614   7.504   4.975  0.4378 -2.2448  1.7681
    5bbb     H4  122   8.455   7.545   5.042 -0.4586  2.2108 -3.1985
    5bbb     C3  123   8.593   7.332   5.180 -0.2422 -0.8502  0.3801
    5bbb     H5  124   8.597   7.228   5.214  1.5599 -0.5691  1.1605
    5bbb     H6  125   8.537   7.398   5.247 -0.2511 -0.0730 -0.3793
    5bbb     C4  126   8.748   7.378   5.157 -0.0473  0.4064  0.1206
    5bbb     H7  127   8.760   7.472   5.102 -1.5438  0.7849  0.3864
    5bbb     H8  128   8.790   7.312   5.080 -0.7611 -0.5236  0.5030
    5bbb     C5  129   8.404   7.117   5.095 -0.4193 -0.2087 -0.1549
    5bbb     H9  130   8.309   7.062   5.092 -0.0667 -1.1049  2.4394
    5bbb    H10  131   8.438   7.104   5.199 -0.8100 -0.3606 -0.0424
    5bbb     C6  132   8.437   7.480   4.849 -0.4528 -0.1963  0.1060
    5bbb    H11  133   8.328   7.472   4.862 -0.2492 -0.3392  1.8955
    5bbb    H12  134   8.474   7.398   4.787 -0.9324 -0.5639  0.3050
    5bbb     C7  135   8.832   7.361   5.289  0.1944 -0.4810  0.1670
    5bbb    H13  136   8.937   7.377   5.263 -0.0034 -0.5293 -0.6928
    5bbb    H14  137   8.821   7.266   5.342 -0.6223  0.1721  1.1999
    5bbb     C8  138   8.483   7.609   4.776  0.3083  0.2877  0.9759
    5bbb    H15  139   8.582   7.588   4.735  0.4090 -1.8988  2.2071
    5bbb    H16  140   8.494   7.691   4.848  2.2603  1.8074 -0.9319
    5bbb     C9  141   8.501   7.034   4.998 -0.6111 -0.0737  0.4323
    5bbb    H17  142   8.564   7.105   4.942  3.5231 -1.9545  2.3403
    5bbb    H18  143   8.438   6.977   4.928  1.2812 -0.6309 -0.9141
    5bbb     O1  144   8.788   7.464   5.376  0.1711  0.0545  0.2459
    6bbb     N1  145   8.530   7.096   6.221 -0.4556 -0.4703  0.0799
    6bbb     C1  146   8.583   7.031   6.343  0.0636  0.3948 -1.0903
    6bbb     H1  147   8.539   6.933   6.362  2.2411 -0.4712 -0.1441
    6bbb     H2  148   8.549   7.090   6.430  0.4343 -0.8190 -0.0924
    6bbb     C2  149   8.376   7.084   6.217  0.0262 -0.7557 -0.1811
    6bbb     H3  150   8.326   7.177   6.190  0.2268 -0.4330  0.5299
    6bbb     H4  151   8.348   7.060   6.320  2.4395 -2.0836  0.2591
    6bbb     C3  152   8.596   7.227   6.190 -0.1130 -0.2850 -0.7309
    6bbb     H5  153   8.539   7.274   6.109 -3.5242 -0.6625  1.2485
    6bbb     H6  154   8.697   7.197   6.160  0.6450 -1.0757  2.2280
    6bbb     C4  155   8.589   7.330   6.311 -0.1650 -0.0810  0.1519
    6bbb     H7  156   8.624   7.284   6.404  1.5286 -1.2154 -0.9732
    6bbb     H8  157   8.485   7.358   6.328  0.6143  2.3296  1.4603
    6bbb     C5  158   8.738   7.013   6.355 -0.5134  0.1836  0.5143
    6bbb     H9  159   8.800   7.102   6.344 -1.7433  1.0746  0.6140
    6bbb    H10  160   8.769   6.931   6.289 -1.9043 -0.3576  0.4940
    6bbb     C6  161   8.318   6.973   6.134  0.4495 -0.5119 -0.0488
    6bbb    H11  162   8.349   6.878   6.179 -0.1736 -0.0256  1.4732
    6bbb    H12  163   8.354   6.975   6.031 -2.3060 -0.1308 -1.0802
    6bbb     C7  164   8.678   7.455   6.277 -0.0310 -0.1441 -0.2374
    6bbb    H13  165   8.779   7.421   6.251  0.1250  0.4840 -0.4978
    6bbb    H14  166   8.688   7.521   6.364  3.2248  0.4342 -0.9002
    6bbb     C8  167   8.163   6.969   6.129  0.0316 -0.0448  0.3222
    6bbb    H15  168   8.120   6.879   6.084 -2.9761  0.4988  1.8382
    6bbb    H16  169   8.126   7.058   6.076  0.0060 -0.0708  0.2969
    6bbb     C9  170   8.780   6.974   6.492  0.2227 -0.3562  0.0927
    6bbb    H17  171   8.889   6.968   6.485  0.7690  4.3946  0.9399
    6bbb    H18  172   8.731   6.879   6.518 -0.8694  0.4372  1.0399
    6bbb     O1  173   8.633   7.515   6.159  0.6358  0.3921  0.1194
    7bbb     N1  174   7.783   8.219   5.596  0.8078 -0.1834 -0.1974
    7bbb     C1  175   7.791   8.347   5.517  0.0658  0.1074 -0.0855
    7bbb     H1  176   7.692   8.355   5.470  0.2456 -1.3978 -0.7792
    7bbb     H2  177   7.865   8.336   5.437 -0.5834 -0.7201 -0.5939
    7bbb     C2  178   7.661   8.137   5.565  0.4645 -0.0261  0.1281
    7bbb     H3  179   7.667   8.035   5.605  1.2965 -0.3740 -0.8387
    7bbb     H4  180   7.657   8.126   5.456  0.8464 -0.6831  0.1772
    7bbb     C3  181   7.905   8.136   5.579  0.2003 -0.1394 -0.2550
    7bbb     H5  182   7.991   8.204   5.579  0.1523 -0.0438  1.4731
    7bbb     H6  183   7.908   8.088   5.480  1.4444  0.0854 -0.3416
    7bbb     C4  184   7.919   8.025   5.683  0.1809 -0.8580 -0.6850
    7bbb     H7  185   8.020   7.987   5.667  0.1945 -1.2687  0.3158
    7bbb     H8  186   7.859   7.933   5.678  0.3651 -1.2328  2.3212
    7bbb     C5  187   7.819   8.475   5.611 -0.1700  0.1804 -0.0062
    7bbb     H9  188   7.879   8.412   5.677  0.6591 -0.5066 -1.3593
    7bbb    H10  189   7.734   8.447   5.674 -0.8333  2.5888  0.2582
    7bbb     C6  190   7.529   8.198   5.621 -0.2648  0.3060  0.4550
    7bbb    H11  191   7.453   8.121   5.607 -0.8002  0.2439  3.0980
    7bbb    H12  192   7.498   8.290   5.569  2.1905  0.4791 -0.8565
    7bbb     C7  193   7.919   8.084   5.831 -0.0575  0.7117  0.3850
    7bbb    H13  194   7.818   8.087   5.874 -0.5396  1.0357 -0.7297
    7bbb    H14  195   7.965   8.183   5.840  3.2941 -0.7041  0.0292
    7bbb     C8  196   7.538   8.231   5.775  0.3572 -0.3791 -0.1796
    7bbb    H15  197   7.592   8.323   5.799  0.4462  0.0568 -1.9000
    7bbb    H16  198   7.599   8.152   5.821 -0.1686  0.0733  1.3120
    7bbb     C9  199   7.883   8.726   5.578  0.9404 -0.3761  0.2564
    7bbb    H17  200   7.966   8.748   5.509  0.7005  0.6423  0.2855
    7bbb    H18  201   7.943   8.773   5.657 -0.8918  0.1810  1.3736
    7bbb     O1  202   8.008   7.995   5.903  0.2463 -0.1944 -0.1514
    8bbb     N1  203   8.503   8.160   6.060  0.1495 -0.4568  0.1528
    8bbb     C1  204   8.477   8.298   6.111  0.0868  0.6974  0.8545
    8bbb     H1  205   8.495   8.297   6.219  0.4591  0.0284  0.7943
    8bbb     H2  206   8.369   8.316   6.095 -0.1007 -2.1456 -2.0453
    8bbb     C2  207   8.480   8.147   5.912 -0.8147  0.2745  0.1000
    8bbb     H3  208   8.510   8.046   5.884 -2.7486 -0.4714  0.5838
    8bbb     H4  209   8.536   8.224   5.856 -2.7352  1.4749 -0.2691
    8bbb     C3  210   8.446   8.050   6.144 -0.0718  0.0544  0.1173
    8bbb     H5  211   8.456   7.959   6.084 -0.0768  1.1245 -1.5872
    8bbb     H6  212   8.340   8.068   6.162 -0.8303 -1.1126 -2.7120
    8bbb     C4  213   8.519   8.017   6.270  0.5079 -0.2636 -0.2110
    8bbb     H7  214   8.481   8.085   6.347  1.7228  0.8165 -0.5296
    8bbb     H8  215   8.626   8.041   6.259  0.1876  1.9843  1.0844
    8bbb     C5  216   8.564   8.408   6.047  0.7982  0.3733  0.0814
    8bbb     H9  217   8.530   8.444   5.949 -3.0623  0.7219  1.3633
    8bbb    H10  218   8.667   8.372   6.035  0.8572  0.6392 -0.2324
    8bbb     C6  219   8.334   8.167   5.870 -0.1962  0.3050  0.8631
    8bbb    H11  220   8.301   8.271   5.853  2.4960  1.1396  0.3129
    8bbb    H12  221   8.273   8.130   5.953 -2.0863  2.1452  0.3840
    8bbb     C7  222   8.503   7.876   6.314  0.1233  0.1988  0.2646
    8bbb    H13  223   8.572   7.850   6.396 -1.8022 -0.7437  1.6619
    8bbb    H14  224   8.536   7.815   6.229  1.4330  0.6176  0.4455
    8bbb     C8  225   8.304   8.083   5.741  0.0766  0.4979  0.0125
    8bbb    H15  226   8.196   8.064   5.752  0.0834  1.4388  2.1736
    8bbb    H16  227   8.351   7.985   5.724  0.5067  0.7981 -0.5768
    8bbb     C9  228   8.576   8.529   6.146  0.0632  0.0869  0.9488
    8bbb    H17  229   8.641   8.596   6.090 -1.9751  3.7986  2.6805
    8bbb    H18  230   8.627   8.504   6.240  1.4637  0.7542  0.3759
    8bbb     O1  231   8.363   7.862   6.363 -0.0561  0.2703 -0.3927
    9bbb     N1  232   7.597   7.404   6.114  0.2713 -0.5570  0.3730
    9bbb     C1  233   7.661   7.288   6.042  0.7072 -0.5696  0.6718
    9bbb     H1  234   7.769   7.304   6.030  0.7143 -1.2499 -0.3627
    9bbb     H2  235   7.624   7.283   5.939 -1.2587  1.8789  1.1594
    9bbb     C2  236   7.599   7.412   6.269  0.3244  0.2218  0.4365
    9bbb     H3  237   7.568   7.313   6.305  0.3742 -1.4957 -3.6526
    9bbb     H4  238   7.526   7.487   6.302 -2.5295 -3.3404  3.1606
    9bbb     C3  239   7.632   7.532   6.030 -0.1186 -0.0118 -0.1158
    9bbb     H5  240   7.587   7.510   5.932 -0.3267  2.9735 -0.7962
    9bbb     H6  241   7.740   7.547   6.019 -0.2683  1.7419  0.4164
    9bbb     C4  242   7.589   7.673   6.071 -0.1124  0.1865 -0.5607
    9bbb     H7  243   7.629   7.712   6.165 -2.5386  1.4575  0.0195
    9bbb     H8  244   7.481   7.668   6.087 -0.1221 -0.2698 -0.7555
    9bbb     C5  245   7.640   7.149   6.105 -0.0079 -0.0726 -1.6957
    9bbb     H9  246   7.533   7.132   6.124 -0.0851  1.6925 -0.1950
    9bbb    H10  247   7.681   7.142   6.207 -1.5922 -1.3164 -1.1029
    9bbb     C6  248   7.747   7.441   6.322  0.6394 -0.1502 -0.6182
    9bbb    H11  249   7.783   7.536   6.281  0.7248  1.2581  2.4084
    9bbb    H12  250   7.816   7.359   6.297  1.4013 -0.0574  1.0466
    9bbb     C7  251   7.604   7.771   5.955  0.1007 -0.1389 -0.3664
    9bbb    H13  252   7.711   7.768   5.932  0.4295  0.3404  0.9652
    9bbb    H14  253   7.574   7.871   5.988  1.1985  0.2300 -0.4508
    9bbb     C8  254   7.753   7.445   6.477 -0.0548 -0.3319 -0.3762
    9bbb    H15  255   7.852   7.407   6.505 -0.2959 -0.7798 -0.1118
    9bbb    H16  256   7.676   7.378   6.517 -3.0211  2.5145 -0.8965
    9bbb     C9  257   7.705   7.034   6.023  0.0051 -0.2732  0.0171
    9bbb    H17  258   7.810   7.059   6.002 -0.3491 -1.3178 -3.6803
    9bbb    H18  259   7.657   7.021   5.925  0.7343 -3.1684 -0.0284
    9bbb     O1  260   7.517   7.731   5.847  0.6631 -0.1270  0.3386
   10bbb     N1  261   7.952   7.619   5.021 -0.3877  0.1275  0.4713
   10bbb     C1  262   7.999   7.619   5.161 -0.0031 -0.2061 -0.1101
   10bbb     H1  263   7.933   7.547   5.211  0.0487  0.5771  1.1185
   10bbb     H2  264   7.982   7.720   5.199  0.6297  0.4242 -1.4362
   10bbb     C2  265   8.043   7.643   4.904  0.5227  0.6782 -0.4936
   10bbb     H3  266   7.990   7.597   4.820  1.3484  0.1263 -0.7211
   10bbb     H4  267   8.137   7.591   4.924 -0.7956 -1.7007 -0.0783
   10bbb     C3  268   7.817   7.678   5.005  0.6453 -0.5132 -1.0058
   10bbb     H5  269   7.785   7.664   4.901  0.2848  0.9463 -1.1111
   10bbb     H6  270   7.804   7.783   5.035  2.0907 -0.7619  0.6197
   10bbb     C4  271   7.718   7.605   5.099  0.1936 -0.0224 -0.0850
   10bbb     H7  272   7.720   7.652   5.198  1.9548 -0.3549  0.0756
   10bbb     H8  273   7.743   7.499   5.091 -2.0029 -0.5001 -1.3471
   10bbb     C5  274   8.143   7.580   5.190  0.7203 -0.0996  0.3334
   10bbb     H9  275   8.209   7.641   5.127  0.4043 -0.4296 -0.3205
   10bbb    H10  276   8.158   7.478   5.151  2.0815 -0.4260  1.5853
   10bbb     C6  277   8.081   7.793   4.888 -0.5737  0.8350 -0.1204
   10bbb    H11  278   8.180   7.803   4.844 -0.8215 -1.2743 -1.2686
   10bbb    H12  279   8.072   7.842   4.986 -3.2378 -2.1533  1.3047
   10bbb     C7  280   7.581   7.634   5.049  0.3148  0.6762  0.0406
   10bbb    H13  281   7.518   7.565   5.107 -1.1180  2.1516  0.3238
   10bbb    H14  282   7.576   7.603   4.944  1.3038  0.1514  0.1348
   10bbb     C8  283   7.996   7.875   4.790 -0.3632 -0.3093  0.5507
   10bbb    H15  284   7.889   7.849   4.790 -0.4893  0.1380 -0.7873
   10bbb    H16  285   8.034   7.850   4.690 -2.0430 -2.1584  0.3081
   10bbb     C9  286   8.180   7.594   5.341  0.1096  0.4599 -0.4462
   10bbb    H17  287   8.092   7.570   5.402  1.2606 -1.7796  0.4373
   10bbb    H18  288   8.205   7.700   5.357  0.0501  0.3581  0.4000
   10bbb     O1  289   7.545   7.776   5.072  0.0002 -0.0225  0.5611
   11bbb     N1  290   8.036   7.703   4.447 -0.5978 -0.7039  0.4137
   11bbb     C1  291   8.058   7.800   4.341 -0.0981  0.3221  0.7792
   11bbb     H1  292   8.110   7.747   4.260  0.3968 -1.7939  2.3897
   11bbb     H2  293   8.139   7.869   4.368  0.1856  1.2863 -2.2346
   11bbb     C2  294   7.965   7.585   4.393  0.5723  1.2613  0.1629
   11bbb     H3  295   8.024   7.504   4.348 -0.7845 -0.6830  1.6796
   11bbb     H4  296   7.880   7.607   4.328 -0.1457 -1.2728  0.1203
   11bbb     C3  297   8.150   7.681   4.538  0.0651 -0.1940 -0.1825
   11bbb     H5  298   8.126   7.624   4.628  2.7406  0.9130  1.3511
   11bbb     H6  299   8.194   7.777   4.570  2.9657 -1.8469  1.1013
   11bbb     C4  300   8.275   7.617   4.471  0.2381 -0.4294 -0.5029
   11bbb     H7  301   8.328   7.693   4.412  0.1497 -0.0448 -0.0935
   11bbb     H8  302   8.249   7.541   4.397 -1.4035  0.0548 -0.4599
   11bbb     C5  303   7.932   7.878   4.292  0.0104  0.6181 -0.2862
   11bbb     H9  304   7.867   7.815   4.230 -1.4347  2.1058 -0.3499
   11bbb    H10  305   7.964   7.954   4.220 -0.8238  1.6913  0.4511
   11bbb     C6  306   7.908   7.509   4.517  0.1969 -0.3492  0.1490
   11bbb    H11  307   7.985   7.465   4.581 -2.2698 -2.2774  1.9891
   11bbb    H12  308   7.855   7.423   4.475  2.0300 -1.1374 -0.6172
   11bbb     C7  309   8.371   7.546   4.569 -0.2162  0.5478 -0.6944
   11bbb    H13  310   8.466   7.521   4.522 -0.8877 -1.9170 -0.8559
   11bbb    H14  311   8.332   7.453   4.612 -3.0581  1.6880 -0.5787
   11bbb     C8  312   7.811   7.590   4.612 -0.0002  0.5784  0.1070
   11bbb    H15  313   7.735   7.639   4.551 -0.2401 -1.3812 -1.2727
   11bbb    H16  314   7.870   7.669   4.659 -2.1196  0.5945  3.0153
   11bbb     C9  315   7.859   7.952   4.404 -0.5259 -0.0516 -0.5420
   11bbb    H17  316   7.933   8.020   4.448 -1.3119 -0.3725  1.3474
   11bbb    H18  317   7.829   7.881   4.481  0.9646  0.1815  0.2971
   11bbb     O1  318   8.391   7.641   4.673  0.1219  0.5442 -0.1496
   12bbb     N1  319   8.881   6.886   5.397  0.7087  0.3566 -0.7863
   12bbb     C1  320   9.033   6.881   5.378  0.2974  0.0370 -0.9787
   12bbb     H1  321   9.051   6.799   5.307  0.3487  1.0923 -2.2117
   12bbb     H2  322   9.089   6.870   5.472  0.2862  1.4897 -0.7867
   12bbb     C2  323   8.842   6.954   5.524 -0.6354 -0.1817  0.2493
   12bbb     H3  324   8.768   7.031   5.501  0.8429  1.3537  0.3970
   12bbb     H4  325   8.921   7.016   5.569 -1.9298  0.9770  1.0171
   12bbb     C3  326   8.805   6.942   5.287 -0.2026  0.1110  1.2171
   12bbb     H5  327   8.828   7.047   5.264 -1.5229 -0.0491 -1.1240
   12bbb     H6  328   8.701   6.948   5.319  0.0490  0.5168  1.9913
   12bbb     C4  329   8.807   6.859   5.148  0.3376 -0.0783 -0.4575
   12bbb     H7  330   8.760   6.761   5.160 -1.7216  1.0195  1.3359
   12bbb     H8  331   8.908   6.852   5.107  0.2800  3.0915 -1.4016
   12bbb     C5  332   9.113   7.005   5.316 -0.6352  0.1260 -0.4552
   12bbb     H9  333   9.068   7.094   5.361 -1.0600 -0.7188  0.8770
   12bbb    H10  334   9.087   7.012   5.210 -2.2742 -0.8712 -0.1499
   12bbb     C6  335   8.797   6.852   5.627  0.5550 -0.1194  0.4955
   12bbb    H11  336   8.713   6.792   5.592  0.3320  0.2789  0.3387
   12bbb    H12  337   8.755   6.909   5.711  0.1778 -2.0044  1.6491
   12bbb     C7  338   8.722   6.936   5.043 -0.4386  0.0423 -0.3360
   12bbb    H13  339   8.724   6.880   4.948  0.0070 -2.3007  0.9653
   12bbb    H14  340   8.759   7.039   5.034 -0.7904  0.0765 -1.5612
   12bbb     C8  341   8.914   6.769   5.687  0.1690 -0.3083 -0.1545
   12bbb    H15  342   9.003   6.834   5.690 -2.3914  3.7653 -2.4209
   12bbb    H16  343   8.937   6.687   5.619  0.5199 -0.0440 -0.3578
   12bbb     C9  344   9.269   7.005   5.325 -0.3650 -0.3617  1.1826
   12bbb    H17  345   9.306   6.903   5.307  2.7521  0.7359  0.7441
   12bbb    H18  346   9.303   7.028   5.427  0.5921  2.7167  0.2820
   12bbb     O1  347   8.585   6.951   5.080 -0.3760  0.5373  0.0548
   13bbb     N1  348   8.020   7.258   6.588  0.2746 -0.1523 -0.2966
   13bbb     C1  349   8.102   7.374   6.618 -0.6635 -0.4898 -0.3269
   13bbb     H1  350   8.072   7.431   6.707 -0.5376  0.7173 -1.0301
   13bbb     H2  351   8.092   7.438   6.529 -2.1558 -1.2916 -0.7498
   13bbb     C2  352   7.995   7.165   6.704 -0.1781  0.3441  0.0103
   13bbb     H3  353   8.084   7.104   6.725 -0.8357 -0.5792  0.1226
   13bbb     H4  354   7.910   7.101   6.678  0.1123 -0.7755  1.6668
   13bbb     C3  355   8.056   7.193   6.458  0.6190 -0.3466  0.3782
   13bbb     H5  356   8.155   7.148   6.441  0.7606  0.6075 -1.7630
   13bbb     H6  357   8.063   7.276   6.386 -1.7262  0.1721  0.6757
   13bbb     C4  358   7.957   7.083   6.414  0.1413  0.5758  0.3827
   13bbb     H7  359   7.857   7.125   6.400 -0.4270 -0.4871  1.1421
   13bbb     H8  360   7.956   7.004   6.490  0.9374  1.1249  0.9805
   13bbb     C5  361   8.255   7.344   6.630 -0.3817 -0.2321 -0.0187
   13bbb     H9  362   8.296   7.291   6.543 -0.3552 -0.6960  0.2739
   13bbb    H10  363   8.280   7.272   6.709  2.6246  0.5667 -0.1235
   13bbb     C6  364   7.928   7.223   6.830 -0.5817 -0.3703 -0.6182
   13bbb    H11  365   7.832   7.267   6.798  0.2079  0.9771 -1.2515
   13bbb    H12  366   7.990   7.304   6.870 -0.3270 -0.2602 -1.2153
   13bbb     C7  367   7.986   7.036   6.278 -0.5408 -0.0083  0.0252
   13bbb    H13  368   7.970   7.126   6.216  1.7226 -0.1757 -0.8835
   13bbb    H14  369   7.914   6.959   6.248 -0.2119  0.6125 -2.5775
   13bbb     C8  370   7.906   7.113   6.934  0.8135  0.4933  0.4024
   13bbb    H15  371   8.000   7.060   6.955  0.1599 -0.0862  2.0144
   13bbb    H16  372   7.830   7.045   6.895 -0.0533  0.5918  1.8319
   13bbb     C9  373   8.342   7.471   6.644  0.8923 -0.1052  0.4099
   13bbb    H17  374   8.298   7.560   6.599  1.2513 -0.1190  0.0215
   13bbb    H18  375   8.432   7.445   6.586 -0.3679 -2.5630 -0.5719
   13bbb     O1  376   8.117   6.987   6.268 -0.0734  0.3301 -0.6437
   14bbb     N1  377   8.375   7.018   6.804  0.3328 -0.1565 -0.0275
   14bbb     C1  378   8.380   6.985   6.947 -0.4663 -0.7589 -0.2860
   14bbb     H1  379   8.462   6.919   6.981  0.2880  0.1327 -0.3266
   14bbb     H2  380   8.283   6.951   6.984  0.5349 -0.8444  2.5430
   14bbb     C2  381   8.321   6.896   6.746 -0.0374 -0.3307  0.2602
   14bbb     H3  382   8.223   6.872   6.788  0.5841 -1.1727  1.2629
   14bbb     H4  383   8.380   6.806   6.765  2.0571  0.6101 -1.2750
   14bbb     C3  384   8.502   7.075   6.742  0.3327 -1.5205 -0.2981
   14bbb     H5  385   8.513   7.170   6.795  1.4355 -2.6429  1.5947
   14bbb     H6  386   8.493   7.087   6.634  0.8259 -1.4920 -0.3349
   14bbb     C4  387   8.625   6.991   6.769  0.0043 -0.7962  0.9024
   14bbb     H7  388   8.616   6.894   6.719 -1.4946  0.3832 -1.2440
   14bbb     H8  389   8.632   6.959   6.874 -0.6560  0.2899  1.2900
   14bbb     C5  390   8.393   7.118   7.034 -0.2821  1.2590  0.1760
   14bbb     H9  391   8.496   7.153   7.020 -0.4098  1.5581 -0.0218
   14bbb    H10  392   8.380   7.088   7.139 -0.1061  0.7440  0.0551
   14bbb     C6  393   8.303   6.905   6.595 -0.4769  0.3492  0.0597
   14bbb    H11  394   8.403   6.887   6.554 -1.5837 -1.9077 -1.8554
   14bbb    H12  395   8.270   7.007   6.570 -1.0296  0.1593 -0.0071
   14bbb     C7  396   8.753   7.064   6.725 -0.7995 -0.0722  0.2018
   14bbb    H13  397   8.846   7.009   6.741 -0.6673  0.3265  0.8491
   14bbb    H14  398   8.770   7.159   6.778  2.5549 -0.9687  0.9327
   14bbb     C8  399   8.219   6.786   6.534 -0.0111 -0.2230 -0.1274
   14bbb    H15  400   8.202   6.800   6.427 -1.5555  1.1392  0.2393
   14bbb    H16  401   8.123   6.793   6.587 -0.0285  1.0514 -0.2859
   14bbb     C9  402   8.288   7.234   7.018  0.1771  0.4621 -0.4275
   14bbb    H17  403   8.195   7.194   6.976 -0.0518  1.0448 -0.4934
   14bbb    H18  404   8.332   7.294   6.937  0.5584 -0.0698 -0.6245
   14bbb     O1  405   8.747   7.084   6.578  0.9082  0.1566 -0.5017
   15bbb     N1  406   7.113   7.931   5.963  0.1705 -0.2475 -0.1103
   15bbb     C1  407   7.089   7.878   6.097  0.2109  0.0372 -0.1491
   15bbb     H1  408   7.051   7.778   6.074 -0.8751  0.3198  0.3383
   15bbb     H2  409   7.014   7.932   6.155 -0.3765 -0.4755 -0.4092
   15bbb     C2  410   6.994   7.960   5.880  0.4606  0.4622  0.2056
   15bbb     H3  411   7.024   7.996   5.780 -1.4039  0.8081 -0.2688
   15bbb     H4  412   6.925   8.027   5.933  1.0681  1.3575 -0.0988
   15bbb     C3  413   7.237   7.998   5.917 -0.0213 -0.0763  0.1513
   15bbb     H5  414   7.256   8.008   5.810 -0.7561 -2.9875 -0.3352
   15bbb     H6  415   7.317   7.933   5.956 -1.4127 -0.0971  3.3207
   15bbb     C4  416   7.250   8.134   5.979  0.3019 -0.0408 -0.0500
   15bbb     H7  417   7.230   8.138   6.087 -0.4230  1.9793 -0.2137
   15bbb     H8  418   7.180   8.202   5.930 -0.9277 -0.5314  0.9815
   15bbb     C5  419   7.215   7.847   6.182  0.5071 -0.0934  0.2267
   15bbb     H9  420   7.267   7.937   6.217 -0.9691  0.3309  1.4596
   15bbb    H10  421   7.280   7.787   6.116 -0.5079  0.1680 -1.0563
   15bbb     C6  422   6.912   7.839   5.843 -0.3142  0.1037 -0.0436
   15bbb    H11  423   6.822   7.866   5.785 -0.0511 -1.4918 -1.2645
   15bbb    H12  424   6.863   7.796   5.931  2.2539 -3.3999 -0.1195
   15bbb     C7  425   7.399   8.184   5.957  0.2735 -0.4834 -0.2810
   15bbb    H13  426   7.457   8.096   5.987 -0.8279 -0.8503  0.8793
   15bbb    H14  427   7.421   8.270   6.021 -0.7671 -0.7150  0.4186
   15bbb     C8  428   6.993   7.738   5.760  0.0252 -0.1314 -0.1960
   15bbb    H15  429   7.096   7.743   5.798 -0.2065  0.0624  0.4167
   15bbb    H16  430   6.994   7.782   5.659  0.5611 -0.6139 -0.4066
   15bbb     C9  431   7.183   7.761   6.300  0.4671  0.6644 -0.5632
   15bbb    H17  432   7.139   7.665   6.268  1.8861 -0.3135  0.2802
   15bbb    H18  433   7.113   7.811   6.368 -0.9047 -1.4283 -0.3343
   15bbb     O1  434   7.402   8.215   5.819 -0.5066  0.3723 -0.2772
   16bbb     N1  435   8.003   8.931   5.915  0.0211  0.0986  0.0959
   16bbb     C1  436   8.132   8.860   5.938  0.1685 -0.4971  0.6084
   16bbb     H1  437   8.150   8.803   5.847  1.8637  0.7752  0.0914
   16bbb     H2  438   8.138   8.787   6.020 -2.5018 -1.0615  0.3844
   16bbb     C2  439   7.951   9.011   6.026 -0.1178  0.3731  0.3859
   16bbb     H3  440   7.858   9.065   6.006 -0.3556 -0.2885 -0.3273
   16bbb     H4  441   8.017   9.095   6.051 -0.4583  0.1484  2.1888
   16bbb     C3  442   8.019   9.003   5.788 -0.0326 -0.2496 -0.5195
   16bbb     H5  443   8.056   8.939   5.707  0.3903  1.3319 -1.6110
   16bbb     H6  444   8.094   9.082   5.801  1.9670 -2.2932  1.4397
   16bbb     C4  445   7.881   9.043   5.716 -0.6899  0.2277 -0.0129
   16bbb     H7  446   7.876   9.152   5.710  1.0742  0.4431  1.5726
   16bbb     H8  447   7.803   9.008   5.784  0.7578  2.3456  2.9532
   16bbb     C5  448   8.259   8.951   5.959 -0.6013  0.4037 -0.3928
   16bbb     H9  449   8.271   8.959   6.068 -0.8059  0.2135 -0.3542
   16bbb    H10  450   8.255   9.054   5.920 -0.1903  1.1011  1.3263
   16bbb     C6  451   7.902   8.916   6.148 -0.2171  0.1042  0.2329
   16bbb    H11  452   7.877   8.966   6.242  1.6046 -0.1098  0.8710
   16bbb    H12  453   7.999   8.866   6.163 -0.3308 -0.9214 -1.9284
   16bbb     C7  454   7.859   8.991   5.566  0.2170  0.4528  0.6280
   16bbb    H13  455   7.958   8.998   5.519  0.6728  0.8424  1.6126
   16bbb    H14  456   7.787   9.059   5.520 -0.7742 -2.0852 -1.8194
   16bbb     C8  457   7.806   8.793   6.118  0.2722 -0.5770  0.1813
   16bbb    H15  458   7.794   8.749   6.218  2.9160  0.4890  1.0412
   16bbb    H16  459   7.844   8.718   6.047 -0.1236 -1.2337  0.6435
   16bbb     C9  460   8.383   8.881   5.909 -0.3139  0.5156 -0.4898
   16bbb    H17  461   8.388   8.789   5.968 -0.2484  0.8279 -0.0056
   16bbb    H18  462   8.460   8.956   5.936 -0.8748  0.8982  0.0844
   16bbb     O1  463   7.799   8.851   5.560  0.2331 -0.3884 -0.3207
   17bbb     N1  464   8.342   8.025   5.198 -0.8226  0.3051 -0.3612
   17bbb     C1  465   8.303   8.007   5.050 -0.3419 -0.5410  0.0737
   17bbb     H1  466   8.205   8.051   5.028 -0.3323 -0.6059 -0.1054
   17bbb     H2  467   8.286   7.904   5.015 -2.1743 -0.1698 -0.2245
   17bbb     C2  468   8.470   7.978   5.246 -0.7538  0.5710 -0.1834
   17bbb     H3  469   8.467   7.972   5.356  0.8180  2.1211 -0.0175
   17bbb     H4  470   8.542   8.045   5.198  0.1554  0.0037  0.3587
   17bbb     C3  471   8.304   8.158   5.251  0.2024  0.5957 -0.3101
   17bbb     H5  472   8.195   8.160   5.251  0.1929  0.5329  0.8706
   17bbb     H6  473   8.346   8.226   5.175  1.0465 -0.4352 -0.7861
   17bbb     C4  474   8.350   8.196   5.397 -0.0021 -0.7671 -0.8854
   17bbb     H7  475   8.319   8.299   5.419 -1.1710 -1.4091  0.6293
   17bbb     H8  476   8.459   8.208   5.403 -0.2000  0.5350  2.7561
   17bbb     C5  477   8.403   8.059   4.949  0.2337 -0.1887 -0.1528
   17bbb     H9  478   8.503   8.018   4.969 -0.3850 -1.8701 -0.3354
   17bbb    H10  479   8.412   8.165   4.972  2.1780 -0.4294  0.4173
   17bbb     C6  480   8.508   7.835   5.198  0.1629 -0.6863 -0.2233
   17bbb    H11  481   8.504   7.839   5.088 -3.0638  0.0281 -0.1804
   17bbb    H12  482   8.422   7.778   5.235  0.6817 -1.6720 -0.5034
   17bbb     C7  483   8.293   8.111   5.513  0.2748 -0.1348 -0.1293
   17bbb    H13  484   8.320   8.005   5.500 -2.5161 -0.6413 -3.0097
   17bbb    H14  485   8.185   8.111   5.494  0.3845  1.8508 -0.9878
   17bbb     C8  486   8.634   7.772   5.259 -0.0935  0.9573  0.3029
   17bbb    H15  487   8.650   7.672   5.217  0.5020  1.8104 -1.5808
   17bbb    H16  488   8.604   7.765   5.365  0.6789  0.3907  0.4922
   17bbb     C9  489   8.365   8.032   4.800  0.8523 -0.3355  0.1148
   17bbb    H17  490   8.257   8.049   4.786  0.8638  0.1041  0.5496
   17bbb    H18  491   8.381   7.926   4.778  0.7317 -0.6650  1.5654
   17bbb     O1  492   8.323   8.170   5.634  0.1609 -0.5514 -0.1650
   18bbb     N1  493   8.216   8.857   6.528  0.7010  0.4685  0.0470
   18bbb     C1  494   8.129   8.743   6.589 -0.2058 -0.2516  0.5408
   18bbb     H1  495   8.059   8.696   6.518 -1.3722  0.3771  1.2403
   18bbb     H2  496   8.062   8.800   6.656 -1.5535  0.8261 -1.5936
   18bbb     C2  497   8.136   8.957   6.456 -0.1039  0.0039  0.3831
   18bbb     H3  498   8.045   8.982   6.513  0.5986  0.6555  1.2417
   18bbb     H4  499   8.113   8.918   6.356 -0.3340  0.3648  0.2962
   18bbb     C3  500   8.341   8.821   6.452 -0.2845 -0.8584 -0.1109
   18bbb     H5  501   8.385   8.745   6.518 -1.3326 -1.2131  0.2114
   18bbb     H6  502   8.410   8.905   6.439 -1.6872  0.1443 -1.4762
   18bbb     C4  503   8.323   8.739   6.322  0.2309 -0.4543 -0.3360
   18bbb     H7  504   8.278   8.800   6.243  1.8424  1.5980  0.2302
   18bbb     H8  505   8.254   8.656   6.342 -0.7313 -0.4359 -3.0914
   18bbb     C5  506   8.202   8.637   6.671  0.4270 -0.3841  0.6736
   18bbb     H9  507   8.270   8.698   6.732 -0.1913  1.1875 -0.1548
   18bbb    H10  508   8.264   8.569   6.611  0.7986 -0.6858  1.3811
   18bbb     C6  509   8.200   9.097   6.444 -0.7093 -0.3541  0.3507
   18bbb    H11  510   8.303   9.078   6.411 -0.9001 -3.5484  1.2602
   18bbb    H12  511   8.204   9.148   6.541  0.5641 -1.7059  1.0438
   18bbb     C7  512   8.463   8.686   6.269 -0.6881  0.0523 -0.2752
   18bbb    H13  513   8.516   8.652   6.359 -2.2014  1.0399  1.0398
   18bbb    H14  514   8.523   8.764   6.220  0.2116  0.4119  1.2922
   18bbb     C8  515   8.133   9.191   6.340  0.7903  0.3802 -0.6399
   18bbb    H15  516   8.123   9.141   6.243 -1.2285  1.2386 -0.9496
   18bbb    H16  517   8.204   9.274   6.326  1.8674 -0.4168  0.0032
   18bbb     C9  518   8.115   8.545   6.757  0.1132 -0.1513 -0.6398
   18bbb    H17  519   8.067   8.617   6.824  0.4458 -1.2233  0.8047
   18bbb    H18  520   8.176   8.468   6.805  1.1347 -0.1455 -1.8740
   18bbb     O1  521   8.442   8.582   6.177 -0.1460 -0.0457 -0.0062
   19bbb     N1  522   7.819   7.971   6.586 -0.7927  0.0666 -0.0709
   19bbb     C1  523   7.793   8.057   6.703  0.3091 -0.0859 -0.3464
   19bbb     H1  524   7.694   8.025   6.738  0.6402 -2.6696 -1.5931
   19bbb     H2  525   7.787   8.160   6.665 -0.1264 -0.1084 -0.3331
   19bbb     C2  526   7.725   7.994   6.477 -0.1202  0.5842  0.2407
   19bbb     H3  527   7.697   8.099   6.464 -0.9644  0.2915 -0.4752
   19bbb     H4  528   7.630   7.945   6.499 -0.4523  0.5842 -1.0811
   19bbb     C3  529   7.858   7.829   6.611 -0.1796  0.0606  0.3801
   19bbb     H5  530   7.953   7.826   6.667 -0.9334 -0.1024  1.6813
   19bbb     H6  531   7.872   7.771   6.519 -0.9117 -1.0133  0.9252
   19bbb     C4  532   7.739   7.749   6.686 -0.2439 -0.5654  0.2211
   19bbb     H7  533   7.643   7.785   6.649 -0.0897 -0.2578  0.1132
   19bbb     H8  534   7.734   7.776   6.792 -1.2844 -1.9345  0.5337
   19bbb     C5  535   7.908   8.061   6.804  0.1240 -0.3451  0.4143
   19bbb     H9  536   8.000   8.055   6.746  0.1083 -0.7370  0.4325
   19bbb    H10  537   7.910   7.971   6.867  0.3188  0.2716  1.3126
   19bbb     C6  538   7.785   7.956   6.338  0.5412  0.4303  0.8238
   19bbb    H11  539   7.802   7.848   6.343  0.8017  0.4982  1.6927
   19bbb    H12  540   7.888   7.991   6.326  1.3251 -1.9698  0.0647
   19bbb     C7  541   7.748   7.599   6.663 -0.2692  0.3438  0.2231
   19bbb    H13  542   7.669   7.542   6.713 -0.9351 -1.2456 -2.4665
   19bbb    H14  543   7.847   7.558   6.688 -1.3527 -3.9339 -1.5846
   19bbb     C8  544   7.698   7.977   6.209  0.1122  0.0623  0.3446
   19bbb    H15  545   7.592   7.956   6.231  0.3600 -2.2132 -0.3002
   19bbb    H16  546   7.735   7.912   6.128 -0.3055  1.0390 -0.6558
   19bbb     C9  547   7.918   8.188   6.893 -0.6106 -0.2456 -0.3825
   19bbb    H17  548   7.815   8.215   6.919 -0.9951 -1.4555 -0.5926
   19bbb    H18  549   7.963   8.272   6.838 -2.1048 -0.0371 -1.3740
   19bbb     O1  550   7.742   7.581   6.525  0.4651  0.1253  0.5471
   20bbb     N1  551   7.829   6.465   6.255 -0.1124 -0.0918 -0.5178
   20bbb     C1  552   7.928   6.496   6.366  0.0012 -0.2916  0.1731
   20bbb     H1  553   7.901   6.589   6.416  1.1564  0.5515 -0.7025
   20bbb     H2  554   8.022   6.513   6.312  0.1635 -0.0625  0.5285
   20bbb     C2  555   7.688   6.423   6.295 -0.0818  0.7763  0.3592
   20bbb     H3  556   7.637   6.506   6.347  0.6827  0.8723  0.9862
   20bbb     H4  557   7.689   6.341   6.368  0.1913 -0.2788 -0.8058
   20bbb     C3  558   7.839   6.559   6.147  0.5708 -0.2293 -0.0448
   20bbb     H5  559   7.791   6.533   6.052 -2.4606  1.6254  0.8628
   20bbb     H6  560   7.946   6.569   6.122  0.9117 -0.2582  1.3094
   20bbb     C4  561   7.782   6.708   6.183 -0.8641  0.1576 -0.2440
   20bbb     H7  562   7.832   6.759   6.266  1.8824 -0.7293 -1.2210
   20bbb     H8  563   7.677   6.702   6.214 -0.7664  1.1284  0.3076
   20bbb     C5  564   7.944   6.387   6.479 -0.6255  0.5128 -0.0038
   20bbb     H9  565   7.847   6.377   6.530 -1.0431  3.0797 -0.1591
   20bbb    H10  566   8.011   6.436   6.551 -0.1449  1.8631 -1.3175
   20bbb     C6  567   7.607   6.371   6.166  0.0386 -0.1561  0.1944
   20bbb    H11  568   7.680   6.306   6.116  0.7249  0.7306  0.0180
   20bbb    H12  569   7.577   6.450   6.096 -1.2549 -0.3739  0.4767
   20bbb     C7  570   7.778   6.798   6.063 -0.4949  0.3016 -0.2408
   20bbb    H13  571   7.740   6.745   5.974  0.3178 -0.7724  0.0288
   20bbb    H14  572   7.881   6.826   6.035 -0.2019 -1.2778 -0.8621
   20bbb     C8  573   7.476   6.298   6.222  0.0340 -0.0320 -0.0481
   20bbb    H15  574   7.412   6.372   6.271  0.6486  0.0916  0.5949
   20bbb    H16  575   7.520   6.233   6.298  0.4366  1.7128  1.2883
   20bbb     C9  576   7.998   6.249   6.453  0.2973 -0.5692 -0.2498
   20bbb    H17  577   8.087   6.251   6.388  0.7078 -1.1340  0.2936
   20bbb    H18  578   7.926   6.201   6.386 -0.0849 -2.1535  1.2261
   20bbb     O1  579   7.703   6.911   6.096 -0.3362 -0.1737 -0.5272
   21bbb     N1  580   8.035   8.394   4.985 -0.3636 -0.1643 -0.1103
   21bbb     C1  581   8.159   8.438   5.060 -0.5835  0.3607 -0.3118
   21bbb     H1  582   8.230   8.356   5.068 -0.6187  0.3819  0.2264
   21bbb     H2  583   8.137   8.474   5.161  2.2715  0.7217  0.2450
   21bbb     C2  584   7.934   8.500   4.977 -0.1436  0.3600  0.1973
   21bbb     H3  585   7.842   8.461   4.933 -0.0297 -0.2090  0.4547
   21bbb     H4  586   7.968   8.576   4.906 -0.8418 -0.0388 -0.5690
   21bbb     C3  587   8.058   8.325   4.851  0.1005  0.4493  0.2562
   21bbb     H5  588   8.144   8.258   4.863  0.1525  0.3361 -0.6404
   21bbb     H6  589   8.091   8.403   4.781  0.6020  2.5744  2.7150
   21bbb     C4  590   7.938   8.250   4.793 -0.8334  0.5032  0.0351
   21bbb     H7  591   7.882   8.301   4.714 -1.6626 -2.2213 -1.2633
   21bbb     H8  592   7.866   8.235   4.874 -3.2288 -0.3752 -2.1023
   21bbb     C5  593   8.241   8.546   4.987  0.6771  0.1739 -0.4820
   21bbb     H9  594   8.174   8.627   4.955  0.2410  0.4527  1.0424
   21bbb    H10  595   8.284   8.500   4.897  2.3700 -1.2912  0.9924
   21bbb     C6  596   7.897   8.567   5.109  0.2146 -0.3691 -0.1553
   21bbb    H11  597   7.829   8.651   5.091  2.5478  1.3420 -1.6901
   21bbb    H12  598   7.979   8.608   5.169  0.3959 -1.3004  0.2421
   21bbb     C7  599   7.973   8.109   4.731 -0.2374 -0.1036 -0.5102
   21bbb    H13  600   8.036   8.124   4.642  1.9535 -1.2226  0.7602
   21bbb    H14  601   7.880   8.066   4.691  1.1594 -2.4583 -1.4470
   21bbb     C8  602   7.826   8.458   5.194 -0.3467  0.3493 -0.0835
   21bbb    H15  603   7.913   8.402   5.229  1.4489  1.5915 -2.3191
   21bbb    H16  604   7.762   8.401   5.125 -2.2560  1.7746  0.4213
   21bbb     C9  605   8.345   8.608   5.067  0.1248 -0.4216  0.0484
   21bbb    H17  606   8.303   8.677   5.142 -3.8499 -0.5974 -1.7528
   21bbb    H18  607   8.394   8.680   5.000 -2.3865  1.2645 -0.1365
   21bbb     O1  608   8.028   8.011   4.820  0.0544 -0.0839 -0.0430
   22bbb     N1  609   8.471   7.111   5.616 -0.2836 -0.2747  0.4800
   22bbb     C1  610   8.425   6.982   5.664 -0.4583  0.2973 -0.7880
   22bbb     H1  611   8.382   6.996   5.764  2.6066 -1.3255  0.8868
   22bbb     H2  612   8.515   6.924   5.686  0.2814  1.2284 -1.2905
   22bbb     C2  613   8.594   7.169   5.675 -0.4313  0.0306 -0.5127
   22bbb     H3  614   8.633   7.252   5.615  1.8137  0.3578  1.2630
   22bbb     H4  615   8.671   7.091   5.667 -2.4907 -1.9441 -2.9626
   22bbb     C3  616   8.350   7.201   5.588  0.2579  0.8051  0.1615
   22bbb     H5  617   8.318   7.250   5.681 -1.5043 -0.9876  0.5785
   22bbb     H6  618   8.260   7.146   5.559 -0.3665  0.1789  2.9322
   22bbb     C4  619   8.383   7.302   5.477 -0.7068  0.3551  0.3297
   22bbb     H7  620   8.403   7.241   5.388 -2.1167  2.5418 -1.6036
   22bbb     H8  621   8.469   7.362   5.510  0.6925 -0.5685 -1.4648
   22bbb     C5  622   8.346   6.899   5.559 -0.2436 -0.4518 -0.3006
   22bbb     H9  623   8.249   6.944   5.536  1.1698  2.1686 -1.5897
   22bbb    H10  624   8.326   6.804   5.611 -0.0809 -0.3826 -0.1069
   22bbb     C6  625   8.585   7.231   5.812 -0.1041 -0.7556 -0.3150
   22bbb    H11  626   8.553   7.159   5.889 -2.1872  0.0975 -0.3333
   22bbb    H12  627   8.509   7.308   5.825  0.3712  0.2224 -2.8387
   22bbb     C7  628   8.253   7.378   5.436  0.1391 -0.3004  0.0870
   22bbb    H13  629   8.199   7.390   5.531  0.5389 -2.9008  0.7087
   22bbb    H14  630   8.190   7.318   5.369 -2.1616 -0.6925  2.4181
   22bbb     C8  631   8.721   7.289   5.851 -0.0556  0.0305 -0.1884
   22bbb    H15  632   8.709   7.349   5.942  1.3129  1.7594 -1.0873
   22bbb    H16  633   8.764   7.348   5.768  2.7435  0.4427  1.4286
   22bbb     C9  634   8.416   6.868   5.432 -0.0057  0.2089 -0.4163
   22bbb    H17  635   8.498   6.804   5.469 -0.1732  0.7348  0.9404
   22bbb    H18  636   8.465   6.960   5.396  0.4483  1.2631  2.5733
   22bbb     O1  637   8.289   7.506   5.377 -0.5215  0.9364  0.3686
   23ccc     C1  638   7.412   7.435   4.632  0.8973 -0.1069  0.8759
   23ccc     C2  639   7.381   7.346   4.759  0.2644 -0.2307  0.5634
   23ccc     H1  640   7.407   7.368   4.545 -0.2990  0.2170  0.6713
   23ccc     H2  641   7.288   7.290   4.746  0.6759 -0.5820 -1.0925
   23ccc     C3  642   7.495   7.239   4.776 -0.3888 -0.0833  0.4263
   23ccc     C4  643   7.626   7.314   4.804  0.3380  0.1995 -0.2319
   23ccc     C5  644   7.659   7.403   4.676  0.6237  0.0144  0.3779
   23ccc     H3  645   7.620   7.385   4.888  1.0165 -1.5892  1.3988
   23ccc     H4  646   7.517   7.188   4.682  0.2041  1.9139 -0.5664
   23ccc     H5  647   7.684   7.342   4.588  1.9455 -0.6895  1.2058
   23ccc     O1  648   7.760   7.496   4.711  0.4289  0.3410 -0.3941
   23ccc     O2  649   7.738   7.219   4.827  0.0057 -1.0879  0.2081
   23ccc     O3  650   7.457   7.138   4.881  0.9982 -0.1792  0.0803
   23ccc     O4  651   7.376   7.425   4.879 -0.1168  0.6892 -0.3422
   23ccc     C6  652   7.301   7.549   4.622 -0.3381  0.3132  0.6563
   23ccc     H6  653   7.361   7.127   4.868  1.0300  0.6361 -0.9283
   23ccc     H7  654   7.358   7.512   4.839  0.7844  0.7735 -0.5878
   23ccc     H8  655   7.796   7.272   4.884 -0.9523  1.6991 -1.2374
   23ccc     H9  656   7.198   7.516   4.605 -0.7685  1.2684  1.3028
   23ccc    H10  657   7.333   7.610   4.536 -0.5902  0.7151  0.8463
   23ccc     O5  658   7.311   7.633   4.739  0.1800 -0.4721  0.5884
   23ccc    H11  659   7.366   7.708   4.711 -0.4265  0.4674  1.8046
   23ccc     O6  660   7.546   7.486   4.642  0.2165  0.5191  0.1209
   24ccc     C1  661   7.541   8.054   4.664 -0.4387  0.1667  0.0811
   24ccc     C2  662   7.422   8.146   4.618 -0.0335 -0.7917  0.7646
   24ccc     H1  663   7.606   8.111   4.731 -0.5770 -1.0027  1.2644
   24ccc     H2  664   7.361   8.188   4.699 -0.1793  1.1679 -0.2858
   24ccc     C3  665   7.476   8.263   4.527  0.2104 -0.1586 -0.0693
   24ccc     C4  666   7.556   8.195   4.409 -0.3107  0.4650  0.2418
   24ccc     C5  667   7.671   8.106   4.463 -0.0830 -0.2644  0.0823
   24ccc     H3  668   7.486   8.136   4.349  1.2912  1.7388 -3.1302
   24ccc     H4  669   7.548   8.323   4.584 -0.0180 -0.1472  0.2082
   24ccc     H5  670   7.744   8.171   4.513  0.3081  0.4977 -1.4313
   24ccc     O1  671   7.751   8.039   4.363  0.1819  0.2243 -0.4349
   24ccc     O2  672   7.599   8.299   4.328  0.0364  0.3806 -0.3923
   24ccc     O3  673   7.366   8.344   4.485 -0.0503  0.0571 -0.3203
   24ccc     O4  674   7.331   8.069   4.543  0.4942 -0.0126  0.1961
   24ccc     C6  675   7.499   7.926   4.753 -0.2552  0.2842 -0.0544
   24ccc     H6  676   7.324   8.384   4.564 -0.4927 -1.5664  0.3154
   24ccc     H7  677   7.247   8.116   4.534  0.9102  0.9722  1.2776
   24ccc     H8  678   7.531   8.369   4.336  0.4054  0.5551  2.0153
   24ccc     H9  679   7.436   7.951   4.838  0.4881  0.3749  0.4747
   24ccc    H10  680   7.592   7.878   4.786  1.1045  2.8085  0.0208
   24ccc     O5  681   7.438   7.848   4.652  0.1628 -0.5437  0.1219
   24ccc    H11  682   7.409   7.922   4.596  0.9013  0.8140  1.4440
   24ccc     O6  683   7.618   8.010   4.551 -0.2455 -0.7259 -0.5411
   25ccc     C1  684   9.097   6.448   5.902  0.1830  0.0302 -0.3884
   25ccc     C2  685   9.036   6.404   6.039 -0.5255  0.2021 -0.2799
   25ccc     H1  686   9.193   6.497   5.920  0.6776  0.5572 -3.8787
   25ccc     H2  687   9.111   6.347   6.096  0.9195 -0.1860 -2.4439
   25ccc     C3  688   8.990   6.526   6.115  0.0644 -0.2313 -0.2217
   25ccc     C4  689   8.896   6.620   6.035  0.0018 -0.2119  0.1856
   25ccc     C5  690   8.967   6.646   5.900 -0.5419 -0.1921  0.1814
   25ccc     H3  691   8.802   6.567   6.013 -0.4028  0.5149  0.1402
   25ccc     H4  692   9.083   6.581   6.132  0.3765 -1.2118  1.4943
   25ccc     H5  693   9.062   6.695   5.920  0.5970 -2.8072  1.7239
   25ccc     O1  694   8.881   6.730   5.821  0.0056 -0.7030  0.5758
   25ccc     O2  695   8.879   6.735   6.111  0.2849 -0.4152  0.2176
   25ccc     O3  696   8.931   6.484   6.243 -0.7251  0.3965 -0.5362
   25ccc     O4  697   8.928   6.321   6.006  0.6845  0.3412 -0.2803
   25ccc     C6  698   9.131   6.332   5.808 -0.0596  0.6787  0.5872
   25ccc     H6  699   8.937   6.567   6.293  3.2798 -0.2739  0.4414
   25ccc     H7  700   8.863   6.334   6.078  0.6245  0.9604 -0.4385
   25ccc     H8  701   8.827   6.806   6.069  5.0317  4.4276  1.4641
   25ccc     H9  702   9.045   6.283   5.760  0.9224  0.0614 -0.5839
   25ccc    H10  703   9.192   6.252   5.851  0.4686 -0.3700 -1.9470
   25ccc     O5  704   9.202   6.400   5.706  0.4442  0.2960 -0.0839
   25ccc    H11  705   9.145   6.477   5.689 -2.6360 -1.5453  1.1360
   25ccc     O6  706   9.002   6.532   5.825 -0.3487 -0.3292 -0.3192
   26ccc     C1  707   9.689   6.974   5.236 -0.1245 -0.0166  0.0083
   26ccc     C2  708   9.732   7.015   5.373  0.9436 -0.2451 -0.6369
   26ccc     H1  709   9.729   7.039   5.157  0.2448 -0.1174  0.1119
   26ccc     H2  710   9.841   7.028   5.382  0.6188  1.7926  1.2677
   26ccc     C3  711   9.681   7.164   5.387  0.2901 -0.2462 -0.4528
   26ccc     C4  712   9.524   7.170   5.369 -0.0885 -0.6355  0.2376
   26ccc     C5  713   9.478   7.103   5.231 -0.2054 -0.4609  0.3929
   26ccc     H3  714   9.479   7.114   5.452 -0.7122  1.4464  1.3577
   26ccc     H4  715   9.723   7.223   5.305 -0.8938  0.3178 -0.6727
   26ccc     H5  716   9.509   7.165   5.146 -2.2305  0.6437  0.4152
   26ccc     O1  717   9.337   7.091   5.220  0.3615 -0.1680  0.0263
   26ccc     O2  718   9.491   7.312   5.381  0.2436  0.0187  0.1715
   26ccc     O3  719   9.709   7.234   5.511 -0.5407 -0.7103  0.2326
   26ccc     O4  720   9.704   6.921   5.484 -0.0541 -0.4047 -0.2178
   26ccc     C6  721   9.742   6.829   5.205  0.0214  0.1858 -1.2496
   26ccc     H6  722   9.680   7.168   5.577  2.7626 -0.8213  1.7818
   26ccc     H7  723   9.773   6.929   5.552 -1.6910 -1.3725  1.6384
   26ccc     H8  724   9.554   7.339   5.450 -0.1700  0.1850  0.4848
   26ccc     H9  725   9.679   6.762   5.266  0.5284 -0.4389 -1.3917
   26ccc    H10  726   9.844   6.812   5.243 -0.3970  0.8156  0.2016
   26ccc     O5  727   9.737   6.810   5.068 -0.2259 -0.5519  0.4159
   26ccc    H11  728   9.808   6.746   5.047  0.9941  0.7726  0.3216
   26ccc     O6  729   9.541   6.973   5.224  0.2806  0.3308 -0.2639
   27ccc     C1  730   8.012   6.953   7.312 -0.8866  0.3052  0.2990
   27ccc     C2  731   7.912   6.830   7.281  0.4503 -0.5433  0.1722
   27ccc     H1  732   7.976   6.997   7.406  0.0588  0.8426  0.4143
   27ccc     H2  733   7.932   6.761   7.364  0.0956  0.9747  1.5655
   27ccc     C3  734   7.770   6.885   7.290  0.5084  0.1798 -0.2464
   27ccc     C4  735   7.746   7.006   7.185 -0.5187  0.0003  0.2204
   27ccc     C5  736   7.863   7.107   7.187 -0.6494 -0.2008 -1.5746
   27ccc     H3  737   7.744   6.954   7.088 -0.4704  2.2670 -1.0444
   27ccc     H4  738   7.757   6.939   7.385  1.0629  1.5695 -0.9291
   27ccc     H5  739   7.841   7.175   7.270  1.4457 -2.0103  0.6021
   27ccc     O1  740   7.857   7.177   7.058 -1.5498  0.2946  0.1731
   27ccc     O2  741   7.625   7.073   7.218  0.4323  0.2873  0.6636
   27ccc     O3  742   7.671   6.775   7.273 -0.5967  0.2656 -0.8141
   27ccc     O4  743   7.951   6.774   7.154 -0.2575  0.5243  0.3414
   27ccc     C6  744   8.162   6.905   7.302  0.5882  0.1453  0.1657
   27ccc     H6  745   7.700   6.725   7.195 -1.8970 -0.9371 -0.5656
   27ccc     H7  746   7.977   6.681   7.163  0.3202  0.4803 -1.4308
   27ccc     H8  747   7.649   7.126   7.295  0.2928  0.4716  0.5800
   27ccc     H9  748   8.201   6.929   7.202 -2.6204 -1.6104 -1.6930
   27ccc    H10  749   8.176   6.796   7.315 -1.4152 -0.9233 -4.5276
   27ccc     O5  750   8.219   6.987   7.399 -0.3410 -0.0161 -0.4418
   27ccc    H11  751   8.166   7.064   7.372 -0.6276 -1.0593 -3.2277
   27ccc     O6  752   7.999   7.047   7.204  0.0016 -0.4736 -0.3905
   28ccc     C1  753   8.694   7.657   6.813 -0.2466  0.3440  0.2358
   28ccc     C2  754   8.719   7.644   6.965 -0.3652 -0.1343  0.0752
   28ccc     H1  755   8.668   7.759   6.781 -0.0536  0.0461 -0.9510
   28ccc     H2  756   8.797   7.712   7.002  1.8696 -1.9083 -1.1925
   28ccc     C3  757   8.591   7.679   7.038 -0.2543  0.3243  0.8002
   28ccc     C4  758   8.467   7.591   6.982 -0.3553  0.9800  0.5225
   28ccc     C5  759   8.456   7.599   6.826  0.4565 -0.0329 -0.2508
   28ccc     H3  760   8.477   7.488   7.017 -1.1951 -1.0528 -4.3775
   28ccc     H4  761   8.573   7.784   7.012  0.1003  0.1498 -0.1928
   28ccc     H5  762   8.401   7.689   6.797 -1.1345 -0.7821  0.3184
   28ccc     O1  763   8.377   7.484   6.781 -0.1587  0.4568 -0.3518
   28ccc     O2  764   8.342   7.640   7.027  0.2398 -0.0264 -0.5842
   28ccc     O3  765   8.608   7.664   7.184  0.3769 -0.1611  0.2915
   28ccc     O4  766   8.758   7.512   6.996  0.2143 -0.6230  0.0394
   28ccc     C6  767   8.814   7.610   6.718 -0.1939  0.1344 -0.8958
   28ccc     H6  768   8.518   7.676   7.218 -0.1248 -0.5590 -0.8454
   28ccc     H7  769   8.771   7.472   6.908 -0.1930  3.1330 -1.9116
   28ccc     H8  770   8.275   7.569   7.025 -0.4163  0.5876 -0.8931
   28ccc     H9  771   8.883   7.691   6.744 -0.2608 -0.2909  0.7141
   28ccc    H10  772   8.780   7.612   6.614 -2.0488 -0.2268 -0.3315
   28ccc     O5  773   8.872   7.480   6.759  0.6743 -0.5214 -0.5222
   28ccc    H11  774   8.955   7.487   6.709  1.6254  1.2118  1.1520
   28ccc     O6  775   8.586   7.573   6.766  0.6446 -0.0581 -0.0779
   29ccc     C1  776   8.371   6.541   6.229 -0.2637 -0.6800 -0.3366
   29ccc     C2  777   8.449   6.407   6.253 -0.1998 -0.6531 -0.1394
   29ccc     H1  778   8.438   6.625   6.207 -0.5023 -0.3825  0.0505
   29ccc     H2  779   8.523   6.409   6.172 -0.0146 -0.5156  0.0326
   29ccc     C3  780   8.529   6.408   6.389 -0.4443 -0.1194 -0.1575
   29ccc     C4  781   8.443   6.467   6.501 -0.0464  0.8730  0.1269
   29ccc     C5  782   8.373   6.600   6.463 -0.6734  0.0149  0.2771
   29ccc     H3  783   8.359   6.397   6.516 -0.4404  1.4559  0.7130
   29ccc     H4  784   8.616   6.471   6.364 -1.1558  1.5610  1.3382
   29ccc     H5  785   8.452   6.675   6.451 -1.4816  1.2380  2.0963
   29ccc     O1  786   8.285   6.656   6.558 -0.2268  0.5413 -0.0891
   29ccc     O2  787   8.528   6.473   6.615 -0.0196 -0.0877 -0.3452
   29ccc     O3  788   8.569   6.275   6.408 -0.0966 -0.0645 -0.2525
   29ccc     O4  789   8.359   6.296   6.252 -0.0988  0.0439  0.1539
   29ccc     C6  790   8.281   6.553   6.107  0.2730 -0.3019  0.0715
   29ccc     H6  791   8.488   6.221   6.412 -0.3776  0.4625  1.8632
   29ccc     H7  792   8.293   6.325   6.186  0.4950 -2.5479 -1.7786
   29ccc     H8  793   8.528   6.382   6.650  0.5668 -0.4858 -1.3489
   29ccc     H9  794   8.338   6.590   6.021 -0.0535 -1.6107 -0.7437
   29ccc    H10  795   8.205   6.630   6.127  1.1235  1.2049 -2.0126
   29ccc     O5  796   8.213   6.430   6.081  0.3595 -0.2679  0.2752
   29ccc    H11  797   8.147   6.452   6.014 -0.1825 -0.5130  0.7188
   29ccc     O6  798   8.290   6.570   6.348  0.0811 -0.5764  0.7431
   30ccc     C1  799   7.986   7.543   7.116  0.2791 -0.7342 -0.3315
   30ccc     C2  800   7.981   7.589   7.263 -0.3235 -0.2970 -0.2985
   30ccc     H1  801   7.896   7.482   7.101 -1.9197  2.4835 -1.1875
   30ccc     H2  802   7.884   7.638   7.281  0.0136 -0.2127  1.4780
   30ccc     C3  803   7.985   7.462   7.349 -0.5744  0.0501 -0.2305
   30ccc     C4  804   8.116   7.384   7.324 -0.7877  0.9588  0.3792
   30ccc     C5  805   8.137   7.352   7.162 -0.6421  0.3233 -0.7840
   30ccc     H3  806   8.201   7.446   7.355 -1.6022  0.9493  2.8420
   30ccc     H4  807   7.903   7.394   7.324  1.0165 -1.3775 -1.8298
   30ccc     H5  808   8.070   7.273   7.128 -1.7302  0.3921  1.0708
   30ccc     O1  809   8.273   7.313   7.138  0.6840 -0.2903  0.4500
   30ccc     O2  810   8.128   7.252   7.389  0.2377 -0.0019 -0.6838
   30ccc     O3  811   7.968   7.497   7.490  0.1722 -0.5919 -0.2158
   30ccc     O4  812   8.090   7.677   7.276 -0.3146 -0.0615 -0.1155
   30ccc     C6  813   7.960   7.645   7.001 -0.1388  0.0398 -0.1297
   30ccc     H6  814   7.880   7.538   7.489 -1.1477 -3.1704 -0.2162
   30ccc     H7  815   8.085   7.721   7.190 -0.0621  1.5461  0.6571
   30ccc     H8  816   8.124   7.276   7.483  0.5967  1.1470 -0.9401
   30ccc     H9  817   7.853   7.665   6.991 -0.5227 -1.5145  0.5731
   30ccc    H10  818   8.007   7.599   6.913  1.0556  0.6179  0.1836
   30ccc     O5  819   8.038   7.767   7.035 -0.0469  0.2069  0.9160
   30ccc    H11  820   8.072   7.801   6.950 -1.5727 -0.5550 -0.0536
   30ccc     O6  821   8.111   7.466   7.085  0.6441  0.0902 -0.1470
   31ccc     C1  822   7.147   7.431   6.002  0.3443  0.3642  0.6397
   31ccc     C2  823   7.080   7.292   5.992 -0.3369 -0.3542 -0.3404
   31ccc     H1  824   7.103   7.483   6.088  0.5231 -0.8533  1.4781
   31ccc     H2  825   7.106   7.238   6.085 -1.0166  1.6601  1.0885
   31ccc     C3  826   6.925   7.292   5.967  0.3046 -0.0060 -0.5738
   31ccc     C4  827   6.889   7.393   5.860  0.1123  0.3228 -0.5534
   31ccc     C5  828   6.967   7.528   5.880  0.4527 -0.3653 -0.0260
   31ccc     H3  829   6.912   7.350   5.762  2.4882  3.1491 -1.3558
   31ccc     H4  830   6.874   7.325   6.058  0.5024 -0.4189 -0.3113
   31ccc     H5  831   6.942   7.591   5.966  1.2882 -1.9069  1.4063
   31ccc     O1  832   6.931   7.605   5.767 -0.1166 -0.4509 -0.2277
   31ccc     O2  833   6.749   7.412   5.868  0.4880  0.1318 -0.0252
   31ccc     O3  834   6.878   7.157   5.937 -0.0897  0.1724  0.0235
   31ccc     O4  835   7.147   7.217   5.893 -0.3510  0.3311 -0.5332
   31ccc     C6  836   7.295   7.433   6.045  0.5930  0.1197  0.2343
   31ccc     H6  837   6.936   7.105   5.995 -0.4465  1.2545  1.4017
   31ccc     H7  838   7.231   7.267   5.886  1.1262 -1.7892  0.6526
   31ccc     H8  839   6.723   7.454   5.785 -0.5861 -2.1151 -0.9103
   31ccc     H9  840   7.303   7.400   6.149 -2.8751 -2.2979 -0.0856
   31ccc    H10  841   7.337   7.533   6.029 -2.2696  1.3884  0.0828
   31ccc     O5  842   7.366   7.343   5.965 -0.4244 -0.4884 -0.2111
   31ccc    H11  843   7.455   7.344   6.004 -0.2037 -0.7379 -0.6908
   31ccc     O6  844   7.111   7.506   5.878  0.1377 -0.4914 -0.4979
   32ccc     C1  845   7.321   7.392   6.502  0.2733 -0.4038  0.2864
   32ccc     C2  846   7.263   7.420   6.647 -0.4457 -0.3171  0.7637
   32ccc     H1  847   7.430   7.386   6.508  0.3323 -1.7268 -1.3613
   32ccc     H2  848   7.298   7.346   6.720 -0.7473 -2.4414 -1.1000
   32ccc     C3  849   7.304   7.554   6.712  0.9228 -0.0879  0.2202
   32ccc     C4  850   7.281   7.666   6.602  0.0797  0.2714  0.6170
   32ccc     C5  851   7.336   7.636   6.461 -0.1843  0.4209 -0.0077
   32ccc     H3  852   7.173   7.680   6.589  0.3410  0.2945 -2.1250
   32ccc     H4  853   7.408   7.546   6.746  1.7570  1.4762 -1.7784
   32ccc     H5  854   7.444   7.627   6.478 -0.4155  0.9239  1.9324
   32ccc     O1  855   7.308   7.734   6.358 -0.3674 -0.4875 -0.3015
   32ccc     O2  856   7.339   7.788   6.647  0.1458 -0.4780 -0.3386
   32ccc     O3  857   7.207   7.573   6.824  0.5457  0.5201 -0.0242
   32ccc     O4  858   7.117   7.410   6.628  0.0600 -0.3305  0.2854
   32ccc     C6  859   7.283   7.259   6.435  0.3142  0.6071  0.1205
   32ccc     H6  860   7.255   7.622   6.894 -0.0734  0.7654  0.2316
   32ccc     H7  861   7.100   7.347   6.556 -2.2879  0.4325  0.1000
   32ccc     H8  862   7.287   7.817   6.724 -3.2483 -3.9115 -1.0085
   32ccc     H9  863   7.325   7.184   6.503  0.1883  0.6385  0.2336
   32ccc    H10  864   7.340   7.261   6.342 -0.8578  1.6695 -0.6139
   32ccc     O5  865   7.138   7.254   6.421  0.6813 -0.0905 -0.2911
   32ccc    H11  866   7.119   7.180   6.361 -1.3411  0.2933 -0.2091
   32ccc     O6  867   7.289   7.505   6.417 -0.4445  0.0483 -0.2452
   33ccc     C1  868   7.490   8.936   6.368 -0.8543  0.5326 -0.5580
   33ccc     C2  869   7.384   9.022   6.304  0.5716 -0.0918  0.0969
   33ccc     H1  870   7.566   9.001   6.413 -0.4980 -0.4331  0.2690
   33ccc     H2  871   7.346   9.095   6.375  1.1229  0.5370 -0.2384
   33ccc     C3  872   7.422   9.105   6.179  0.4392  0.2820 -0.0032
   33ccc     C4  873   7.485   8.998   6.079 -0.5873 -0.0274  0.1349
   33ccc     C5  874   7.607   8.931   6.154  0.2304  0.5183 -0.3588
   33ccc     H3  875   7.410   8.920   6.062 -0.6190 -0.2292  1.1415
   33ccc     H4  876   7.496   9.183   6.202  0.2429 -0.0552  1.9161
   33ccc     H5  877   7.676   9.011   6.184  1.1580 -0.2860 -0.2720
   33ccc     O1  878   7.675   8.832   6.074  0.2939 -0.1652  0.0145
   33ccc     O2  879   7.528   9.066   5.961 -1.1028 -0.0294  0.1082
   33ccc     O3  880   7.303   9.159   6.119  0.2144 -0.8559  0.0309
   33ccc     O4  881   7.271   8.946   6.273 -0.2850  0.7509 -0.0318
   33ccc     C6  882   7.433   8.840   6.472  1.2492 -0.1022 -0.1780
   33ccc     H6  883   7.277   9.239   6.168  0.0599 -1.9273  1.7762
   33ccc     H7  884   7.208   9.012   6.239 -0.1240  0.3262 -1.1797
   33ccc     H8  885   7.533   8.999   5.891 -0.8661  1.7284 -1.6682
   33ccc     H9  886   7.394   8.747   6.430 -0.6256  0.3078  0.5466
   33ccc    H10  887   7.344   8.896   6.505  1.1688 -0.2267 -0.1851
   33ccc     O5  888   7.533   8.830   6.573  0.0951  0.4745 -0.6304
   33ccc    H11  889   7.512   8.909   6.626 -2.6939  1.6320 -3.1411
   33ccc     O6  890   7.552   8.854   6.268 -0.0509  0.6753 -0.3146
   34ccc     C1  891   8.717   8.786   5.680  0.3626  0.4886 -0.0378
   34ccc     C2  892   8.713   8.760   5.525 -0.3400 -0.1210 -0.1517
   34ccc     H1  893   8.709   8.689   5.730 -2.5492  0.2972 -0.7267
   34ccc     H2  894   8.788   8.690   5.486  0.0957 -0.0059  0.4717
   34ccc     C3  895   8.582   8.683   5.495  0.6206 -0.4297  0.5212
   34ccc     C4  896   8.461   8.761   5.559 -0.9417  0.7798 -0.5671
   34ccc     C5  897   8.487   8.777   5.711  0.2012  0.4372  0.5959
   34ccc     H3  898   8.451   8.861   5.515  0.1675  1.3393  0.3969
   34ccc     H4  899   8.572   8.586   5.544 -2.2631 -0.1441  0.6641
   34ccc     H5  900   8.518   8.683   5.759  1.3869 -0.6408 -2.0720
   34ccc     O1  901   8.366   8.847   5.769  0.3654 -0.4873  0.2327
   34ccc     O2  902   8.335   8.690   5.539 -0.1948 -0.4866 -0.1537
   34ccc     O3  903   8.559   8.665   5.353  0.4783 -0.4954  0.5586
   34ccc     O4  904   8.720   8.893   5.472  0.2942  0.5119 -0.0874
   34ccc     C6  905   8.846   8.854   5.728 -0.9323 -0.3549  0.3794
   34ccc     H6  906   8.465   8.682   5.333  0.8966  0.4811 -0.7515
   34ccc     H7  907   8.759   8.941   5.547  1.9657  0.5672 -0.9374
   34ccc     H8  908   8.292   8.736   5.465 -1.4374 -0.4877  0.5420
   34ccc     H9  909   8.930   8.791   5.696 -2.9459 -3.2299  0.4273
   34ccc    H10  910   8.850   8.860   5.838  0.7829 -2.7503  0.5171
   34ccc     O5  911   8.853   8.987   5.677 -0.7066 -0.8181  0.2343
   34ccc    H11  912   8.944   9.018   5.695 -0.7146 -0.4968 -0.2616
   34ccc     O6  913   8.597   8.856   5.727  0.0107  0.0904  0.1878
   35ccc     C1  914   8.802   8.040   5.565  0.2279  0.2621 -0.3071
   35ccc     C2  915   8.835   8.173   5.504 -0.0562  0.3375  0.2234
   35ccc     H1  916   8.896   7.991   5.594  2.2626  1.6149 -3.8682
   35ccc     H2  917   8.888   8.240   5.574  0.3400  1.4159 -1.0713
   35ccc     C3  918   8.937   8.165   5.384  0.1740 -0.1125  0.6467
   35ccc     C4  919   8.881   8.065   5.283  0.2692 -0.3162  0.7534
   35ccc     C5  920   8.817   7.934   5.341  0.4851  0.7851  0.0290
   35ccc     H3  921   8.797   8.120   5.239 -0.1244 -0.8160  0.8622
   35ccc     H4  922   9.033   8.124   5.416  0.6087  0.2789 -0.1235
   35ccc     H5  923   8.904   7.873   5.370  1.5294  1.2195 -2.0247
   35ccc     O1  924   8.742   7.871   5.237 -0.2994  0.4803 -0.0906
   35ccc     O2  925   8.982   8.029   5.175  0.5956 -0.6776  0.2740
   35ccc     O3  926   8.960   8.295   5.333  0.9794 -0.4759  0.2677
   35ccc     O4  927   8.721   8.241   5.460  0.3084  0.3928  0.8983
   35ccc     C6  928   8.705   8.063   5.675 -0.3961 -0.6805 -0.3388
   35ccc     H6  929   9.045   8.331   5.361 -0.8831  3.2842  1.7211
   35ccc     H7  930   8.770   8.306   5.406 -0.2844 -0.3828 -0.6467
   35ccc     H8  931   8.935   8.049   5.092  0.3034 -1.7075  0.1831
   35ccc     H9  932   8.603   8.075   5.636  0.5732  0.1937 -2.7930
   35ccc    H10  933   8.736   8.160   5.715  0.3183 -1.0679  0.0541
   35ccc     O5  934   8.726   7.963   5.776 -0.1013 -0.7474  0.1094
   35ccc    H11  935   8.696   7.881   5.734 -0.8895  0.3925 -1.6746
   35ccc     O6  936   8.746   7.951   5.460  0.1928  0.1079 -0.8591
   36ccc     C1  937   8.571   7.897   4.435 -0.1565 -0.0136  0.0763
   36ccc     C2  938   8.656   7.993   4.358  0.2262 -0.0480  1.2579
   36ccc     H1  939   8.480   7.871   4.378 -0.3135  0.4415  0.1164
   36ccc     H2  940   8.667   7.950   4.257 -1.3160 -0.3171  1.1766
   36ccc     C3  941   8.574   8.122   4.337 -0.8260 -1.0524 -0.1753
   36ccc     C4  942   8.523   8.181   4.480  0.0599 -0.3233 -0.5278
   36ccc     C5  943   8.456   8.069   4.567 -0.2541  0.0632 -0.0669
   36ccc     H3  944   8.609   8.213   4.540  0.9820 -1.2277 -1.3450
   36ccc     H4  945   8.495   8.106   4.263  0.4969 -0.7660 -1.6872
   36ccc     H5  946   8.355   8.052   4.528 -0.2205  0.3375 -0.2758
   36ccc     O1  947   8.448   8.115   4.711 -0.1370 -0.5930  0.3425
   36ccc     O2  948   8.425   8.290   4.450 -0.6016  0.2243 -0.0528
   36ccc     O3  949   8.654   8.223   4.274  0.1044  0.1054  0.2808
   36ccc     O4  950   8.782   8.024   4.408 -0.4064  0.2492 -0.4890
   36ccc     C6  951   8.647   7.762   4.453  0.2955 -1.0778  0.3101
   36ccc     H6  952   8.744   8.203   4.305 -0.5347 -0.1708  2.0206
   36ccc     H7  953   8.804   7.937   4.446 -1.7328  0.4408  0.8271
   36ccc     H8  954   8.402   8.332   4.535 -1.5327  1.9638 -1.0984
   36ccc     H9  955   8.657   7.712   4.356 -0.7049 -1.6956  0.5130
   36ccc    H10  956   8.601   7.682   4.512 -0.0940  1.2900  3.4711
   36ccc     O5  957   8.773   7.785   4.508  0.5905  0.2371  0.1963
   36ccc    H11  958   8.767   7.759   4.602  2.5080 -1.3867 -0.0477
   36ccc     O6  959   8.536   7.950   4.566  0.5425 -0.0299  0.4999
   37ccc     C1  960   7.917   9.564   6.211 -0.2095  0.0014  0.3029
   37ccc     C2  961   7.790   9.608   6.288  0.9825  0.5912  0.4626
   37ccc     H1  962   7.898   9.533   6.108  0.0350  0.4987  0.1067
   37ccc     H2  963   7.728   9.675   6.227 -0.7186 -1.7972 -0.5792
   37ccc     C3  964   7.705   9.478   6.330  0.1456 -0.5740  0.5629
   37ccc     C4  965   7.784   9.356   6.383 -0.1590 -0.1875  0.1867
   37ccc     C5  966   7.913   9.327   6.305 -0.9125 -0.6709 -0.5157
   37ccc     H3  967   7.803   9.375   6.489  1.1673  2.3876 -0.4034
   37ccc     H4  968   7.652   9.442   6.241  2.2726 -3.7001  0.3919
   37ccc     H5  969   7.905   9.270   6.212  0.2901 -1.2473 -0.2782
   37ccc     O1  970   7.995   9.241   6.391 -0.1224 -0.2416  0.1023
   37ccc     O2  971   7.696   9.249   6.358 -0.3635 -0.0673 -0.8452
   37ccc     O3  972   7.602   9.520   6.416 -0.2700 -0.4187  0.7323
   37ccc     O4  973   7.823   9.682   6.400  0.4387 -0.7600  0.7677
   37ccc     C6  974   8.022   9.679   6.196 -0.1627 -0.0346 -0.1768
   37ccc     H6  975   7.558   9.595   6.372  1.6976  1.0284  1.0681
   37ccc     H7  976   7.845   9.616   6.469  0.0922 -1.9662 -0.2381
   37ccc     H8  977   7.615   9.261   6.410 -0.5206 -2.0835 -0.5338
   37ccc     H9  978   8.091   9.681   6.282 -0.1405 -1.7717 -0.1268
   37ccc    H10  979   7.978   9.776   6.170  0.7124 -0.3478 -3.1160
   37ccc     O5  980   8.099   9.647   6.074  0.1031 -0.2718 -0.1347
   37ccc    H11  981   8.053   9.698   6.006  0.6593  0.3799 -0.0334
   37ccc     O6  982   7.988   9.450   6.281 -0.2623 -0.8976 -0.1430
   38ccc     C1  983   8.241   8.214   6.544  0.2887 -0.3724  0.2586
   38ccc     C2  984   8.204   8.212   6.391 -0.1032 -0.3846  0.4510
   38ccc     H1  985   8.196   8.129   6.596 -0.4127  2.2661  4.3970
   38ccc     H2  986   8.212   8.107   6.360 -0.9940 -0.5660  0.7885
   38ccc     C3  987   8.063   8.271   6.351 -1.1180 -0.5624  0.3020
   38ccc     C4  988   8.012   8.385   6.444 -0.6858  0.6384 -0.8843
   38ccc     C5  989   8.046   8.366   6.592  0.1300  0.2547 -0.5629
   38ccc     H3  990   8.068   8.479   6.433 -1.1694  1.2558  1.4221
   38ccc     H4  991   7.989   8.191   6.362 -1.9358  0.3066  1.5026
   38ccc     H5  992   7.983   8.284   6.627  1.1946  0.4079  1.8952
   38ccc     O1  993   8.015   8.477   6.675  0.1616 -0.0969  0.3824
   38ccc     O2  994   7.867   8.414   6.433 -0.0023 -0.3279 -0.4350
   38ccc     O3  995   8.069   8.312   6.217  0.1050 -0.1680  0.8835
   38ccc     O4  996   8.290   8.291   6.319 -0.7868  0.2419  0.4531
   38ccc     C6  997   8.390   8.206   6.579 -0.3000 -0.4609 -0.3252
   38ccc     H6  998   7.984   8.315   6.169 -0.2485  0.6959  1.5416
   38ccc     H7  999   8.224   8.311   6.250 -0.6695  1.5094  0.6845
   38ccc     H8 1000   7.845   8.501   6.470  1.7807 -0.1488  0.3215
   38ccc     H9 1001   8.436   8.113   6.541  1.3846  0.5488 -0.9005
   38ccc    H10 1002   8.397   8.210   6.688  0.7505  1.5309 -0.4201
   38ccc     O5 1003   8.459   8.314   6.523  1.0128 -0.4711 -0.0585
   38ccc    H11 1004   8.415   8.308   6.437 -2.1828 -0.5680  1.4664
   38ccc     O6 1005   8.182   8.328   6.609 -0.1851  0.0240  0.2864
   39ccc     C1 1006   7.530   8.347   6.374 -0.4932 -0.4646 -0.4845
   39ccc     C2 1007   7.543   8.473   6.291  1.2935  0.1955 -0.1517
   39ccc     H1 1008   7.610   8.364   6.447 -1.5731  1.4174  0.3446
   39ccc     H2 1009   7.543   8.544   6.374 -2.0609  0.7365 -0.4844
   39ccc     C3 1010   7.666   8.486   6.197 -0.5467 -0.7366 -0.9569
   39ccc     C4 1011   7.704   8.351   6.142 -0.0072  0.1685  1.0881
   39ccc     C5 1012   7.695   8.234   6.238  0.5438 -0.0821  0.4275
   39ccc     H3 1013   7.640   8.339   6.054 -0.7026  2.0014  1.3169
   39ccc     H4 1014   7.758   8.523   6.243 -2.5153  0.7352  2.0622
   39ccc     H5 1015   7.773   8.245   6.314 -0.1473  0.8621  1.0136
   39ccc     O1 1016   7.721   8.115   6.163  0.7229 -1.1349 -0.4512
   39ccc     O2 1017   7.847   8.345   6.099 -0.1444  0.2483  0.3921
   39ccc     O3 1018   7.626   8.570   6.082 -0.3901 -0.1527  0.7241
   39ccc     O4 1019   7.426   8.492   6.214 -0.1728 -0.2679  0.4021
   39ccc     C6 1020   7.398   8.325   6.444  0.0782 -0.2843 -0.0969
   39ccc     H6 1021   7.653   8.661   6.103  1.4912  0.0798 -2.1306
   39ccc     H7 1022   7.472   8.540   6.142 -0.8382 -1.2033 -0.6803
   39ccc     H8 1023   7.847   8.403   6.021 -3.1258 -1.6293 -1.1548
   39ccc     H9 1024   7.318   8.290   6.377 -0.3648 -0.1917  0.3760
   39ccc    H10 1025   7.371   8.426   6.477  2.6634  0.1382  0.9780
   39ccc     O5 1026   7.421   8.239   6.557  0.0724 -0.2717 -0.0833
   39ccc    H11 1027   7.414   8.151   6.516 -0.2893 -0.5775  0.6323
   39ccc     O6 1028   7.559   8.232   6.296  0.1587 -0.1591  0.0198
   40ccc     C1 1029   8.176   8.428   7.158  0.1186 -0.2142 -0.6128
   40ccc     C2 1030   8.202   8.363   7.297  0.6291 -0.0495 -0.2022
   40ccc     H1 1031   8.106   8.510   7.178  3.0521  2.1730  0.6402
   40ccc     H2 1032   8.234   8.433   7.376  1.1258 -0.4810 -0.0213
   40ccc     C3 1033   8.070   8.302   7.350 -0.3756 -0.4323 -0.0577
   40ccc     C4 1034   8.017   8.196   7.256 -0.0231 -0.1353  0.3020
   40ccc     C5 1035   8.001   8.255   7.113 -0.1913 -0.0680  0.2302
   40ccc     H3 1036   8.092   8.116   7.257  0.4673  0.3176  0.7958
   40ccc     H4 1037   8.000   8.386   7.359 -1.3734 -1.3281  0.8170
   40ccc     H5 1038   7.918   8.327   7.104 -0.7477 -0.8720 -1.2750
   40ccc     O1 1039   7.986   8.143   7.020 -0.2622 -0.1237  0.6913
   40ccc     O2 1040   7.894   8.138   7.301  0.2165 -0.7046  0.4822
   40ccc     O3 1041   8.089   8.252   7.486  0.0834 -0.2820 -0.0126
   40ccc     O4 1042   8.302   8.267   7.279  1.0146 -0.2429 -0.0463
   40ccc     C6 1043   8.295   8.490   7.093  0.5892 -0.2258  0.5875
   40ccc     H6 1044   7.999   8.237   7.518 -0.2038  1.0583 -0.1156
   40ccc     H7 1045   8.349   8.310   7.206 -1.7427  1.5500 -0.9324
   40ccc     H8 1046   7.920   8.073   7.369  2.1868  0.5740  1.0342
   40ccc     H9 1047   8.323   8.574   7.156  1.5592 -0.6922  0.7902
   40ccc    H10 1048   8.265   8.521   6.991  0.1982 -2.6967 -0.1179
   40ccc     O5 1049   8.403   8.391   7.087 -0.3509 -0.0678 -0.5090
   40ccc    H11 1050   8.468   8.430   7.025  1.4756  0.0439  1.3735
   40ccc     O6 1051   8.119   8.323   7.075 -0.5565 -0.0540  0.1068
   41ccc     C1 1052   7.638   5.964   6.018  0.0756  0.2056  0.3963
   41ccc     C2 1053   7.561   5.917   5.892 -0.3071  0.2861  0.5734
   41ccc     H1 1054   7.630   5.881   6.089 -0.2768  0.0805  0.2169
   41ccc     H2 1055   7.597   5.821   5.853  1.5285 -0.2051  3.2406
   41ccc     C3 1056   7.413   5.909   5.907  0.8220 -0.8737 -0.2329
   41ccc     C4 1057   7.356   6.038   5.976  0.5120  0.3581 -0.0788
   41ccc     C5 1058   7.435   6.088   6.097 -0.5111  0.0211 -0.4292
   41ccc     H3 1059   7.356   6.125   5.909 -2.5451  0.2016 -0.4098
   41ccc     H4 1060   7.393   5.824   5.974 -1.6504 -1.6947 -1.8656
   41ccc     H5 1061   7.407   6.032   6.187 -0.7115  1.4112  0.4060
   41ccc     O1 1062   7.401   6.228   6.115  0.2701 -0.1676 -0.0814
   41ccc     O2 1063   7.224   5.996   6.022  0.6285 -0.3697 -0.1291
   41ccc     O3 1064   7.349   5.883   5.781  0.3744  0.1448 -0.8538
   41ccc     O4 1065   7.587   6.015   5.794 -0.3111 -0.6598 -0.0406
   41ccc     C6 1066   7.796   5.982   6.000  0.3605 -0.4895  0.4574
   41ccc     H6 1067   7.356   5.959   5.720 -1.4823 -0.1007 -1.4276
   41ccc     H7 1068   7.568   5.983   5.704  1.3037  1.9387 -1.4259
   41ccc     H8 1069   7.178   5.967   5.941  0.1343 -2.5777  0.8626
   41ccc     H9 1070   7.816   6.067   5.934  1.0565  0.6845  2.1289
   41ccc    H10 1071   7.835   5.890   5.954  0.4277  0.4422 -1.4595
   41ccc     O5 1072   7.854   5.996   6.136  0.3326  0.1147 -0.5612
   41ccc    H11 1073   7.900   6.081   6.147  2.8300 -1.2047 -0.0346
   41ccc     O6 1074   7.579   6.081   6.074  0.1333 -0.3340  0.0448
   42ccc     C1 1075   8.041   5.820   6.458  0.1836 -0.0430  0.2109
   42ccc     C2 1076   8.038   5.745   6.596 -0.1108  0.0020  0.5946
   42ccc     H1 1077   8.144   5.819   6.419  0.6502 -0.6698  1.3848
   42ccc     H2 1078   8.093   5.651   6.582 -1.1511 -0.3833 -1.2540
   42ccc     C3 1079   8.096   5.833   6.715 -0.5106 -0.0421  0.6877
   42ccc     C4 1080   8.035   5.971   6.708 -1.1348 -0.2579 -1.0000
   42ccc     C5 1081   8.060   6.040   6.573  0.5582 -0.1930  1.2710
   42ccc     H3 1082   7.928   5.948   6.720 -0.8262 -0.5493  1.7471
   42ccc     H4 1083   8.199   5.850   6.682 -1.0338 -1.7903 -2.1764
   42ccc     H5 1084   8.167   6.052   6.555  0.4083 -1.7924 -1.1758
   42ccc     O1 1085   7.999   6.172   6.576 -0.0960 -0.1557 -0.0193
   42ccc     O2 1086   8.092   6.040   6.824 -0.2001  0.1726 -0.4035
   42ccc     O3 1087   8.069   5.770   6.846  0.1751 -0.2178  0.5234
   42ccc     O4 1088   7.906   5.710   6.635 -0.3136  0.0501  0.0093
   42ccc     C6 1089   7.960   5.743   6.351  0.3808 -0.1166  2.0976
   42ccc     H6 1090   8.136   5.817   6.899 -0.9532  1.9421  0.1702
   42ccc     H7 1091   7.917   5.689   6.729 -0.7462 -0.6799 -0.0961
   42ccc     H8 1092   8.036   6.023   6.901 -0.9994  0.4967 -0.9077
   42ccc     H9 1093   7.854   5.763   6.366 -0.0872 -0.4585 -0.4308
   42ccc    H10 1094   7.978   5.635   6.359 -0.3341 -0.4516 -0.1649
   42ccc     O5 1095   8.001   5.793   6.224  0.1106  0.0406 -0.1197
   42ccc    H11 1096   7.935   5.858   6.195  0.3300 -0.2743 -1.4099
   42ccc     O6 1097   7.991   5.958   6.471 -0.6663  0.2520 -0.1281
   43ccc     C1 1098   8.038   8.565   5.653 -0.2370 -0.2788 -0.5697
   43ccc     C2 1099   7.897   8.615   5.788  1.0647  0.5124 -0.0892
   43ccc     H1 1100   8.111   8.646   5.648 -0.4687  0.1030  1.3097
   43ccc     H2 1101   7.917   8.704   5.850 -1.3086 -0.9495  3.0858
   43ccc     C3 1102   7.715   8.661   5.729 -0.2558 -0.0916  0.5059
   43ccc     C4 1103   7.663   8.640   5.541  0.0800 -0.4365  0.2474
   43ccc     C5 1104   7.805   8.597   5.406  0.2044 -0.6181  0.3203
   43ccc     H3 1105   7.602   8.549   5.535 -3.6824  2.0019 -3.7449
   43ccc     H4 1106   7.718   8.768   5.753 -0.1220  0.1996 -0.7832
   43ccc     H5 1107   7.825   8.693   5.356 -0.7324  0.1660  1.3960
   43ccc     O1 1108   7.745   8.514   5.302  1.0269 -0.0645 -0.5952
   43ccc     O2 1109   7.577   8.746   5.493  0.5791 -0.2931 -0.3294
   43ccc     O3 1110   7.607   8.595   5.811 -0.5795 -0.1729  0.0400
   43ccc     O4 1111   7.887   8.504   5.886  0.7361  0.1893  0.2883
   43ccc     C6 1112   8.146   8.458   5.681  0.0182 -0.0819 -0.5761
   43ccc     H6 1113   7.653   8.570   5.894  1.5354  2.2553 -0.2654
   43ccc     H7 1114   7.975   8.507   5.926  0.6385  1.0747  0.4485
   43ccc     H8 1115   7.625   8.823   5.528 -0.9917  1.4314 -1.7344
   43ccc     H9 1116   8.175   8.419   5.583  0.0626 -2.4997  0.3254
   43ccc    H10 1117   8.109   8.368   5.732 -1.9229  0.4867 -0.9073
   43ccc     O5 1118   8.255   8.524   5.747  0.2945  0.4692 -0.4883
   43ccc    H11 1119   8.296   8.586   5.685  0.2552 -0.4300 -1.4401
   43ccc     O6 1120   7.977   8.546   5.471 -0.8405 -0.4629 -0.3249
   44ccc     C1 1121   8.684   8.562   4.859 -1.2496  0.3410 -0.2342
   44ccc     C2 1122   8.785   8.453   4.909  0.0647 -0.0504 -0.0019
   44ccc     H1 1123   8.721   8.659   4.895  0.4384 -0.7139  0.9831
   44ccc     H2 1124   8.887   8.466   4.871  0.3132 -0.9566  0.3547
   44ccc     C3 1125   8.806   8.451   5.062  0.6984  0.1363 -0.4995
   44ccc     C4 1126   8.668   8.427   5.131  0.6737  0.3828 -1.2280
   44ccc     C5 1127   8.576   8.534   5.079  0.9281 -0.3202  0.4425
   44ccc     H3 1128   8.632   8.326   5.107  2.8647 -0.3916 -1.4981
   44ccc     H4 1129   8.842   8.550   5.090  0.4949 -0.6432  2.9829
   44ccc     H5 1130   8.626   8.624   5.117  2.5000 -2.1328  2.9761
   44ccc     O1 1131   8.434   8.512   5.124 -0.1625 -0.3430 -0.3920
   44ccc     O2 1132   8.683   8.447   5.278 -0.0888 -0.1387  0.2233
   44ccc     O3 1133   8.895   8.343   5.092  0.4645  0.6729 -0.3109
   44ccc     O4 1134   8.730   8.327   4.861  0.1274 -0.3992  0.3765
   44ccc     C6 1135   8.658   8.584   4.706 -0.2257  0.3670  0.1072
   44ccc     H6 1136   8.927   8.351   5.184 -2.1195  1.0047  0.6451
   44ccc     H7 1137   8.695   8.358   4.776 -2.4089 -0.1403  1.4354
   44ccc     H8 1138   8.641   8.529   5.308  1.1139 -0.3292  2.6864
   44ccc     H9 1139   8.747   8.632   4.662 -1.9657  1.3002 -2.7219
   44ccc    H10 1140   8.573   8.652   4.691 -0.5093 -0.3975 -2.1274
   44ccc     O5 1141   8.636   8.459   4.641  0.2736  0.3079 -0.0855
   44ccc    H11 1142   8.647   8.477   4.546 -3.4476 -0.3894 -0.7966
   44ccc     O6 1143   8.565   8.541   4.932  0.2578 -0.4572 -0.0886
   45ccc     C1 1144   9.147   7.255   5.778 -0.3356  0.1922 -0.1105
   45ccc     C2 1145   9.212   7.115   5.806 -0.2851 -0.1210 -0.1084
   45ccc     H1 1146   9.170   7.317   5.865  1.1972  0.1891 -0.4825
   45ccc     H2 1147   9.322   7.109   5.808 -0.2897  0.0885  0.9295
   45ccc     C3 1148   9.153   7.052   5.939 -0.1368  0.1662 -0.0392
   45ccc     C4 1149   8.993   7.058   5.939 -0.0807 -0.2150  0.1831
   45ccc     C5 1150   8.945   7.197   5.893 -0.1516 -0.6615 -0.1373
   45ccc     H3 1151   8.954   6.986   5.865 -1.0439  1.3582 -0.8952
   45ccc     H4 1152   9.187   7.112   6.024  0.2858 -2.7437  2.0037
   45ccc     H5 1153   8.973   7.262   5.977 -0.8215 -2.2902  1.4224
   45ccc     O1 1154   8.806   7.179   5.884 -0.1444  0.8528  0.3338
   45ccc     O2 1155   8.933   7.009   6.062  0.4329 -0.0699 -0.1654
   45ccc     O3 1156   9.202   6.912   5.962  0.0736 -0.2338  0.4432
   45ccc     O4 1157   9.171   7.028   5.695  0.4167  0.1019 -0.1774
   45ccc     C6 1158   9.206   7.325   5.657 -0.1892  0.0926 -0.4179
   45ccc     H6 1159   9.147   6.888   6.039 -0.7373  0.3787  0.0752
   45ccc     H7 1160   9.195   6.938   5.723  1.8101  0.8455  1.1834
   45ccc     H8 1161   8.963   7.081   6.120  0.5563  0.8011 -1.2713
   45ccc     H9 1162   9.315   7.329   5.656 -0.2212  0.9158 -0.7516
   45ccc    H10 1163   9.166   7.425   5.636 -1.1306 -0.1804  0.0167
   45ccc     O5 1164   9.168   7.252   5.546 -0.2106 -0.3476 -0.5901
   45ccc    H11 1165   9.144   7.167   5.586  0.8237 -0.4847 -0.2483
   45ccc     O6 1166   9.008   7.239   5.766  0.0047  0.0537 -0.1378
   46ccc     C1 1167   8.367   6.454   5.409 -0.0050  0.2677 -0.4280
   46ccc     C2 1168   8.517   6.435   5.367  0.5194  0.6523  0.4524
   46ccc     H1 1169   8.291   6.426   5.335 -0.6004  1.4050 -0.2730
   46ccc     H2 1170   8.548   6.330   5.357  0.2642  0.7576 -2.3238
   46ccc     C3 1171   8.540   6.501   5.227 -0.4736  0.8339 -0.3332
   46ccc     C4 1172   8.487   6.650   5.230  0.1105 -0.3665  0.6569
   46ccc     C5 1173   8.348   6.669   5.297 -0.5426  0.0389 -0.1931
   46ccc     H3 1174   8.556   6.710   5.291 -0.0205 -2.5135  3.0909
   46ccc     H4 1175   8.485   6.453   5.144 -1.7701  1.8820 -0.1155
   46ccc     H5 1176   8.266   6.642   5.229 -0.5379  0.4423 -0.3652
   46ccc     O1 1177   8.332   6.807   5.333  0.2630 -0.5488 -0.1552
   46ccc     O2 1178   8.494   6.697   5.093 -0.1739  0.0336 -0.4283
   46ccc     O3 1179   8.681   6.495   5.196  0.2289 -0.0809 -0.0502
   46ccc     O4 1180   8.601   6.507   5.456  0.6425  0.0232  0.2669
   46ccc     C6 1181   8.335   6.381   5.538  0.8376 -0.6858  0.3500
   46ccc     H6 1182   8.683   6.487   5.099 -1.4321 -0.9669 -0.0376
   46ccc     H7 1183   8.681   6.514   5.402  2.6203  1.9585  3.1640
   46ccc     H8 1184   8.494   6.794   5.099 -2.0124  0.1391 -1.3688
   46ccc     H9 1185   8.359   6.275   5.521 -1.7139 -1.2079 -0.4782
   46ccc    H10 1186   8.227   6.390   5.555  0.3635 -3.5773 -0.5860
   46ccc     O5 1187   8.422   6.447   5.627 -0.2925 -0.2019 -0.2247
   46ccc    H11 1188   8.492   6.466   5.563  0.9860 -2.5443  0.3681
   46ccc     O6 1189   8.348   6.596   5.427 -0.1209  0.1051 -0.2486
   47SOL     OW 1190   7.470   1.689   7.519  0.4769  0.0358 -0.4778
   47SOL    HW1 1191   7.544   1.646   7.478  0.6612 -2.0877  1.8570
   47SOL    HW2 1192   7.395   1.632   7.501 -0.0056  0.5859 -0.2774
   48SOL     OW 1193   1.880   2.425   6.201 -0.3149 -0.4397  0.3811
   48SOL    HW1 1194   1.848   2.511   6.227 -1.8452 -0.6689 -0.6359
   48SOL    HW2 1195   1.872   2.371   6.280 -0.0597  0.1483  0.8150
   49SOL     OW 1196   5.538   1.283   1.055  0.3414  0.4875 -0.1192
   49SOL    HW1 1197   5.599   1.351   1.083 -0.4398  0.5217  1.6019
   49SOL    HW2 1198   5.452   1.327   1.054  0.0152 -0.1432 -0.2327
   50SOL     OW 1199   4.144   4.046   5.112 -0.4752 -0.0724 -0.1162
   50SOL    HW1 1200   4.221   4.050   5.055  1.6674 -0.7985  2.5195
   50SOL    HW2 1201   4.085   3.983   5.069  1.2515 -0.9871 -1.2595
   51SOL     OW 1202   3.169   2.784   7.813  0.7284 -0.4819 -0.2597
   51SOL    HW1 1203   3.154   2.729   7.736  0.1868 -0.1370 -0.4075
   51SOL    HW2 1204   3.155   2.873   7.782  0.5588 -0.3362  0.2260
   52SOL     OW 1205   2.156   5.273   0.946 -0.0887 -0.0384  0.0359
   52SOL    HW1 1206   2.094   5.234   1.008 -1.4272  0.4786 -0.9428
   52SOL    HW2 1207   2.167   5.363   0.976  1.9619 -0.6950  1.5019
   53SOL     OW 1208   5.973   8.149   5.649  0.9144  0.2848 -0.1872
   53SOL    HW1 1209   6.020   8.219   5.694 -0.2523  0.3677  0.9695
   53SOL    HW2 1210   6.001   8.069   5.693  0.9192  0.2118 -0.3233
   54SOL     OW 1211   8.025   8.005   2.925  0.5843 -0.2384 -0.2648
   54SOL    HW1 1212   8.069   8.088   2.910 -0.1739  0.0895 -0.7379
   54SOL    HW2 1213   8.065   7.970   3.004  0.7053  0.7188  0.1035
   55SOL     OW 1214   3.253   6.169   8.232 -0.2820 -0.1452 -0.1536
   55SOL    HW1 1215   3.317   6.160   8.303 -0.9826 -0.0547  0.5018
   55SOL    HW2 1216   3.169   6.150   8.273 -0.7343  0.2190 -0.8902
   56SOL     OW 1217   2.144   7.207   5.856  0.5577  0.4326 -0.1206
   56SOL    HW1 1218   2.079   7.266   5.817  0.5235 -0.6248 -1.7492
   56SOL    HW2 1219   2.161   7.245   5.943 -0.0246  2.3929 -0.7999
   57SOL     OW 1220   5.150   5.069   6.949 -0.0106 -0.2346  0.1617
   57SOL    HW1 1221   5.058   5.043   6.942 -0.4258  1.1386  0.2084
   57SOL    HW2 1222   5.148   5.165   6.950  1.3137 -0.1777  1.5934
   58SOL     OW 1223   1.255   7.909   2.795 -0.0992 -0.0390 -0.4871
   58SOL    HW1 1224   1.318   7.929   2.726  1.2041 -0.5991  0.5025
   58SOL    HW2 1225   1.295   7.942   2.875 -1.4226  0.2793  0.0709
   59SOL     OW 1226   2.673   4.358   1.547  0.3021  0.1683 -0.2518
   59SOL    HW1 1227   2.593   4.306   1.554  1.0201 -0.8729  0.5119
   59SOL    HW2 1228   2.668   4.420   1.620 -0.2616  0.7712 -0.7934
   60SOL     OW 1229   5.382   7.018   4.886  0.2667  0.0986  0.0916
   60SOL    HW1 1230   5.417   6.932   4.864  1.1320  0.1230  1.3093
   60SOL    HW2 1231   5.306   6.999   4.942 -0.2672  0.1162 -0.6046
   61SOL     OW 1232   3.612   4.397   4.934  0.6064 -0.1692 -0.4102
   61SOL    HW1 1233   3.684   4.450   4.969 -0.4848  3.1684 -2.6694
   61SOL    HW2 1234   3.651   4.350   4.860  1.2137 -1.3506  0.6187
   62SOL     OW 1235   6.057   3.943   6.295  0.3764 -0.0162 -0.2018
   62SOL    HW1 1236   5.994   3.946   6.367  1.2332 -2.1486  0.7203
   62SOL    HW2 1237   6.003   3.942   6.216 -0.6548  0.4730  0.4808
   63SOL     OW 1238   0.497   1.706   1.967  0.1030 -0.0815 -0.0995
   63SOL    HW1 1239   0.434   1.713   1.895 -1.9514  0.6046  1.6694
   63SOL    HW2 1240   0.459   1.641   2.026  1.0224  0.3758  1.0369
   64SOL     OW 1241   5.918   0.315   0.790  0.5561  0.3973 -0.2558
   64SOL    HW1 1242   5.860   0.248   0.824  1.4906 -0.2245  0.1759
   64SOL    HW2 1243   6.001   0.269   0.773  1.8630  1.7509  1.9144
   65SOL     OW 1244   1.632   7.644   0.349  0.4048  0.0203 -0.3381
   65SOL    HW1 1245   1.685   7.564   0.355  0.5329 -0.0514 -1.9241
   65SOL    HW2 1246   1.571   7.638   0.422  1.3569 -0.8225  0.4180
   66SOL     OW 1247   8.223   1.976   5.229 -0.3334  0.1484  0.0028
   66SOL    HW1 1248   8.296   2.008   5.176 -1.0789  2.5638  0.3418
   66SOL    HW2 1249   8.163   1.937   5.166  0.5407 -0.5266 -0.4410
   67SOL     OW 1250   6.909   5.044   4.959 -0.3286 -0.2249 -0.1797
   67SOL    HW1 1251   6.841   4.991   4.918 -1.4451  1.4048 -0.5473
   67SOL    HW2 1252   6.863   5.094   5.026  1.1159 -1.3598  1.7565
   68SOL     OW 1253   7.480   6.426   6.597  0.0308  0.4462  0.3866
   68SOL    HW1 1254   7.438   6.421   6.682 -0.6890  1.2041  0.0894
   68SOL    HW2 1255   7.486   6.335   6.567 -0.8945  0.2780  0.6828
   69SOL     OW 1256   5.081   6.300   4.856 -0.1823 -0.2881 -0.7399
   69SOL    HW1 1257   5.054   6.255   4.936  0.5297 -1.1806 -0.9800
   69SOL    HW2 1258   5.173   6.322   4.871 -0.2096  0.0736 -1.0824
   70SOL     OW 1259   0.188   1.120   5.233  0.0044  0.0580 -0.1865
   70SOL    HW1 1260   0.259   1.152   5.288  1.4989 -0.8774 -1.5002
   70SOL    HW2 1261   0.108   1.151   5.277  1.0568 -1.1441  2.8078
   71SOL     OW 1262   5.097   1.975   8.187  0.3027 -0.2837  0.0820
   71SOL    HW1 1263   5.091   1.981   8.091 -0.1882  0.9751  0.1768
   71SOL    HW2 1264   5.192   1.976   8.204  0.3904  0.8097 -0.3431
   72SOL     OW 1265   8.124   1.739   3.755  0.2173  0.0515 -0.5080
   72SOL    HW1 1266   8.201   1.684   3.769  1.3907  1.7692  0.0886
   72SOL    HW2 1267   8.082   1.743   3.841 -0.5541 -0.8675 -0.8286
   73SOL     OW 1268   5.538   7.449   7.540 -0.1646 -0.2612  0.8583
   73SOL    HW1 1269   5.534   7.360   7.505 -1.5980  0.5774 -1.3982
   73SOL    HW2 1270   5.482   7.448   7.617  0.1944 -1.4027  1.1165
   74SOL     OW 1271   5.678   6.710   7.521  0.6902 -0.4086 -0.5326
   74SOL    HW1 1272   5.596   6.754   7.498  0.5053 -0.5259 -0.1063
   74SOL    HW2 1273   5.665   6.681   7.611  0.7828 -1.3756 -0.8146
   75SOL     OW 1274   2.788   8.245   3.276 -0.2526 -0.2197 -0.2307
   75SOL    HW1 1275   2.845   8.184   3.323 -0.1090  0.4112  0.4372
   75SOL    HW2 1276   2.701   8.204   3.277 -0.2935 -0.1233  0.7761
   76SOL     OW 1277   7.838   1.612   8.258 -0.2395  0.3798  0.0856
   76SOL    HW1 1278   7.911   1.556   8.284 -1.6461 -1.3797  0.4261
   76SOL    HW2 1279   7.875   1.670   8.191  0.7310 -2.5673 -2.1044
   77SOL     OW 1280   2.844   4.257   3.306  0.5886  0.5427 -0.8389
   77SOL    HW1 1281   2.783   4.184   3.320  0.2949  0.6994 -1.2703
   77SOL    HW2 1282   2.860   4.291   3.393 -0.0876  0.6086 -0.7335
   78SOL     OW 1283   4.062   0.988   3.604  0.0667 -0.0794 -0.3982
   78SOL    HW1 1284   4.038   1.070   3.561 -0.3710 -0.8710 -1.7242
   78SOL    HW2 1285   4.133   1.013   3.664 -0.6790  1.4148 -0.0752
   79SOL     OW 1286   1.469   0.390   6.944  0.1807 -0.1560  0.4809
   79SOL    HW1 1287   1.407   0.324   6.973  0.2574 -0.8161 -0.8029
   79SOL    HW2 1288   1.437   0.418   6.858  0.0401  1.6280  1.0603
   80SOL     OW 1289   4.934   7.244   5.366 -0.5595  0.0204 -0.0764
   80SOL    HW1 1290   4.997   7.176   5.342 -1.7903 -0.7927 -1.1264
   80SOL    HW2 1291   4.978   7.326   5.346 -0.3494 -0.5615 -2.2641
   81SOL     OW 1292   0.719   3.985   0.983  0.4552  0.1143  0.2992
   81SOL    HW1 1293   0.805   3.945   0.998  0.3668  0.1207  0.8524
   81SOL    HW2 1294   0.669   3.917   0.938  1.5610  1.0201 -2.5166
   82SOL     OW 1295   4.011   1.237   1.230 -0.0389  0.4143  0.1415
   82SOL    HW1 1296   4.017   1.225   1.135 -1.2498 -0.7012  0.1824
   82SOL    HW2 1297   4.102   1.247   1.259  0.3031  1.6136 -1.2111
   83SOL     OW 1298   3.628   2.938   7.514  0.3352  0.0907  0.1419
   83SOL    HW1 1299   3.647   2.867   7.576 -1.8574 -1.9759 -1.3632
   83SOL    HW2 1300   3.671   2.910   7.433 -2.6273 -1.0019 -1.2167
   84SOL     OW 1301   6.100   2.295   7.413 -0.0074  0.7664 -0.5520
   84SOL    HW1 1302   6.095   2.355   7.339 -0.3671  1.8535  0.3207
   84SOL    HW2 1303   6.186   2.311   7.452 -0.0171  0.5558 -0.4374
   85SOL     OW 1304   7.957   5.159   4.582  0.7607 -0.2304  0.2444
   85SOL    HW1 1305   7.951   5.220   4.508  0.6370  1.5220  1.6339
   85SOL    HW2 1306   7.868   5.154   4.617  1.3043  1.3385  2.0407
   86SOL     OW 1307   6.924   1.673   1.396 -0.0815 -0.7583 -0.0640
   86SOL    HW1 1308   6.936   1.578   1.390  0.6989 -0.7439  1.0556
   86SOL    HW2 1309   6.896   1.688   1.486 -0.9632  0.0092 -0.4555
   87SOL     OW 1310   7.369   5.472   8.224 -0.1012  0.1777  0.2309
   87SOL    HW1 1311   7.378   5.560   8.262 -0.8357  0.4619 -0.2340
   87SOL    HW2 1312   7.395   5.483   8.132 -0.9027  0.0730 -0.0151
   88SOL     OW 1313   5.524   0.648   2.342 -0.1279  0.1138  0.5000
   88SOL    HW1 1314   5.555   0.680   2.427  1.4247 -1.2562  0.5128
   88SOL    HW2 1315   5.601   0.608   2.302 -1.5422 -2.2424 -0.1079
   89SOL     OW 1316   6.682   4.832   4.001  0.0834 -0.6091 -0.2487
   89SOL    HW1 1317   6.694   4.922   4.031  0.4572 -0.3768 -1.0632
   89SOL    HW2 1318   6.588   4.815   4.012 -0.1345  0.1628 -0.8387
   90SOL     OW 1319   1.947   1.860   7.451  0.0363  0.5171  0.1568
   90SOL    HW1 1320   1.941   1.862   7.355  0.2478  1.0733  0.1494
   90SOL    HW2 1321   2.039   1.878   7.470  0.3667 -1.3455  0.4297
   91SOL     OW 1322   2.834   1.154   1.335 -0.0791 -0.2496  0.2291
   91SOL    HW1 1323   2.863   1.091   1.268 -0.0284 -0.8944  0.8416
   91SOL    HW2 1324   2.836   1.104   1.416  0.6588  0.7467  0.8507
   92SOL     OW 1325   4.479   5.244   2.503 -0.0355  0.0728 -0.1138
   92SOL    HW1 1326   4.530   5.174   2.544  1.7577  1.2599 -0.2179
   92SOL    HW2 1327   4.401   5.252   2.557  0.2218 -1.2801  0.5105
   93SOL     OW 1328   7.826   7.938   7.124  0.6434 -0.4550 -0.3231
   93SOL    HW1 1329   7.911   7.905   7.094  1.6546  1.5316  0.1996
   93SOL    HW2 1330   7.842   8.031   7.144 -1.1294 -0.5156  1.7632
   94SOL     OW 1331   3.923   2.329   6.632  0.1548 -0.5378 -0.1869
   94SOL    HW1 1332   3.842   2.317   6.682 -0.2271 -0.6235 -0.8224
   94SOL    HW2 1333   3.972   2.247   6.645  0.4501 -0.2354  0.7343
   95SOL     OW 1334   4.866   3.764   4.135 -0.1760 -0.0206 -0.2043
   95SOL    HW1 1335   4.890   3.792   4.223 -0.5263  1.5407 -0.5695
   95SOL    HW2 1336   4.902   3.676   4.126 -0.2011 -0.2292  1.5149
   96SOL     OW 1337   2.850   3.372   4.287 -0.0634 -0.2373  0.2679
   96SOL    HW1 1338   2.863   3.405   4.199  0.1469 -0.4994  0.1992
   96SOL    HW2 1339   2.908   3.296   4.293 -0.2820 -0.3845  0.5381
   97SOL     OW 1340   3.259   0.099   5.417  0.5930  0.0751  0.0826
   97SOL    HW1 1341   3.174   0.138   5.395  1.9490  3.3787 -0.0107
   97SOL    HW2 1342   3.273   0.032   5.350 -1.2659  0.5073 -0.8053
   98SOL     OW 1343   8.141   1.694   2.533 -0.0884  0.1210 -0.0115
   98SOL    HW1 1344   8.101   1.611   2.556  0.0696 -0.5106 -1.8537
   98SOL    HW2 1345   8.217   1.702   2.590  0.0353 -1.1277  0.0122
   99SOL     OW 1346   1.538   7.768   2.068  0.1717 -0.0627  0.7081
   99SOL    HW1 1347   1.583   7.716   2.002  1.2349 -0.9237  2.0518
   99SOL    HW2 1348   1.603   7.782   2.136 -0.6542  1.4750  1.2308
  100SOL     OW 1349   7.903   1.707   4.479  0.0017  0.1231  0.0485
  100SOL    HW1 1350   7.937   1.672   4.397 -0.4028  1.1716 -0.5860
  100SOL    HW2 1351   7.981   1.729   4.531  0.2536 -1.0265  0.1682
  101SOL     OW 1352   5.832   2.116   3.995  0.1033  0.2234  0.4341
  101SOL    HW1 1353   5.838   2.069   3.912 -1.8112 -1.6420  1.2595
  101SOL    HW2 1354   5.747   2.160   3.991  0.9540  1.9736  0.5523
  102SOL     OW 1355   0.740   7.087   4.591  0.0874  0.3981 -0.1194
  102SOL    HW1 1356   0.827   7.048   4.580 -0.2432  0.0262 -1.6338
  102SOL    HW2 1357   0.727   7.089   4.686  1.8576  0.7236  0.1602
  103SOL     OW 1358   7.257   7.824   3.963 -0.1656 -0.7015  0.1683
  103SOL    HW1 1359   7.277   7.847   4.054 -1.5260  0.2456  0.2479
  103SOL    HW2 1360   7.330   7.767   3.936  1.1313  0.3459  1.3160
  104SOL     OW 1361   5.523   2.840   4.517 -0.4467  0.5486 -0.4432
  104SOL    HW1 1362   5.611   2.836   4.479 -0.5564  1.0990 -0.7730
  104SOL    HW2 1363   5.537   2.829   4.611  0.3109  3.4121 -0.1245
  105SOL     OW 1364   4.959   0.240   3.279  0.0383 -0.1665 -0.1031
  105SOL    HW1 1365   4.982   0.310   3.218  0.6260  0.9135  1.2812
  105SOL    HW2 1366   4.864   0.235   3.275  0.0658 -0.0965 -1.0626
  106SOL     OW 1367   2.644   0.936   2.573 -0.9061 -0.7968  0.1911
  106SOL    HW1 1368   2.730   0.894   2.567 -1.1219 -1.3965  1.0569
  106SOL    HW2 1369   2.622   0.932   2.666 -0.2992  2.5567  0.6139
  107SOL     OW 1370   4.626   7.126   6.281 -0.0148  0.1200 -0.3244
  107SOL    HW1 1371   4.541   7.090   6.309  0.7479 -1.7558 -0.2820
  107SOL    HW2 1372   4.689   7.059   6.305  1.1326  0.0839 -3.1094
  108SOL     OW 1373   4.271   1.558   2.614  0.5394 -0.2551  0.0401
  108SOL    HW1 1374   4.315   1.475   2.638 -0.4023 -0.2450  2.0444
  108SOL    HW2 1375   4.196   1.562   2.673 -0.8041  0.8997 -1.6882
  109SOL     OW 1376   0.487   1.196   6.667 -0.0542  0.1284 -0.2624
  109SOL    HW1 1377   0.437   1.166   6.591 -1.8298  3.3617 -0.5738
  109SOL    HW2 1378   0.472   1.130   6.734 -1.9854 -0.7231 -1.4419
  110SOL     OW 1379   4.762   7.505   0.948 -0.2174  0.3542 -0.1953
  110SOL    HW1 1380   4.719   7.582   0.911 -2.3513 -0.0375  1.2974
  110SOL    HW2 1381   4.781   7.529   1.039 -1.3785 -1.0197  0.4408
  111SOL     OW 1382   8.235   1.224   8.154 -0.1120 -0.0570  0.1501
  111SOL    HW1 1383   8.219   1.317   8.167 -0.0869  0.1974 -1.4389
  111SOL    HW2 1384   8.328   1.218   8.132 -0.0539 -0.4839  0.4974
  112SOL     OW 1385   4.717   5.620   4.717 -0.2080 -0.3461 -0.4447
  112SOL    HW1 1386   4.624   5.618   4.741 -0.1530 -0.1072 -0.2070
  112SOL    HW2 1387   4.718   5.658   4.629 -0.2571  0.6375 -0.0353
  113SOL     OW 1388   3.359   1.759   5.984  0.7455  0.4544  0.5803
  113SOL    HW1 1389   3.330   1.834   5.932  0.4309  0.0546  0.1735
  113SOL    HW2 1390   3.442   1.732   5.943  1.5836  1.4233  1.5707
  114SOL     OW 1391   0.459   6.001   5.871  0.3941 -0.7469  0.5873
  114SOL    HW1 1392   0.486   6.079   5.822  2.0165 -0.6830  1.4931
  114SOL    HW2 1393   0.373   6.023   5.905 -0.2023 -0.2892 -1.1232
  115SOL     OW 1394   4.305   3.194   7.896 -0.0297 -0.1430 -0.1643
  115SOL    HW1 1395   4.240   3.193   7.966 -0.9439  1.5881 -0.9323
  115SOL    HW2 1396   4.370   3.129   7.923 -0.0213  0.8928  2.5828
  116SOL     OW 1397   1.856   7.564   2.444  0.0849  0.4786 -0.0427
  116SOL    HW1 1398   1.913   7.591   2.372 -1.0308 -0.9429 -1.5188
  116SOL    HW2 1399   1.895   7.482   2.476 -1.4843 -0.9379 -1.5907
  117SOL     OW 1400   0.698   5.736   6.861  0.2702  0.0528 -0.6100
  117SOL    HW1 1401   0.682   5.653   6.816 -3.3044  0.6602 -0.7729
  117SOL    HW2 1402   0.621   5.789   6.841  1.4034  2.6208  1.2930
  118SOL     OW 1403   5.174   6.389   6.248 -0.2078  0.2514 -0.0537
  118SOL    HW1 1404   5.204   6.339   6.324 -0.6987  0.3358  0.1984
  118SOL    HW2 1405   5.239   6.458   6.238  1.5841 -1.5239 -1.5755
  119SOL     OW 1406   0.082   1.349   6.187 -0.6267  0.4905  0.1869
  119SOL    HW1 1407   0.130   1.399   6.121 -1.1887  0.0403 -0.5878
  119SOL    HW2 1408  -0.001   1.328   6.144  0.1081 -2.2833 -0.0302
  120SOL     OW 1409   8.018   4.361   5.035 -0.4888  0.3481 -0.5329
  120SOL    HW1 1410   8.027   4.271   5.005  1.9480  0.8899 -1.6543
  120SOL    HW2 1411   7.972   4.354   5.119  1.9380 -2.1971  0.7249
  121SOL     OW 1412   7.523   1.249   2.659  0.6616 -0.2464  0.3654
  121SOL    HW1 1413   7.542   1.322   2.717  2.3399 -0.8698  0.6531
  121SOL    HW2 1414   7.446   1.207   2.698  1.4785 -0.3825  1.9129
  122SOL     OW 1415   8.131   4.227   2.284  0.0488 -0.0598  0.5941
  122SOL    HW1 1416   8.078   4.148   2.281  1.2479 -0.8951 -2.3347
  122SOL    HW2 1417   8.106   4.276   2.205  0.1487  1.9655  1.7420
  123SOL     OW 1418   2.175   3.541   8.248  0.0825 -0.2393  0.0176
  123SOL    HW1 1419   2.150   3.609   8.311  2.3360  0.4410  0.2647
  123SOL    HW2 1420   2.255   3.503   8.285  1.8291  0.5599 -2.6478
  124SOL     OW 1421   1.074   5.122   0.879  0.0490  0.1495 -0.2153
  124SOL    HW1 1422   1.155   5.173   0.882  0.3298 -0.3067 -0.0929
  124SOL    HW2 1423   1.055   5.101   0.970  0.9340 -1.5453 -0.3944
  125SOL     OW 1424   5.057   7.059   3.552 -0.0180 -0.3855 -0.7682
  125SOL    HW1 1425   5.144   7.099   3.562 -0.4789  0.3747  0.3676
  125SOL    HW2 1426   5.028   7.087   3.465  1.1435 -1.2094 -1.4534
  126SOL     OW 1427   3.487   2.932   3.817  0.0463  0.1794  0.2911
  126SOL    HW1 1428   3.454   2.923   3.906 -0.2767  0.9811  0.2635
  126SOL    HW2 1429   3.465   3.022   3.793 -1.2654 -0.5042 -1.1741
  127SOL     OW 1430   5.526   3.167   6.981  0.7747 -0.5752  0.0238
  127SOL    HW1 1431   5.545   3.183   7.073 -1.1526 -2.6542  0.8731
  127SOL    HW2 1432   5.526   3.072   6.972  0.2027 -0.4409 -1.9683
  128SOL     OW 1433   8.229   2.922   6.451 -0.6437  0.0243 -0.8533
  128SOL    HW1 1434   8.248   3.005   6.408  1.9474 -0.4134 -0.7387
  128SOL    HW2 1435   8.192   2.946   6.536  1.2507  1.1441 -0.2907
  129SOL     OW 1436   5.059   3.093   5.996 -0.7542 -0.4269 -0.2638
  129SOL    HW1 1437   5.032   3.175   6.037  0.7103  0.8987 -1.8277
  129SOL    HW2 1438   4.977   3.051   5.970 -1.5676  0.0566  1.3953
  130SOL     OW 1439   5.302   1.414   3.118 -0.1226 -0.4191 -0.4702
  130SOL    HW1 1440   5.285   1.368   3.199 -1.4248  2.3237  0.9460
  130SOL    HW2 1441   5.233   1.385   3.058  0.3002 -1.7538 -0.3453
  131SOL     OW 1442   1.067   6.905   0.231 -0.6037 -0.6060  0.0793
  131SOL    HW1 1443   0.980   6.924   0.196  0.2203  0.8140 -1.3450
  131SOL    HW2 1444   1.051   6.870   0.318 -2.5631  1.0017  0.4355
  132SOL     OW 1445   5.749   4.737   3.403  0.7736  0.0486 -0.0445
  132SOL    HW1 1446   5.791   4.689   3.332  2.7209  0.1399  0.9699
  132SOL    HW2 1447   5.753   4.829   3.375  0.7815  0.0063 -0.1834
  133SOL     OW 1448   5.551   2.525   4.501 -0.1320  0.1325 -0.2906
  133SOL    HW1 1449   5.489   2.572   4.445 -1.4808  1.6061  2.2580
  133SOL    HW2 1450   5.503   2.448   4.532 -0.6290  1.0618  1.3670
  134SOL     OW 1451   7.898   3.230   7.183  0.7670  0.4712  0.4502
  134SOL    HW1 1452   7.940   3.176   7.116 -2.3516 -2.5976  0.7012
  134SOL    HW2 1453   7.926   3.319   7.161  1.3881 -0.5145 -3.8543
  135SOL     OW 1454   7.578   7.577   6.984  0.7068 -0.9212  0.1052
  135SOL    HW1 1455   7.625   7.495   6.974 -1.2671 -2.1475  0.4541
  135SOL    HW2 1456   7.499   7.555   7.033 -0.0950  1.0981 -0.1440
  136SOL     OW 1457   2.030   1.209   6.372  0.0337 -0.4299  0.1592
  136SOL    HW1 1458   2.118   1.190   6.339 -0.1304  0.5656 -0.9011
  136SOL    HW2 1459   1.994   1.123   6.394  1.3025 -0.8444  0.7288
  137SOL     OW 1460   6.727   3.560   8.125 -0.1163  0.0831 -0.0882
  137SOL    HW1 1461   6.727   3.649   8.090 -0.8097  0.6265  1.2256
  137SOL    HW2 1462   6.745   3.571   8.219  1.0567 -1.2721 -0.1191
  138SOL     OW 1463   0.211   0.456   4.328  0.1247  0.2388 -0.4268
  138SOL    HW1 1464   0.228   0.500   4.412  0.2406 -0.1346 -0.2538
  138SOL    HW2 1465   0.209   0.363   4.350 -1.7521  0.2201 -0.4882
  139SOL     OW 1466   7.097   6.303   2.484 -0.4464 -0.6118 -0.1080
  139SOL    HW1 1467   7.167   6.338   2.538 -0.5997  0.1961 -0.4078
  139SOL    HW2 1468   7.028   6.369   2.489 -0.7422 -0.8635 -0.7071
  140SOL     OW 1469   5.889   5.522   5.061 -0.5876  0.4849 -0.5297
  140SOL    HW1 1470   5.952   5.542   5.130  0.2271 -1.1143 -0.7773
  140SOL    HW2 1471   5.904   5.590   4.995  2.2898 -0.9373 -1.4888
  141SOL     OW 1472   4.540   6.627   2.351 -0.1239 -0.0626  0.3704
  141SOL    HW1 1473   4.525   6.596   2.440 -2.1728  2.0237  0.8323
  141SOL    HW2 1474   4.537   6.722   2.358 -2.9297  0.1892 -2.2627
  142SOL     OW 1475   6.817   2.189   5.664 -0.3558 -0.2378 -0.1560
  142SOL    HW1 1476   6.872   2.202   5.587 -0.4878 -0.4131 -0.2795
  142SOL    HW2 1477   6.793   2.278   5.691  0.0509 -0.1568 -0.0535
  143SOL     OW 1478   1.809   2.395   0.991  0.0736  0.5760 -0.3327
  143SOL    HW1 1479   1.828   2.304   1.015  1.7963  1.6235  2.8375
  143SOL    HW2 1480   1.724   2.413   1.030  0.7414  0.9279  0.9911
  144SOL     OW 1481   1.883   1.454   4.399  0.5290  0.1429  0.0711
  144SOL    HW1 1482   1.895   1.412   4.484  2.3891 -1.5568 -0.9466
  144SOL    HW2 1483   1.885   1.548   4.418 -0.2540 -0.1720  2.0010
  145SOL     OW 1484   5.167   1.986   4.992 -0.0027  0.1384  0.4236
  145SOL    HW1 1485   5.210   1.916   5.042 -0.6395  0.2396  1.1339
  145SOL    HW2 1486   5.237   2.025   4.940  0.2298 -1.4915 -0.5555
  146SOL     OW 1487   5.812   1.271   2.261  0.5238 -0.2183  0.3746
  146SOL    HW1 1488   5.805   1.225   2.177  0.1487  0.0419  0.2612
  146SOL    HW2 1489   5.763   1.217   2.323 -0.6595  0.4552  0.0596
  147SOL     OW 1490   1.031   2.615   3.932  0.1894 -0.0637 -0.1214
  147SOL    HW1 1491   1.040   2.520   3.923 -1.3545 -0.3145  0.5981
  147SOL    HW2 1492   1.121   2.647   3.942  0.6447 -1.6361  1.2493
  148SOL     OW 1493   6.802   6.346   4.628  0.3410 -0.5298 -0.3504
  148SOL    HW1 1494   6.746   6.418   4.598  0.8510  1.2092  2.5328
  148SOL    HW2 1495   6.794   6.280   4.559 -0.6403  1.9914 -2.8448
  149SOL     OW 1496   4.827   6.213   4.218 -0.0121 -0.1220  0.1488
  149SOL    HW1 1497   4.908   6.261   4.238 -0.8161  1.2434  0.2773
  149SOL    HW2 1498   4.764   6.245   4.283 -1.2459  0.4907 -1.2912
  150SOL     OW 1499   5.358   4.054   6.321  0.0095  0.1088 -0.6871
  150SOL    HW1 1500   5.370   4.093   6.408 -1.3500  2.7759 -1.5902
  150SOL    HW2 1501   5.435   3.999   6.308  0.5595  0.1386  1.9187
  151SOL     OW 1502   7.192   7.642   0.284  0.2714  0.1576  0.2302
  151SOL    HW1 1503   7.198   7.735   0.262  2.6253 -0.0775 -0.4273
  151SOL    HW2 1504   7.190   7.641   0.380 -2.6879  0.9244  0.2687
  152SOL     OW 1505   3.429   6.580   7.347 -0.7285 -0.3149 -0.6957
  152SOL    HW1 1506   3.373   6.594   7.271 -0.0999 -1.5806 -1.4220
  152SOL    HW2 1507   3.458   6.489   7.339 -0.8470 -0.5559  1.1990
  153SOL     OW 1508   0.455   6.654   6.615 -0.6382 -0.9583  0.2706
  153SOL    HW1 1509   0.381   6.594   6.602 -1.4255  0.1453 -0.4999
  153SOL    HW2 1510   0.481   6.640   6.706 -3.6467  0.5805  1.5135
  154SOL     OW 1511   0.648   5.835   5.215 -0.0590 -0.1124  0.1901
  154SOL    HW1 1512   0.693   5.914   5.186  0.8795 -0.5285  0.4954
  154SOL    HW2 1513   0.697   5.763   5.176  0.1493 -0.6121  1.3355
  155SOL     OW 1514   2.949   4.525   3.809  0.2820 -0.2854 -0.1967
  155SOL    HW1 1515   2.984   4.549   3.895  1.2568 -0.2985 -0.5816
  155SOL    HW2 1516   2.915   4.437   3.822  0.5155 -0.3297  0.1529
  156SOL     OW 1517   7.703   1.136   2.254 -0.0763 -0.3943  0.3086
  156SOL    HW1 1518   7.746   1.060   2.292 -0.9166  0.2582  2.6997
  156SOL    HW2 1519   7.771   1.204   2.255  0.2709 -0.7044 -0.5937
  157SOL     OW 1520   0.796   3.236   3.011 -0.0570  0.0971  0.1053
  157SOL    HW1 1521   0.789   3.331   3.014 -0.6663  0.0361  1.2279
  157SOL    HW2 1522   0.724   3.205   3.066 -0.5876 -1.0514 -1.2013
  158SOL     OW 1523   4.443   0.211   3.892 -0.1626  0.2606  0.7100
  158SOL    HW1 1524   4.352   0.204   3.922 -0.3323 -0.4633  0.0815
  158SOL    HW2 1525   4.472   0.297   3.923 -0.6697  0.0090  1.9433
  159SOL     OW 1526   2.470   6.196   0.300 -0.7495  0.3298 -0.3729
  159SOL    HW1 1527   2.496   6.222   0.211 -0.3086  0.2035 -0.2817
  159SOL    HW2 1528   2.438   6.277   0.340  2.4163  1.2515  0.5715
  160SOL     OW 1529   0.999   0.530   7.264 -0.1903 -0.0351 -0.0865
  160SOL    HW1 1530   0.912   0.515   7.300  0.7104  1.2875  3.0285
  160SOL    HW2 1531   1.031   0.442   7.240 -1.7888 -0.7139  0.1802
  161SOL     OW 1532   4.282   0.989   0.104 -0.0763 -0.2669  0.5096
  161SOL    HW1 1533   4.288   0.894   0.098  0.2224 -0.2090 -0.2501
  161SOL    HW2 1534   4.192   1.006   0.133 -0.7466 -0.7288 -1.1837
  162SOL     OW 1535   1.130   4.655   1.711 -0.5165 -0.3990 -0.7767
  162SOL    HW1 1536   1.051   4.681   1.758 -0.6935  0.6208 -1.6062
  162SOL    HW2 1537   1.118   4.562   1.693 -0.7020 -0.6835  0.6517
  163SOL     OW 1538   7.233   3.444   5.197  0.0240  1.0466 -0.4634
  163SOL    HW1 1539   7.321   3.416   5.224  0.0594  1.4732 -0.1146
  163SOL    HW2 1540   7.242   3.464   5.104  0.2825  1.0136 -0.4462
  164SOL     OW 1541   5.352   1.561   6.087 -0.5092 -0.3543  0.4186
  164SOL    HW1 1542   5.336   1.469   6.064  0.7574 -1.0980  2.2574
  164SOL    HW2 1543   5.297   1.610   6.026 -0.9238 -2.2952 -0.9060
  165SOL     OW 1544   4.642   4.072   7.537 -0.7806 -0.0298 -0.5032
  165SOL    HW1 1545   4.718   4.014   7.528  1.0554  2.1930 -0.2933
  165SOL    HW2 1546   4.602   4.071   7.450  0.1382 -0.4059 -0.9458
  166SOL     OW 1547   0.559   5.714   7.596 -0.0824 -0.4227  0.1543
  166SOL    HW1 1548   0.588   5.705   7.505  0.1976  0.2197  0.1783
  166SOL    HW2 1549   0.639   5.731   7.645 -0.4201  0.9219  0.2868
  167SOL     OW 1550   1.638   6.196   0.243  0.3906 -0.5300 -0.2954
  167SOL    HW1 1551   1.599   6.257   0.181  0.8213 -2.2273 -2.3371
  167SOL    HW2 1552   1.732   6.213   0.239  0.3405  0.1369  0.8245
  168SOL     OW 1553   5.182   3.937   1.100 -0.3520 -0.1024 -0.0769
  168SOL    HW1 1554   5.193   4.032   1.094 -3.0463  0.2488 -0.6350
  168SOL    HW2 1555   5.226   3.903   1.022 -2.0448  1.0231 -1.5921
  169SOL     OW 1556   5.482   5.004   0.854 -0.3941 -0.0761  0.4825
  169SOL    HW1 1557   5.390   4.978   0.848 -0.1002 -1.0572 -0.0239
  169SOL    HW2 1558   5.482   5.079   0.914 -1.6171  0.4621 -0.1427
  170SOL     OW 1559   7.947   7.605   3.648  0.7053 -0.0066  0.2396
  170SOL    HW1 1560   7.934   7.699   3.661  0.8655  0.2374 -1.1515
  170SOL    HW2 1561   7.981   7.573   3.732  2.7934  1.5860  0.0868
  171SOL     OW 1562   7.560   2.980   2.844  0.0002  0.6649  0.1949
  171SOL    HW1 1563   7.579   2.888   2.863 -0.8763  0.3706 -0.3016
  171SOL    HW2 1564   7.487   3.002   2.903 -1.0978  0.4546 -1.0362
  172SOL     OW 1565   4.609   2.564   1.707  0.5761  0.8736 -0.2240
  172SOL    HW1 1566   4.638   2.551   1.616 -0.6291  1.8904 -0.7883
  172SOL    HW2 1567   4.549   2.491   1.723 -0.4028  1.5197 -0.8072
  173SOL     OW 1568   4.515   2.255   5.260 -0.0280  0.5758  0.6252
  173SOL    HW1 1569   4.550   2.307   5.188 -0.9407 -0.0979 -0.3327
  173SOL    HW2 1570   4.479   2.319   5.322  3.0877  1.3224  1.8317
  174SOL     OW 1571   4.565   2.577   6.410 -0.3235  0.2932 -0.1146
  174SOL    HW1 1572   4.577   2.539   6.322  0.3024 -1.7127  0.7736
  174SOL    HW2 1573   4.471   2.590   6.418 -0.3052  1.4864 -1.4488
  175SOL     OW 1574   4.249   4.811   5.963 -0.0073  0.4284 -0.3143
  175SOL    HW1 1575   4.329   4.842   5.920 -1.1328  1.9236 -1.4647
  175SOL    HW2 1576   4.272   4.727   6.000  2.3694  1.2519  0.2233
  176SOL     OW 1577   2.612   4.148   3.438 -0.5358 -0.3607  0.0406
  176SOL    HW1 1578   2.672   4.212   3.475 -2.4258  2.0250 -0.7561
  176SOL    HW2 1579   2.551   4.128   3.509 -1.6920  1.0552 -0.4998
  177SOL     OW 1580   0.085   6.101   3.440  0.7909  0.1527  0.0017
  177SOL    HW1 1581   0.038   6.110   3.357 -0.5777  1.2630  0.8526
  177SOL    HW2 1582   0.036   6.156   3.502  1.6781 -0.7565  1.5877
  178SOL     OW 1583   3.664   8.167   4.328  0.5240 -0.1969 -0.6259
  178SOL    HW1 1584   3.599   8.140   4.393  0.5424 -1.1487 -0.9910
  178SOL    HW2 1585   3.743   8.186   4.380  0.4312 -0.5985 -0.3314
  179SOL     OW 1586   7.473   2.390   2.708  0.0783 -0.1460 -0.5032
  179SOL    HW1 1587   7.452   2.305   2.745 -1.4585 -0.5222 -2.1258
  179SOL    HW2 1588   7.389   2.426   2.679  1.0910  0.0763 -3.5672
  180SOL     OW 1589   1.042   3.603   3.071  0.0674  0.4657 -0.5618
  180SOL    HW1 1590   0.952   3.569   3.076  0.0990  0.4565 -0.0134
  180SOL    HW2 1591   1.037   3.675   3.008 -0.7796  1.8986  1.0814
  181SOL     OW 1592   7.704   6.029   6.380 -0.1505  0.0141 -0.1681
  181SOL    HW1 1593   7.689   5.945   6.423  0.3492 -0.0491 -0.1056
  181SOL    HW2 1594   7.740   6.005   6.295 -0.8252  0.1466 -0.4928
  182SOL     OW 1595   1.680   0.742   6.622 -0.1827 -0.3431 -0.7134
  182SOL    HW1 1596   1.654   0.745   6.715  0.3008 -0.8033 -0.5612
  182SOL    HW2 1597   1.628   0.812   6.581 -2.2908 -1.7488 -0.5864
  183SOL     OW 1598   7.202   5.924   8.261  0.3825 -0.0417 -0.1282
  183SOL    HW1 1599   7.280   5.970   8.229  1.0234 -0.0021  1.3968
  183SOL    HW2 1600   7.236   5.838   8.288 -0.3448 -0.4847 -0.5962
  184SOL     OW 1601   2.300   2.288   6.174  0.0039  0.3159  0.3569
  184SOL    HW1 1602   2.249   2.208   6.183 -0.8286  0.9131  1.1855
  184SOL    HW2 1603   2.238   2.352   6.138  0.1117  1.0766  1.4597
  185SOL     OW 1604   4.136   2.822   2.865  0.0887 -0.0287  0.0549
  185SOL    HW1 1605   4.214   2.848   2.914  0.5469 -0.0038 -0.6704
  185SOL    HW2 1606   4.093   2.905   2.843  0.7244  0.0551 -0.9267
  186SOL     OW 1607   0.766   2.366   4.150 -0.1342 -0.3567 -0.7771
  186SOL    HW1 1608   0.737   2.277   4.132  2.9079 -1.1069 -2.6445
  186SOL    HW2 1609   0.791   2.365   4.243  0.9107 -1.8226 -1.0396
  187SOL     OW 1610   2.733   2.164   1.075 -0.1630  0.2360 -0.0444
  187SOL    HW1 1611   2.756   2.122   1.158  0.7964  1.2162  0.2099
  187SOL    HW2 1612   2.638   2.173   1.078 -0.6969 -3.5051 -0.9095
  188SOL     OW 1613   5.031   2.620   1.488 -0.2850 -0.5211  0.0868
  188SOL    HW1 1614   5.079   2.581   1.561 -1.6908 -1.2033  0.6967
  188SOL    HW2 1615   4.983   2.693   1.528 -0.7270 -0.6305 -0.2407
  189SOL     OW 1616   3.629   7.844   5.596 -0.1447 -0.0287  0.3487
  189SOL    HW1 1617   3.665   7.762   5.562 -0.9023 -0.0731 -0.3821
  189SOL    HW2 1618   3.591   7.887   5.519 -0.8200  0.4458  0.9399
  190SOL     OW 1619   4.612   0.515   6.285 -0.4703  0.0996 -0.0173
  190SOL    HW1 1620   4.619   0.452   6.214  1.6296 -1.0366  1.1015
  190SOL    HW2 1621   4.655   0.593   6.253 -0.5293 -0.0155 -0.3793
  191SOL     OW 1622   7.298   2.951   4.173 -0.6811  0.1935 -0.3128
  191SOL    HW1 1623   7.335   3.036   4.149  0.8043  0.0250  1.2138
  191SOL    HW2 1624   7.329   2.891   4.105  0.7328  0.3285  0.1842
  192SOL     OW 1625   1.768   4.120   4.571  0.2611 -0.4319  0.5138
  192SOL    HW1 1626   1.777   4.076   4.655 -3.9022 -1.2030  0.7960
  192SOL    HW2 1627   1.701   4.069   4.524  0.3667  1.5895 -2.0887
  193SOL     OW 1628   3.952   7.878   4.237  0.0503 -0.0883 -0.2015
  193SOL    HW1 1629   3.901   7.877   4.318 -1.0253  1.5637 -0.8017
  193SOL    HW2 1630   3.918   7.953   4.188 -0.2655 -1.7692 -2.7927
  194SOL     OW 1631   0.220   1.480   3.378  0.4613 -0.0956  0.6110
  194SOL    HW1 1632   0.224   1.574   3.365 -2.4585 -0.0033 -0.3706
  194SOL    HW2 1633   0.168   1.469   3.457  1.1752 -0.9093  0.9857
  195SOL     OW 1634   3.760   2.894   2.876 -0.2613  0.5070 -0.5763
  195SOL    HW1 1635   3.730   2.977   2.840 -2.4600  0.9582  1.9535
  195SOL    HW2 1636   3.709   2.828   2.829  0.3169  0.6861 -1.4746
  196SOL     OW 1637   6.010   0.182   3.401  0.3101  0.3635 -0.2022
  196SOL    HW1 1638   5.984   0.183   3.309  0.6830  1.2674 -0.3172
  196SOL    HW2 1639   5.959   0.252   3.441  0.9805  0.7452  0.0196
  197SOL     OW 1640   4.938   6.075   7.412 -0.2820 -0.0128 -0.2010
  197SOL    HW1 1641   4.884   6.131   7.467  1.4912  2.0398 -0.3909
  197SOL    HW2 1642   4.972   6.009   7.472 -1.9191 -0.5680  0.1722
  198SOL     OW 1643   5.385   1.450   4.367 -0.3189  0.2628  0.4022
  198SOL    HW1 1644   5.298   1.490   4.362 -1.0381 -0.8088  2.7764
  198SOL    HW2 1645   5.384   1.380   4.301 -0.8742  0.8696 -0.2487
  199SOL     OW 1646   2.335   3.005   5.039 -0.3589 -0.0448  0.9531
  199SOL    HW1 1647   2.304   2.915   5.040  0.0537 -0.1887  0.8451
  199SOL    HW2 1648   2.333   3.031   4.947  0.7618 -0.3805  0.8176
  200SOL     OW 1649   4.459   7.344   3.017  0.2420 -0.2944 -0.1660
  200SOL    HW1 1650   4.407   7.319   3.093  0.4272 -1.7575 -0.4905
  200SOL    HW2 1651   4.510   7.420   3.047 -0.1749 -0.4366  0.9574
  201SOL     OW 1652   5.395   3.633   2.577  0.0793 -0.6436 -0.5745
  201SOL    HW1 1653   5.417   3.556   2.524 -0.3773 -1.1111 -0.0874
  201SOL    HW2 1654   5.309   3.661   2.545 -0.2644 -1.0159  0.0184
  202SOL     OW 1655   4.153   0.698   0.407 -0.1695 -0.3771  0.6580
  202SOL    HW1 1656   4.193   0.706   0.493 -0.6423 -0.1399  0.8565
  202SOL    HW2 1657   4.068   0.741   0.415 -0.1912 -0.2948  0.0573
  203SOL     OW 1658   5.422   8.228   0.438 -0.7963 -0.4137  0.1308
  203SOL    HW1 1659   5.425   8.136   0.412 -2.8113 -1.0232  1.7665
  203SOL    HW2 1660   5.419   8.277   0.356 -0.2519 -1.8170 -0.7528
  204SOL     OW 1661   4.283   5.223   6.948  0.0353 -0.3856 -0.1409
  204SOL    HW1 1662   4.187   5.219   6.944  0.0067  0.6744 -0.6184
  204SOL    HW2 1663   4.312   5.176   6.870 -0.0588 -1.4308  0.4255
  205SOL     OW 1664   6.968   1.334   6.015  0.2860  0.3883 -0.3138
  205SOL    HW1 1665   6.931   1.389   5.945 -2.0717  0.0735  0.6044
  205SOL    HW2 1666   7.010   1.262   5.968 -0.7118  0.5006 -1.4402
  206SOL     OW 1667   4.258   7.322   5.890 -0.4309  0.0068 -0.4001
  206SOL    HW1 1668   4.200   7.395   5.868 -0.5913 -0.3803 -1.3186
  206SOL    HW2 1669   4.313   7.355   5.962 -1.8277  0.3553  0.5409
  207SOL     OW 1670   5.446   1.666   3.806 -0.1597 -0.5613  0.0034
  207SOL    HW1 1671   5.361   1.703   3.783 -0.4098 -0.6019  0.8013
  207SOL    HW2 1672   5.500   1.680   3.729 -0.8158 -0.3054 -0.4253
  208SOL     OW 1673   5.687   4.578   5.232  0.1245  0.0892  0.3705
  208SOL    HW1 1674   5.634   4.657   5.230  0.8684  0.5876 -0.6491
  208SOL    HW2 1675   5.764   4.599   5.178  0.5614 -1.1650  0.4629
  209SOL     OW 1676   6.179   4.989   3.974 -0.2369  0.0800 -0.0828
  209SOL    HW1 1677   6.264   5.032   3.984 -0.7135  1.3805 -1.2895
  209SOL    HW2 1678   6.168   4.979   3.879 -1.7000  0.5262  0.0110
  210SOL     OW 1679   3.085   5.149   8.076  0.1996  0.1119  0.1574
  210SOL    HW1 1680   3.120   5.105   7.999 -0.3211  0.1371 -0.0989
  210SOL    HW2 1681   2.996   5.117   8.084  0.2100  0.2000  0.6851
  211SOL     OW 1682   5.034   7.465   2.314  0.5904  0.3800 -0.0326
  211SOL    HW1 1683   4.981   7.389   2.338  1.1311 -0.1465 -0.4796
  211SOL    HW2 1684   5.050   7.455   2.220 -0.1261  1.5548 -0.3065
  212SOL     OW 1685   7.043   1.553   7.524 -0.5610  0.5863  0.4904
  212SOL    HW1 1686   6.955   1.514   7.526 -0.6200  0.6668 -0.3120
  212SOL    HW2 1687   7.040   1.615   7.451 -0.2752  1.6501  1.3658
  213SOL     OW 1688   1.790   5.262   5.223 -0.2567 -0.5496  0.0145
  213SOL    HW1 1689   1.711   5.214   5.245 -0.1409 -0.7910 -0.0924
  213SOL    HW2 1690   1.833   5.208   5.156  0.0735 -0.4947  0.1811
  214SOL     OW 1691   5.874   7.189   5.322  0.3525  0.6235  0.1476
  214SOL    HW1 1692   5.784   7.223   5.323  0.3438  0.6638 -0.9873
  214SOL    HW2 1693   5.876   7.126   5.393 -0.5734  0.6297  0.1981
  215SOL     OW 1694   1.101   4.109   2.802 -0.0725 -0.0518 -0.2190
  215SOL    HW1 1695   1.114   4.149   2.888  0.6866 -0.0763 -0.3139
  215SOL    HW2 1696   1.164   4.153   2.745 -1.6542  1.1206 -1.1725
  216SOL     OW 1697   6.925   5.520   5.117 -0.1784 -0.1288  0.1197
  216SOL    HW1 1698   6.982   5.444   5.103 -0.0224 -0.6007  2.7718
  216SOL    HW2 1699   6.902   5.549   5.029  0.8876 -2.3915 -0.9922
  217SOL     OW 1700   2.775   0.929   4.257  0.2299  0.2216  0.6943
  217SOL    HW1 1701   2.777   0.956   4.166 -2.2847 -3.7627 -0.7993
  217SOL    HW2 1702   2.866   0.916   4.281  0.9037 -0.9238 -2.1127
  218SOL     OW 1703   5.072   3.552   8.121 -0.6813  0.6505  0.5653
  218SOL    HW1 1704   4.999   3.552   8.060 -1.2682  4.4120  1.0380
  218SOL    HW2 1705   5.032   3.540   8.207 -0.5283  1.0769  0.6953
  219SOL     OW 1706   6.161   6.116   4.456  0.4565  0.3850 -0.1365
  219SOL    HW1 1707   6.169   6.045   4.521 -2.1981 -1.5433 -1.7140
  219SOL    HW2 1708   6.161   6.071   4.372 -3.5049  1.8814 -1.1493
  220SOL     OW 1709   0.681   5.596   3.856  0.3954 -0.1486  0.1255
  220SOL    HW1 1710   0.651   5.509   3.827 -1.1692  0.2996  0.2970
  220SOL    HW2 1711   0.697   5.586   3.950  4.1420 -1.2420 -0.4628
  221SOL     OW 1712   0.755   5.619   6.205 -0.2887  0.0962 -0.4816
  221SOL    HW1 1713   0.690   5.581   6.146 -4.3865  1.7263  2.5253
  221SOL    HW2 1714   0.748   5.568   6.285 -0.0807  2.1129  0.9080
  222SOL     OW 1715   5.063   7.750   1.637 -0.0276  0.0843  0.3178
  222SOL    HW1 1716   5.016   7.697   1.573  1.2714 -1.2901  0.4431
  222SOL    HW2 1717   4.995   7.784   1.695 -1.1604  0.8005 -1.3649
  223SOL     OW 1718   1.074   2.294   3.862 -0.4746  0.3973 -0.2834
  223SOL    HW1 1719   1.038   2.307   3.774  1.0905  0.3976 -0.9578
  223SOL    HW2 1720   1.002   2.258   3.912 -1.1759 -0.4035 -1.7984
  224SOL     OW 1721   6.447   1.031   4.490  0.6711  0.3004 -0.0591
  224SOL    HW1 1722   6.388   0.994   4.424  0.4780  1.2181 -0.4119
  224SOL    HW2 1723   6.463   1.121   4.461 -0.6284  1.2467  1.9322
  225SOL     OW 1724   0.834   1.388   3.727  0.2841 -0.3774 -0.1583
  225SOL    HW1 1725   0.810   1.351   3.812  1.2748 -0.3390  0.1559
  225SOL    HW2 1726   0.752   1.396   3.680 -0.2611 -0.5336  0.7476
  226SOL     OW 1727   5.431   1.300   6.882 -0.3548 -0.4495 -0.0505
  226SOL    HW1 1728   5.400   1.214   6.909  0.3079  0.0231  2.4887
  226SOL    HW2 1729   5.483   1.283   6.803  0.7042 -2.5628  1.0232
  227SOL     OW 1730   2.456   2.849   0.108  0.5090  0.8170  0.1985
  227SOL    HW1 1731   2.507   2.777   0.072 -0.6186 -0.6857  1.4173
  227SOL    HW2 1732   2.486   2.857   0.198  0.5741  1.8501  0.0954
  228SOL     OW 1733   6.586   1.941   5.001  0.5620 -0.1150  0.0896
  228SOL    HW1 1734   6.509   1.969   4.951  0.9562 -1.6469 -1.4689
  228SOL    HW2 1735   6.587   2.000   5.077 -1.3148  0.8780 -0.5665
  229SOL     OW 1736   1.580   3.147   2.750 -0.3207 -0.2436 -0.1756
  229SOL    HW1 1737   1.612   3.183   2.833 -1.2030 -1.3063  0.6570
  229SOL    HW2 1738   1.505   3.202   2.728  1.9745  2.3950 -2.2462
  230SOL     OW 1739   4.453   3.253   3.359 -0.3051  0.1648  0.0641
  230SOL    HW1 1740   4.467   3.176   3.415 -0.0454 -0.2038 -0.5021
  230SOL    HW2 1741   4.516   3.317   3.391  1.1248 -0.6856 -0.9791
  231SOL     OW 1742   0.899   1.937   3.717 -0.2872  0.3223 -0.3692
  231SOL    HW1 1743   0.940   1.991   3.785 -1.0095  1.7522 -1.0225
  231SOL    HW2 1744   0.843   1.877   3.765  2.4091 -1.6753  0.5666
  232SOL     OW 1745   0.265   7.087   1.154 -0.1445  0.5097 -0.2050
  232SOL    HW1 1746   0.257   7.182   1.155  0.3755  0.5532  0.3369
  232SOL    HW2 1747   0.180   7.056   1.186 -1.0815  0.7118 -2.3641
  233SOL     OW 1748   7.570   8.180   2.606 -0.4098  0.1468  0.5253
  233SOL    HW1 1749   7.474   8.188   2.611 -0.4429 -0.9932  2.4719
  233SOL    HW2 1750   7.588   8.179   2.512 -2.3302  0.2106  0.1064
  234SOL     OW 1751   0.112   5.588   6.344  0.1221  0.1865 -0.1576
  234SOL    HW1 1752   0.053   5.573   6.417 -1.0435 -0.9178 -1.2729
  234SOL    HW2 1753   0.197   5.555   6.375 -0.3110 -0.1218  0.7380
  235SOL     OW 1754   5.787   7.386   4.697  0.3226 -0.3155 -0.5357
  235SOL    HW1 1755   5.702   7.413   4.662  0.6167  2.4088  0.6049
  235SOL    HW2 1756   5.848   7.454   4.668  1.9752 -1.7333 -0.5736
  236SOL     OW 1757   7.991   0.761   0.902  0.1801 -0.5052  0.1362
  236SOL    HW1 1758   7.912   0.782   0.853  0.8456  1.0513 -0.3600
  236SOL    HW2 1759   8.014   0.672   0.876 -1.4718 -1.0374  0.4122
  237SOL     OW 1760   6.079   5.626   7.534  0.1723 -0.0463  0.0395
  237SOL    HW1 1761   6.053   5.586   7.450 -0.4233 -0.6783  0.5131
  237SOL    HW2 1762   6.038   5.571   7.600  0.4767  0.5683  0.7509
  238SOL     OW 1763   1.378   8.048   3.437  0.5158 -0.3300 -0.4717
  238SOL    HW1 1764   1.452   8.082   3.388  0.3358 -1.2677 -1.4357
  238SOL    HW2 1765   1.395   7.954   3.443 -0.1632 -0.4254  0.0511
  239SOL     OW 1766   7.004   5.289   2.069  0.6566 -0.3101 -0.6439
  239SOL    HW1 1767   6.916   5.269   2.101 -0.9022  0.6923 -3.9411
  239SOL    HW2 1768   7.011   5.384   2.077  0.2571 -0.0365 -2.9394
  240SOL     OW 1769   6.772   5.741   5.886  0.0024  0.0623  0.5726
  240SOL    HW1 1770   6.738   5.826   5.857  0.3273  0.2450  0.7305
  240SOL    HW2 1771   6.822   5.709   5.811 -1.1761 -0.5737  0.0415
  241SOL     OW 1772   7.119   1.782   2.635 -0.0448 -0.7516  0.1587
  241SOL    HW1 1773   7.173   1.855   2.667  0.7075 -1.5580  0.7773
  241SOL    HW2 1774   7.104   1.802   2.543  0.3214  0.0888  0.2708
  242SOL     OW 1775   4.010   1.015   0.489 -0.3937  0.3003  0.5730
  242SOL    HW1 1776   4.009   0.977   0.402 -1.0062  3.1459 -0.7957
  242SOL    HW2 1777   4.102   1.025   0.511 -0.2190  0.5172 -0.2408
  243SOL     OW 1778   6.968   0.138   5.286 -0.7681  0.1636  0.5362
  243SOL    HW1 1779   6.885   0.096   5.307  0.1910 -1.2881  1.6554
  243SOL    HW2 1780   7.000   0.090   5.210 -0.8251  0.5615  0.2566
  244SOL     OW 1781   0.654   5.141   6.587 -0.0030 -0.3163 -0.3710
  244SOL    HW1 1782   0.569   5.180   6.566 -0.5423 -1.0723  0.3200
  244SOL    HW2 1783   0.715   5.214   6.593 -1.0713  0.4766  1.3608
  245SOL     OW 1784   0.336   2.422   8.066  0.1229  0.4436  0.5801
  245SOL    HW1 1785   0.361   2.448   8.154 -2.6772 -0.3392  1.7082
  245SOL    HW2 1786   0.302   2.333   8.075 -3.3103  1.4857 -0.5724
  246SOL     OW 1787   5.497   3.955   0.129  0.0318  0.4063 -0.3975
  246SOL    HW1 1788   5.436   3.959   0.203  1.2701 -1.1280  0.7684
  246SOL    HW2 1789   5.474   3.874   0.084  0.9129  0.0458 -0.2102
  247SOL     OW 1790   7.932   4.228   6.036 -0.8264 -0.2675 -0.1685
  247SOL    HW1 1791   7.929   4.215   5.942 -1.4284  0.3008 -0.2328
  247SOL    HW2 1792   7.925   4.140   6.073 -2.1478 -0.3773 -0.6330
  248SOL     OW 1793   0.420   5.318   0.369  0.4207  0.2906 -0.1420
  248SOL    HW1 1794   0.405   5.265   0.290  0.3265 -0.1255  0.1531
  248SOL    HW2 1795   0.515   5.330   0.372  0.4487  0.0787 -0.1702
  249SOL     OW 1796   7.955   2.756   4.940  0.1003  0.5252  0.3862
  249SOL    HW1 1797   7.870   2.718   4.917  0.1427  1.0922 -0.7887
  249SOL    HW2 1798   8.019   2.702   4.894  0.2541  1.0714 -0.0648
  250SOL     OW 1799   5.048   3.434   4.758 -0.8119  0.0518  0.6138
  250SOL    HW1 1800   5.081   3.401   4.675  0.5822  0.9918  0.7573
  250SOL    HW2 1801   5.012   3.357   4.802  1.2055 -1.0628  0.4199
  251SOL     OW 1802   6.361   2.234   6.224  0.0658 -0.2655 -0.3436
  251SOL    HW1 1803   6.266   2.234   6.212 -0.1781 -0.0950  1.3958
  251SOL    HW2 1804   6.381   2.320   6.260  0.4994 -1.1299  1.6542
  252SOL     OW 1805   3.567   1.629   1.573  0.4229  0.2490 -0.1527
  252SOL    HW1 1806   3.535   1.551   1.619 -0.5596 -0.4634 -1.9423
  252SOL    HW2 1807   3.663   1.625   1.583  0.3346 -0.8048  0.3773
  253SOL     OW 1808   4.422   2.141   4.070 -0.6673  0.0520 -0.0113
  253SOL    HW1 1809   4.461   2.228   4.066 -0.0284 -0.2404 -0.4147
  253SOL    HW2 1810   4.467   2.099   4.144  0.6992 -0.6983 -1.2143
  254SOL     OW 1811   3.480   0.861   0.419  0.0707  0.1763 -0.0956
  254SOL    HW1 1812   3.402   0.815   0.388 -0.0843  0.8304 -0.7046
  254SOL    HW2 1813   3.446   0.938   0.466  0.3380  0.9683 -1.1547
  255SOL     OW 1814   5.229   7.064   5.624  0.2642  0.0380 -0.4404
  255SOL    HW1 1815   5.152   7.008   5.616  0.7064 -0.3145 -3.2900
  255SOL    HW2 1816   5.194   7.152   5.636 -0.5157 -0.3394  0.1460
  256SOL     OW 1817   4.564   6.737   5.839 -0.4177 -0.1259  0.3736
  256SOL    HW1 1818   4.510   6.776   5.907 -0.9184 -0.1446 -0.0119
  256SOL    HW2 1819   4.616   6.810   5.805 -1.1736  0.1600 -0.1770
  257SOL     OW 1820   3.779   1.809   3.602 -0.2458  0.3167 -0.6596
  257SOL    HW1 1821   3.861   1.842   3.566  0.5706 -1.0991 -0.2179
  257SOL    HW2 1822   3.786   1.714   3.593 -0.5739 -0.0425  1.9217
  258SOL     OW 1823   7.017   3.090   7.446 -0.1085  0.4571  0.4864
  258SOL    HW1 1824   7.010   3.181   7.418 -1.4493 -0.0849 -1.1054
  258SOL    HW2 1825   6.942   3.078   7.506 -0.6463  0.1141 -0.2376
  259SOL     OW 1826   4.266   8.067   0.747  0.4944  0.1087  0.2325
  259SOL    HW1 1827   4.213   8.006   0.798 -0.2729  0.2211 -0.3970
  259SOL    HW2 1828   4.336   8.094   0.806  0.5548 -0.9866  0.6859
  260SOL     OW 1829   2.753   8.096   7.550  0.0706 -0.0378 -0.6274
  260SOL    HW1 1830   2.784   8.035   7.483 -1.4860  0.5213 -1.9074
  260SOL    HW2 1831   2.773   8.052   7.633  4.0251  0.1489 -1.2608
  261SOL     OW 1832   0.890   4.417   2.696 -0.3770  0.3689 -0.3865
  261SOL    HW1 1833   0.941   4.496   2.680  1.1739 -0.3109  0.9596
  261SOL    HW2 1834   0.876   4.416   2.791 -1.4080 -0.3679 -0.5280
  262SOL     OW 1835   3.403   6.112   0.168  0.1985  0.1282  0.0205
  262SOL    HW1 1836   3.404   6.016   0.168 -2.1291  0.0337 -1.2138
  262SOL    HW2 1837   3.423   6.136   0.258 -1.1183 -1.6097  0.8517
  263SOL     OW 1838   7.183   2.347   6.900 -0.6420  0.4472  0.5974
  263SOL    HW1 1839   7.200   2.315   6.811  0.6581  1.2756  0.5262
  263SOL    HW2 1840   7.094   2.318   6.919 -1.4162  1.3213 -1.4417
  264SOL     OW 1841   5.147   7.311   1.280 -0.0859 -0.3392  0.4184
  264SOL    HW1 1842   5.065   7.355   1.303  0.6658  0.2311  2.2061
  264SOL    HW2 1843   5.124   7.218   1.277 -0.2271 -0.6019  4.3567
  265SOL     OW 1844   4.570   1.457   1.005  0.2445  0.6274 -0.2758
  265SOL    HW1 1845   4.547   1.550   0.999 -3.0371 -0.1325 -1.1299
  265SOL    HW2 1846   4.487   1.411   1.010  1.7520 -2.3265  0.0668
  266SOL     OW 1847   1.737   6.663   5.720 -0.2110  0.1571  0.3082
  266SOL    HW1 1848   1.772   6.621   5.799 -2.1460 -3.0229 -0.3179
  266SOL    HW2 1849   1.649   6.691   5.745 -1.2823 -1.8823 -0.8455
  267SOL     OW 1850   7.469   5.721   2.460 -0.3189  0.0312  0.7256
  267SOL    HW1 1851   7.564   5.718   2.450 -0.4360 -0.2503 -0.6068
  267SOL    HW2 1852   7.443   5.629   2.461 -0.7005  0.0855 -0.7724
  268SOL     OW 1853   3.137   5.975   1.789 -0.0080  1.0133 -0.1019
  268SOL    HW1 1854   3.069   5.987   1.855 -0.5706 -0.1364 -0.4477
  268SOL    HW2 1855   3.107   6.026   1.714 -0.1097  1.1324  0.0207
  269SOL     OW 1856   8.100   4.142   7.959 -0.2082  0.1833  0.0834
  269SOL    HW1 1857   8.020   4.179   7.997  0.6527  0.9393  1.2626
  269SOL    HW2 1858   8.075   4.117   7.870 -1.7266  0.4693  0.3913
  270SOL     OW 1859   7.024   1.610   0.470 -0.1326  0.0324  0.0252
  270SOL    HW1 1860   6.955   1.649   0.524  0.6798 -0.3587  1.3619
  270SOL    HW2 1861   6.989   1.524   0.446  0.0662 -0.3597  1.0964
  271SOL     OW 1862   7.028   3.927   6.734  0.5292 -0.0581 -0.7839
  271SOL    HW1 1863   6.986   3.843   6.752  1.1854 -0.7467 -2.3017
  271SOL    HW2 1864   6.964   3.976   6.682  0.0422  0.5241  0.3178
  272SOL     OW 1865   2.666   7.389   6.687 -0.2648 -0.5625 -0.0909
  272SOL    HW1 1866   2.743   7.430   6.647  0.1245 -0.4358  0.7697
  272SOL    HW2 1867   2.671   7.297   6.658 -0.5950 -0.2398 -1.2107
  273SOL     OW 1868   7.733   1.252   7.288 -0.2160  0.2342 -0.0073
  273SOL    HW1 1869   7.812   1.301   7.313 -0.7603  2.1296 -1.7086
  273SOL    HW2 1870   7.661   1.314   7.303 -1.1499 -0.7044 -0.5140
  274SOL     OW 1871   7.525   0.961   7.650 -0.2879 -0.6345 -0.4451
  274SOL    HW1 1872   7.586   1.028   7.680  0.9332 -1.3136 -1.3107
  274SOL    HW2 1873   7.528   0.894   7.718  1.3789 -1.5054 -1.2995
  275SOL     OW 1874   0.872   1.670   1.484 -0.0083  0.6261 -0.0649
  275SOL    HW1 1875   0.960   1.698   1.461  0.8988 -1.0860  1.1315
  275SOL    HW2 1876   0.872   1.666   1.579 -0.3221 -2.3734 -0.0936
  276SOL     OW 1877   2.520   3.895   7.098 -0.0190  0.0671  0.1024
  276SOL    HW1 1878   2.611   3.868   7.112 -0.4267 -0.2104  2.6793
  276SOL    HW2 1879   2.476   3.816   7.068  0.4041  0.0057 -0.3880
  277SOL     OW 1880   2.676   7.009   1.500 -0.0683 -0.0448  0.1527
  277SOL    HW1 1881   2.669   7.005   1.405 -0.2271 -3.2590  0.1765
  277SOL    HW2 1882   2.596   7.053   1.529 -1.9296 -2.3422 -1.1402
  278SOL     OW 1883   3.584   0.400   4.023  0.0616  0.0538  0.0058
  278SOL    HW1 1884   3.495   0.405   4.056  0.5947  0.5427  1.4755
  278SOL    HW2 1885   3.589   0.316   3.978 -2.0823  1.4297 -3.1797
  279SOL     OW 1886   4.723   7.111   6.774 -0.3816 -0.2372 -0.0360
  279SOL    HW1 1887   4.653   7.081   6.716 -0.2699 -0.2371 -0.1719
  279SOL    HW2 1888   4.689   7.097   6.862 -1.1658  1.1730 -0.0790
  280SOL     OW 1889   2.517   2.151   1.687 -0.3890 -0.2925  0.3487
  280SOL    HW1 1890   2.502   2.057   1.680 -1.6734 -0.4275  3.4157
  280SOL    HW2 1891   2.492   2.186   1.601  1.7119 -2.8200 -1.4708
  281SOL     OW 1892   7.694   1.183   1.321  0.5132  0.2554  0.1850
  281SOL    HW1 1893   7.734   1.234   1.391 -1.8842 -1.6604  3.1943
  281SOL    HW2 1894   7.736   1.097   1.327  0.4961  0.1438 -0.9969
  282SOL     OW 1895   2.535   3.700   3.887 -0.5365  0.2246 -0.2335
  282SOL    HW1 1896   2.446   3.735   3.875 -0.1744  1.2603  0.0441
  282SOL    HW2 1897   2.592   3.762   3.843 -0.0098 -1.0055 -1.3640
  283SOL     OW 1898   0.368   5.046   2.227 -0.5056  0.4085 -0.0069
  283SOL    HW1 1899   0.392   5.013   2.314  1.0364 -0.2465 -0.6354
  283SOL    HW2 1900   0.418   5.127   2.217  2.0573 -1.2153 -1.5242
  284SOL     OW 1901   4.208   4.696   8.270  0.4412 -1.0546 -0.5099
  284SOL    HW1 1902   4.167   4.609   8.269 -1.2670 -0.2744 -0.4600
  284SOL    HW2 1903   4.164   4.745   8.201  0.2758  0.2541  0.4781
  285SOL     OW 1904   5.704   1.668   6.869 -0.2488  0.5666 -0.4149
  285SOL    HW1 1905   5.669   1.745   6.823  0.8132  0.5508 -1.2845
  285SOL    HW2 1906   5.728   1.608   6.799 -1.1064 -0.6017  0.2620
  286SOL     OW 1907   6.633   2.393   4.222  0.7081 -0.6972 -0.5860
  286SOL    HW1 1908   6.649   2.299   4.213  0.7591 -0.6847 -0.6290
  286SOL    HW2 1909   6.613   2.405   4.315 -1.7014 -1.1164 -0.9806
  287SOL     OW 1910   5.038   0.264   1.223 -0.8740  0.2804  0.3339
  287SOL    HW1 1911   5.131   0.243   1.216 -0.6600  1.3282 -0.1136
  287SOL    HW2 1912   5.011   0.287   1.134 -1.1784  1.4621  0.7088
  288SOL     OW 1913   0.131   5.487   6.030 -0.0455 -0.0276  0.5518
  288SOL    HW1 1914   0.118   5.581   6.044  0.5020 -0.1009  1.7305
  288SOL    HW2 1915   0.120   5.475   5.936  1.1062  1.4325  0.1862
  289SOL     OW 1916   5.879   2.455   7.945  0.3002 -0.2590  0.0148
  289SOL    HW1 1917   5.848   2.399   8.017  4.0157  1.5556  3.4308
  289SOL    HW2 1918   5.944   2.401   7.899  0.9488 -0.1268  0.7500
  290SOL     OW 1919   6.168   1.863   4.009  0.0774  0.1272  0.0535
  290SOL    HW1 1920   6.126   1.910   4.081 -0.8900 -0.4415 -0.1088
  290SOL    HW2 1921   6.261   1.861   4.031 -0.0188  1.1296  0.6071
  291SOL     OW 1922   5.457   0.014   4.114 -0.5050 -0.0972 -0.1514
  291SOL    HW1 1923   5.522   0.068   4.068 -0.5504  0.9364  0.9346
  291SOL    HW2 1924   5.458   0.048   4.204  0.8653 -3.1792  1.1384
  292SOL     OW 1925   1.660   5.674   3.045 -0.4184  0.0153 -0.4336
  292SOL    HW1 1926   1.740   5.667   3.098 -1.2543 -0.6845  0.7858
  292SOL    HW2 1927   1.689   5.654   2.956  0.5730 -1.4348  0.1682
  293SOL     OW 1928   0.748   3.324   7.459 -0.2705 -0.3263  0.0150
  293SOL    HW1 1929   0.681   3.297   7.522  1.4057 -2.9031  0.8421
  293SOL    HW2 1930   0.702   3.380   7.397 -2.5430  0.2928  2.0990
  294SOL     OW 1931   4.414   0.974   7.709  0.4758 -0.3915 -0.0002
  294SOL    HW1 1932   4.417   0.951   7.802  0.9867 -0.3437 -0.0068
  294SOL    HW2 1933   4.460   0.903   7.665 -1.4770 -1.4615 -0.4331
  295SOL     OW 1934   2.479   8.254   8.170  0.1577 -0.5326  0.2270
  295SOL    HW1 1935   2.518   8.240   8.084 -0.6614 -0.2888 -0.1848
  295SOL    HW2 1936   2.481   8.167   8.211 -0.1131 -0.7968 -0.3159
  296SOL     OW 1937   6.624   1.559   0.144  0.2869  0.5543 -0.8003
  296SOL    HW1 1938   6.581   1.547   0.229  0.2352  0.6707 -0.8095
  296SOL    HW2 1939   6.594   1.485   0.091 -2.3204  2.1808 -1.8043
  297SOL     OW 1940   4.443   6.615   6.303  0.3271  0.1153 -0.1710
  297SOL    HW1 1941   4.532   6.599   6.272  0.9500 -0.2609  1.7402
  297SOL    HW2 1942   4.391   6.619   6.222  2.0811  0.5675 -1.3407
  298SOL     OW 1943   4.850   6.618   6.641  0.2459  0.5936  0.1022
  298SOL    HW1 1944   4.769   6.639   6.689 -0.0314  1.5607 -0.7406
  298SOL    HW2 1945   4.821   6.560   6.571  0.0157  1.9774 -1.0005
  299SOL     OW 1946   8.225   3.602   3.989  0.0935 -0.5169  0.0213
  299SOL    HW1 1947   8.257   3.523   3.944  1.6952  0.4607 -0.6362
  299SOL    HW2 1948   8.273   3.602   4.072  2.6715  1.4057 -1.3177
  300SOL     OW 1949   2.123   4.208   7.641  0.0837 -0.0855  0.5100
  300SOL    HW1 1950   2.058   4.172   7.580 -0.2158  0.5979  0.4185
  300SOL    HW2 1951   2.089   4.294   7.665  1.2699  0.5697 -0.0468
  301SOL     OW 1952   4.347   7.602   6.947  0.1608 -0.1614  0.3865
  301SOL    HW1 1953   4.400   7.666   6.901  2.1264 -1.3839  0.8228
  301SOL    HW2 1954   4.383   7.517   6.920 -2.3374 -1.1279 -0.1679
  302SOL     OW 1955   2.968   4.294   6.795  0.0855 -0.0825  0.3327
  302SOL    HW1 1956   2.899   4.307   6.861 -0.4877 -2.7099  0.3558
  302SOL    HW2 1957   3.010   4.380   6.788 -1.1529  0.8120  2.6060
  303SOL     OW 1958   3.111   4.270   2.774 -0.1068  0.5838  0.0825
  303SOL    HW1 1959   3.069   4.193   2.736  1.9964 -0.8930  0.6062
  303SOL    HW2 1960   3.048   4.304   2.837 -0.6145 -1.4430  0.7168
  304SOL     OW 1961   6.051   4.113   7.265  0.0790 -0.5981  0.7632
  304SOL    HW1 1962   6.091   4.162   7.337  1.0432 -1.1527  0.6241
  304SOL    HW2 1963   6.103   4.033   7.258 -0.9058 -1.2244  0.3869
  305SOL     OW 1964   0.183   4.334   1.648  0.4634  0.4100 -0.4165
  305SOL    HW1 1965   0.112   4.320   1.585 -1.4077 -0.6411  1.7716
  305SOL    HW2 1966   0.165   4.420   1.685 -0.2807 -0.2596  0.8253
  306SOL     OW 1967   5.907   2.607   0.374 -0.5430 -0.2247 -0.2946
  306SOL    HW1 1968   5.944   2.672   0.314 -0.1684 -0.3748 -0.2327
  306SOL    HW2 1969   5.914   2.524   0.326  0.7378 -0.5234  0.3415
  307SOL     OW 1970   3.395   1.549   7.484  0.2367 -0.8126  0.7226
  307SOL    HW1 1971   3.375   1.464   7.524  0.1450 -0.6756  0.9681
  307SOL    HW2 1972   3.359   1.613   7.545 -1.7297 -0.6171 -0.5667
  308SOL     OW 1973   3.738   0.723   7.371 -0.0649  0.0301 -0.1297
  308SOL    HW1 1974   3.759   0.797   7.315 -1.8679  0.2694 -0.5597
  308SOL    HW2 1975   3.673   0.757   7.433 -0.8659 -1.1374 -0.2891
  309SOL     OW 1976   6.365   0.517   6.588 -0.0958 -0.0990  0.3835
  309SOL    HW1 1977   6.458   0.514   6.565  0.4185  0.1478  2.2512
  309SOL    HW2 1978   6.344   0.427   6.613 -0.9582 -0.6313 -1.9966
  310SOL     OW 1979   0.945   7.320   7.755 -0.0195  0.8341  0.0034
  310SOL    HW1 1980   0.951   7.370   7.837 -1.3958 -0.8288  1.1773
  310SOL    HW2 1981   1.034   7.288   7.741  0.1593  0.7989  1.0865
  311SOL     OW 1982   0.363   3.558   3.150  0.1983  0.5504 -0.4887
  311SOL    HW1 1983   0.454   3.586   3.144  0.6583 -0.8527 -0.2227
  311SOL    HW2 1984   0.363   3.467   3.122 -0.3973 -0.7908  3.2408
  312SOL     OW 1985   2.754   2.670   6.458  0.4615  0.7113 -0.1950
  312SOL    HW1 1986   2.661   2.654   6.443  0.7177  0.7861 -2.1116
  312SOL    HW2 1987   2.768   2.761   6.434  1.0495  0.6601 -0.0814
  313SOL     OW 1988   1.720   6.285   1.273  0.5871  0.0845  0.1296
  313SOL    HW1 1989   1.749   6.252   1.188  1.5985 -0.3869  0.6379
  313SOL    HW2 1990   1.629   6.257   1.280 -0.0556  1.5444 -1.4912
  314SOL     OW 1991   6.748   6.744   3.629 -0.3584 -0.5637 -0.0406
  314SOL    HW1 1992   6.812   6.812   3.652 -0.4511  0.0594 -1.5536
  314SOL    HW2 1993   6.684   6.747   3.700 -0.3683  0.9418 -0.0749
  315SOL     OW 1994   8.267   2.901   7.652 -0.1656 -0.4283  0.1328
  315SOL    HW1 1995   8.283   2.831   7.589  0.7321 -1.3725  1.3378
  315SOL    HW2 1996   8.248   2.978   7.599  0.9627 -1.0836 -1.2874
  316SOL     OW 1997   3.869   6.872   3.065 -0.3569 -0.2657  0.2410
  316SOL    HW1 1998   3.941   6.809   3.058  0.0083  0.1127  0.5443
  316SOL    HW2 1999   3.823   6.845   3.145  0.3452  0.3897  0.8955
  317SOL     OW 2000   0.232   3.362   0.944 -0.0639  0.1319 -0.0964
  317SOL    HW1 2001   0.326   3.348   0.938 -0.0492  0.2896 -0.2753
  317SOL    HW2 2002   0.214   3.432   0.880 -0.2701  0.2439  0.0797
  318SOL     OW 2003   1.104   4.835   2.462 -0.7286 -0.1833  0.3263
  318SOL    HW1 2004   1.196   4.809   2.472 -0.9186 -1.3542 -0.7467
  318SOL    HW2 2005   1.072   4.843   2.552 -0.3667 -2.7985  0.7731
  319SOL     OW 2006   7.108   1.465   2.927 -0.2495  0.2398  0.1270
  319SOL    HW1 2007   7.193   1.504   2.941 -0.7078  0.9015  1.1468
  319SOL    HW2 2008   7.114   1.378   2.967 -0.3644  0.6761  1.1090
  320SOL     OW 2009   3.592   5.026   1.717  0.0012  0.2863 -0.6201
  320SOL    HW1 2010   3.607   5.002   1.809  0.3275  1.3149 -0.3916
  320SOL    HW2 2011   3.631   4.954   1.667  0.1291 -0.1127  0.0388
  321SOL     OW 2012   5.984   0.887   3.007  0.1664  0.4308  0.4612
  321SOL    HW1 2013   6.038   0.855   3.078  0.1567 -0.0798  0.2464
  321SOL    HW2 2014   5.961   0.977   3.032 -0.7984 -0.1170  1.6643
  322SOL     OW 2015   5.800   6.339   3.259  0.4195 -0.2200  0.2101
  322SOL    HW1 2016   5.749   6.273   3.305  0.6372  0.2013  1.0804
  322SOL    HW2 2017   5.885   6.297   3.244  0.6648 -0.0393  1.0467
  323SOL     OW 2018   8.105   2.327   2.934 -0.3095  0.8726  0.0000
  323SOL    HW1 2019   8.158   2.404   2.912  1.1078  0.1396  0.6905
  323SOL    HW2 2020   8.024   2.337   2.883 -0.0068  2.6323 -0.1734
  324SOL     OW 2021   1.668   2.191   7.597  0.0908 -0.2194 -0.0420
  324SOL    HW1 2022   1.691   2.208   7.505 -2.0166 -0.9314 -0.7794
  324SOL    HW2 2023   1.680   2.097   7.608  1.4658  0.0361  0.7992
  325SOL     OW 2024   4.720   1.181   2.066 -0.1481  0.4485 -0.2078
  325SOL    HW1 2025   4.731   1.092   2.099  0.2782  0.8336  0.6964
  325SOL    HW2 2026   4.745   1.175   1.973 -0.1270 -0.3684 -0.1567
  326SOL     OW 2027   0.751   7.716   4.987  0.0906  0.1006 -0.1623
  326SOL    HW1 2028   0.671   7.670   5.010  0.2528  1.0286  2.6288
  326SOL    HW2 2029   0.730   7.808   4.999  1.2224  0.4350 -0.6258
  327SOL     OW 2030   3.222   6.310   1.565  0.6239 -0.7748 -0.7020
  327SOL    HW1 2031   3.133   6.318   1.598  0.6992 -2.0273 -0.1677
  327SOL    HW2 2032   3.257   6.399   1.570 -0.4291 -0.3593 -0.4732
  328SOL     OW 2033   0.319   4.826   4.644 -0.3239 -0.5066  0.4791
  328SOL    HW1 2034   0.274   4.867   4.571  1.3432  0.2971 -0.1588
  328SOL    HW2 2035   0.268   4.851   4.721 -0.3790  1.3236 -0.0911
  329SOL     OW 2036   1.534   7.290   8.190  0.3446  0.2347 -0.2045
  329SOL    HW1 2037   1.618   7.335   8.187  0.6567 -0.3483 -0.3549
  329SOL    HW2 2038   1.473   7.355   8.225  1.3269 -0.0388  2.2180
  330SOL     OW 2039   3.154   4.719   2.888 -0.1447  0.0330 -0.2385
  330SOL    HW1 2040   3.166   4.776   2.964 -1.1450  0.4550 -0.3743
  330SOL    HW2 2041   3.067   4.682   2.900 -1.3353  1.8753 -2.2692
  331SOL     OW 2042   3.927   7.713   2.573  0.6700  0.1896 -0.0668
  331SOL    HW1 2043   3.902   7.805   2.586  2.0715  0.6010 -0.1065
  331SOL    HW2 2044   3.846   7.664   2.589  0.2253  1.3129  1.3880
  332SOL     OW 2045   6.921   0.587   4.831 -0.2108  0.2188  0.0865
  332SOL    HW1 2046   6.855   0.623   4.890 -1.2252 -0.2545 -0.7114
  332SOL    HW2 2047   6.964   0.518   4.881 -1.4436 -0.5638  0.1073
  333SOL     OW 2048   7.239   1.080   0.358  0.2227 -0.1276  0.2587
  333SOL    HW1 2049   7.328   1.103   0.333  0.4180  0.4760  1.4513
  333SOL    HW2 2050   7.184   1.126   0.295  0.7199  0.8943  0.5389
  334SOL     OW 2051   7.744   2.214   5.782  0.5521 -0.4652  0.3722
  334SOL    HW1 2052   7.656   2.188   5.807  0.3750 -0.0482  0.2086
  334SOL    HW2 2053   7.732   2.300   5.740  0.9667 -0.6469 -0.1330
  335SOL     OW 2054   7.475   6.191   0.109  0.0287 -0.0210 -0.0617
  335SOL    HW1 2055   7.562   6.223   0.133  0.5280 -1.6807  0.4621
  335SOL    HW2 2056   7.433   6.170   0.192 -0.8833  0.7071 -0.3136
  336SOL     OW 2057   5.064   4.782   1.459 -0.0532  0.2731  0.5105
  336SOL    HW1 2058   5.061   4.857   1.401 -0.9916 -0.2348 -0.1141
  336SOL    HW2 2059   5.042   4.707   1.404  0.4328 -0.4061  1.2107
  337SOL     OW 2060   6.064   0.257   2.299 -0.4822 -0.2716  0.1698
  337SOL    HW1 2061   6.023   0.241   2.214 -2.8242 -0.8719  1.3159
  337SOL    HW2 2062   6.129   0.188   2.308 -1.5891 -1.4210 -0.3378
  338SOL     OW 2063   4.753   5.789   2.824 -0.1135  0.2202  0.5125
  338SOL    HW1 2064   4.692   5.740   2.879  0.6498 -0.3068  0.9048
  338SOL    HW2 2065   4.748   5.746   2.739  0.6390 -0.6402  0.8843
  339SOL     OW 2066   0.691   8.229   3.982  0.2408 -0.0150  0.0311
  339SOL    HW1 2067   0.731   8.316   3.980  0.7868 -0.2677 -0.2183
  339SOL    HW2 2068   0.597   8.246   3.975  0.4293  0.4937 -1.6888
  340SOL     OW 2069   6.616   1.761   8.235  0.0057 -0.5083 -0.6586
  340SOL    HW1 2070   6.681   1.832   8.239 -2.3505  1.7488  0.4367
  340SOL    HW2 2071   6.641   1.703   8.307  0.8649  0.2621 -0.3046
  341SOL     OW 2072   2.037   2.898   4.674  0.5891  0.4083  1.0345
  341SOL    HW1 2073   1.973   2.900   4.745  0.0979  0.6304  0.5905
  341SOL    HW2 2074   2.011   2.969   4.616  1.0335  0.2792  0.6687
  342SOL     OW 2075   5.297   4.125   3.717  0.8381  0.3808  0.1886
  342SOL    HW1 2076   5.270   4.209   3.755  1.1511  0.4349  0.2908
  342SOL    HW2 2077   5.390   4.118   3.737  0.7452 -0.1442  0.4725
  343SOL     OW 2078   4.445   0.642   2.920 -0.4481 -0.7768 -0.0549
  343SOL    HW1 2079   4.462   0.615   2.830  1.2265 -0.4178  0.1186
  343SOL    HW2 2080   4.384   0.575   2.953 -1.8422 -0.3968 -1.6864
  344SOL     OW 2081   2.469   5.760   2.606  0.7793  0.2069  0.4055
  344SOL    HW1 2082   2.413   5.729   2.676  0.2320  1.5992  0.6144
  344SOL    HW2 2083   2.530   5.820   2.648  0.6681  0.7919 -0.2449
  345SOL     OW 2084   1.926   0.994   0.555  0.1233  0.8340  0.0453
  345SOL    HW1 2085   1.941   0.902   0.577 -1.1592  0.5752 -0.1212
  345SOL    HW2 2086   1.836   0.998   0.525 -0.0163  2.2412  0.5514
  346SOL     OW 2087   4.263   1.782   4.065  0.7627  0.6261  0.2109
  346SOL    HW1 2088   4.292   1.700   4.025  0.0414  0.5124 -0.0974
  346SOL    HW2 2089   4.258   1.763   4.159 -2.2000 -0.6315 -0.0839
  347SOL     OW 2090   5.580   4.249   3.976 -0.1185 -0.0514 -0.3918
  347SOL    HW1 2091   5.487   4.227   3.986 -0.0031 -0.9993 -1.2750
  347SOL    HW2 2092   5.580   4.331   3.927 -0.5264  1.4528  1.9494
  348SOL     OW 2093   0.415   4.065   4.205 -0.2210  0.1030 -0.3461
  348SOL    HW1 2094   0.472   4.125   4.254 -0.8195  0.1572  0.2993
  348SOL    HW2 2095   0.460   3.981   4.210  0.0495  0.2503 -0.2608
  349SOL     OW 2096   5.994   1.963   1.584 -0.0674 -0.5557  0.0511
  349SOL    HW1 2097   5.961   2.047   1.552 -2.5872 -1.2599  0.5869
  349SOL    HW2 2098   6.084   1.958   1.551 -1.0318  0.6942 -3.1806
  350SOL     OW 2099   0.486   4.774   7.946 -0.2197 -0.4604  0.3351
  350SOL    HW1 2100   0.576   4.759   7.917 -0.3682 -0.7467  0.0193
  350SOL    HW2 2101   0.435   4.703   7.906 -0.6620 -0.0450  0.1444
  351SOL     OW 2102   3.068   7.700   6.973  0.2050 -0.7661  0.1628
  351SOL    HW1 2103   2.992   7.646   6.952  0.5467 -1.2544  0.1516
  351SOL    HW2 2104   3.103   7.661   7.054 -0.4737  0.4292  1.0679
  352SOL     OW 2105   2.504   5.534   1.748 -0.3208  0.6436 -0.2476
  352SOL    HW1 2106   2.486   5.557   1.657  0.1704 -1.5737 -0.9606
  352SOL    HW2 2107   2.580   5.476   1.743 -1.1746 -0.7019  1.4161
  353SOL     OW 2108   2.822   7.716   0.353  0.4689  0.1575  0.3352
  353SOL    HW1 2109   2.798   7.805   0.381 -1.6168 -0.5838  1.0611
  353SOL    HW2 2110   2.835   7.668   0.435  3.0058  0.0767 -0.0328
  354SOL     OW 2111   0.582   5.042   5.656  0.0056  0.1336 -0.5251
  354SOL    HW1 2112   0.550   4.958   5.623  0.7965  0.5567 -2.5048
  354SOL    HW2 2113   0.526   5.061   5.731 -0.8359 -1.6777 -0.6432
  355SOL     OW 2114   6.921   1.950   0.749  0.8444  0.1600 -0.3053
  355SOL    HW1 2115   6.999   1.991   0.711  0.8778 -0.2119 -0.6493
  355SOL    HW2 2116   6.872   2.022   0.788  0.1255  0.7815 -2.2381
  356SOL     OW 2117   3.267   2.931   4.490 -0.0198  0.7253  0.0811
  356SOL    HW1 2118   3.302   2.883   4.415  1.3034  0.3327  0.9242
  356SOL    HW2 2119   3.338   2.932   4.554 -1.2090  0.7946  1.4592
  357SOL     OW 2120   4.447   5.101   5.103 -0.4407 -0.4574  0.1498
  357SOL    HW1 2121   4.370   5.120   5.157 -0.1585  0.6267  0.1909
  357SOL    HW2 2122   4.416   5.035   5.041 -0.7140 -1.9422  1.7660
  358SOL     OW 2123   5.135   2.444   2.473  0.5219  0.3527 -0.6203
  358SOL    HW1 2124   5.074   2.424   2.402  1.9287  1.0443 -2.0852
  358SOL    HW2 2125   5.135   2.539   2.480  0.1431  0.2829  0.5715
  359SOL     OW 2126   6.337   7.781   0.703  0.3463  0.4718 -0.5081
  359SOL    HW1 2127   6.426   7.793   0.737 -0.0694  2.2550  0.1028
  359SOL    HW2 2128   6.282   7.791   0.780 -0.4202 -0.0985 -0.9742
  360SOL     OW 2129   3.303   7.121   0.620  0.6437  0.1914 -0.3663
  360SOL    HW1 2130   3.378   7.169   0.584  0.7305 -0.0615 -0.5287
  360SOL    HW2 2131   3.339   7.035   0.643  0.2172 -0.2335 -1.2466
  361SOL     OW 2132   1.217   0.694   2.354 -0.0023 -0.6586 -0.2569
  361SOL    HW1 2133   1.215   0.609   2.311 -0.5253 -1.7594  1.7882
  361SOL    HW2 2134   1.281   0.684   2.424  1.3500  1.2858 -1.1489
  362SOL     OW 2135   5.907   0.735   5.393  0.3949  0.6023 -0.4563
  362SOL    HW1 2136   5.890   0.829   5.394  2.1141  0.9652 -0.9920
  362SOL    HW2 2137   5.870   0.705   5.310 -1.1889  0.5586  0.2351
  363SOL     OW 2138   2.215   7.282   6.117  0.2049 -0.2290  0.2432
  363SOL    HW1 2139   2.203   7.214   6.182  0.8278 -0.6594 -0.0737
  363SOL    HW2 2140   2.176   7.361   6.155  1.9218 -0.0779  1.8214
  364SOL     OW 2141   5.471   4.364   1.602  0.2655 -0.2467 -0.0785
  364SOL    HW1 2142   5.488   4.443   1.552  1.1592 -1.3307 -1.5709
  364SOL    HW2 2143   5.382   4.374   1.634  0.5895  1.6343  0.3175
  365SOL     OW 2144   5.460   6.901   0.487 -0.2665  0.6428  0.3171
  365SOL    HW1 2145   5.439   6.813   0.521  1.6381  0.3633  0.9042
  365SOL    HW2 2146   5.432   6.960   0.557 -1.0282  0.4631  0.1705
  366SOL     OW 2147   5.240   1.297   4.573  0.1360  0.1356 -0.2237
  366SOL    HW1 2148   5.228   1.209   4.536  1.8560  0.1992 -1.0153
  366SOL    HW2 2149   5.171   1.349   4.532 -0.9812 -0.8276  0.3350
  367SOL     OW 2150   0.963   3.234   8.034 -0.0435  0.4555 -0.5966
  367SOL    HW1 2151   0.997   3.167   8.093 -0.6196 -0.2411 -1.0422
  367SOL    HW2 2152   1.041   3.271   7.992  0.2440 -0.3666 -0.8069
  368SOL     OW 2153   2.169   6.670   6.492  0.5776  0.0192 -0.5190
  368SOL    HW1 2154   2.164   6.613   6.415 -0.7465 -0.2469 -0.2570
  368SOL    HW2 2155   2.213   6.616   6.558  0.7760 -0.1223 -0.7647
  369SOL     OW 2156   1.332   7.913   3.090 -0.5273 -0.0190  0.3146
  369SOL    HW1 2157   1.375   7.997   3.102 -1.9090  0.9651 -1.2031
  369SOL    HW2 2158   1.345   7.867   3.173  2.5301  0.5733  0.2945
  370SOL     OW 2159   1.119   4.976   4.450  0.0584  0.0963 -0.6365
  370SOL    HW1 2160   1.086   4.901   4.499 -0.3560 -1.0801 -2.6018
  370SOL    HW2 2161   1.214   4.973   4.462 -0.0405 -0.1438  0.1053
  371SOL     OW 2162   1.924   4.858   2.012 -0.2175  0.1883 -0.4214
  371SOL    HW1 2163   1.977   4.848   2.090 -0.9146 -0.0984  0.0202
  371SOL    HW2 2164   1.978   4.822   1.941 -0.1833 -0.9366  0.1613
  372SOL     OW 2165   2.943   6.341   3.791  0.1615 -0.2758  0.1437
  372SOL    HW1 2166   2.960   6.261   3.742 -1.1423  0.2359 -1.2299
  372SOL    HW2 2167   2.996   6.407   3.746  0.2895 -0.1337  0.5039
  373SOL     OW 2168   6.639   1.059   7.864 -0.3220  0.2357 -0.0226
  373SOL    HW1 2169   6.689   1.047   7.945  0.1524  2.0521 -0.0081
  373SOL    HW2 2170   6.670   0.990   7.806  0.2920 -0.2718  0.8832
  374SOL     OW 2171   4.679   4.418   5.317  0.2599 -0.6516 -0.3506
  374SOL    HW1 2172   4.588   4.429   5.289  0.9269  0.9804 -2.1433
  374SOL    HW2 2173   4.724   4.385   5.239  1.1828 -1.8033  0.6163
  375SOL     OW 2174   3.962   2.609   8.143  0.4038 -0.3922  0.0245
  375SOL    HW1 2175   4.031   2.648   8.196  0.0038  0.7087 -0.2324
  375SOL    HW2 2176   3.946   2.523   8.183  1.4099 -0.3649  0.5101
  376SOL     OW 2177   0.377   6.074   4.238  0.3575 -0.0064  0.4597
  376SOL    HW1 2178   0.437   6.123   4.182  1.7057 -0.1229  1.7433
  376SOL    HW2 2179   0.339   6.139   4.296  1.1473 -0.2600  1.2863
  377SOL     OW 2180   6.686   6.957   3.036 -0.1143  0.5723 -0.2042
  377SOL    HW1 2181   6.608   6.928   3.084  2.0339 -2.6312  1.7438
  377SOL    HW2 2182   6.729   7.017   3.097  0.1261  0.4832 -0.2890
  378SOL     OW 2183   1.577   4.355   7.510  0.0687  0.2939 -0.3553
  378SOL    HW1 2184   1.527   4.277   7.485  1.2474 -1.0301  1.2088
  378SOL    HW2 2185   1.626   4.328   7.587  1.6698  2.1590 -0.6554
  379SOL     OW 2186   7.027   0.456   3.588  0.1929  0.3083  0.0499
  379SOL    HW1 2187   6.948   0.403   3.601 -0.4645  1.6271  1.8187
  379SOL    HW2 2188   7.075   0.448   3.670  0.6575  1.5180 -0.0811
  380SOL     OW 2189   5.533   2.209   7.860 -0.4681 -0.4449 -0.8886
  380SOL    HW1 2190   5.443   2.215   7.891 -0.1822  1.4388 -0.3079
  380SOL    HW2 2191   5.581   2.273   7.912  0.5345  1.0608 -3.4782
  381SOL     OW 2192   2.202   6.338   2.042 -0.2072  0.1129  0.1979
  381SOL    HW1 2193   2.253   6.296   2.112  0.1490 -1.0783 -0.7401
  381SOL    HW2 2194   2.259   6.334   1.965 -2.0729 -2.4091 -1.2382
  382SOL     OW 2195   5.399   6.353   1.863  0.0552 -0.2558  0.2732
  382SOL    HW1 2196   5.436   6.426   1.812 -0.1520 -0.3616 -0.0287
  382SOL    HW2 2197   5.378   6.392   1.948 -0.2766  0.0939  0.0323
  383SOL     OW 2198   6.077   4.959   6.381 -0.0034 -0.6309 -0.0910
  383SOL    HW1 2199   6.144   5.016   6.419 -0.6030  0.9966 -1.3898
  383SOL    HW2 2200   6.075   4.883   6.440  0.1004  1.0897  2.3073
  384SOL     OW 2201   1.539   1.579   5.965  0.1874  0.4137 -0.9187
  384SOL    HW1 2202   1.461   1.590   5.911  0.0870  0.5780 -0.7375
  384SOL    HW2 2203   1.508   1.582   6.055  0.4638  0.9438 -0.8394
  385SOL     OW 2204   4.771   0.411   2.543 -0.3783 -0.7671  0.0610
  385SOL    HW1 2205   4.742   0.332   2.498  1.2583 -0.1693 -2.2026
  385SOL    HW2 2206   4.816   0.462   2.476  0.5372  1.0906  1.9638
  386SOL     OW 2207   5.991   4.234   3.638  0.9539  0.4980  0.3762
  386SOL    HW1 2208   6.012   4.270   3.552 -0.8641 -0.2285 -0.4296
  386SOL    HW2 2209   5.922   4.292   3.672  2.3052  1.3344  1.7884
  387SOL     OW 2210   1.359   1.075   6.592 -0.8394  0.0364  0.0641
  387SOL    HW1 2211   1.264   1.086   6.595 -0.7067  1.8896 -0.6925
  387SOL    HW2 2212   1.379   1.069   6.498 -0.2188 -0.5098  0.2268
  388SOL     OW 2213   1.384   0.636   1.279 -0.0774 -0.4568 -0.1130
  388SOL    HW1 2214   1.326   0.576   1.326  0.0167 -1.0758 -0.7750
  388SOL    HW2 2215   1.457   0.650   1.339 -0.6005 -0.1566  0.4790
  389SOL     OW 2216   8.047   5.588   4.372 -0.2387  1.0416  0.2311
  389SOL    HW1 2217   7.997   5.588   4.453  0.1069  0.8881  0.4458
  389SOL    HW2 2218   7.988   5.627   4.307 -0.5220  1.1436  0.5489
  390SOL     OW 2219   3.402   5.762   4.442 -0.0877  0.0187 -0.1596
  390SOL    HW1 2220   3.366   5.712   4.368 -0.8927 -1.9346  1.4643
  390SOL    HW2 2221   3.474   5.709   4.474 -0.2844  0.4156  0.9836
  391SOL     OW 2222   3.628   6.789   7.367  0.4146  0.0443  0.6735
  391SOL    HW1 2223   3.577   6.709   7.355  1.1285 -0.6002  1.7298
  391SOL    HW2 2224   3.579   6.856   7.319 -0.4538 -0.9175  0.1701
  392SOL     OW 2225   1.617   5.846   7.871  0.1307  0.0675 -0.2460
  392SOL    HW1 2226   1.540   5.896   7.846 -0.6046 -1.5884 -1.4585
  392SOL    HW2 2227   1.617   5.848   7.967 -0.1317  1.9100 -0.2422
  393SOL     OW 2228   3.861   1.336   2.628 -0.3435  0.2834  0.1598
  393SOL    HW1 2229   3.844   1.376   2.542  1.4278  0.5383 -0.1050
  393SOL    HW2 2230   3.837   1.404   2.691  0.1899  0.8324 -0.2113
  394SOL     OW 2231   3.942   8.113   1.928  0.1027 -0.0104  0.0236
  394SOL    HW1 2232   3.957   8.147   1.840 -0.0226 -2.8296 -1.2225
  394SOL    HW2 2233   3.865   8.160   1.959  0.6956  1.6997 -0.9857
  395SOL     OW 2234   3.423   3.077   4.269 -1.2045  0.0675 -0.2116
  395SOL    HW1 2235   3.366   3.003   4.249 -0.4430 -0.6949  0.3814
  395SOL    HW2 2236   3.469   3.051   4.348 -1.8262  1.6912  0.7438
  396SOL     OW 2237   0.026   5.111   4.743 -0.0294  0.3331  0.5230
  396SOL    HW1 2238   0.021   5.157   4.659 -2.5844 -1.1096 -0.2186
  396SOL    HW2 2239  -0.010   5.173   4.807 -0.7406  0.4159  0.0491
  397SOL     OW 2240   7.010   7.512   2.520 -0.3789 -0.2555 -0.4089
  397SOL    HW1 2241   6.926   7.554   2.539  0.4040  0.2773  2.2275
  397SOL    HW2 2242   6.998   7.421   2.548 -0.0391 -0.1465  0.0942
  398SOL     OW 2243   1.600   7.161   6.972 -0.0343  0.7281 -0.7102
  398SOL    HW1 2244   1.660   7.214   6.920  1.4686 -0.1131  0.0948
  398SOL    HW2 2245   1.615   7.071   6.942  1.5620  0.0806  1.6620
  399SOL     OW 2246   1.433   5.919   5.574  0.2905 -0.0096 -0.7157
  399SOL    HW1 2247   1.462   5.901   5.485 -1.1942  0.5261 -1.3358
  399SOL    HW2 2248   1.342   5.948   5.565 -0.7242 -2.2212  1.1764
  400SOL     OW 2249   8.196   1.835   7.884 -0.0253  0.2048  0.3194
  400SOL    HW1 2250   8.234   1.914   7.845  2.5876 -1.3826 -0.5850
  400SOL    HW2 2251   8.248   1.763   7.849  0.1507 -1.6699  3.9234
  401SOL     OW 2252   4.744   7.019   4.344  0.4672  0.0586 -0.4012
  401SOL    HW1 2253   4.720   7.100   4.389  0.9451  0.2992 -0.5799
  401SOL    HW2 2254   4.839   7.022   4.337  0.8087 -1.8502  2.1314
  402SOL     OW 2255   2.328   2.005   5.432  0.1386  0.4754 -0.3958
  402SOL    HW1 2256   2.234   1.994   5.442  0.2591 -1.1344 -0.6181
  402SOL    HW2 2257   2.352   2.075   5.493 -1.1259  0.5435  0.0399
  403SOL     OW 2258   7.829   3.174   3.308  0.1462 -0.0015 -0.6113
  403SOL    HW1 2259   7.746   3.129   3.323 -0.4266  1.6091  1.7130
  403SOL    HW2 2260   7.895   3.115   3.346 -0.1692 -0.4010 -0.6760
  404SOL     OW 2261   3.370   3.107   6.937  0.1214  0.9900 -0.0448
  404SOL    HW1 2262   3.368   3.174   6.868  0.9638  0.3987 -0.6631
  404SOL    HW2 2263   3.283   3.110   6.975  0.0740  2.3128 -0.1816
  405SOL     OW 2264   3.721   4.631   4.161  0.1960 -0.5189 -0.1750
  405SOL    HW1 2265   3.813   4.633   4.187  0.3306  0.2189 -0.6613
  405SOL    HW2 2266   3.686   4.552   4.201  0.6352  0.0415  1.4022
  406SOL     OW 2267   4.170   5.205   2.160 -0.4285  0.0457 -0.2917
  406SOL    HW1 2268   4.225   5.258   2.218 -0.3749  0.6532 -0.8965
  406SOL    HW2 2269   4.088   5.253   2.154 -0.3189  0.1529 -0.9841
  407SOL     OW 2270   3.146   2.502   2.576  0.1462  0.0645  0.6950
  407SOL    HW1 2271   3.055   2.497   2.604  0.5567 -0.2643  2.0200
  407SOL    HW2 2272   3.196   2.505   2.657  1.4031 -1.1329  0.0034
  408SOL     OW 2273   7.512   6.262   4.924  0.1314  0.4395  0.3524
  408SOL    HW1 2274   7.607   6.254   4.934  0.5130  0.8242 -2.1641
  408SOL    HW2 2275   7.491   6.207   4.849 -1.5165  0.9236  0.4180
  409SOL     OW 2276   6.361   4.274   1.277  0.0178  0.4279  0.0494
  409SOL    HW1 2277   6.450   4.279   1.311  0.6172  0.6833 -1.4789
  409SOL    HW2 2278   6.323   4.360   1.297  0.1849  0.3951  0.5100
  410SOL     OW 2279   1.241   6.453   3.347  0.0288  0.2685 -0.4870
  410SOL    HW1 2280   1.201   6.432   3.432  1.4016  0.8704  0.3539
  410SOL    HW2 2281   1.177   6.425   3.282 -1.2951  0.2709  0.7665
  411SOL     OW 2282   5.753   3.295   3.619  0.1199 -0.2778 -0.1729
  411SOL    HW1 2283   5.693   3.299   3.693 -1.9466 -0.6134 -1.7446
  411SOL    HW2 2284   5.750   3.204   3.590  0.8588 -0.1404 -0.7073
  412SOL     OW 2285   3.073   6.685   8.199 -0.7243 -0.6805 -0.0708
  412SOL    HW1 2286   3.145   6.741   8.170 -2.3487  0.7789 -1.5635
  412SOL    HW2 2287   3.080   6.607   8.144 -1.2366  0.2020 -1.4522
  413SOL     OW 2288   0.219   7.692   4.087  0.9124  0.3432  0.4666
  413SOL    HW1 2289   0.257   7.761   4.032  0.2725  0.2030 -0.1771
  413SOL    HW2 2290   0.130   7.723   4.106 -0.0214 -1.0218 -1.2718
  414SOL     OW 2291   6.893   2.444   0.272 -0.0838 -0.0570 -0.1755
  414SOL    HW1 2292   6.834   2.442   0.197  0.5788  0.8580 -0.7552
  414SOL    HW2 2293   6.938   2.529   0.264  0.7688 -0.4132  0.6512
  415SOL     OW 2294   7.425   6.369   5.650 -0.3837  0.0284  0.3841
  415SOL    HW1 2295   7.476   6.338   5.725 -0.4732  0.0785  0.4660
  415SOL    HW2 2296   7.370   6.439   5.686 -0.1532  0.3131  0.1931
  416SOL     OW 2297   4.115   4.098   6.782 -0.1503  0.3068 -0.1347
  416SOL    HW1 2298   4.107   4.168   6.847  0.4735 -0.1439  0.4405
  416SOL    HW2 2299   4.168   4.031   6.826 -2.4017 -1.4347  0.1144
  417SOL     OW 2300   3.297   2.673   5.890  0.0869 -0.1909 -0.3989
  417SOL    HW1 2301   3.272   2.761   5.863  1.9836  0.3279 -0.6074
  417SOL    HW2 2302   3.366   2.687   5.956  0.2438 -1.5124 -0.2511
  418SOL     OW 2303   1.222   2.001   1.209  0.6044 -0.3054 -0.1944
  418SOL    HW1 2304   1.258   2.041   1.288  1.1053 -0.2984 -0.4223
  418SOL    HW2 2305   1.276   2.037   1.138 -0.2632  0.2060 -0.6084
  419SOL     OW 2306   3.820   2.527   3.681  0.6448 -0.2574  0.4292
  419SOL    HW1 2307   3.740   2.577   3.698  0.5037  0.1623 -1.2863
  419SOL    HW2 2308   3.817   2.508   3.587  3.9006  2.2232 -0.3610
  420SOL     OW 2309   0.158   1.297   7.805  0.5040  0.2829  0.2416
  420SOL    HW1 2310   0.137   1.386   7.775  0.1493 -0.2691 -1.2259
  420SOL    HW2 2311   0.244   1.280   7.768 -0.8466 -1.2247 -2.4605
  421SOL     OW 2312   3.688   0.929   2.424 -0.2342  0.0132  0.3498
  421SOL    HW1 2313   3.619   0.990   2.454 -0.3466 -0.2161  0.5577
  421SOL    HW2 2314   3.756   0.936   2.491 -0.1114  0.1387  0.2133
  422SOL     OW 2315   0.219   6.124   0.803 -0.0234  0.3255 -0.4095
  422SOL    HW1 2316   0.177   6.199   0.844  1.0036  0.4928  0.3572
  422SOL    HW2 2317   0.241   6.154   0.715  1.7925  1.4798  0.3986
  423SOL     OW 2318   6.843   7.606   2.164  0.1060  0.0112 -0.4718
  423SOL    HW1 2319   6.753   7.636   2.170  0.0054 -0.3987  0.0625
  423SOL    HW2 2320   6.846   7.526   2.216  0.9455  0.4232  0.1330
  424SOL     OW 2321   0.085   0.786   3.001  0.1133 -0.2157  0.2837
  424SOL    HW1 2322   0.051   0.841   2.931 -0.5109 -0.0331  0.7263
  424SOL    HW2 2323   0.010   0.733   3.029  0.3729 -0.3339  0.7693
  425SOL     OW 2324   3.276   0.809   7.835  0.2255 -0.4535  0.0695
  425SOL    HW1 2325   3.353   0.767   7.875 -1.1107 -1.5049  1.6503
  425SOL    HW2 2326   3.249   0.875   7.899  0.3105  0.5221 -0.8805
  426SOL     OW 2327   7.434   5.146   5.639  0.8486 -0.6964 -0.3739
  426SOL    HW1 2328   7.398   5.234   5.630 -1.6485 -1.4166  1.3606
  426SOL    HW2 2329   7.394   5.096   5.568  0.4851 -0.9053 -0.0294
  427SOL     OW 2330   3.824   0.280   7.167  0.1246  0.1007  0.4420
  427SOL    HW1 2331   3.764   0.286   7.092 -0.9166 -0.8372  1.1636
  427SOL    HW2 2332   3.833   0.370   7.198 -1.9466  0.1596  1.0684
  428SOL     OW 2333   2.010   4.098   7.418  0.0132  0.5812 -0.0761
  428SOL    HW1 2334   2.064   4.051   7.356  0.7173 -0.8320  1.5125
  428SOL    HW2 2335   1.921   4.091   7.383  0.4427  0.2122 -1.1204
  429SOL     OW 2336   0.250   7.189   3.694  0.3459  0.3216 -0.0622
  429SOL    HW1 2337   0.316   7.167   3.629  0.9810 -0.9508  0.9681
  429SOL    HW2 2338   0.256   7.120   3.760 -2.6190 -0.3660 -0.3522
  430SOL     OW 2339   0.733   0.299   5.597 -0.0790  0.2866 -0.2187
  430SOL    HW1 2340   0.763   0.367   5.538  3.9791  0.1048  1.3224
  430SOL    HW2 2341   0.759   0.330   5.684 -3.2832 -0.7293  1.2471
  431SOL     OW 2342   4.136   5.506   2.149  0.3480 -0.1058  0.4829
  431SOL    HW1 2343   4.185   5.475   2.225  1.6287 -0.2478 -0.3552
  431SOL    HW2 2344   4.200   5.505   2.078 -0.6102  0.7528 -0.4297
  432SOL     OW 2345   1.159   3.924   7.079 -0.4924 -0.1628  0.2675
  432SOL    HW1 2346   1.135   3.833   7.097 -0.5895  0.1368  1.7567
  432SOL    HW2 2347   1.248   3.932   7.112 -0.5125  0.3055  0.2137
  433SOL     OW 2348   2.214   2.823   4.470  0.1526 -0.0772  0.2463
  433SOL    HW1 2349   2.157   2.877   4.415  0.1758 -0.5429 -0.2379
  433SOL    HW2 2350   2.177   2.831   4.557  0.2432  0.8525  0.2124
  434SOL     OW 2351   2.545   5.779   2.292 -0.1673  0.4132 -0.8919
  434SOL    HW1 2352   2.471   5.840   2.289 -0.3349  0.1991 -1.1127
  434SOL    HW2 2353   2.540   5.739   2.378  0.1141  0.9198 -0.6310
  435SOL     OW 2354   4.552   5.353   0.147  0.3169 -0.2556 -0.5552
  435SOL    HW1 2355   4.486   5.423   0.145  0.3385 -0.1806  0.5436
  435SOL    HW2 2356   4.545   5.311   0.061 -1.3727 -0.4436 -0.3701
  436SOL     OW 2357   4.597   7.340   0.456  0.2674  0.2273  0.3420
  436SOL    HW1 2358   4.513   7.380   0.434 -0.8026 -2.0755 -0.0052
  436SOL    HW2 2359   4.653   7.358   0.381 -0.3414  0.6074 -0.0253
  437SOL     OW 2360   1.675   1.781   7.241 -0.5011 -0.6932 -0.4333
  437SOL    HW1 2361   1.614   1.786   7.168 -1.9712  0.3266  0.7967
  437SOL    HW2 2362   1.660   1.696   7.281 -0.8474 -0.6118 -0.3858
  438SOL     OW 2363   1.290   6.928   1.496 -0.0658  0.1512  0.6937
  438SOL    HW1 2364   1.357   6.871   1.535  0.3045  0.4415  0.4838
  438SOL    HW2 2365   1.321   7.017   1.512 -1.1725  0.3349  1.9523
  439SOL     OW 2366   4.918   5.461   2.622  0.0037 -0.8546  0.3890
  439SOL    HW1 2367   4.826   5.463   2.595 -0.4432 -2.0525  1.7244
  439SOL    HW2 2368   4.916   5.425   2.710  1.8225 -1.5852  0.1655
  440SOL     OW 2369   8.181   3.027   2.480 -0.1145  0.0092  0.1280
  440SOL    HW1 2370   8.112   3.031   2.546 -0.6049  1.2468 -0.4361
  440SOL    HW2 2371   8.215   2.938   2.487 -2.0924 -0.8218  0.1118
  441SOL     OW 2372   7.105   0.955   4.420 -0.6842 -0.0363 -0.0515
  441SOL    HW1 2373   7.197   0.929   4.422 -0.7806 -0.3864  0.0122
  441SOL    HW2 2374   7.106   1.050   4.421 -0.3448 -0.0225  1.4975
  442SOL     OW 2375   8.178   6.729   1.576 -0.0844 -0.0574 -0.0534
  442SOL    HW1 2376   8.170   6.635   1.592  0.5711 -0.0580  0.2986
  442SOL    HW2 2377   8.111   6.748   1.510 -2.1660 -0.2575  1.8507
  443SOL     OW 2378   6.909   3.591   1.501  0.5515  0.2281 -0.3066
  443SOL    HW1 2379   6.953   3.581   1.585  0.3017 -1.6055 -0.3563
  443SOL    HW2 2380   6.879   3.682   1.500  2.0382  0.7802  0.8318
  444SOL     OW 2381   1.259   0.714   3.108 -0.0189 -0.5212  0.6508
  444SOL    HW1 2382   1.331   0.713   3.045  0.5956  0.4130  1.3153
  444SOL    HW2 2383   1.236   0.622   3.120 -0.7403 -0.6891 -1.5814
  445SOL     OW 2384   7.419   3.100   0.237  0.6003  0.2532  0.0418
  445SOL    HW1 2385   7.422   3.040   0.162  0.2242 -1.2415  1.1837
  445SOL    HW2 2386   7.510   3.103   0.269  0.4131 -0.6417  0.6817
  446SOL     OW 2387   5.597   7.102   5.138  0.2924  0.0351  0.2012
  446SOL    HW1 2388   5.641   7.144   5.212 -0.0037  0.5722  0.0736
  446SOL    HW2 2389   5.538   7.169   5.103  0.6343 -0.1227 -0.7021
  447SOL     OW 2390   4.670   0.289   0.238 -0.3652  0.4239 -0.3608
  447SOL    HW1 2391   4.645   0.381   0.235 -1.6976  0.1327  0.7131
  447SOL    HW2 2392   4.642   0.253   0.154 -0.2505  0.8933 -0.6007
  448SOL     OW 2393   0.766   6.588   4.070  0.5497  0.0313 -0.7590
  448SOL    HW1 2394   0.714   6.651   4.119  0.1276  0.4061 -1.6721
  448SOL    HW2 2395   0.788   6.520   4.134  0.7546  0.9425  0.1534
  449SOL     OW 2396   1.561   2.822   2.392 -0.8280 -0.3803 -0.1091
  449SOL    HW1 2397   1.525   2.868   2.468 -0.9775  0.6040 -0.7560
  449SOL    HW2 2398   1.561   2.730   2.417  0.6640  0.0633  1.7247
  450SOL     OW 2399   1.681   1.770   5.444 -0.4315 -0.3083 -0.2266
  450SOL    HW1 2400   1.744   1.756   5.373 -0.2205  0.7132 -0.2612
  450SOL    HW2 2401   1.726   1.739   5.523 -0.1256 -0.1755 -0.3454
  451SOL     OW 2402   6.262   4.236   4.454  0.3308 -0.3157  0.5307
  451SOL    HW1 2403   6.227   4.300   4.516 -1.7807 -0.2922 -0.6118
  451SOL    HW2 2404   6.314   4.288   4.393 -0.4723  0.1588  0.2452
  452SOL     OW 2405   0.276   6.248   1.597 -0.8091 -0.1545  0.5642
  452SOL    HW1 2406   0.370   6.266   1.589 -0.8262 -0.6569 -1.1054
  452SOL    HW2 2407   0.272   6.153   1.612 -1.0879 -0.5587 -1.7149
  453SOL     OW 2408   6.609   0.953   0.079  0.0018 -0.3542 -0.3381
  453SOL    HW1 2409   6.540   0.890   0.101  0.4825 -0.6152  0.4432
  453SOL    HW2 2410   6.646   0.978   0.163  2.4123 -1.9577 -0.8450
  454SOL     OW 2411   5.889   1.663   7.248  0.4678  0.1199 -0.4238
  454SOL    HW1 2412   5.796   1.641   7.242  0.5172 -0.7215  1.1983
  454SOL    HW2 2413   5.908   1.660   7.342  1.3170  3.8997 -0.2972
  455SOL     OW 2414   7.987   6.997   4.991 -0.4807 -0.0647  0.0183
  455SOL    HW1 2415   8.012   7.076   5.039 -0.9230  0.5916 -0.8173
  455SOL    HW2 2416   8.066   6.974   4.941 -0.9426  0.9880 -1.2457
  456SOL     OW 2417   0.633   2.600   0.337  0.2795  0.2823  0.1528
  456SOL    HW1 2418   0.573   2.675   0.344  0.0721  0.2764 -1.2787
  456SOL    HW2 2419   0.699   2.616   0.404  1.0948  2.5653 -1.0795
  457SOL     OW 2420   2.675   0.782   1.039  0.0084  0.0846  0.2267
  457SOL    HW1 2421   2.659   0.735   0.957  0.4613  0.8268 -0.2986
  457SOL    HW2 2422   2.587   0.801   1.073 -0.1793 -0.4180  0.0327
  458SOL     OW 2423   8.138   1.474   1.825 -0.1262 -0.1980  0.4210
  458SOL    HW1 2424   8.111   1.472   1.916 -2.4900 -0.9126 -0.2230
  458SOL    HW2 2425   8.178   1.561   1.814  0.1455 -0.0793  2.0891
  459SOL     OW 2426   3.897   1.501   4.269  0.7802  0.1469 -0.1248
  459SOL    HW1 2427   3.812   1.520   4.230  1.3836  1.9335 -0.7061
  459SOL    HW2 2428   3.921   1.416   4.234 -1.0695 -0.7465  0.6532
  460SOL     OW 2429   0.247   3.165   1.181 -0.1197 -0.6570 -0.1448
  460SOL    HW1 2430   0.333   3.196   1.211  0.1778 -3.0859  1.7731
  460SOL    HW2 2431   0.202   3.245   1.154  1.6899  1.0541  1.5152
  461SOL     OW 2432   1.681   4.134   3.949  0.3095 -0.0829 -0.3907
  461SOL    HW1 2433   1.665   4.063   4.011 -2.0903  0.1389 -0.6810
  461SOL    HW2 2434   1.774   4.155   3.960  0.8110 -2.4541  0.5325
  462SOL     OW 2435   1.337   6.790   3.905  0.5530  0.0625 -0.1769
  462SOL    HW1 2436   1.275   6.861   3.919 -0.6145 -1.0349  0.3781
  462SOL    HW2 2437   1.419   6.834   3.882  0.0526  1.6089  0.8439
  463SOL     OW 2438   7.157   3.397   5.905  0.1210 -0.0673 -0.1012
  463SOL    HW1 2439   7.189   3.307   5.916  1.0307  0.2441 -0.1069
  463SOL    HW2 2440   7.102   3.413   5.982 -0.5328 -0.8204 -0.3988
  464SOL     OW 2441   3.045   5.558   5.220 -0.5176 -0.8513 -0.1021
  464SOL    HW1 2442   2.999   5.605   5.290 -0.5161  0.4679 -0.9580
  464SOL    HW2 2443   3.082   5.480   5.263  1.5391  1.1052  1.9437
  465SOL     OW 2444   7.313   2.452   2.043 -0.3284 -0.6222 -0.0349
  465SOL    HW1 2445   7.305   2.450   2.138  1.5010 -1.1548  0.1421
  465SOL    HW2 2446   7.274   2.535   2.017  0.0181 -0.0229  1.2827
  466SOL     OW 2447   7.058   4.804   0.719  0.6553 -0.2099 -0.3152
  466SOL    HW1 2448   7.000   4.842   0.784  1.0069 -0.2581  0.0276
  466SOL    HW2 2449   7.142   4.795   0.763  0.0834 -3.4612  0.3572
  467SOL     OW 2450   7.716   2.418   6.463 -0.3557 -0.0208 -0.0722
  467SOL    HW1 2451   7.686   2.454   6.379  1.0322 -0.6857 -0.8691
  467SOL    HW2 2452   7.811   2.417   6.457 -0.2641 -1.0921  1.0876
  468SOL     OW 2453   0.943   7.338   1.077 -0.0974 -0.0544  0.2192
  468SOL    HW1 2454   0.873   7.379   1.027 -0.7390 -1.4173 -0.0480
  468SOL    HW2 2455   0.904   7.257   1.111  1.4867 -1.1328 -0.4017
  469SOL     OW 2456   1.481   0.657   8.270 -0.0154 -0.1723  0.1266
  469SOL    HW1 2457   1.393   0.692   8.256  0.5096  0.7382 -1.1283
  469SOL    HW2 2458   1.471   0.593   8.340 -1.8578 -0.7866 -0.6365
  470SOL     OW 2459   0.207   4.827   6.935  0.0179  0.0840  0.5837
  470SOL    HW1 2460   0.254   4.793   6.859  0.8266 -0.6637  1.4026
  470SOL    HW2 2461   0.193   4.751   6.991 -3.5373 -0.0664 -0.2524
  471SOL     OW 2462   0.772   1.283   6.261  0.3720 -0.2808  0.4107
  471SOL    HW1 2463   0.832   1.357   6.258  0.4853 -0.2950  1.8585
  471SOL    HW2 2464   0.826   1.208   6.235  0.5812 -0.0619  0.2032
  472SOL     OW 2465   7.498   1.213   6.028  0.2393  0.4160 -0.0796
  472SOL    HW1 2466   7.546   1.289   5.996 -1.1330  1.8804  1.2383
  472SOL    HW2 2467   7.408   1.242   6.038 -0.2470 -1.2496  0.8999
  473SOL     OW 2468   1.983   3.361   5.187  0.0267  0.3255  0.7403
  473SOL    HW1 2469   2.072   3.376   5.156 -0.5059  1.2725 -0.4241
  473SOL    HW2 2470   1.991   3.357   5.282  1.4631 -0.7899  0.5968
  474SOL     OW 2471   7.020   0.665   1.212 -0.5202 -0.8384 -0.0627
  474SOL    HW1 2472   7.066   0.690   1.292  1.4420 -1.3756 -0.9579
  474SOL    HW2 2473   7.004   0.571   1.221 -0.2670 -0.9065 -0.3041
  475SOL     OW 2474   2.460   2.995   4.628 -0.0910  0.2775  0.1048
  475SOL    HW1 2475   2.411   3.035   4.699  2.1662 -2.0317  3.2139
  475SOL    HW2 2476   2.533   3.056   4.612 -0.0152  0.2996  0.5363
  476SOL     OW 2477   0.215   0.200   3.203  0.7867 -0.0794  0.4009
  476SOL    HW1 2478   0.292   0.162   3.162 -0.1017 -0.6094 -0.8234
  476SOL    HW2 2479   0.192   0.139   3.274 -0.5156 -1.8396 -1.4184
  477SOL     OW 2480   7.605   1.600   5.357  0.4576  0.0845 -0.3307
  477SOL    HW1 2481   7.599   1.547   5.436 -0.2532 -1.6804 -1.5214
  477SOL    HW2 2482   7.521   1.646   5.352  0.4935  0.1780 -0.0995
  478SOL     OW 2483   4.781   7.219   7.798 -0.5261 -0.5114 -0.4040
  478SOL    HW1 2484   4.690   7.190   7.808 -0.7662 -0.5140 -2.2512
  478SOL    HW2 2485   4.826   7.144   7.759  0.4657 -0.7607  1.1282
  479SOL     OW 2486   6.727   4.250   0.281  0.4129  0.3713 -0.1559
  479SOL    HW1 2487   6.726   4.159   0.310 -1.0068  0.5751  0.4924
  479SOL    HW2 2488   6.635   4.276   0.277  0.8290  2.2746  1.2627
  480SOL     OW 2489   4.537   0.558   2.369 -0.0661 -0.5023  0.5130
  480SOL    HW1 2490   4.629   0.585   2.376 -0.0556 -0.1812 -0.6557
  480SOL    HW2 2491   4.539   0.480   2.313 -0.4931 -0.5653  0.5835
  481SOL     OW 2492   5.035   7.243   5.652  0.7842  0.2834  0.0451
  481SOL    HW1 2493   5.014   7.321   5.705  0.7688  1.2213 -1.2934
  481SOL    HW2 2494   5.014   7.269   5.563  1.4207 -1.0523 -0.5098
  482SOL     OW 2495   1.219   1.565   3.995 -0.1397  0.1121 -0.6827
  482SOL    HW1 2496   1.295   1.604   4.039 -0.5205 -0.5703  0.6462
  482SOL    HW2 2497   1.240   1.471   3.990 -1.9543 -0.5559  2.1442
  483SOL     OW 2498   6.350   1.142   2.987  0.0115 -0.2278 -0.4632
  483SOL    HW1 2499   6.421   1.078   2.999 -1.0241 -1.6478 -1.5411
  483SOL    HW2 2500   6.363   1.176   2.899 -0.1040  0.2139 -0.3120
  484SOL     OW 2501   1.877   5.157   3.315 -0.3630  0.3500 -0.0990
  484SOL    HW1 2502   1.964   5.117   3.315  0.2809  1.6634 -1.0852
  484SOL    HW2 2503   1.889   5.238   3.366 -0.9704  0.6126 -0.3750
  485SOL     OW 2504   5.469   6.260   2.606 -0.5566 -0.8026  1.0571
  485SOL    HW1 2505   5.392   6.271   2.661 -0.1007 -0.9327  1.7426
  485SOL    HW2 2506   5.529   6.329   2.635 -1.8153  1.8754 -2.0837
  486SOL     OW 2507   7.999   3.993   5.312 -0.0074  0.0430 -0.0071
  486SOL    HW1 2508   8.066   3.999   5.379 -0.5585  1.0097  0.4650
  486SOL    HW2 2509   7.974   3.900   5.312  1.1479 -0.2874 -0.0359
  487SOL     OW 2510   7.173   0.513   3.001  0.2933  0.3920 -0.6523
  487SOL    HW1 2511   7.143   0.599   3.032 -1.0058 -0.2017 -0.1679
  487SOL    HW2 2512   7.253   0.497   3.051  0.0118  0.8957 -0.0114
  488SOL     OW 2513   4.189   6.269   2.320 -0.2477  0.3386 -0.3296
  488SOL    HW1 2514   4.274   6.271   2.363 -0.8538  0.7849  0.8908
  488SOL    HW2 2515   4.134   6.215   2.378 -1.0422  0.8296 -0.6122
  489SOL     OW 2516   5.403   5.011   6.902  0.4960 -0.5696  0.2153
  489SOL    HW1 2517   5.311   5.035   6.911  0.9022  1.4334 -0.3747
  489SOL    HW2 2518   5.421   5.016   6.808  1.6905  1.3272  0.4707
  490SOL     OW 2519   4.654   5.470   3.268  0.2865  0.2995 -0.0628
  490SOL    HW1 2520   4.613   5.547   3.227 -0.6728 -0.0238  0.2493
  490SOL    HW2 2521   4.697   5.505   3.346  0.1095  0.5653 -0.0833
  491SOL     OW 2522   7.454   1.068   2.088 -0.0249  0.9931 -0.0713
  491SOL    HW1 2523   7.378   1.124   2.101  0.2683  1.1349  1.1875
  491SOL    HW2 2524   7.524   1.111   2.138  0.5676  0.2512 -0.2455
  492SOL     OW 2525   5.300   2.557   4.303 -0.2551 -0.0369  0.5411
  492SOL    HW1 2526   5.299   2.643   4.261  0.8718 -0.7695 -1.0570
  492SOL    HW2 2527   5.207   2.537   4.319 -0.5234  1.5093  1.0894
  493SOL     OW 2528   1.895   7.141   3.552  0.1982  0.0685  0.0577
  493SOL    HW1 2529   1.890   7.153   3.647  0.7160 -0.2761  0.1322
  493SOL    HW2 2530   1.860   7.054   3.537 -0.6081  0.4231 -0.1534
  494SOL     OW 2531   5.391   6.955   2.061  0.3860 -0.1821 -0.2897
  494SOL    HW1 2532   5.381   6.958   2.156 -0.9896 -2.1728 -0.3188
  494SOL    HW2 2533   5.339   6.879   2.033 -0.4272  1.1874 -2.7966
  495SOL     OW 2534   0.720   2.219   5.521 -0.1899 -0.6075  0.2248
  495SOL    HW1 2535   0.704   2.313   5.512  1.2460 -0.3124  0.5079
  495SOL    HW2 2536   0.698   2.199   5.612  0.7701 -0.2578  0.5447
  496SOL     OW 2537   6.388   1.007   1.568  0.0472 -0.2690  0.6712
  496SOL    HW1 2538   6.357   0.960   1.491 -0.3799 -1.4183  1.5082
  496SOL    HW2 2539   6.366   0.949   1.641  1.1199  0.4428  1.5871
  497SOL     OW 2540   6.161   3.493   3.826 -0.3278 -0.7129 -0.1081
  497SOL    HW1 2541   6.194   3.511   3.738  1.5855 -2.3348  0.2081
  497SOL    HW2 2542   6.105   3.416   3.815 -0.2242 -0.8120  0.0586
  498SOL     OW 2543   3.802   7.714   0.899 -0.4213  0.4598 -0.0938
  498SOL    HW1 2544   3.803   7.702   0.804  2.0305  0.9930 -0.2069
  498SOL    HW2 2545   3.713   7.690   0.925 -1.0910  0.0477 -2.4727
  499SOL     OW 2546   7.269   8.227   1.468 -0.3612  0.2524 -0.0494
  499SOL    HW1 2547   7.314   8.308   1.491 -0.1822  0.2518 -0.3902
  499SOL    HW2 2548   7.201   8.253   1.407  0.9559 -0.0840 -1.7416
  500SOL     OW 2549   5.957   4.921   4.784 -0.4476  0.0955  0.0893
  500SOL    HW1 2550   5.937   4.892   4.873 -0.7473  0.0509  0.0073
  500SOL    HW2 2551   5.993   5.009   4.795  0.3029 -0.2324  0.3271
  501SOL     OW 2552   4.885   4.445   5.916  0.4020  0.3173 -0.0693
  501SOL    HW1 2553   4.808   4.410   5.960  0.0438 -1.1914 -1.7841
  501SOL    HW2 2554   4.959   4.417   5.970 -0.1793  1.1934  1.2199
  502SOL     OW 2555   6.207   5.248   5.766  0.3830 -0.4006 -0.6239
  502SOL    HW1 2556   6.210   5.222   5.673 -1.6604 -1.2366 -0.5125
  502SOL    HW2 2557   6.258   5.181   5.811 -0.2865 -1.1532 -0.9550
  503SOL     OW 2558   3.438   2.095   3.241  0.0263 -0.2830  0.2290
  503SOL    HW1 2559   3.345   2.117   3.251 -0.4112 -1.1829 -1.4119
  503SOL    HW2 2560   3.445   2.005   3.274  0.1890 -0.3901 -0.0852
  504SOL     OW 2561   4.512   7.716   7.729  0.3023  0.3051  0.3188
  504SOL    HW1 2562   4.530   7.778   7.799  1.3008  0.7164 -0.2784
  504SOL    HW2 2563   4.418   7.696   7.737 -0.4400  3.1132 -0.4642
  505SOL     OW 2564   1.033   6.883   4.135 -0.3384  0.8217 -0.7251
  505SOL    HW1 2565   1.017   6.973   4.163 -1.7719  0.4523 -0.2591
  505SOL    HW2 2566   0.976   6.830   4.191  0.6530 -0.4103 -0.8255
  506SOL     OW 2567   0.540   6.581   4.430  0.2928  0.1228 -0.4072
  506SOL    HW1 2568   0.566   6.646   4.495  1.0109  0.0910 -0.6534
  506SOL    HW2 2569   0.545   6.627   4.346 -2.0977  0.6192 -0.3485
  507SOL     OW 2570   5.881   2.819   6.751  0.3828  0.0461  0.1246
  507SOL    HW1 2571   5.801   2.830   6.801  1.3749  0.8614  1.6129
  507SOL    HW2 2572   5.861   2.856   6.665 -1.2446 -1.0695 -0.0305
  508SOL     OW 2573   4.862   0.222   1.738 -0.1030 -0.3921 -0.5221
  508SOL    HW1 2574   4.889   0.145   1.688  0.5840  0.4696 -1.5122
  508SOL    HW2 2575   4.902   0.296   1.692 -2.0923  0.7241 -0.5725
  509SOL     OW 2576   7.306   7.752   6.994 -0.2501  0.3992 -0.1828
  509SOL    HW1 2577   7.365   7.778   7.065  0.6577 -0.6474 -0.5231
  509SOL    HW2 2578   7.276   7.834   6.957  2.6563  1.0729 -1.3483
  510SOL     OW 2579   1.314   7.668   7.414 -0.8115 -0.2139 -0.2324
  510SOL    HW1 2580   1.227   7.709   7.414 -0.8908 -0.3140  1.2313
  510SOL    HW2 2581   1.358   7.706   7.490  1.5563  2.0649 -2.5724
  511SOL     OW 2582   3.083   1.340   7.766  0.1357 -0.3022 -0.4809
  511SOL    HW1 2583   3.177   1.350   7.775  0.3212 -2.2976  0.3322
  511SOL    HW2 2584   3.071   1.308   7.676  0.1238  0.7728 -0.8781
  512SOL     OW 2585   0.258   5.870   7.507 -0.4761  0.1641 -0.4417
  512SOL    HW1 2586   0.260   5.962   7.533  2.7282  0.1029 -0.0582
  512SOL    HW2 2587   0.238   5.822   7.587  0.1311  0.4208 -0.1332
  513SOL     OW 2588   3.031   3.372   3.783 -0.1779 -0.8873  0.2200
  513SOL    HW1 2589   3.042   3.277   3.787  1.0789 -0.7452  0.8357
  513SOL    HW2 2590   2.964   3.392   3.847 -1.2723 -1.4526 -0.7160
  514SOL     OW 2591   6.263   1.626   7.892  0.4932 -0.5543  0.1129
  514SOL    HW1 2592   6.286   1.719   7.893  0.4146 -0.3941  4.0416
  514SOL    HW2 2593   6.347   1.580   7.896  0.5133 -0.4761  0.9467
  515SOL     OW 2594   0.198   1.604   5.423  0.2088 -0.4409  0.3133
  515SOL    HW1 2595   0.130   1.671   5.418 -0.1291 -0.8662 -1.5635
  515SOL    HW2 2596   0.249   1.615   5.343  1.6605 -0.8710  1.1473
  516SOL     OW 2597   2.485   7.525   4.771 -0.4544 -0.1559  0.0101
  516SOL    HW1 2598   2.485   7.487   4.859  2.8212  1.2399  0.7798
  516SOL    HW2 2599   2.575   7.512   4.740 -0.6415  2.2560 -1.7906
  517SOL     OW 2600   4.292   0.264   7.842 -0.8022 -0.0197 -0.1513
  517SOL    HW1 2601   4.247   0.196   7.792 -1.3060  0.6512 -0.6322
  517SOL    HW2 2602   4.242   0.271   7.924 -0.6738 -0.3209 -0.0492
  518SOL     OW 2603   8.087   5.441   2.398 -0.2327 -0.5639  0.4417
  518SOL    HW1 2604   8.115   5.465   2.487 -1.2212 -0.6396  0.7822
  518SOL    HW2 2605   8.168   5.418   2.353  0.5712  1.5645  0.6624
  519SOL     OW 2606   7.915   1.761   1.012 -0.0879 -0.2783 -0.6147
  519SOL    HW1 2607   7.959   1.725   0.935  0.7538 -0.0103 -0.2746
  519SOL    HW2 2608   7.846   1.699   1.032  0.5372 -1.0433 -0.7885
  520SOL     OW 2609   7.511   0.303   2.426  0.3027 -0.5055 -0.5442
  520SOL    HW1 2610   7.579   0.369   2.438 -1.3528  0.8911  2.2511
  520SOL    HW2 2611   7.440   0.348   2.382 -0.6671 -0.4685  0.9823
  521SOL     OW 2612   5.330   3.452   8.077 -0.2492 -0.3284 -0.1018
  521SOL    HW1 2613   5.301   3.406   7.998  0.4139  1.7725 -1.6512
  521SOL    HW2 2614   5.250   3.494   8.110 -0.1704  0.3675 -0.7807
  522SOL     OW 2615   1.668   0.249   1.770  0.6376  0.5144  0.3087
  522SOL    HW1 2616   1.579   0.243   1.804  1.2430 -0.6007  1.8020
  522SOL    HW2 2617   1.658   0.284   1.681 -1.1168  2.4877  1.1885
  523SOL     OW 2618   5.589   7.162   3.708  0.1414 -0.5774  0.1240
  523SOL    HW1 2619   5.665   7.221   3.716 -0.3312  0.0867 -0.2408
  523SOL    HW2 2620   5.577   7.152   3.614  0.4968 -1.6388  0.1795
  524SOL     OW 2621   0.945   5.355   2.914  0.1297  0.4972 -0.8553
  524SOL    HW1 2622   0.937   5.265   2.945  0.0839  0.3508 -1.2989
  524SOL    HW2 2623   0.949   5.407   2.995 -0.5423  0.1635 -0.6052
  525SOL     OW 2624   6.855   2.211   2.061 -0.1452 -0.0839 -0.3074
  525SOL    HW1 2625   6.874   2.224   1.968  0.4721 -1.1750 -0.3495
  525SOL    HW2 2626   6.808   2.290   2.087  0.5268  0.6784 -1.3110
  526SOL     OW 2627   4.660   1.681   2.037 -0.4727  0.9884  0.4425
  526SOL    HW1 2628   4.715   1.750   2.000  0.5980  1.3752  2.5910
  526SOL    HW2 2629   4.580   1.726   2.063 -0.5792  1.0265  0.0545
  527SOL     OW 2630   4.930   5.649   4.482 -0.0562 -0.1011  0.2199
  527SOL    HW1 2631   4.970   5.584   4.540 -0.2962  1.6703  2.5004
  527SOL    HW2 2632   4.983   5.646   4.402 -0.8366 -3.9078 -0.3080
  528SOL     OW 2633   3.647   1.423   8.202  0.4111 -0.2198  0.2736
  528SOL    HW1 2634   3.718   1.387   8.255 -0.5557 -0.4661  1.4393
  528SOL    HW2 2635   3.568   1.409   8.254 -0.9765 -2.5448 -2.1346
  529SOL     OW 2636   5.326   7.921   2.665 -0.1991 -0.3432 -0.0046
  529SOL    HW1 2637   5.403   7.876   2.630  0.0332  0.1937 -0.1927
  529SOL    HW2 2638   5.332   7.910   2.759  0.8756  0.8799  0.0996
  530SOL     OW 2639   2.896   2.243   4.278 -0.1296  0.2683 -0.5732
  530SOL    HW1 2640   2.915   2.266   4.187 -0.3399 -0.7708 -0.8916
  530SOL    HW2 2641   2.805   2.270   4.291  0.3602  1.8545 -0.1706
  531SOL     OW 2642   7.373   6.165   0.382 -0.4262 -0.2627 -0.3640
  531SOL    HW1 2643   7.418   6.118   0.452 -0.5053 -0.4456 -0.4346
  531SOL    HW2 2644   7.424   6.245   0.371 -0.4087 -0.2367 -0.1036
  532SOL     OW 2645   5.441   5.403   0.756  0.2395  0.3117 -0.0423
  532SOL    HW1 2646   5.357   5.425   0.797 -0.9536 -0.9682 -1.6613
  532SOL    HW2 2647   5.433   5.433   0.665  1.3562 -0.2364 -0.3480
  533SOL     OW 2648   1.750   7.398   0.323 -0.0519 -0.4427  0.0930
  533SOL    HW1 2649   1.829   7.409   0.269 -0.2516 -0.8060 -0.2782
  533SOL    HW2 2650   1.749   7.305   0.345  0.2832 -0.2156  1.1320
  534SOL     OW 2651   1.346   4.270   8.065  0.3654  0.1884 -0.0416
  534SOL    HW1 2652   1.259   4.266   8.105 -0.6204 -1.1744 -2.1697
  534SOL    HW2 2653   1.406   4.273   8.140 -1.3272 -3.0774  1.6785
  535SOL     OW 2654   4.723   0.915   2.429 -0.0063 -0.2302  0.2243
  535SOL    HW1 2655   4.791   0.969   2.388 -0.1751  0.6180  1.0022
  535SOL    HW2 2656   4.647   0.973   2.435 -0.0605 -0.3936  1.4701
  536SOL     OW 2657   0.658   5.905   3.172 -0.0879  0.2068  1.0505
  536SOL    HW1 2658   0.672   5.947   3.087  1.0880  0.7237  1.4779
  536SOL    HW2 2659   0.660   5.977   3.235  1.0753 -0.3643  1.7095
  537SOL     OW 2660   7.252   1.424   3.254  0.2724 -0.1731 -0.2671
  537SOL    HW1 2661   7.207   1.375   3.185  0.9893  1.2353 -1.7942
  537SOL    HW2 2662   7.320   1.474   3.208  0.9140  0.6498  1.4907
  538SOL     OW 2663   7.541   4.341   2.469 -0.5132 -0.1452  0.1903
  538SOL    HW1 2664   7.536   4.426   2.424  1.2558  0.5045  1.1378
  538SOL    HW2 2665   7.476   4.287   2.424  0.0743  0.9290 -2.1215
  539SOL     OW 2666   5.707   4.869   0.755  0.4952  0.2025  0.0790
  539SOL    HW1 2667   5.763   4.860   0.833 -1.1176 -2.5770  1.0691
  539SOL    HW2 2668   5.625   4.904   0.789 -0.0138 -0.4531 -0.4528
  540SOL     OW 2669   0.301   2.167   3.585 -0.2948  0.1446 -0.1632
  540SOL    HW1 2670   0.358   2.216   3.525 -1.0681  1.2997  0.0245
  540SOL    HW2 2671   0.219   2.158   3.537 -0.3923 -0.3482  0.0959
  541SOL     OW 2672   3.606   3.672   7.967  0.1854  0.1338 -0.4776
  541SOL    HW1 2673   3.521   3.634   7.991  0.3347 -0.1104 -0.3305
  541SOL    HW2 2674   3.586   3.730   7.893  0.2301 -1.6504 -1.9490
  542SOL     OW 2675   1.417   0.362   5.541  0.2531  0.1772  0.5341
  542SOL    HW1 2676   1.512   0.354   5.534  0.3040  0.9641  0.2561
  542SOL    HW2 2677   1.397   0.339   5.632  0.8674  1.4380  1.0014
  543SOL     OW 2678   6.104   3.805   4.247  0.3472 -0.6310 -0.1529
  543SOL    HW1 2679   6.199   3.794   4.244  0.1977 -2.0554 -0.7198
  543SOL    HW2 2680   6.089   3.878   4.307  1.7978 -0.2692 -0.2036
  544SOL     OW 2681   5.035   2.325   3.285  0.0150  0.1854 -0.2651
  544SOL    HW1 2682   5.098   2.389   3.317  1.9388 -1.6522 -0.1519
  544SOL    HW2 2683   4.950   2.356   3.316  1.1103  1.6114  1.4596
  545SOL     OW 2684   4.162   7.282   6.867  0.0384 -0.2553  0.2442
  545SOL    HW1 2685   4.177   7.232   6.948 -1.9942 -0.4628  0.5469
  545SOL    HW2 2686   4.107   7.355   6.894 -1.6743 -0.9898 -1.1121
  546SOL     OW 2687   4.717   2.637   5.117  0.0210 -0.0987  0.0672
  546SOL    HW1 2688   4.682   2.620   5.205 -0.2867 -0.5252 -0.1298
  546SOL    HW2 2689   4.639   2.650   5.062  0.2174  3.1794  0.3868
  547SOL     OW 2690   4.849   1.974   2.310 -0.1764 -0.4926 -1.2204
  547SOL    HW1 2691   4.836   1.920   2.232 -1.3741 -1.7858 -0.1794
  547SOL    HW2 2692   4.905   1.920   2.366 -2.1357 -1.1277  0.2211
  548SOL     OW 2693   0.293   4.837   0.865 -0.1749 -0.6747  0.1390
  548SOL    HW1 2694   0.385   4.823   0.842  0.5896 -0.0496  2.4897
  548SOL    HW2 2695   0.286   4.932   0.877 -0.7742 -0.8474  1.2577
  549SOL     OW 2696   8.144   8.225   4.435  0.5997  0.0448 -0.1413
  549SOL    HW1 2697   8.086   8.284   4.483 -0.6968 -0.5341 -0.9410
  549SOL    HW2 2698   8.227   8.272   4.431  0.8403  0.0602  2.7545
  550SOL     OW 2699   2.513   5.859   4.640  0.7033  0.2058 -0.0686
  550SOL    HW1 2700   2.607   5.845   4.625  0.5500 -0.9304 -0.0894
  550SOL    HW2 2701   2.507   5.881   4.732  0.9447 -0.3900  0.0988
  551SOL     OW 2702   6.164   6.917   6.617 -0.2809  0.3214 -0.3126
  551SOL    HW1 2703   6.250   6.951   6.640  0.0026 -1.0596  0.8226
  551SOL    HW2 2704   6.116   6.993   6.585  1.7117  0.9035 -2.1090
  552SOL     OW 2705   6.821   2.542   1.022 -0.2514  0.0563  0.4304
  552SOL    HW1 2706   6.851   2.561   1.111  1.4910 -1.0220  0.1124
  552SOL    HW2 2707   6.864   2.460   0.999  1.8078  1.7688 -2.5093
  553SOL     OW 2708   3.848   3.798   1.916  0.0352  0.0729 -0.4946
  553SOL    HW1 2709   3.933   3.840   1.930  0.4779 -0.3914 -1.6787
  553SOL    HW2 2710   3.860   3.708   1.945 -0.4799  0.3540  0.6488
  554SOL     OW 2711   6.849   1.862   5.173 -0.1561 -0.5848  0.3046
  554SOL    HW1 2712   6.805   1.901   5.097 -0.9599 -0.2508  0.9276
  554SOL    HW2 2713   6.818   1.772   5.175 -1.6859 -0.0648  1.3611
  555SOL     OW 2714   0.500   7.561   0.526  0.3550 -0.3009  0.1428
  555SOL    HW1 2715   0.500   7.642   0.475 -1.7770  0.0971  0.6871
  555SOL    HW2 2716   0.488   7.588   0.616  0.4282 -1.1758  0.4306
  556SOL     OW 2717   1.201   7.458   5.169 -0.5246 -0.0911 -0.2350
  556SOL    HW1 2718   1.212   7.408   5.250 -0.5355 -0.1355 -0.2611
  556SOL    HW2 2719   1.162   7.541   5.197 -0.5383 -0.1107 -0.1959
  557SOL     OW 2720   4.334   7.375   1.700 -0.1775  0.3214 -0.4500
  557SOL    HW1 2721   4.428   7.385   1.687  0.0433 -0.7570  0.2410
  557SOL    HW2 2722   4.322   7.374   1.795 -1.0676  1.8882 -0.4973
  558SOL     OW 2723   5.854   4.372   7.111  0.3940 -0.3679 -0.3506
  558SOL    HW1 2724   5.764   4.343   7.097 -0.6271  2.0317  0.6406
  558SOL    HW2 2725   5.882   4.405   7.026 -0.8582  1.7556  0.0007
  559SOL     OW 2726   4.773   3.139   4.270 -0.4131 -0.3454 -0.2973
  559SOL    HW1 2727   4.748   3.175   4.184 -0.3354  0.4388  0.0002
  559SOL    HW2 2728   4.836   3.070   4.250 -1.4447 -1.1382 -0.9584
  560SOL     OW 2729   2.366   3.687   2.108  0.1076 -0.1986 -0.2820
  560SOL    HW1 2730   2.373   3.699   2.014  2.3908 -0.1263 -0.1365
  560SOL    HW2 2731   2.417   3.759   2.146 -1.2623  0.1398  1.0647
  561SOL     OW 2732   6.136   7.037   7.108 -0.1219 -0.7129 -0.0474
  561SOL    HW1 2733   6.049   7.075   7.091 -0.4347 -1.5664 -0.3899
  561SOL    HW2 2734   6.133   7.015   7.201  0.6772  1.6135  0.6010
  562SOL     OW 2735   6.326   0.672   7.716  1.0747  0.6707  0.0123
  562SOL    HW1 2736   6.239   0.708   7.699  1.2479  1.5675  0.9371
  562SOL    HW2 2737   6.363   0.729   7.783  2.0389 -0.2285  0.2682
  563SOL     OW 2738   7.142   5.082   0.939  0.1387 -0.4502 -0.4738
  563SOL    HW1 2739   7.055   5.055   0.968 -1.0916  1.1416 -2.4534
  563SOL    HW2 2740   7.126   5.140   0.865  2.8304  1.3538  0.2022
  564SOL     OW 2741   4.615   2.623   5.670 -0.1020 -0.5063  0.2207
  564SOL    HW1 2742   4.693   2.640   5.618 -0.4866 -1.3472 -0.6690
  564SOL    HW2 2743   4.544   2.664   5.621 -0.1868  0.5783  1.2188
  565SOL     OW 2744   0.012   4.212   5.107 -0.7897 -0.5348 -0.3775
  565SOL    HW1 2745  -0.015   4.301   5.130 -0.4009 -0.5071 -0.0085
  565SOL    HW2 2746   0.030   4.216   5.014  2.2041  0.5986  0.1377
  566SOL     OW 2747   7.642   6.356   2.734 -0.0826  0.5394 -0.8445
  566SOL    HW1 2748   7.599   6.281   2.694  0.3961  0.7058 -1.6916
  566SOL    HW2 2749   7.580   6.386   2.801  0.4036 -1.5754  0.6591
  567SOL     OW 2750   1.724   5.869   1.214  0.2635  0.7065 -0.3240
  567SOL    HW1 2751   1.643   5.916   1.194  1.1604  2.7497  0.6307
  567SOL    HW2 2752   1.786   5.896   1.147  0.4150 -0.1768 -0.5497
  568SOL     OW 2753   6.153   4.553   5.821 -0.3812  0.0727  0.2298
  568SOL    HW1 2754   6.099   4.542   5.743 -0.8940  1.6171  0.3279
  568SOL    HW2 2755   6.232   4.597   5.791  0.8341 -2.0774  0.1091
  569SOL     OW 2756   7.468   2.610   5.164  0.3241  0.4232  0.3517
  569SOL    HW1 2757   7.562   2.598   5.178  0.5008 -0.0199 -1.0951
  569SOL    HW2 2758   7.462   2.688   5.109 -0.1761  0.5472  0.5806
  570SOL     OW 2759   1.653   7.099   1.463 -0.1400  0.0324 -0.2323
  570SOL    HW1 2760   1.616   7.100   1.551 -0.8793  1.0321 -0.5409
  570SOL    HW2 2761   1.678   7.008   1.449 -3.0086 -0.8804 -0.1933
  571SOL     OW 2762   1.883   5.183   5.905 -0.4616  0.3418 -0.6515
  571SOL    HW1 2763   1.812   5.248   5.909 -0.7137  0.0126  0.7825
  571SOL    HW2 2764   1.850   5.109   5.956  0.1855 -0.5705 -1.5266
  572SOL     OW 2765   2.472   2.371   5.875 -0.0619 -0.6170  0.6897
  572SOL    HW1 2766   2.505   2.443   5.821  0.0917 -0.8638  0.4560
  572SOL    HW2 2767   2.391   2.405   5.912  0.1239 -0.2391  0.7585
  573SOL     OW 2768   2.234   1.314   1.882  1.0315  0.2646 -0.5050
  573SOL    HW1 2769   2.260   1.304   1.974  1.9746  0.5840 -0.7247
  573SOL    HW2 2770   2.138   1.318   1.884  1.0562  0.5222  0.4862
  574SOL     OW 2771   2.075   2.007   8.025  0.1283  0.6990  0.6655
  574SOL    HW1 2772   1.997   1.980   8.072  0.3354  0.5262  0.9167
  574SOL    HW2 2773   2.043   2.060   7.952 -0.3336 -0.7067 -0.1857
  575SOL     OW 2774   3.153   1.976   0.266 -0.1619  0.0410 -0.6332
  575SOL    HW1 2775   3.242   1.952   0.238  0.0235 -0.7106  0.5341
  575SOL    HW2 2776   3.099   1.902   0.238  0.3924 -1.9104  2.8805
  576SOL     OW 2777   5.928   0.009   7.622  0.1501 -0.5251  0.1436
  576SOL    HW1 2778   5.978   0.090   7.618  0.8822 -0.9393  0.7304
  576SOL    HW2 2779   5.966  -0.040   7.694 -1.3665 -0.6801  0.8869
  577SOL     OW 2780   7.590   4.919   1.078  0.1050 -0.2153  0.0769
  577SOL    HW1 2781   7.603   4.842   1.023 -1.2646 -0.0524 -0.5103
  577SOL    HW2 2782   7.574   4.991   1.017  0.4753  0.3704  0.6416
  578SOL     OW 2783   2.780   7.337   0.396 -0.3683 -0.4639 -0.0961
  578SOL    HW1 2784   2.820   7.398   0.458  0.2819 -0.1564 -0.7941
  578SOL    HW2 2785   2.687   7.360   0.397 -0.2980 -0.1876  0.4589
  579SOL     OW 2786   2.373   2.799   0.519 -0.1903  0.5536  0.8560
  579SOL    HW1 2787   2.411   2.726   0.567 -1.7511 -1.7479 -1.1550
  579SOL    HW2 2788   2.281   2.776   0.509 -1.0981  3.5520  1.3400
  580SOL     OW 2789   4.388   5.171   1.202  0.1427 -0.1372 -0.2102
  580SOL    HW1 2790   4.426   5.249   1.162  0.0617  0.8989  1.6076
  580SOL    HW2 2791   4.321   5.143   1.141  0.3477  1.0671 -1.0240
  581SOL     OW 2792   0.325   8.193   2.529  0.4438 -0.4469  0.3162
  581SOL    HW1 2793   0.351   8.274   2.574  0.7886 -0.0416 -0.5798
  581SOL    HW2 2794   0.271   8.223   2.456 -0.3179 -1.1085  0.5928
  582SOL     OW 2795   1.177   6.392   5.746 -0.4362 -0.1470  0.2863
  582SOL    HW1 2796   1.084   6.402   5.726 -0.4056  0.0079  0.2227
  582SOL    HW2 2797   1.219   6.375   5.661 -0.4247 -0.3521  0.3318
  583SOL     OW 2798   5.681   3.363   2.642  0.3576  0.9018  0.4678
  583SOL    HW1 2799   5.659   3.366   2.735  2.0169  0.9501  0.9019
  583SOL    HW2 2800   5.742   3.435   2.630 -0.3375  1.2962 -0.8168
  584SOL     OW 2801   2.966   3.798   0.852  0.1185  0.1603 -0.3783
  584SOL    HW1 2802   2.963   3.798   0.948  0.3422  1.3064 -0.3658
  584SOL    HW2 2803   3.044   3.746   0.831  0.4898  0.5263  0.0759
  585SOL     OW 2804   2.884   7.659   5.505 -0.8550 -0.3641 -0.2529
  585SOL    HW1 2805   2.823   7.726   5.474 -1.8140 -1.8013 -1.6822
  585SOL    HW2 2806   2.832   7.606   5.565 -0.2054 -0.0330  0.6104
  586SOL     OW 2807   5.083   0.932   4.703  0.6412 -0.1368 -0.2154
  586SOL    HW1 2808   5.088   0.964   4.613  0.6765  0.0994 -0.1307
  586SOL    HW2 2809   5.092   0.837   4.695 -2.0335 -0.4294 -0.6978
  587SOL     OW 2810   8.043   6.086   3.603 -0.9786 -0.2108  0.3500
  587SOL    HW1 2811   8.012   6.143   3.532  0.1963  1.5559  1.1942
  587SOL    HW2 2812   8.071   6.005   3.558 -1.6958  0.2537 -1.0023
  588SOL     OW 2813   0.841   0.850   2.612  0.2970 -0.4901 -0.3389
  588SOL    HW1 2814   0.884   0.788   2.553  1.2756  0.3001 -0.4830
  588SOL    HW2 2815   0.889   0.842   2.695 -2.6232 -3.4587  1.3291
  589SOL     OW 2816   5.679   4.458   7.522 -0.4328  0.2443 -0.3946
  589SOL    HW1 2817   5.611   4.525   7.514 -1.0031 -0.3144 -0.3021
  589SOL    HW2 2818   5.632   4.378   7.546  0.2998 -0.0665  0.0688
  590SOL     OW 2819   2.831   0.752   4.873 -0.0399  0.0986 -0.3168
  590SOL    HW1 2820   2.735   0.747   4.869  0.0119 -0.7745 -2.8360
  590SOL    HW2 2821   2.860   0.664   4.849  1.4034  0.3871  0.2826
  591SOL     OW 2822   6.662   3.023   2.504  0.7411 -0.3267 -0.3781
  591SOL    HW1 2823   6.689   3.030   2.412 -0.4684 -0.3685 -0.7638
  591SOL    HW2 2824   6.645   2.930   2.517 -0.6991 -0.1290 -0.6311
  592SOL     OW 2825   3.909   5.508   5.878 -0.2649 -0.1362  0.0787
  592SOL    HW1 2826   3.836   5.461   5.919 -0.6000 -1.5864 -2.0175
  592SOL    HW2 2827   3.923   5.463   5.795  3.1530  0.0184  0.4471
  593SOL     OW 2828   5.303   8.043   6.889 -0.0579  0.0759 -0.4955
  593SOL    HW1 2829   5.207   8.045   6.894 -0.0612 -0.0337 -0.4974
  593SOL    HW2 2830   5.325   7.950   6.900  0.2201  0.4125  3.0140
  594SOL     OW 2831   6.028   7.126   1.418  0.0750 -0.1499  0.4748
  594SOL    HW1 2832   6.078   7.044   1.414  1.3069  0.6050 -0.3762
  594SOL    HW2 2833   5.984   7.131   1.333 -2.7291 -1.5123  1.7108
  595SOL     OW 2834   7.120   6.708   4.888 -0.9985 -0.3104 -0.2712
  595SOL    HW1 2835   7.117   6.660   4.971 -0.3587  0.4318  0.1951
  595SOL    HW2 2836   7.033   6.696   4.850 -1.0373 -1.3397  0.1155
  596SOL     OW 2837   1.872   6.434   4.300  0.4394  0.0382  0.2153
  596SOL    HW1 2838   1.790   6.476   4.274  0.1476  0.4725  1.7921
  596SOL    HW2 2839   1.939   6.479   4.248 -0.2898 -0.3085 -1.0723
  597SOL     OW 2840   3.107   2.511   5.151  0.0430 -0.3837 -0.1305
  597SOL    HW1 2841   3.088   2.601   5.178 -0.3786 -0.4039 -0.3635
  597SOL    HW2 2842   3.057   2.456   5.212 -4.1334 -0.4204 -3.1830
  598SOL     OW 2843   7.655   5.277   4.008  0.1297 -0.3125 -0.4110
  598SOL    HW1 2844   7.600   5.242   4.078  0.1390 -1.1664 -0.8221
  598SOL    HW2 2845   7.625   5.233   3.929  0.2984  0.4499 -0.9097
  599SOL     OW 2846   0.393   3.740   3.900  1.3085  0.7144 -0.0270
  599SOL    HW1 2847   0.446   3.715   3.976  0.7363  0.3111  0.2475
  599SOL    HW2 2848   0.326   3.672   3.894  0.7314  1.2919 -0.2803
  600SOL     OW 2849   5.909   1.193   5.655 -0.1902 -0.0939  0.1122
  600SOL    HW1 2850   5.846   1.209   5.586  0.1729 -2.0810 -0.7508
  600SOL    HW2 2851   5.856   1.188   5.735 -0.5457  2.8213  0.1717
  601SOL     OW 2852   5.658   0.126   1.714  0.2306  0.0764 -0.5446
  601SOL    HW1 2853   5.606   0.166   1.784  0.2107  0.1762 -0.6152
  601SOL    HW2 2854   5.645   0.184   1.639 -0.8138 -0.7207 -1.0149
  602SOL     OW 2855   2.066   5.524   1.132 -0.3146 -0.3228 -0.0464
  602SOL    HW1 2856   1.974   5.507   1.153  0.0977  0.3137  2.5750
  602SOL    HW2 2857   2.115   5.485   1.205  1.5151 -0.5461 -1.3286
  603SOL     OW 2858   7.711   5.759   2.712 -0.4439 -0.4534  0.5636
  603SOL    HW1 2859   7.772   5.686   2.716 -0.2985 -0.4060 -0.6187
  603SOL    HW2 2860   7.628   5.723   2.743 -0.2612 -0.9974  0.4259
  604SOL     OW 2861   1.344   8.229   5.205 -0.3645 -0.0975  0.3539
  604SOL    HW1 2862   1.289   8.151   5.201  1.6019 -1.6339  1.6065
  604SOL    HW2 2863   1.290   8.294   5.250 -1.0078 -1.7019  2.0180
  605SOL     OW 2864   5.753   0.376   2.341 -0.4483  0.0715  0.4038
  605SOL    HW1 2865   5.719   0.418   2.420  0.4337  1.7455 -0.0493
  605SOL    HW2 2866   5.822   0.318   2.373 -1.0607 -0.3537  0.9721
  606SOL     OW 2867   5.780   4.553   1.555 -0.9061  0.4258 -0.6844
  606SOL    HW1 2868   5.790   4.458   1.541  1.0325  0.3535  0.8178
  606SOL    HW2 2869   5.693   4.573   1.521 -2.2088 -2.2674  0.7593
  607SOL     OW 2870   3.828   3.514   0.078 -0.2026 -0.3097 -0.1723
  607SOL    HW1 2871   3.817   3.463  -0.001  1.0500 -0.8564 -0.0110
  607SOL    HW2 2872   3.915   3.491   0.110 -0.0513  1.0864  0.5063
  608SOL     OW 2873   3.258   6.666   7.542  0.1205  0.4959 -0.0105
  608SOL    HW1 2874   3.212   6.652   7.460  1.4357 -0.8158 -0.5713
  608SOL    HW2 2875   3.351   6.663   7.519  0.5216  0.6565  1.4443
  609SOL     OW 2876   1.233   2.801   8.156 -0.3960  0.2411 -0.0661
  609SOL    HW1 2877   1.213   2.710   8.177  0.1074 -0.1895 -1.3534
  609SOL    HW2 2878   1.179   2.820   8.079 -0.0510  0.8390 -0.1678
  610SOL     OW 2879   3.092   3.295   0.266  0.0585  0.1022  0.3488
  610SOL    HW1 2880   3.105   3.206   0.233  3.1917  1.9440 -4.4244
  610SOL    HW2 2881   3.016   3.327   0.217  0.5964  0.8565  0.0007
  611SOL     OW 2882   5.808   2.083   0.361  0.0099  0.3384  0.0949
  611SOL    HW1 2883   5.713   2.084   0.362 -0.0947 -0.5531 -2.5434
  611SOL    HW2 2884   5.831   1.995   0.333  1.5081  1.2027 -1.6017
  612SOL     OW 2885   3.445   5.784   1.205 -0.1118  0.1744  1.0268
  612SOL    HW1 2886   3.383   5.785   1.132  1.6497 -0.1541 -0.5254
  612SOL    HW2 2887   3.481   5.873   1.207  1.0356 -0.2513  0.3937
  613SOL     OW 2888   2.001   2.193   0.639  0.5782 -0.5278 -0.1348
  613SOL    HW1 2889   1.937   2.263   0.644 -0.3611 -1.3502 -0.3034
  613SOL    HW2 2890   2.039   2.189   0.727  1.9239  1.3308 -0.5862
  614SOL     OW 2891   2.898   7.708   4.115 -0.3672  0.2387 -0.3235
  614SOL    HW1 2892   2.883   7.725   4.208  0.7043  0.3212 -0.1481
  614SOL    HW2 2893   2.843   7.632   4.095 -0.7592  0.3444  0.3257
  615SOL     OW 2894   2.096   0.841   7.580 -0.1303 -0.1679 -0.5979
  615SOL    HW1 2895   2.145   0.882   7.508  0.1812  0.3792 -0.0817
  615SOL    HW2 2896   2.074   0.914   7.638  0.3106 -0.7067  0.2644
  616SOL     OW 2897   4.473   6.193   7.583  0.0470  1.0627  0.2705
  616SOL    HW1 2898   4.495   6.119   7.639 -1.0244  1.1155  0.8007
  616SOL    HW2 2899   4.405   6.159   7.525  0.3064  1.3411 -0.1985
  617SOL     OW 2900   4.570   2.175   5.609  0.2813 -0.2587 -0.3288
  617SOL    HW1 2901   4.607   2.158   5.522  1.3992  1.0103 -0.1444
  617SOL    HW2 2902   4.633   2.234   5.650  0.6988 -2.1685  2.0252
  618SOL     OW 2903   8.136   4.896   6.952 -0.2051  0.3945  0.4542
  618SOL    HW1 2904   8.161   4.905   6.860 -1.4097  2.3129  0.2597
  618SOL    HW2 2905   8.133   4.801   6.967 -0.4939  0.0338 -1.6242
  619SOL     OW 2906   0.816   4.708   0.867 -0.4032 -0.4947 -0.0382
  619SOL    HW1 2907   0.811   4.661   0.950 -1.4297 -0.8567 -0.2786
  619SOL    HW2 2908   0.776   4.648   0.803  2.2532 -1.1215 -1.2321
  620SOL     OW 2909   3.958   4.337   1.115 -0.6609  0.3254  0.0272
  620SOL    HW1 2910   3.936   4.244   1.108 -0.1653  0.1239  1.0100
  620SOL    HW2 2911   3.988   4.348   1.205  1.9336  0.8705 -0.8244
  621SOL     OW 2912   6.341   0.116   8.261 -0.6642  0.3230  0.1908
  621SOL    HW1 2913   6.342   0.115   8.166  0.4504 -0.3774  0.1916
  621SOL    HW2 2914   6.433   0.112   8.286 -0.9006  1.1972  1.3024
  622SOL     OW 2915   1.902   6.059   2.256 -0.4137  0.2357  0.1207
  622SOL    HW1 2916   1.965   6.119   2.296 -0.6251  0.6505 -0.1632
  622SOL    HW2 2917   1.832   6.051   2.321  0.3123 -0.9004  0.8109
  623SOL     OW 2918   5.668   1.766   5.189 -0.2967 -0.3361 -0.2966
  623SOL    HW1 2919   5.630   1.724   5.266  1.4029 -1.3537  0.0506
  623SOL    HW2 2920   5.603   1.830   5.162 -2.0913 -1.7748  0.4096
  624SOL     OW 2921   3.587   2.426   7.145  0.3360  0.1321  0.4706
  624SOL    HW1 2922   3.669   2.413   7.097 -0.5169 -2.3179 -0.4418
  624SOL    HW2 2923   3.614   2.438   7.236  1.8110  2.0319 -0.1447
  625SOL     OW 2924   1.210   8.030   8.103  0.1065 -0.3721 -0.5736
  625SOL    HW1 2925   1.249   8.019   8.190  0.0158  1.6785 -0.2209
  625SOL    HW2 2926   1.283   8.016   8.042  0.4904 -0.4771 -0.0940
  626SOL     OW 2927   7.451   6.237   4.645  0.1647 -0.3405 -0.1591
  626SOL    HW1 2928   7.515   6.206   4.582  1.4694  0.3741  0.7637
  626SOL    HW2 2929   7.392   6.292   4.594  0.5941 -0.5822 -0.9344
  627SOL     OW 2930   3.497   2.823   1.081  0.4207 -0.6388  0.3576
  627SOL    HW1 2931   3.573   2.859   1.036 -0.0320  0.3019  0.3136
  627SOL    HW2 2932   3.430   2.891   1.073 -0.1096 -1.0314  1.2582
  628SOL     OW 2933   5.586   7.394   0.866 -0.8106  0.5428 -0.6496
  628SOL    HW1 2934   5.556   7.449   0.937 -0.4387  0.6631 -0.5818
  628SOL    HW2 2935   5.646   7.449   0.815 -1.2535  0.5335 -1.1925
  629SOL     OW 2936   6.380   8.212   5.841  0.3287 -0.2355 -0.2523
  629SOL    HW1 2937   6.376   8.277   5.771 -0.3669  0.5597  0.5109
  629SOL    HW2 2938   6.314   8.241   5.905 -1.1334 -2.5213 -0.5997
  630SOL     OW 2939   8.117   6.241   5.737 -0.4928 -0.3889 -0.2329
  630SOL    HW1 2940   8.047   6.279   5.789 -0.0680  1.9405 -1.2136
  630SOL    HW2 2941   8.075   6.216   5.655 -0.5006 -0.6520 -0.1484
  631SOL     OW 2942   0.698   1.839   1.345  0.7158  0.1723 -0.6630
  631SOL    HW1 2943   0.750   1.770   1.385  1.7471  2.1976  1.7066
  631SOL    HW2 2944   0.747   1.863   1.266  3.8187  2.2485  1.6518
  632SOL     OW 2945   5.872   7.402   7.934 -0.2177 -0.1724  0.2749
  632SOL    HW1 2946   5.923   7.398   8.015 -0.1208  0.1019  0.2301
  632SOL    HW2 2947   5.852   7.311   7.913  2.4525 -0.5005 -1.1143
  633SOL     OW 2948   6.064   7.887   5.722 -0.0359  0.1834  0.6741
  633SOL    HW1 2949   6.065   7.792   5.729 -1.4892  0.1150  0.4190
  633SOL    HW2 2950   6.054   7.918   5.812 -2.4148 -0.0641  0.5799
  634SOL     OW 2951   7.608   7.128   2.114 -0.1439  0.8284 -0.1653
  634SOL    HW1 2952   7.565   7.214   2.113  1.3853  1.6312  0.6435
  634SOL    HW2 2953   7.666   7.130   2.190  0.0169 -0.8909 -0.1971
  635SOL     OW 2954   3.899   6.132   1.640  0.5005 -0.2357 -0.3560
  635SOL    HW1 2955   3.979   6.082   1.657  0.8360  0.3205 -0.2771
  635SOL    HW2 2956   3.930   6.220   1.620 -0.1511  0.3398  1.0267
  636SOL     OW 2957   6.167   1.158   1.223  0.1010  0.1660 -0.5194
  636SOL    HW1 2958   6.249   1.113   1.245 -0.4232 -1.5000 -1.7769
  636SOL    HW2 2959   6.193   1.224   1.158  0.6076  0.4937  0.0006
  637SOL     OW 2960   5.585   6.428   5.222 -0.4571  0.2607  0.5233
  637SOL    HW1 2961   5.561   6.513   5.185  0.5627  1.0369  1.5842
  637SOL    HW2 2962   5.518   6.368   5.189 -2.1911  1.7721  1.1200
  638SOL     OW 2963   1.977   0.293   7.492 -0.2359  0.0756  0.1061
  638SOL    HW1 2964   1.930   0.370   7.524 -0.1244 -0.0774  0.6574
  638SOL    HW2 2965   2.057   0.290   7.545  0.9525  0.9563 -1.5506
  639SOL     OW 2966   0.211   6.726   3.949 -0.6124 -0.6436 -0.4165
  639SOL    HW1 2967   0.123   6.689   3.954 -0.5013 -0.7459  1.7367
  639SOL    HW2 2968   0.263   6.673   4.010  1.2554 -1.2906 -2.4177
  640SOL     OW 2969   1.483   2.463   3.941  0.0773 -0.2255  0.1501
  640SOL    HW1 2970   1.469   2.371   3.916 -0.0183 -0.0718 -0.3733
  640SOL    HW2 2971   1.467   2.512   3.861 -1.2230  0.3746  0.7543
  641SOL     OW 2972   7.101   5.062   0.030  0.0876  0.1706 -0.1517
  641SOL    HW1 2973   7.179   5.118   0.037  1.6102 -1.8623 -0.1189
  641SOL    HW2 2974   7.120   4.987   0.086 -2.1886 -0.1127  0.3270
  642SOL     OW 2975   5.836   0.762   7.536 -0.1528  0.5842 -0.3838
  642SOL    HW1 2976   5.780   0.709   7.479 -0.6280  1.6112 -0.8931
  642SOL    HW2 2977   5.838   0.848   7.494  2.9334  0.2625 -1.1825
  643SOL     OW 2978   1.274   0.844   2.137  0.0624 -0.3284 -0.2350
  643SOL    HW1 2979   1.368   0.831   2.147  0.3514  2.3730  1.5518
  643SOL    HW2 2980   1.234   0.778   2.193  0.9267 -0.7693 -0.1234
  644SOL     OW 2981   2.362   1.892   3.144  0.0897 -0.2849  0.2797
  644SOL    HW1 2982   2.362   1.867   3.052  0.7716  1.2008 -0.1530
  644SOL    HW2 2983   2.440   1.946   3.154  0.7289 -1.4592  2.0395
  645SOL     OW 2984   4.632   5.996   7.410  0.5990 -0.0746  0.6411
  645SOL    HW1 2985   4.576   5.951   7.475  2.0333 -0.1458  1.8865
  645SOL    HW2 2986   4.665   5.925   7.355 -1.0596  0.0387 -0.6018
  646SOL     OW 2987   6.482   3.325   6.871 -0.4724 -0.5032 -0.0493
  646SOL    HW1 2988   6.508   3.305   6.961 -0.2971  3.2675  0.8843
  646SOL    HW2 2989   6.387   3.335   6.875 -0.5334 -0.8815 -0.4389
  647SOL     OW 2990   1.634   3.668   4.529 -0.2492 -0.1565  0.2145
  647SOL    HW1 2991   1.664   3.667   4.620  0.1487  1.4517  0.1325
  647SOL    HW2 2992   1.712   3.645   4.479  0.3026  1.6968  0.1464
  648SOL     OW 2993   7.174   5.786   1.221 -0.3930  0.3602 -0.4821
  648SOL    HW1 2994   7.088   5.763   1.258 -0.3003 -0.0632 -0.5216
  648SOL    HW2 2995   7.233   5.786   1.296 -0.6174  1.7038 -0.2811
  649SOL     OW 2996   0.926   2.712   3.210  0.1417  0.2671  0.6026
  649SOL    HW1 2997   0.915   2.782   3.144  0.6688 -0.6507 -0.4957
  649SOL    HW2 2998   0.856   2.650   3.189  1.2301 -0.7564 -0.0526
  650SOL     OW 2999   2.546   0.810   4.396 -0.3832 -0.1583  0.7355
  650SOL    HW1 3000   2.470   0.793   4.340 -1.2165 -0.1201  1.8397
  650SOL    HW2 3001   2.600   0.870   4.344 -1.9561  1.2297  0.6333
  651SOL     OW 3002   5.983   1.789   7.820  0.0523  0.3724 -0.0346
  651SOL    HW1 3003   6.006   1.738   7.743  1.3893  1.3092 -0.2932
  651SOL    HW2 3004   5.930   1.730   7.874  1.3435 -1.1885 -0.4271
  652SOL     OW 3005   2.825   4.472   1.921 -0.1850  0.1109 -0.1570
  652SOL    HW1 3006   2.813   4.517   2.005  0.2347 -0.1045  0.0207
  652SOL    HW2 3007   2.763   4.514   1.862 -0.5477  0.2019  0.2866
  653SOL     OW 3008   0.848   6.984   7.159  0.2333  0.6772 -0.0466
  653SOL    HW1 3009   0.927   6.938   7.129  0.8818  1.7546 -0.0405
  653SOL    HW2 3010   0.777   6.923   7.142  0.8579  0.3719 -1.6901
  654SOL     OW 3011   2.200   3.488   3.042  0.4804  0.7226 -0.1908
  654SOL    HW1 3012   2.185   3.450   2.956  0.1692  1.4951 -0.4913
  654SOL    HW2 3013   2.134   3.558   3.049 -0.1609  0.0259  1.0790
  655SOL     OW 3014   5.974   7.009   6.143 -0.1854  0.3585 -0.3943
  655SOL    HW1 3015   5.962   6.969   6.057 -1.4286 -1.4365  0.5573
  655SOL    HW2 3016   6.052   7.064   6.133 -0.0210 -0.1555 -2.5164
  656SOL     OW 3017   5.623   3.030   4.990  0.2425 -0.4319  0.1740
  656SOL    HW1 3018   5.686   3.046   4.920  0.5314  0.0425  0.5376
  656SOL    HW2 3019   5.567   2.960   4.956 -0.0138  0.2196 -0.7741
  657SOL     OW 3020   3.293   7.154   6.019  0.2421  0.2228  0.0911
  657SOL    HW1 3021   3.246   7.116   5.945  1.2987 -0.2451 -0.3599
  657SOL    HW2 3022   3.226   7.202   6.068 -0.4168  0.8155 -1.3417
  658SOL     OW 3023   1.895   1.302   1.427 -0.1082 -0.4094 -0.0976
  658SOL    HW1 3024   1.811   1.341   1.402  1.5018  1.7495 -2.7380
  658SOL    HW2 3025   1.941   1.371   1.473  1.9430  0.1964 -2.8447
  659SOL     OW 3026   8.089   5.766   2.400 -0.0176 -0.2714 -0.3661
  659SOL    HW1 3027   8.022   5.821   2.440  0.9244  1.6004 -1.2330
  659SOL    HW2 3028   8.158   5.762   2.466  0.1397  0.0660 -0.5059
  660SOL     OW 3029   4.740   3.977   4.016 -0.0084  0.3354 -0.7977
  660SOL    HW1 3030   4.785   3.905   4.058 -1.2815  0.6513  1.2418
  660SOL    HW2 3031   4.667   3.936   3.969 -0.7930  0.2577  0.4450
  661SOL     OW 3032   2.984   5.175   1.466 -0.0267  0.3793  0.2236
  661SOL    HW1 3033   2.984   5.270   1.477 -1.9401  0.2966  1.1650
  661SOL    HW2 3034   2.948   5.141   1.547 -0.2202 -1.1120 -0.4596
  662SOL     OW 3035   4.176   0.620   5.370  0.7580 -0.2081  0.1403
  662SOL    HW1 3036   4.169   0.631   5.276 -0.2915 -0.0777  0.2264
  662SOL    HW2 3037   4.094   0.578   5.396  1.4667 -1.2145  0.8530
  663SOL     OW 3038   0.743   6.184   7.851  0.0660 -0.1391 -0.5487
  663SOL    HW1 3039   0.657   6.152   7.822  0.1689 -0.4235 -0.5431
  663SOL    HW2 3040   0.726   6.273   7.881 -0.5092 -0.6883  0.8318
  664SOL     OW 3041   3.508   3.853   3.085  0.1794 -0.6890 -0.3344
  664SOL    HW1 3042   3.539   3.860   3.175  0.2801 -2.0480 -0.2475
  664SOL    HW2 3043   3.432   3.911   3.082  1.4109  1.0343  0.0216
  665SOL     OW 3044   2.948   2.632   0.523 -0.2394 -0.5340 -0.0086
  665SOL    HW1 3045   2.883   2.643   0.453  0.5548 -1.7526 -0.9697
  665SOL    HW2 3046   2.904   2.579   0.589 -0.1172 -1.7368 -0.8569
  666SOL     OW 3047   0.402   2.536   0.481 -0.5938  0.2372  0.4056
  666SOL    HW1 3048   0.348   2.598   0.433 -0.1691  1.9700  2.0459
  666SOL    HW2 3049   0.463   2.501   0.416 -1.3379  0.9739 -0.7151
  667SOL     OW 3050   6.807   5.014   2.708  0.3706 -0.6646  0.3606
  667SOL    HW1 3051   6.800   4.959   2.630  0.3357  0.5955 -0.5551
  667SOL    HW2 3052   6.901   5.015   2.729  1.0007  2.0259 -1.9957
  668SOL     OW 3053   0.897   2.684   4.558 -0.0826  0.0498 -0.0173
  668SOL    HW1 3054   0.989   2.659   4.554 -0.0260  0.3418 -0.7227
  668SOL    HW2 3055   0.897   2.779   4.547 -0.4207  0.1403  0.7387
  669SOL     OW 3056   4.432   5.819   7.528 -0.1438 -0.0986 -0.2231
  669SOL    HW1 3057   4.402   5.792   7.441  1.5560  0.9175 -1.1740
  669SOL    HW2 3058   4.405   5.748   7.586 -0.4913 -1.2385 -1.7237
  670SOL     OW 3059   6.808   4.868   0.883  0.3256 -0.0548  0.5025
  670SOL    HW1 3060   6.769   4.846   0.799  0.8782 -0.6751  0.4028
  670SOL    HW2 3061   6.738   4.854   0.947 -0.0945  0.4187  0.1526
  671SOL     OW 3062   3.010   0.068   1.220 -0.7053 -0.4243  0.2119
  671SOL    HW1 3063   3.098   0.090   1.187 -1.2248  0.7634 -0.4427
  671SOL    HW2 3064   2.962   0.040   1.142 -1.7984  1.9033 -0.0337
  672SOL     OW 3065   7.874   6.756   7.779 -0.5085 -0.3382 -0.0531
  672SOL    HW1 3066   7.950   6.698   7.790 -0.1717 -0.6158 -3.0726
  672SOL    HW2 3067   7.810   6.703   7.731 -0.7937  1.2356 -1.5119
  673SOL     OW 3068   2.061   2.940   2.840  0.2329  0.4865  0.0793
  673SOL    HW1 3069   2.078   2.981   2.756  0.1608 -0.4166 -0.3950
  673SOL    HW2 3070   2.044   2.848   2.818 -1.0132  0.4834  0.9459
  674SOL     OW 3071   3.544   2.306   3.376 -0.6395 -0.1677 -0.1165
  674SOL    HW1 3072   3.510   2.224   3.338  2.9369 -1.3526 -1.2641
  674SOL    HW2 3073   3.568   2.283   3.465  1.3925 -0.8154 -0.7738
  675SOL     OW 3074   8.225   3.232   0.552 -0.5289 -0.4162 -0.6950
  675SOL    HW1 3075   8.247   3.184   0.472 -1.5076  0.6285 -1.6246
  675SOL    HW2 3076   8.188   3.166   0.611  0.7899 -1.3174 -0.8429
  676SOL     OW 3077   0.730   5.510   4.588  0.9214 -0.1407 -0.5531
  676SOL    HW1 3078   0.749   5.420   4.561  0.6634  0.1431 -1.7184
  676SOL    HW2 3079   0.642   5.527   4.556  1.7629  1.2356 -2.3024
  677SOL     OW 3080   3.607   6.344   7.524  0.5209  0.2779 -0.5507
  677SOL    HW1 3081   3.571   6.322   7.438 -1.1690  0.3801  0.1023
  677SOL    HW2 3082   3.690   6.387   7.504  0.2789  0.0898 -2.1238
  678SOL     OW 3083   0.281   4.925   4.289 -0.1730  0.9055 -0.7620
  678SOL    HW1 3084   0.190   4.949   4.310 -0.4286  0.2053 -1.0301
  678SOL    HW2 3085   0.274   4.880   4.205  0.0606 -1.4253  0.3674
  679SOL     OW 3086   0.365   0.648   3.346 -0.2669 -0.1347  0.5153
  679SOL    HW1 3087   0.323   0.577   3.297  1.4766 -0.7823 -0.0908
  679SOL    HW2 3088   0.368   0.721   3.285 -1.2937  0.2336  0.8678
  680SOL     OW 3089   6.985   1.844   1.978  0.4177 -0.6001  0.3088
  680SOL    HW1 3090   6.916   1.844   2.045 -0.5653  1.1513 -0.6105
  680SOL    HW2 3091   6.958   1.913   1.916  1.5065 -1.8407 -1.6529
  681SOL     OW 3092   5.884   1.940   0.043 -0.0649  0.0353  0.9093
  681SOL    HW1 3093   5.814   1.926  -0.021  0.9164 -1.3314  0.0540
  681SOL    HW2 3094   5.853   1.897   0.123 -0.4554 -0.0485  0.7131
  682SOL     OW 3095   6.705   0.315   4.412 -0.1916 -0.1788 -0.7267
  682SOL    HW1 3096   6.750   0.247   4.462 -3.1936 -0.1249  2.4109
  682SOL    HW2 3097   6.639   0.268   4.361  0.6194  0.0889 -2.0762
  683SOL     OW 3098   8.119   3.411   6.617  0.0151 -0.2593  0.1488
  683SOL    HW1 3099   8.177   3.418   6.693  0.7822 -1.8320 -0.2610
  683SOL    HW2 3100   8.170   3.445   6.544 -0.8481  1.5902  0.3444
  684SOL     OW 3101   4.320   6.811   4.089  0.2993 -0.0704 -0.5415
  684SOL    HW1 3102   4.282   6.776   4.170  0.0959  0.2955 -0.4745
  684SOL    HW2 3103   4.404   6.849   4.116  0.6124 -0.6643 -0.6481
  685SOL     OW 3104   2.116   1.133   2.736  0.3928  0.3599  0.9572
  685SOL    HW1 3105   2.061   1.058   2.713  0.8099  1.0536 -2.9954
  685SOL    HW2 3106   2.061   1.209   2.721  1.6434  0.9822 -0.7755
  686SOL     OW 3107   3.554   1.444   3.992 -0.3790  0.0648 -0.0124
  686SOL    HW1 3108   3.468   1.482   3.973  0.3496  1.1843 -1.3258
  686SOL    HW2 3109   3.592   1.501   4.058 -0.6123 -0.3822  0.5087
  687SOL     OW 3110   8.059   1.681   8.088 -0.4343  0.1936 -0.0287
  687SOL    HW1 3111   8.116   1.708   8.017  0.9406  0.4466  1.1252
  687SOL    HW2 3112   8.103   1.605   8.127 -1.6002 -0.4809  0.0356
  688SOL     OW 3113   2.573   5.157   3.195  1.2940 -0.4265 -0.2319
  688SOL    HW1 3114   2.545   5.248   3.186  2.4333  0.0547  0.8261
  688SOL    HW2 3115   2.635   5.158   3.267 -0.0255 -2.3616  1.0153
  689SOL     OW 3116   0.081   2.790   5.280 -0.4788 -0.0465 -0.2763
  689SOL    HW1 3117   0.082   2.739   5.199 -0.5445 -0.6514  0.0958
  689SOL    HW2 3118   0.135   2.739   5.341 -0.5857  0.3066  0.1163
  690SOL     OW 3119   2.173   0.827   2.988 -0.3194 -0.1068  0.5116
  690SOL    HW1 3120   2.181   0.922   3.000  1.1499 -0.0479 -0.6353
  690SOL    HW2 3121   2.238   0.790   3.048 -0.2444 -0.3402  0.2862
  691SOL     OW 3122   5.430   5.805   7.887 -0.2025 -0.1920  0.8698
  691SOL    HW1 3123   5.496   5.857   7.842 -0.5532 -0.2581  0.2699
  691SOL    HW2 3124   5.477   5.762   7.958  0.2188  0.4402  0.9759
  692SOL     OW 3125   0.555   5.597   0.637  0.2898  0.7085 -0.0004
  692SOL    HW1 3126   0.473   5.596   0.587  0.2955 -0.4246 -0.0167
  692SOL    HW2 3127   0.533   5.641   0.718 -0.0505  1.4081 -0.4610
  693SOL     OW 3128   2.218   3.608   3.815 -0.2040  0.4089 -0.6388
  693SOL    HW1 3129   2.289   3.556   3.852 -0.4142  1.9875  2.3188
  693SOL    HW2 3130   2.239   3.616   3.722  2.5110 -0.6538 -0.1948
  694SOL     OW 3131   4.263   1.546   5.567 -0.5517  0.0680 -0.0156
  694SOL    HW1 3132   4.209   1.525   5.643 -1.2925 -0.3448 -0.6466
  694SOL    HW2 3133   4.203   1.589   5.506  0.0247  0.3505 -0.3909
  695SOL     OW 3134   0.344   1.561   6.718 -0.0138 -0.2921 -0.2222
  695SOL    HW1 3135   0.424   1.576   6.669 -0.9506  0.3721 -1.6214
  695SOL    HW2 3136   0.348   1.469   6.745  1.8967  0.1269  1.0608
  696SOL     OW 3137   5.553   7.341   8.101 -0.2682  0.0043 -0.3128
  696SOL    HW1 3138   5.588   7.302   8.182 -0.2056 -0.0976 -0.3893
  696SOL    HW2 3139   5.473   7.292   8.083  0.1698 -0.5421 -0.7861
  697SOL     OW 3140   7.779   1.211   2.586  0.1397 -0.0262  0.5790
  697SOL    HW1 3141   7.688   1.231   2.608 -0.5249  0.5118 -2.2329
  697SOL    HW2 3142   7.782   1.116   2.578 -0.4285  0.0126 -0.1759
  698SOL     OW 3143   7.012   1.215   5.269 -0.3755 -0.3285  0.3542
  698SOL    HW1 3144   6.996   1.178   5.182 -1.3164  0.2824  0.2563
  698SOL    HW2 3145   7.027   1.308   5.254 -0.6614 -0.1951  0.8508
  699SOL     OW 3146   3.267   6.557   1.659  0.6382 -0.0797 -0.0325
  699SOL    HW1 3147   3.280   6.652   1.655 -1.2040  0.1996 -0.0464
  699SOL    HW2 3148   3.228   6.542   1.745 -1.3118 -0.5020 -0.9488
  700SOL     OW 3149   2.041   1.390   0.113 -0.3691  0.2290 -0.0380
  700SOL    HW1 3150   2.043   1.399   0.208 -0.1405 -0.0731 -0.0110
  700SOL    HW2 3151   2.133   1.382   0.088 -0.4933 -2.5474  0.0200
  701SOL     OW 3152   0.614   0.333   3.296  0.1800  0.1664 -0.4911
  701SOL    HW1 3153   0.546   0.400   3.293 -0.2098 -0.2436 -0.8934
  701SOL    HW2 3154   0.575   0.260   3.343  0.7144  0.3326  0.2278
  702SOL     OW 3155   4.167   1.955   4.914 -0.6332 -0.1730 -0.6384
  702SOL    HW1 3156   4.085   1.906   4.915 -0.5498 -0.3157  0.1560
  702SOL    HW2 3157   4.197   1.954   5.005 -0.1417  0.5357 -0.7771
  703SOL     OW 3158   3.930   6.126   5.201  0.2771  0.1693 -0.2183
  703SOL    HW1 3159   4.014   6.123   5.246 -1.8481 -1.5740  4.3027
  703SOL    HW2 3160   3.909   6.219   5.195  1.2210  0.5367  1.5323
  704SOL     OW 3161   0.255   5.264   5.673 -0.2102  0.3443 -0.3508
  704SOL    HW1 3162   0.261   5.290   5.581  1.3126 -0.7345 -0.5898
  704SOL    HW2 3163   0.214   5.177   5.670 -1.0794  0.7314  0.0807
  705SOL     OW 3164   6.184   1.412   8.132  0.2972  0.4861  0.8327
  705SOL    HW1 3165   6.158   1.498   8.164  0.0698 -0.2725  2.7694
  705SOL    HW2 3166   6.270   1.427   8.092  0.2144  1.6158  1.0502
  706SOL     OW 3167   7.805   7.384   0.473  0.0508  0.6635 -0.1007
  706SOL    HW1 3168   7.794   7.338   0.389  0.4481 -0.6044  0.5132
  706SOL    HW2 3169   7.719   7.423   0.490  0.0853  1.3004 -1.2903
  707SOL     OW 3170   3.600   5.936   3.127  0.1507  0.3043 -0.1576
  707SOL    HW1 3171   3.556   5.892   3.200  0.3311 -1.4778 -1.0757
  707SOL    HW2 3172   3.551   5.908   3.050  2.3255 -1.0516 -1.1238
  708SOL     OW 3173   1.857   2.212   2.755 -0.3207 -0.6172 -0.1689
  708SOL    HW1 3174   1.870   2.188   2.847  0.4441 -0.4547 -0.2269
  708SOL    HW2 3175   1.794   2.283   2.756  1.0606  0.6567  0.3911
  709SOL     OW 3176   3.312   6.800   3.599 -0.1881 -0.0785 -0.2551
  709SOL    HW1 3177   3.346   6.745   3.669  0.3502  1.3538  0.6671
  709SOL    HW2 3178   3.286   6.881   3.644  2.9438  2.0980 -2.0073
  710SOL     OW 3179   6.064   1.169   4.087 -0.5968 -0.0977 -0.2350
  710SOL    HW1 3180   6.037   1.189   3.998  0.5204 -0.2190 -0.6157
  710SOL    HW2 3181   6.140   1.225   4.103 -1.3287  0.6091  0.9864
  711SOL     OW 3182   0.692   7.064   4.871 -0.8509 -0.2221  0.7112
  711SOL    HW1 3183   0.687   7.138   4.931  2.5878  0.0274  0.8986
  711SOL    HW2 3184   0.739   6.997   4.921  1.2346 -0.3599 -1.2963
  712SOL     OW 3185   4.762   0.921   5.326 -0.0312  0.2737 -0.2075
  712SOL    HW1 3186   4.785   0.989   5.263  0.5701  0.5141  0.2622
  712SOL    HW2 3187   4.707   0.965   5.391 -0.5825  0.0452 -0.5137
  713SOL     OW 3188   4.109   2.469   4.110  0.4922 -0.3627 -0.2337
  713SOL    HW1 3189   4.139   2.420   4.187  0.1071  1.2609  0.9940
  713SOL    HW2 3190   4.014   2.467   4.116  0.4031 -1.5430 -1.5635
  714SOL     OW 3191   3.235   6.327   3.510 -0.1693  0.0572  0.1625
  714SOL    HW1 3192   3.193   6.316   3.424 -0.4324 -0.8882  0.3968
  714SOL    HW2 3193   3.203   6.253   3.561  1.2150 -0.2697  0.5875
  715SOL     OW 3194   6.718   4.403   2.922 -0.4059  0.6976  0.6043
  715SOL    HW1 3195   6.672   4.319   2.917 -1.1418  1.1132  0.3342
  715SOL    HW2 3196   6.793   4.385   2.979 -0.4756 -0.1806  0.4335
  716SOL     OW 3197   5.263   7.794   2.098 -0.4342  0.2941 -0.2072
  716SOL    HW1 3198   5.198   7.824   2.162  2.2510  0.2892  2.8090
  716SOL    HW2 3199   5.283   7.871   2.046  1.5086  2.2185  3.0076
  717SOL     OW 3200   0.041   3.443   6.783  0.2753 -0.0356  0.2641
  717SOL    HW1 3201   0.034   3.536   6.807  0.1382 -0.4218  1.8215
  717SOL    HW2 3202   0.091   3.403   6.854 -0.3810 -1.3135  0.0409
  718SOL     OW 3203   8.197   5.967   1.708 -0.2023 -0.3818 -0.1980
  718SOL    HW1 3204   8.167   5.901   1.770 -1.8462  0.8245  0.3366
  718SOL    HW2 3205   8.293   5.960   1.710 -0.3104 -2.1743  0.4300
  719SOL     OW 3206   4.295   4.922   0.703  0.8818  0.0138  0.5211
  719SOL    HW1 3207   4.358   4.971   0.650  1.6816  0.3862  1.7694
  719SOL    HW2 3208   4.241   4.876   0.639  2.6716 -0.6313 -0.6202
  720SOL     OW 3209   6.827   0.128   0.055  0.4938 -0.0081  0.5726
  720SOL    HW1 3210   6.864   0.063   0.114 -0.3805  0.7135  1.9648
  720SOL    HW2 3211   6.886   0.203   0.061  0.0999  0.2715  0.9667
  721SOL     OW 3212   7.909   3.760   2.974 -0.2239 -0.4296 -0.1568
  721SOL    HW1 3213   7.979   3.726   2.918 -0.3449  1.2082 -1.3597
  721SOL    HW2 3214   7.831   3.759   2.918 -0.6699 -0.1035  0.4510
  722SOL     OW 3215   3.337   0.736   6.449 -0.2294 -0.3550  0.2327
  722SOL    HW1 3216   3.401   0.729   6.378  2.0704  0.0012  2.1279
  722SOL    HW2 3217   3.262   0.685   6.419 -0.1810  1.2966 -3.2039
  723SOL     OW 3218   2.683   2.657   2.811  0.3756  0.1740  0.2616
  723SOL    HW1 3219   2.673   2.590   2.743  1.3214  0.3937 -0.1103
  723SOL    HW2 3220   2.702   2.737   2.763 -1.0780  0.8057  0.6843
  724SOL     OW 3221   1.618   2.193   1.949 -0.3510 -0.5648  0.0676
  724SOL    HW1 3222   1.595   2.281   1.980 -0.7996 -0.1484 -1.3559
  724SOL    HW2 3223   1.566   2.134   2.004 -0.6625  0.0984  0.5032
  725SOL     OW 3224   6.052   2.404   3.905 -0.0846 -0.0389  0.1435
  725SOL    HW1 3225   6.063   2.454   3.824 -0.0306 -0.9995 -0.4588
  725SOL    HW2 3226   6.115   2.443   3.966  2.1963 -1.3018 -1.2495
  726SOL     OW 3227   0.718   4.942   0.981  0.1166 -0.4197 -0.1905
  726SOL    HW1 3228   0.709   4.916   1.073 -0.9276 -2.4664 -0.8046
  726SOL    HW2 3229   0.763   4.868   0.939 -2.0707 -0.9269 -1.8553
  727SOL     OW 3230   1.882   3.763   7.797  0.0347  0.2612 -0.1609
  727SOL    HW1 3231   1.869   3.675   7.834 -0.6724  0.6134  0.4572
  727SOL    HW2 3232   1.977   3.773   7.793  0.1553 -1.1799 -1.8460
  728SOL     OW 3233   6.525   2.463   8.098  0.6069  0.4843  0.3444
  728SOL    HW1 3234   6.504   2.370   8.094  1.7057  0.2564 -1.5415
  728SOL    HW2 3235   6.455   2.506   8.049  0.7132  0.5070  0.2094
  729SOL     OW 3236   2.566   5.404   8.258 -0.2238 -0.0232 -0.1666
  729SOL    HW1 3237   2.545   5.473   8.321 -1.7545  0.0255 -0.6834
  729SOL    HW2 3238   2.545   5.323   8.304  0.1735 -0.0745 -0.0708
  730SOL     OW 3239   2.215   6.284   6.015 -0.2917  0.4460  0.4046
  730SOL    HW1 3240   2.307   6.278   6.042 -0.2528 -3.0566  0.0268
  730SOL    HW2 3241   2.179   6.198   6.036 -3.1804  1.2936 -0.6288
  731SOL     OW 3242   5.991   1.562   4.812  0.1613  0.1980 -0.5395
  731SOL    HW1 3243   5.940   1.632   4.771  0.1422 -0.7916 -2.3607
  731SOL    HW2 3244   5.952   1.550   4.898  0.2451  2.4765 -0.1426
  732SOL     OW 3245   0.468   2.005   6.970  0.2804  0.3762 -0.2688
  732SOL    HW1 3246   0.443   2.096   6.983  1.1380  0.3180  2.3437
  732SOL    HW2 3247   0.555   2.010   6.929 -0.5673  0.6397 -2.1512
  733SOL     OW 3248   3.859   4.313   3.733 -0.9081  0.4480 -0.5289
  733SOL    HW1 3249   3.797   4.240   3.722 -0.7704  0.2183  0.1776
  733SOL    HW2 3250   3.903   4.319   3.648 -0.0552 -1.1115 -0.2473
  734SOL     OW 3251   5.659   2.576   6.181 -0.2742 -0.0413 -0.0051
  734SOL    HW1 3252   5.709   2.560   6.262  0.7746 -1.6117 -0.9087
  734SOL    HW2 3253   5.607   2.497   6.169 -1.1274  0.5693 -0.3967
  735SOL     OW 3254   0.869   2.541   2.933  0.3256  0.2432 -0.1815
  735SOL    HW1 3255   0.827   2.486   3.000  0.7050  0.3101  0.1138
  735SOL    HW2 3256   0.959   2.509   2.928  0.3343  0.3288 -0.5654
  736SOL     OW 3257   5.547   6.690   4.490 -0.3491 -0.1705  0.0757
  736SOL    HW1 3258   5.534   6.596   4.478  0.0819 -0.0392 -1.7282
  736SOL    HW2 3259   5.459   6.727   4.491 -0.5068 -0.5491  0.5022
  737SOL     OW 3260   7.342   4.217   3.185  0.1343 -0.7868 -0.5203
  737SOL    HW1 3261   7.430   4.181   3.193  0.1015 -0.7114  0.3840
  737SOL    HW2 3262   7.346   4.301   3.231 -0.9340 -1.7890  1.5712
  738SOL     OW 3263   7.423   5.229   4.958  0.7918  0.2386  0.1178
  738SOL    HW1 3264   7.372   5.185   4.890  2.6438  0.3501 -1.4511
  738SOL    HW2 3265   7.399   5.184   5.039  1.1324 -2.3721 -1.1193
  739SOL     OW 3266   2.407   7.024   1.623 -0.0516 -0.1485 -0.4431
  739SOL    HW1 3267   2.315   7.032   1.647  0.2787 -0.7211  1.1329
  739SOL    HW2 3268   2.454   7.066   1.696  1.0144 -1.9479 -0.0435
  740SOL     OW 3269   8.161   1.257   1.293 -0.1990  0.0392  0.4184
  740SOL    HW1 3270   8.112   1.252   1.211  0.6517  0.2559 -0.1150
  740SOL    HW2 3271   8.134   1.340   1.332 -1.0802 -0.3543  0.6805
  741SOL     OW 3272   4.776   1.602   5.428 -0.2992 -0.3864  0.0451
  741SOL    HW1 3273   4.812   1.691   5.428  0.2029 -0.5742 -0.5224
  741SOL    HW2 3274   4.755   1.586   5.336 -2.7307  0.0410  0.4652
  742SOL     OW 3275   1.602   4.532   1.287  0.2792 -0.2120 -0.0987
  742SOL    HW1 3276   1.598   4.522   1.382 -0.9427 -0.0266 -0.1254
  742SOL    HW2 3277   1.564   4.618   1.270 -0.0579 -0.4961 -0.8066
  743SOL     OW 3278   3.213   5.338   7.927  0.5800 -0.0469  0.1396
  743SOL    HW1 3279   3.175   5.269   7.980 -0.2476 -0.7964 -1.3518
  743SOL    HW2 3280   3.219   5.414   7.985  2.1060 -1.5118  2.0150
  744SOL     OW 3281   6.022   1.021   0.122 -0.3629  0.2840  0.4966
  744SOL    HW1 3282   6.051   1.087   0.059  0.1067 -0.1630  0.2471
  744SOL    HW2 3283   6.048   0.937   0.085 -1.4520 -0.0942  0.5506
  745SOL     OW 3284   2.718   4.295   1.140  0.0403  0.2399  0.0877
  745SOL    HW1 3285   2.787   4.331   1.195 -1.3363  0.4616  1.7666
  745SOL    HW2 3286   2.666   4.371   1.114  0.2525  0.0489 -0.9456
  746SOL     OW 3287   8.107   4.185   6.399  0.1288 -0.2949 -0.1271
  746SOL    HW1 3288   8.176   4.120   6.406  1.1114  0.0827 -3.8516
  746SOL    HW2 3289   8.050   4.152   6.330 -2.0881  0.5957  1.1768
  747SOL     OW 3290   5.607   5.879   5.525  0.0199 -0.2910 -0.4241
  747SOL    HW1 3291   5.650   5.940   5.466  1.1667 -0.3591  0.3087
  747SOL    HW2 3292   5.641   5.793   5.499  0.8873 -0.2792  0.5931
  748SOL     OW 3293   4.325   7.551   5.316  0.0353 -0.4635 -0.0605
  748SOL    HW1 3294   4.412   7.545   5.276 -0.4251  3.4874 -2.1867
  748SOL    HW2 3295   4.275   7.480   5.275  1.1646 -0.1096 -2.2044
  749SOL     OW 3296   1.209   5.265   1.860  0.3571  0.1165  0.0524
  749SOL    HW1 3297   1.122   5.239   1.891  0.2223  0.3293 -0.1466
  749SOL    HW2 3298   1.269   5.207   1.906 -0.0046 -1.3182 -1.2264
  750SOL     OW 3299   4.341   1.164   5.620  0.2553  0.0393 -0.1863
  750SOL    HW1 3300   4.348   1.243   5.673 -2.2039  0.4551 -0.3901
  750SOL    HW2 3301   4.303   1.194   5.537 -0.6670 -1.3333 -0.2917
  751SOL     OW 3302   0.064   0.898   4.128  0.1162 -0.1908 -0.6715
  751SOL    HW1 3303   0.114   0.902   4.210  0.6052 -0.3834 -0.9558
  751SOL    HW2 3304  -0.027   0.910   4.155  0.4689  2.4657 -0.3571
  752SOL     OW 3305   5.133   5.098   7.380  0.3004  0.0493  0.9866
  752SOL    HW1 3306   5.081   5.150   7.318  2.5337 -1.9104 -2.9546
  752SOL    HW2 3307   5.212   5.150   7.395  2.0711 -1.4540 -2.1462
  753SOL     OW 3308   1.040   0.182   6.055  0.3764 -0.2534  0.2021
  753SOL    HW1 3309   1.100   0.256   6.053  0.9003 -0.6820 -1.0059
  753SOL    HW2 3310   0.953   0.220   6.047  0.6403  0.2393 -0.3692
  754SOL     OW 3311   4.902   7.673   2.014  0.1646 -0.5978 -0.0464
  754SOL    HW1 3312   4.856   7.640   2.090  2.0470 -0.5833  1.1629
  754SOL    HW2 3313   4.963   7.603   1.990  0.8364  0.0964 -0.4264
  755SOL     OW 3314   4.946   6.815   5.865  0.1173 -0.4168 -0.7175
  755SOL    HW1 3315   5.041   6.803   5.854  0.5605  2.1466 -0.1224
  755SOL    HW2 3316   4.927   6.780   5.952  0.8000  0.4387 -0.2156
  756SOL     OW 3317   1.082   5.346   1.544  0.1841  0.3203  0.2125
  756SOL    HW1 3318   1.039   5.406   1.605 -0.3681  0.0067  0.1391
  756SOL    HW2 3319   1.150   5.398   1.503  0.4466  0.5881  0.9701
  757SOL     OW 3320   7.329   0.370   2.229  0.2766 -0.5248  0.0761
  757SOL    HW1 3321   7.306   0.277   2.219  0.8513 -0.5008 -1.8170
  757SOL    HW2 3322   7.282   0.414   2.159 -0.3502  0.7237  1.2363
  758SOL     OW 3323   1.568   5.249   7.523 -0.5012  0.3921  0.2755
  758SOL    HW1 3324   1.558   5.218   7.613  1.6471  0.3738  0.5659
  758SOL    HW2 3325   1.556   5.344   7.529 -1.0220  0.3208  0.4492
  759SOL     OW 3326   1.179   2.214   6.973 -0.0268  0.3915 -0.3527
  759SOL    HW1 3327   1.242   2.256   7.032 -2.1625 -0.1957  2.5895
  759SOL    HW2 3328   1.178   2.270   6.895  2.6235  1.5041  0.3072
  760SOL     OW 3329   3.348   7.139   5.314 -0.1121  0.0691 -1.0736
  760SOL    HW1 3330   3.252   7.141   5.317 -0.0984 -0.0099  0.8903
  760SOL    HW2 3331   3.372   7.221   5.271 -1.0582  2.0072  1.7581
  761SOL     OW 3332   5.871   2.542   5.096 -0.0214 -0.4530  0.3635
  761SOL    HW1 3333   5.816   2.619   5.112 -0.3761  0.0258 -2.4869
  761SOL    HW2 3334   5.827   2.496   5.024  1.5965 -1.8534  0.2069
  762SOL     OW 3335   7.980   1.053   5.118 -0.2957  0.4017 -0.1941
  762SOL    HW1 3336   7.924   1.087   5.048 -0.2348  3.1152  0.9510
  762SOL    HW2 3337   8.066   1.042   5.077 -0.0526  2.7311 -0.4754
  763SOL     OW 3338   1.649   7.748   1.751  0.2836 -0.2465 -1.0089
  763SOL    HW1 3339   1.735   7.706   1.756  0.2957 -0.3191 -1.6855
  763SOL    HW2 3340   1.666   7.841   1.767 -0.1884 -0.7601  4.4192
  764SOL     OW 3341   4.250   6.498   4.420 -0.3180 -0.3830 -0.0100
  764SOL    HW1 3342   4.161   6.520   4.448 -0.4342 -0.3010 -0.4301
  764SOL    HW2 3343   4.246   6.503   4.325  0.0675 -0.6591 -0.0401
  765SOL     OW 3344   7.377   2.505   5.456 -0.0754  0.2938 -0.1500
  765SOL    HW1 3345   7.439   2.565   5.415  0.1036  1.0908  1.2386
  765SOL    HW2 3346   7.298   2.511   5.401  0.6370  0.2184 -1.2056
  766SOL     OW 3347   1.367   0.018   2.163  0.0592 -0.2044  0.4368
  766SOL    HW1 3348   1.299   0.083   2.183  1.3629  0.4675  3.1705
  766SOL    HW2 3349   1.320  -0.054   2.123 -1.9741  1.0047  0.5026
  767SOL     OW 3350   4.705   4.348   4.519 -0.0404  0.0127  0.1714
  767SOL    HW1 3351   4.637   4.295   4.476  0.9911 -1.7852  0.6411
  767SOL    HW2 3352   4.657   4.420   4.559 -1.6015 -0.8594 -0.0318
  768SOL     OW 3353   3.748   4.150   1.402 -0.2702 -0.4630 -0.1402
  768SOL    HW1 3354   3.807   4.224   1.387 -0.5049 -0.1436  0.4669
  768SOL    HW2 3355   3.673   4.189   1.447 -0.0654 -1.1846  0.8616
  769SOL     OW 3356   0.268   3.624   6.268 -0.9200 -0.5949 -0.3354
  769SOL    HW1 3357   0.186   3.627   6.220 -1.9483  1.9708  1.3716
  769SOL    HW2 3358   0.243   3.626   6.361  1.0202  0.2207  0.2381
  770SOL     OW 3359   3.342   6.696   2.581  0.0874 -0.1061  0.1816
  770SOL    HW1 3360   3.268   6.753   2.558 -0.2340 -0.5628  0.0615
  770SOL    HW2 3361   3.343   6.695   2.677 -1.1696 -1.4665  0.2254
  771SOL     OW 3362   2.183   2.501   0.744  0.0586 -0.3218  0.3084
  771SOL    HW1 3363   2.119   2.514   0.814 -0.9355  0.2463 -0.6694
  771SOL    HW2 3364   2.133   2.516   0.663  1.4704  0.3181 -0.4795
  772SOL     OW 3365   5.929   7.886   6.359  1.1348  0.6438  0.2268
  772SOL    HW1 3366   6.023   7.905   6.352  1.4851 -1.2271 -0.7761
  772SOL    HW2 3367   5.915   7.871   6.453  2.3061 -0.9866  0.2010
  773SOL     OW 3368   4.291   4.430   2.172  0.1128  0.2584  0.3878
  773SOL    HW1 3369   4.253   4.499   2.117 -1.5739 -0.5278  0.4888
  773SOL    HW2 3370   4.380   4.460   2.191 -0.1767  1.8200 -0.5525
  774SOL     OW 3371   7.627   2.442   3.290 -0.0856 -0.1685 -0.3021
  774SOL    HW1 3372   7.571   2.365   3.283 -1.4550  0.7867 -0.2677
  774SOL    HW2 3373   7.597   2.486   3.370  0.4910  0.5460 -0.4678
  775SOL     OW 3374   0.796   0.505   5.410 -0.1201 -0.2739 -0.7134
  775SOL    HW1 3375   0.742   0.561   5.354 -0.1117  0.3243 -0.1415
  775SOL    HW2 3376   0.851   0.456   5.350  0.3553  0.8451 -1.2082
  776SOL     OW 3377   4.673   5.734   2.566 -0.0941 -0.0600  0.2763
  776SOL    HW1 3378   4.677   5.640   2.547  1.3382  0.1069 -0.3268
  776SOL    HW2 3379   4.583   5.748   2.596 -0.0908 -1.7673  1.2051
  777SOL     OW 3380   5.241   8.195   2.210 -0.4993  0.4122 -0.1194
  777SOL    HW1 3381   5.255   8.131   2.279  2.0499  0.4545 -0.4995
  777SOL    HW2 3382   5.239   8.143   2.129 -0.4784  0.6344 -0.2632
  778SOL     OW 3383   6.766   4.871   2.043 -0.0073  0.7644 -0.6287
  778SOL    HW1 3384   6.684   4.872   1.994 -0.2946  0.9000 -0.1558
  778SOL    HW2 3385   6.776   4.961   2.075  0.8270  0.9978 -1.4943
  779SOL     OW 3386   1.028   2.214   7.985  0.0911  0.1527 -0.1054
  779SOL    HW1 3387   0.976   2.147   7.942 -0.1659 -1.1078  1.9951
  779SOL    HW2 3388   1.000   2.297   7.946 -1.4367 -0.7462 -0.9808
  780SOL     OW 3389   0.858   3.211   4.674  0.1984 -0.4156 -0.2171
  780SOL    HW1 3390   0.766   3.201   4.699 -0.1783  0.0432 -1.3700
  780SOL    HW2 3391   0.906   3.207   4.757 -0.7856 -1.4687  0.3292
  781SOL     OW 3392   1.178   7.342   1.626 -0.2685 -0.4366  0.1294
  781SOL    HW1 3393   1.198   7.270   1.567 -0.9521 -0.4107 -0.1399
  781SOL    HW2 3394   1.255   7.399   1.622  0.2257 -1.0938  0.2610
  782SOL     OW 3395   5.702   0.508   2.590  0.9548 -0.2895  0.4356
  782SOL    HW1 3396   5.683   0.600   2.608  0.7943 -0.2968  0.3137
  782SOL    HW2 3397   5.796   0.500   2.601  1.6053  0.7266 -3.0228
  783SOL     OW 3398   3.403   0.763   5.281  0.0259 -0.2198 -0.2469
  783SOL    HW1 3399   3.455   0.683   5.270  0.5828  0.0667  0.2372
  783SOL    HW2 3400   3.339   0.760   5.210 -0.5192 -1.5233  0.2656
  784SOL     OW 3401   2.767   5.279   3.598 -0.4490 -0.2143 -0.3212
  784SOL    HW1 3402   2.779   5.363   3.643  0.9796  0.3305 -1.6510
  784SOL    HW2 3403   2.677   5.281   3.567 -0.8760  0.1948  0.9036
  785SOL     OW 3404   2.896   7.440   2.966  0.1417 -0.6288 -0.2272
  785SOL    HW1 3405   2.813   7.473   2.930  0.4034  0.1389 -0.1514
  785SOL    HW2 3406   2.910   7.356   2.922  0.0534 -0.0853 -1.3243
  786SOL     OW 3407   5.586   4.934   7.367  0.3035 -0.3256  0.1272
  786SOL    HW1 3408   5.672   4.963   7.334 -0.2940  1.0425 -0.3204
  786SOL    HW2 3409   5.530   5.011   7.356 -0.7361 -0.8850  1.3472
  787SOL     OW 3410   0.930   7.707   1.626 -0.1921  0.0928  0.0381
  787SOL    HW1 3411   0.907   7.700   1.719 -0.9872  0.0553 -0.1473
  787SOL    HW2 3412   0.935   7.801   1.609 -2.1986  0.1874 -0.3474
  788SOL     OW 3413   5.002   6.960   8.160  0.1646 -0.6140  0.2784
  788SOL    HW1 3414   5.034   6.885   8.110 -0.3291 -0.3801 -0.4029
  788SOL    HW2 3415   4.993   7.030   8.095  0.1515 -0.1125  0.8163
  789SOL     OW 3416   2.867   5.403   4.787 -0.5691 -0.7952  0.0474
  789SOL    HW1 3417   2.915   5.447   4.717 -0.0008  0.3055  1.0852
  789SOL    HW2 3418   2.793   5.361   4.743  0.3817 -1.0694 -1.3531
  790SOL     OW 3419   3.831   1.464   0.271 -0.4177 -0.0241  0.5972
  790SOL    HW1 3420   3.856   1.486   0.361 -0.1775 -0.1240  0.5569
  790SOL    HW2 3421   3.793   1.544   0.236 -1.1155 -0.1689  0.9945
  791SOL     OW 3422   6.358   5.850   1.699  0.2720 -0.4005 -0.2295
  791SOL    HW1 3423   6.305   5.789   1.647 -0.6631 -0.0791  0.3208
  791SOL    HW2 3424   6.339   5.936   1.661  0.7235 -0.3260 -0.2890
  792SOL     OW 3425   4.955   8.072   4.547  0.1167 -0.0970  0.4851
  792SOL    HW1 3426   4.952   8.113   4.460  0.5546  2.2384  1.5095
  792SOL    HW2 3427   4.865   8.074   4.578 -0.3524 -2.4588 -0.5072
  793SOL     OW 3428   5.924   6.804   3.072 -0.5869 -0.6888 -0.2621
  793SOL    HW1 3429   5.846   6.853   3.097 -0.2461 -0.5056  0.4691
  793SOL    HW2 3430   5.912   6.717   3.110 -1.8875 -1.7186 -2.8086
  794SOL     OW 3431   6.048   4.885   4.181 -0.0700 -0.0173 -0.1629
  794SOL    HW1 3432   6.091   4.800   4.181  1.2840  0.6375 -0.4112
  794SOL    HW2 3433   6.076   4.926   4.099 -0.0430  0.9806  0.3301
  795SOL     OW 3434   5.366   5.848   0.198  0.1732  0.0153  0.3820
  795SOL    HW1 3435   5.427   5.860   0.271  1.4037 -1.4770 -0.3624
  795SOL    HW2 3436   5.416   5.802   0.131 -1.2148  0.4802 -1.0502
  796SOL     OW 3437   4.071   2.490   6.395 -0.2923 -0.5609  0.6396
  796SOL    HW1 3438   4.015   2.460   6.466 -1.7151  0.3230 -0.0566
  796SOL    HW2 3439   4.145   2.532   6.438 -1.4433  0.5234  1.6227
  797SOL     OW 3440   7.273   7.986   1.599 -0.3800  0.1107 -0.4930
  797SOL    HW1 3441   7.354   7.976   1.648 -1.2610  1.9901  1.4931
  797SOL    HW2 3442   7.272   8.078   1.573 -1.6286 -0.0126 -0.9255
  798SOL     OW 3443   2.147   7.010   1.696  0.5993  0.3075 -0.2526
  798SOL    HW1 3444   2.094   7.004   1.617 -0.5382 -1.5188  0.5618
  798SOL    HW2 3445   2.097   7.067   1.755 -0.1814 -0.8609  0.2607
  799SOL     OW 3446   3.667   5.354   7.248 -0.1083  0.8006 -0.3645
  799SOL    HW1 3447   3.665   5.432   7.303 -0.1181  0.1099  0.6312
  799SOL    HW2 3448   3.692   5.283   7.307 -0.8263 -0.0840 -1.0911
  800SOL     OW 3449   4.334   4.848   3.551  1.0122 -0.0739  0.0567
  800SOL    HW1 3450   4.378   4.911   3.608  0.6942 -1.3948  1.8235
  800SOL    HW2 3451   4.249   4.833   3.592  0.4076 -0.4026 -1.2540
  801SOL     OW 3452   2.584   5.283   3.840  0.2404 -0.3064 -0.2108
  801SOL    HW1 3453   2.567   5.302   3.748 -0.0888 -1.2194 -0.3514
  801SOL    HW2 3454   2.582   5.187   3.845  0.0152 -0.2597  0.7881
  802SOL     OW 3455   4.803   8.175   5.805 -0.2153 -0.0643  0.2045
  802SOL    HW1 3456   4.759   8.239   5.861  0.5616  2.3552 -1.7597
  802SOL    HW2 3457   4.894   8.177   5.833 -0.1535 -0.1705  0.0158
  803SOL     OW 3458   0.940   1.609   5.693 -0.0496  0.6377 -0.3931
  803SOL    HW1 3459   0.979   1.522   5.680 -1.5864 -0.3399  1.1049
  803SOL    HW2 3460   1.013   1.664   5.720  0.9418 -0.1876 -1.2724
  804SOL     OW 3461   2.237   6.044   6.462 -0.4259 -0.4240  0.2298
  804SOL    HW1 3462   2.312   6.034   6.403  1.4359  0.1316  2.3741
  804SOL    HW2 3463   2.167   5.992   6.422  0.5862  0.2733 -2.6475
  805SOL     OW 3464   2.724   5.487   5.462  0.8197 -0.3014  0.1637
  805SOL    HW1 3465   2.654   5.421   5.462 -0.4096  0.9440 -0.5997
  805SOL    HW2 3466   2.793   5.449   5.516 -0.6809 -1.3339  1.4512
  806SOL     OW 3467   4.505   3.671   4.761  0.0537  0.3081  0.1591
  806SOL    HW1 3468   4.420   3.628   4.754  0.0112  0.2115  1.1640
  806SOL    HW2 3469   4.567   3.600   4.779  0.3395  0.3867 -0.4847
  807SOL     OW 3470   4.276   6.466   5.732  0.3343  0.6731 -0.3405
  807SOL    HW1 3471   4.366   6.469   5.698  0.7621  1.3320  0.7862
  807SOL    HW2 3472   4.243   6.554   5.720  0.2816  0.7553  0.3833
  808SOL     OW 3473   1.750   1.281   6.343 -0.1858 -0.1403 -0.2414
  808SOL    HW1 3474   1.839   1.290   6.374 -0.5002 -0.2986  0.7300
  808SOL    HW2 3475   1.710   1.217   6.402 -0.9109 -0.1388 -0.7169
  809SOL     OW 3476   4.122   8.090   7.176  0.9356 -0.0403  0.1846
  809SOL    HW1 3477   4.141   8.172   7.131  2.1761 -0.6644 -0.4695
  809SOL    HW2 3478   4.027   8.085   7.177  0.8360  1.3744  0.2016
  810SOL     OW 3479   3.644   5.442   5.833  0.3376  0.0751  0.4816
  810SOL    HW1 3480   3.586   5.511   5.862 -0.8600 -0.1284 -1.2848
  810SOL    HW2 3481   3.608   5.362   5.872 -0.9974 -0.1360 -1.0744
  811SOL     OW 3482   5.161   4.953   4.706  0.4184  0.0064 -0.0962
  811SOL    HW1 3483   5.176   4.883   4.770 -2.9402  0.3089  1.2350
  811SOL    HW2 3484   5.091   4.919   4.650  1.0412  1.0667 -1.5893
  812SOL     OW 3485   3.752   7.736   3.716  0.4177  0.7105  0.3092
  812SOL    HW1 3486   3.683   7.675   3.744  0.8702 -0.6734 -1.3859
  812SOL    HW2 3487   3.706   7.818   3.700 -1.1971 -0.5258 -2.0992
  813SOL     OW 3488   6.323   3.862   4.514  0.0348 -0.0722  0.1723
  813SOL    HW1 3489   6.357   3.908   4.590  0.3979  0.1937 -0.1488
  813SOL    HW2 3490   6.262   3.924   4.473 -2.5058 -1.2548  1.8895
  814SOL     OW 3491   8.098   3.044   4.721  0.0829 -0.4900  0.6590
  814SOL    HW1 3492   8.055   3.126   4.693 -1.2458 -1.5180 -0.4451
  814SOL    HW2 3493   8.188   3.070   4.740  0.2731  0.8825 -1.7049
  815SOL     OW 3494   3.089   4.526   6.845  0.1832  0.0663  0.2117
  815SOL    HW1 3495   3.155   4.592   6.822  1.3180 -1.2495 -0.4765
  815SOL    HW2 3496   3.092   4.521   6.940  0.2587  0.8259  0.2533
  816SOL     OW 3497   3.962   7.102   6.420 -0.3039 -0.3390 -0.2905
  816SOL    HW1 3498   4.009   7.178   6.385  1.8545 -0.5317  1.9026
  816SOL    HW2 3499   3.999   7.090   6.507 -2.1899 -2.5815  0.2846
  817SOL     OW 3500   6.853   6.168   1.210  0.2424  0.4889  0.1029
  817SOL    HW1 3501   6.922   6.186   1.273  0.8268 -0.2110 -0.3154
  817SOL    HW2 3502   6.808   6.091   1.245 -0.9050  1.4468  0.8214
  818SOL     OW 3503   5.477   4.811   3.693 -0.2028  0.3616 -0.4039
  818SOL    HW1 3504   5.475   4.890   3.639  0.2216  0.9133  0.3762
  818SOL    HW2 3505   5.531   4.835   3.768  0.1398 -0.7537 -0.2828
  819SOL     OW 3506   3.963   0.179   0.899  0.1080 -0.8097  0.4188
  819SOL    HW1 3507   4.030   0.114   0.880 -1.1103 -2.4311  1.3546
  819SOL    HW2 3508   3.982   0.208   0.988 -0.2356 -1.0520  0.5756
  820SOL     OW 3509   7.651   2.921   2.605 -0.3004  0.5428  0.4740
  820SOL    HW1 3510   7.610   2.835   2.591  0.7269  0.3381 -1.5918
  820SOL    HW2 3511   7.610   2.953   2.686 -0.8330 -1.8067  1.2400
  821SOL     OW 3512   1.414   4.458   3.716  0.2669  0.2770 -0.0559
  821SOL    HW1 3513   1.365   4.539   3.703 -0.0110 -0.0711 -1.3358
  821SOL    HW2 3514   1.350   4.398   3.754 -0.1989 -0.0305 -1.2786
  822SOL     OW 3515   2.801   2.205   2.860 -0.4164 -0.1791  0.0857
  822SOL    HW1 3516   2.892   2.233   2.852 -0.2700 -0.8292 -0.6531
  822SOL    HW2 3517   2.771   2.193   2.770 -0.8342 -1.1811  0.3379
  823SOL     OW 3518   6.211   0.476   4.220 -0.4636  0.0653  0.1522
  823SOL    HW1 3519   6.295   0.498   4.261 -0.1052 -0.8736 -0.0430
  823SOL    HW2 3520   6.184   0.395   4.264 -0.8012 -0.1481 -0.4404
  824SOL     OW 3521   2.629   7.275   7.131 -0.0669  0.3472  0.2744
  824SOL    HW1 3522   2.573   7.228   7.194 -0.7050 -0.2762 -0.7341
  824SOL    HW2 3523   2.628   7.366   7.162  0.2734 -0.0744  1.6147
  825SOL     OW 3524   5.468   4.771   7.176 -0.0267 -0.0455 -0.1449
  825SOL    HW1 3525   5.457   4.678   7.197 -0.0279 -0.2418 -0.9556
  825SOL    HW2 3526   5.502   4.810   7.256 -0.8033 -0.5864  0.4650
  826SOL     OW 3527   5.932   5.926   6.117  0.4943 -0.0109 -0.2102
  826SOL    HW1 3528   5.971   5.860   6.059  0.5319 -0.8748  0.7813
  826SOL    HW2 3529   5.897   5.992   6.057  0.1799 -1.0803 -1.2387
  827SOL     OW 3530   5.307   1.043   7.295 -0.0210 -0.3827  0.2737
  827SOL    HW1 3531   5.390   1.079   7.263 -0.5953  0.0575 -0.7806
  827SOL    HW2 3532   5.251   1.119   7.310 -0.8479 -0.7312 -0.8415
  828SOL     OW 3533   5.351   8.234   3.018 -0.1160  0.0632  0.2175
  828SOL    HW1 3534   5.439   8.210   2.989  0.1118  0.1215  0.8340
  828SOL    HW2 3535   5.293   8.187   2.959  0.3248 -1.1482  0.7120
  829SOL     OW 3536   5.318   8.041   7.995 -0.1684 -0.2494  0.4002
  829SOL    HW1 3537   5.405   8.002   8.004 -0.0920  0.0922  1.1968
  829SOL    HW2 3538   5.275   7.987   7.929 -0.0787 -1.7127  1.5091
  830SOL     OW 3539   8.273   6.702   4.269 -0.0042  0.0117 -0.1414
  830SOL    HW1 3540   8.291   6.637   4.202  1.2507  0.1510  0.0275
  830SOL    HW2 3541   8.178   6.701   4.280 -0.1789 -0.3786 -1.5396
  831SOL     OW 3542   1.975   7.638   0.544 -0.1978  0.2053 -0.4227
  831SOL    HW1 3543   1.934   7.721   0.520 -1.8132 -0.0547  1.2105
  831SOL    HW2 3544   1.901   7.577   0.552  0.6510 -0.6572  1.1988
  832SOL     OW 3545   8.206   1.581   0.302  0.3995  0.0295  0.2022
  832SOL    HW1 3546   8.298   1.565   0.282  0.4993  1.8189 -0.9958
  832SOL    HW2 3547   8.181   1.653   0.244 -2.1259 -1.2533 -0.4680
  833SOL     OW 3548   4.353   1.748   4.853 -0.0278 -0.7145  0.2387
  833SOL    HW1 3549   4.417   1.726   4.921  1.0859 -0.3493 -0.6447
  833SOL    HW2 3550   4.284   1.796   4.899  1.0244  0.0954  1.0305
  834SOL     OW 3551   4.065   3.581   5.672  0.2039  0.5949 -0.3025
  834SOL    HW1 3552   3.976   3.549   5.682  0.5095  0.1378  1.2231
  834SOL    HW2 3553   4.091   3.554   5.584 -0.0777 -2.0802  0.3690
  835SOL     OW 3554   7.053   5.687   4.534 -0.4246  0.2659 -0.4684
  835SOL    HW1 3555   7.073   5.631   4.459 -0.4039 -0.6016  0.1676
  835SOL    HW2 3556   6.962   5.715   4.519  0.1877  1.7067 -1.7901
  836SOL     OW 3557   6.613   5.203   5.475  0.6867 -0.3317  0.0746
  836SOL    HW1 3558   6.584   5.250   5.397 -2.6795 -2.3102 -0.0767
  836SOL    HW2 3559   6.692   5.156   5.448  1.2903  1.3181 -1.1786
  837SOL     OW 3560   8.030   2.713   1.067  0.3011  0.0521 -0.7625
  837SOL    HW1 3561   8.116   2.672   1.057 -0.9081 -2.9601 -0.1258
  837SOL    HW2 3562   7.983   2.691   0.986 -0.3517  0.2655 -0.4546
  838SOL     OW 3563   6.175   5.961   4.250  0.1434  0.4853 -0.2307
  838SOL    HW1 3564   6.151   6.006   4.170  1.0655  0.6429 -0.4355
  838SOL    HW2 3565   6.197   5.872   4.222  1.9875  0.9612 -0.4210
  839SOL     OW 3566   4.573   1.206   7.867 -0.6426  0.2087  0.6374
  839SOL    HW1 3567   4.619   1.142   7.812 -2.1363 -1.0679  0.8006
  839SOL    HW2 3568   4.580   1.170   7.956  0.4229  1.4672  1.1051
  840SOL     OW 3569   1.098   6.283   0.807 -0.2428  0.4983  0.0816
  840SOL    HW1 3570   1.147   6.288   0.725 -1.0000 -0.1647 -0.4284
  840SOL    HW2 3571   1.011   6.253   0.781 -0.4649  0.1861  1.1381
  841SOL     OW 3572   5.262   2.015   4.505  0.0081 -0.9084  0.3444
  841SOL    HW1 3573   5.345   2.054   4.532 -0.3049  0.4260 -0.5147
  841SOL    HW2 3574   5.274   1.998   4.411 -0.5510 -1.0784  0.3032
  842SOL     OW 3575   0.330   3.223   2.136  0.0876  0.3217  0.1302
  842SOL    HW1 3576   0.405   3.218   2.077 -0.2042 -0.4554 -0.1758
  842SOL    HW2 3577   0.291   3.136   2.134 -0.6163  0.6166  0.5668
  843SOL     OW 3578   1.955   1.595   3.621  0.1406 -0.3556 -0.0112
  843SOL    HW1 3579   1.875   1.556   3.656  1.2708  0.1880  3.5996
  843SOL    HW2 3580   1.925   1.669   3.569 -1.7410 -1.7013 -0.9482
  844SOL     OW 3581   3.542   7.851   6.759  0.0959  0.2630  0.2146
  844SOL    HW1 3582   3.496   7.772   6.733  0.1137 -0.0845  1.2117
  844SOL    HW2 3583   3.634   7.833   6.737  0.0418  0.1801  0.0523
  845SOL     OW 3584   0.949   7.204   0.679  0.3069  0.0147  0.6399
  845SOL    HW1 3585   0.893   7.250   0.740 -0.6967  0.7559 -0.7742
  845SOL    HW2 3586   0.894   7.134   0.644  1.1698 -1.0043  1.2524
  846SOL     OW 3587   4.528   1.179   3.431  0.0189  0.1391  0.1950
  846SOL    HW1 3588   4.498   1.220   3.512  1.8706  0.5720  0.6889
  846SOL    HW2 3589   4.544   1.253   3.372 -1.2781 -0.1708 -0.5986
  847SOL     OW 3590   6.628   0.046   7.078  0.2220  0.6945  0.4297
  847SOL    HW1 3591   6.565   0.020   7.011  1.1320  2.1388 -1.0590
  847SOL    HW2 3592   6.688  -0.028   7.086  0.8382  0.9625 -1.3138
  848SOL     OW 3593   2.379   1.549   3.691 -0.2145  0.0367  0.1236
  848SOL    HW1 3594   2.461   1.513   3.658 -0.7989 -1.0137 -0.2271
  848SOL    HW2 3595   2.388   1.547   3.786 -0.6873 -2.2335  0.1690
  849SOL     OW 3596   5.511   5.406   4.620 -0.3686  0.4004 -0.5754
  849SOL    HW1 3597   5.529   5.385   4.529 -0.0329  2.3631 -1.0170
  849SOL    HW2 3598   5.452   5.482   4.616  1.0713  1.6708  0.7835
  850SOL     OW 3599   7.874   6.250   4.361  0.2012  0.4035 -0.7911
  850SOL    HW1 3600   7.917   6.164   4.355  0.7618  0.6348 -0.1798
  850SOL    HW2 3601   7.941   6.312   4.332  0.5618  0.8400  0.8703
  851SOL     OW 3602   2.538   0.732   5.834 -0.7061 -0.0425  0.4442
  851SOL    HW1 3603   2.618   0.712   5.882  1.1581 -1.0599 -2.8140
  851SOL    HW2 3604   2.479   0.659   5.853  0.1663 -0.6601  0.8090
  852SOL     OW 3605   6.568   8.278   5.582  0.0561  0.5209 -0.0030
  852SOL    HW1 3606   6.480   8.250   5.561 -0.5534  0.9416  1.7698
  852SOL    HW2 3607   6.606   8.203   5.629  0.3791  0.6039 -0.1320
  853SOL     OW 3608   4.947   5.874   8.057 -0.1541 -0.0933 -0.8400
  853SOL    HW1 3609   5.042   5.889   8.050 -0.4255  1.9211 -0.6453
  853SOL    HW2 3610   4.936   5.783   8.029  1.8615 -0.4610 -0.6185
  854SOL     OW 3611   1.562   2.119   5.895  0.2483  0.2991  0.0002
  854SOL    HW1 3612   1.637   2.171   5.926  0.0833  0.4816  0.0993
  854SOL    HW2 3613   1.601   2.042   5.854  0.4919  0.4187  0.0069
  855SOL     OW 3614   3.310   7.651   5.055 -0.1286  0.4889  0.3925
  855SOL    HW1 3615   3.232   7.704   5.068 -0.3943  0.1077  0.3602
  855SOL    HW2 3616   3.330   7.615   5.141 -0.7720 -0.4888  0.1520
  856SOL     OW 3617   0.746   4.414   4.891  0.2989 -0.3858  0.0457
  856SOL    HW1 3618   0.765   4.333   4.844  2.3800 -0.6403  1.2280
  856SOL    HW2 3619   0.829   4.441   4.930 -0.4645  1.9827  0.2605
  857SOL     OW 3620   7.024   1.142   0.569 -0.4601  0.5392  0.2915
  857SOL    HW1 3621   7.092   1.169   0.507 -0.6871  0.7333  0.1271
  857SOL    HW2 3622   7.072   1.094   0.637 -0.0112  1.6352  0.7622
  858SOL     OW 3623   1.930   4.140   0.403  0.4760  0.0372  0.4556
  858SOL    HW1 3624   1.835   4.130   0.409  0.2346 -2.2759 -3.7143
  858SOL    HW2 3625   1.942   4.231   0.377 -0.6224  0.2320  0.5647
  859SOL     OW 3626   7.631   4.251   5.511  0.1726 -0.2572 -0.1203
  859SOL    HW1 3627   7.681   4.220   5.586 -0.3755  0.8625  0.7471
  859SOL    HW2 3628   7.682   4.325   5.478  0.8725 -1.2851 -1.4352
  860SOL     OW 3629   3.145   5.379   6.920 -0.1081  0.1921  0.1366
  860SOL    HW1 3630   3.234   5.391   6.953  0.0465 -0.8361  0.1012
  860SOL    HW2 3631   3.156   5.369   6.825 -0.2504 -0.0198  0.1422
  861SOL     OW 3632   2.782   8.186   4.932 -0.1229 -0.0122  0.0819
  861SOL    HW1 3633   2.745   8.180   5.019  0.3594  0.6234  0.3440
  861SOL    HW2 3634   2.718   8.237   4.882 -0.7003 -0.9177 -0.1200
  862SOL     OW 3635   5.535   5.216   7.596  0.4413 -0.3513 -0.2187
  862SOL    HW1 3636   5.445   5.195   7.621  0.3186 -0.7763 -1.0128
  862SOL    HW2 3637   5.533   5.311   7.582 -0.0174 -0.4357 -0.7700
  863SOL     OW 3638   5.369   4.147   0.819  0.3669  0.3297  0.4933
  863SOL    HW1 3639   5.412   4.180   0.898  0.8246 -0.2956  0.5093
  863SOL    HW2 3640   5.381   4.052   0.823  0.9875  0.3454 -0.6707
  864SOL     OW 3641   4.628   6.526   0.902 -0.2138 -0.1539  0.2237
  864SOL    HW1 3642   4.710   6.570   0.879 -0.4883  0.6377  0.7027
  864SOL    HW2 3643   4.566   6.598   0.917 -1.4164 -0.7304 -1.6001
  865SOL     OW 3644   0.482   3.662   1.779  0.3838  0.3387  0.1842
  865SOL    HW1 3645   0.499   3.570   1.796 -1.5862  0.2952  2.5845
  865SOL    HW2 3646   0.417   3.662   1.708 -0.4424 -0.2173  0.9163
  866SOL     OW 3647   5.506   0.845   0.823 -0.2731  0.2843 -0.0701
  866SOL    HW1 3648   5.496   0.921   0.879  2.3850 -0.0007  0.9111
  866SOL    HW2 3649   5.505   0.770   0.883  4.0971  0.0578  0.0088
  867SOL     OW 3650   5.979   2.195   5.795 -0.0206 -0.8590 -0.0577
  867SOL    HW1 3651   6.010   2.142   5.721 -1.0681 -2.4190  0.5736
  867SOL    HW2 3652   6.000   2.285   5.770 -0.2348 -1.3490 -2.1951
  868SOL     OW 3653   4.019   8.009   6.525 -0.0077  0.3278 -0.5490
  868SOL    HW1 3654   3.963   7.952   6.577  0.8199  1.4281  1.6836
  868SOL    HW2 3655   3.959   8.055   6.466 -1.3221  0.6293  0.9577
  869SOL     OW 3656   1.755   2.314   5.976 -0.1224 -0.7357  0.5484
  869SOL    HW1 3657   1.797   2.358   6.051 -0.0249 -0.8144  0.5399
  869SOL    HW2 3658   1.673   2.362   5.963  0.3601 -0.0299  0.0261
  870SOL     OW 3659   7.391   6.736   3.845  0.3197  0.2661  0.1732
  870SOL    HW1 3660   7.392   6.802   3.914  1.6304 -0.2907  0.7209
  870SOL    HW2 3661   7.445   6.664   3.879  1.4553  0.2011 -1.6135
  871SOL     OW 3662   6.446   4.285   4.759  0.1202  0.1151  0.4757
  871SOL    HW1 3663   6.430   4.376   4.734 -1.2572 -0.5340 -1.2338
  871SOL    HW2 3664   6.537   4.269   4.736 -0.5156  0.1482 -2.5000
  872SOL     OW 3665   1.925   4.260   8.184  0.5604  0.0119 -0.2532
  872SOL    HW1 3666   2.010   4.283   8.223  1.3469 -2.1638 -0.4897
  872SOL    HW2 3667   1.948   4.215   8.103 -0.8957  0.4228 -0.9253
  873SOL     OW 3668   4.239   1.824   1.706 -0.1687  0.7726  0.1227
  873SOL    HW1 3669   4.274   1.896   1.757  1.9032 -0.3952  0.4647
  873SOL    HW2 3670   4.226   1.860   1.618  1.3891  1.4378  0.1392
  874SOL     OW 3671   4.726   7.327   1.475  0.7633 -0.0168  0.2427
  874SOL    HW1 3672   4.800   7.269   1.492  0.2926 -1.0536 -0.9925
  874SOL    HW2 3673   4.692   7.351   1.561  0.3605 -2.4366  0.8331
  875SOL     OW 3674   3.285   2.610   7.330 -0.5156 -0.6057 -0.5409
  875SOL    HW1 3675   3.244   2.578   7.410  2.0653  0.0780  1.2043
  875SOL    HW2 3676   3.368   2.562   7.325  1.4051  2.4205 -0.3100
  876SOL     OW 3677   5.181   7.733   3.155 -0.0558  0.1219 -0.0096
  876SOL    HW1 3678   5.173   7.638   3.161 -0.5527  0.0624 -1.2283
  876SOL    HW2 3679   5.275   7.750   3.166  0.2435 -0.6484 -1.1565
  877SOL     OW 3680   2.118   0.466   5.928  0.3134 -0.3298 -0.7296
  877SOL    HW1 3681   2.202   0.510   5.944 -0.1158  0.5391 -0.8322
  877SOL    HW2 3682   2.062   0.493   6.001  0.0855 -0.8169 -0.7205
  878SOL     OW 3683   7.239   7.377   2.122 -0.3095 -0.2577  0.5791
  878SOL    HW1 3684   7.247   7.374   2.217  1.8226 -2.4867  0.4433
  878SOL    HW2 3685   7.322   7.414   2.092 -1.0357  0.6215 -0.4263
  879SOL     OW 3686   6.701   7.943   3.290  0.2741  0.0805  0.4099
  879SOL    HW1 3687   6.767   7.972   3.226 -0.0337 -1.4673 -0.6874
  879SOL    HW2 3688   6.700   7.847   3.281 -1.2174 -0.0227  1.3056
  880SOL     OW 3689   7.236   7.120   4.557 -0.6155 -0.6279  0.3639
  880SOL    HW1 3690   7.222   7.046   4.497 -3.4696  0.8169 -0.9333
  880SOL    HW2 3691   7.175   7.104   4.629 -0.0275 -0.3552  0.9339
  881SOL     OW 3692   0.343   2.690   7.854 -0.1763  0.1396 -0.1100
  881SOL    HW1 3693   0.439   2.681   7.854 -0.1564  0.2302 -0.8285
  881SOL    HW2 3694   0.326   2.774   7.895 -0.0519 -0.6273  1.5885
  882SOL     OW 3695   5.291   5.350   4.027 -0.1588  0.1156  0.1739
  882SOL    HW1 3696   5.341   5.414   3.977 -0.3158 -0.3189 -0.5466
  882SOL    HW2 3697   5.325   5.265   3.999 -1.2587 -0.1816 -0.2859
  883SOL     OW 3698   5.592   1.793   7.683  0.5264 -0.0967  0.4826
  883SOL    HW1 3699   5.641   1.727   7.634  0.6579 -1.8319  2.7782
  883SOL    HW2 3700   5.529   1.743   7.734 -0.6742  1.7528  0.8975
  884SOL     OW 3701   6.736   0.803   4.841  0.9000 -0.0596  0.4553
  884SOL    HW1 3702   6.688   0.735   4.793  1.5840 -0.2079 -0.0327
  884SOL    HW2 3703   6.828   0.780   4.829  1.1462  1.0212  0.1862
  885SOL     OW 3704   1.588   5.202   3.101  0.5772  0.2390 -0.5600
  885SOL    HW1 3705   1.672   5.216   3.144 -0.8733  1.2256  2.1867
  885SOL    HW2 3706   1.610   5.151   3.022  3.4879 -1.3632  1.0938
  886SOL     OW 3707   1.920   0.838   3.330  0.2329 -0.2361  0.2365
  886SOL    HW1 3708   1.898   0.804   3.243 -0.6097 -0.7548  0.6419
  886SOL    HW2 3709   1.926   0.761   3.385 -1.6958  0.2163  1.1702
  887SOL     OW 3710   0.159   0.356   0.983 -0.3511  0.2127 -0.2769
  887SOL    HW1 3711   0.223   0.349   0.912  0.4551 -0.3872  0.4872
  887SOL    HW2 3712   0.183   0.434   1.031 -0.0693 -0.1183  0.1249
  888SOL     OW 3713   7.035   3.474   0.772 -0.3183  0.4143 -0.2960
  888SOL    HW1 3714   7.010   3.381   0.766 -0.7346  0.5693 -1.1614
  888SOL    HW2 3715   7.129   3.475   0.756 -0.6146  0.3077 -2.3721
  889SOL     OW 3716   3.115   0.400   0.037  0.0785 -0.0965 -0.0921
  889SOL    HW1 3717   3.020   0.411   0.038  0.1271  0.3520  1.1604
  889SOL    HW2 3718   3.142   0.432  -0.049 -0.8993 -0.2606 -0.4724
  890SOL     OW 3719   4.785   0.756   1.800 -0.2393 -0.8240 -0.0826
  890SOL    HW1 3720   4.742   0.745   1.885  1.3626 -1.3856  0.7100
  890SOL    HW2 3721   4.754   0.682   1.748 -0.0752 -1.3540  0.5533
  891SOL     OW 3722   5.723   1.982   3.098  0.6706 -0.3510 -0.4102
  891SOL    HW1 3723   5.667   2.017   3.029 -2.2116 -1.0733  1.4315
  891SOL    HW2 3724   5.762   1.904   3.059  0.0248 -0.1280 -1.5569
  892SOL     OW 3725   7.979   1.880   6.093  0.1562  0.2303  0.4213
  892SOL    HW1 3726   7.953   1.891   6.002 -1.6444 -2.2203  0.5504
  892SOL    HW2 3727   8.033   1.801   6.093  0.8475  0.6808  1.3733
  893SOL     OW 3728   7.890   7.007   4.154 -0.2795  0.5680 -0.2626
  893SOL    HW1 3729   7.822   6.994   4.219  0.2929 -0.0424  0.2238
  893SOL    HW2 3730   7.848   7.059   4.085 -1.1779  0.3435  0.1061
  894SOL     OW 3731   0.802   4.866   4.820  0.5991 -0.4588 -0.0117
  894SOL    HW1 3732   0.746   4.916   4.762 -0.1681  1.5208  2.2942
  894SOL    HW2 3733   0.744   4.801   4.860 -0.2272  1.5967  2.3830
  895SOL     OW 3734   3.552   5.034   2.046  0.3078 -0.3394  0.0942
  895SOL    HW1 3735   3.589   4.950   2.074  1.8355  0.4939  0.7258
  895SOL    HW2 3736   3.615   5.099   2.077 -0.6089  1.0183 -0.7780
  896SOL     OW 3737   0.912   7.894   0.295  0.4814  0.0787 -0.3410
  896SOL    HW1 3738   0.969   7.965   0.266  0.3879  0.0241 -0.6560
  896SOL    HW2 3739   0.825   7.921   0.268  0.1203  0.9047  1.4925
  897SOL     OW 3740   3.312   4.785   7.079  0.2432 -0.9683  0.5368
  897SOL    HW1 3741   3.334   4.697   7.050  0.6139 -1.0648  1.0970
  897SOL    HW2 3742   3.396   4.830   7.084 -0.0001 -0.3808 -0.3664
  898SOL     OW 3743   5.284   6.697   1.969 -0.4017 -0.0919  0.1373
  898SOL    HW1 3744   5.189   6.714   1.971 -0.3952  0.3800 -1.7216
  898SOL    HW2 3745   5.308   6.708   1.877  1.2911 -1.2465  0.4046
  899SOL     OW 3746   0.831   6.198   1.722  0.1750  0.5171 -0.1422
  899SOL    HW1 3747   0.799   6.219   1.634  0.0921  0.6759 -0.0748
  899SOL    HW2 3748   0.762   6.229   1.781 -0.8442 -1.6430 -0.1097
  900SOL     OW 3749   1.282   4.312   1.373 -0.2229  0.1176 -0.2701
  900SOL    HW1 3750   1.232   4.273   1.301 -3.0220  1.7145  0.6205
  900SOL    HW2 3751   1.304   4.400   1.342 -0.1396  0.2907  0.2724
  901SOL     OW 3752   3.483   2.471   6.897 -0.2300  0.0410  0.4177
  901SOL    HW1 3753   3.496   2.468   6.991 -1.4747 -0.7659  0.5775
  901SOL    HW2 3754   3.399   2.428   6.882  0.3801 -0.6852 -1.1462
  902SOL     OW 3755   2.478   2.567   4.202  0.1180  0.4888  0.3131
  902SOL    HW1 3756   2.499   2.625   4.128  2.6650 -1.5226 -0.7086
  902SOL    HW2 3757   2.515   2.611   4.278 -0.3941  1.4540  0.0237
  903SOL     OW 3758   0.432   0.115   6.468  0.0234 -0.1951 -0.5191
  903SOL    HW1 3759   0.336   0.108   6.465  0.0959 -1.4421 -0.4472
  903SOL    HW2 3760   0.448   0.207   6.489 -1.1449  0.1685 -1.1220
  904SOL     OW 3761   4.032   0.622   1.442  0.2677  0.5059 -0.0631
  904SOL    HW1 3762   4.030   0.712   1.409  2.3086  0.7447  0.3399
  904SOL    HW2 3763   4.070   0.629   1.529 -1.0152 -0.6104  0.6339
  905SOL     OW 3764   5.865   2.093   4.846  0.4115 -0.3756 -0.1697
  905SOL    HW1 3765   5.843   2.002   4.863  1.1878 -0.3918  0.8938
  905SOL    HW2 3766   5.879   2.098   4.752 -1.3211 -0.9562 -0.4911
  906SOL     OW 3767   6.141   3.316   4.191  0.3840 -0.0994 -0.1819
  906SOL    HW1 3768   6.080   3.248   4.163 -0.6725  0.3542  0.9589
  906SOL    HW2 3769   6.173   3.287   4.276 -0.0034  0.7708  0.2751
  907SOL     OW 3770   4.837   4.117   5.573  0.3527  0.3339 -0.1655
  907SOL    HW1 3771   4.836   4.205   5.535  2.1619  0.2013 -0.5980
  907SOL    HW2 3772   4.841   4.132   5.668  0.9440  0.7334 -0.2470
  908SOL     OW 3773   3.039   7.717   1.894 -0.3883  0.0249 -0.2032
  908SOL    HW1 3774   3.090   7.775   1.950 -0.6204 -0.2207  0.2794
  908SOL    HW2 3775   2.962   7.769   1.870  0.2252  0.5053 -1.1938
  909SOL     OW 3776   2.117   1.685   5.334  0.0348  0.6528  0.4345
  909SOL    HW1 3777   2.159   1.717   5.414  0.5382 -1.3747  1.0194
  909SOL    HW2 3778   2.187   1.685   5.268  0.1126  0.4307  0.5189
  910SOL     OW 3779   6.301   1.266   6.043  0.6743 -0.0942  0.2622
  910SOL    HW1 3780   6.352   1.336   6.085 -0.0318  2.1058 -2.2413
  910SOL    HW2 3781   6.224   1.311   6.009 -1.5068 -2.7627  1.2901
  911SOL     OW 3782   8.261   3.744   7.898  0.5169 -0.2216  0.1258
  911SOL    HW1 3783   8.289   3.810   7.834 -0.6006  0.8524  0.7034
  911SOL    HW2 3784   8.183   3.706   7.859  0.6677 -0.5940  0.1897
  912SOL     OW 3785   5.929   6.481   3.731  0.0704 -0.0353 -0.0971
  912SOL    HW1 3786   6.022   6.457   3.722 -0.2484 -1.4969  0.2324
  912SOL    HW2 3787   5.913   6.478   3.825 -0.6570 -1.3302 -0.2312
  913SOL     OW 3788   5.226   2.520   0.905 -0.4604 -0.1614  0.1469
  913SOL    HW1 3789   5.218   2.428   0.878  1.4504 -0.2894 -0.1630
  913SOL    HW2 3790   5.178   2.569   0.839  0.2746 -0.8114 -0.9052
  914SOL     OW 3791   6.875   3.090   4.592 -0.2506  0.0245 -0.8710
  914SOL    HW1 3792   6.898   3.138   4.671 -0.2213  2.8679 -2.4509
  914SOL    HW2 3793   6.807   3.143   4.551 -2.6002 -3.0015 -1.2746
  915SOL     OW 3794   0.059   4.382   7.093  0.4464 -0.5723  0.0232
  915SOL    HW1 3795  -0.004   4.348   7.030  0.3288  0.9484 -0.7189
  915SOL    HW2 3796   0.020   4.363   7.178  0.0391 -1.5788 -0.3715
  916SOL     OW 3797   1.461   3.882   1.791 -0.2485 -0.1632 -0.0621
  916SOL    HW1 3798   1.463   3.787   1.776 -3.4315 -0.4251  0.5298
  916SOL    HW2 3799   1.439   3.919   1.706  0.9418  0.0772 -0.2799
  917SOL     OW 3800   2.239   3.091   3.975  0.1407 -0.5765 -0.2426
  917SOL    HW1 3801   2.252   3.011   4.026 -0.4864 -1.0631 -0.8367
  917SOL    HW2 3802   2.325   3.133   3.975 -0.0841  0.0653  2.2240
  918SOL     OW 3803   5.339   1.250   4.841 -0.0005  0.2017  0.3319
  918SOL    HW1 3804   5.332   1.266   4.747  2.3568 -1.1032 -0.1278
  918SOL    HW2 3805   5.261   1.293   4.878 -1.4614  0.0136 -2.2694
  919SOL     OW 3806   0.292   5.979   1.664  0.2996 -0.0430  0.5928
  919SOL    HW1 3807   0.319   5.931   1.743 -0.2338 -1.8006 -0.2275
  919SOL    HW2 3808   0.265   5.910   1.603  1.3533  1.2069 -1.3867
  920SOL     OW 3809   5.384   5.555   8.242  0.0064 -0.6417 -0.3253
  920SOL    HW1 3810   5.464   5.607   8.248 -0.5384  0.2921 -0.8726
  920SOL    HW2 3811   5.401   5.479   8.297  0.7546  0.2088  0.6588
  921SOL     OW 3812   0.325   8.154   8.174  0.1389  0.3005  0.5365
  921SOL    HW1 3813   0.312   8.235   8.224 -1.5901 -0.3612  1.2038
  921SOL    HW2 3814   0.259   8.157   8.105 -0.3580 -0.8128  0.9400
  922SOL     OW 3815   3.202   5.295   6.670  0.2685  0.5368 -0.3209
  922SOL    HW1 3816   3.135   5.334   6.614 -0.4541  0.3587  0.4025
  922SOL    HW2 3817   3.285   5.318   6.628 -0.2688 -1.4459 -2.7120
  923SOL     OW 3818   4.034   5.742   4.268 -0.1527  0.2508 -0.0984
  923SOL    HW1 3819   3.965   5.786   4.218 -0.4054  1.7132  1.4474
  923SOL    HW2 3820   4.113   5.791   4.246 -0.2088  0.6871  0.6339
  924SOL     OW 3821   1.131   7.060   2.842  0.0912  0.0508  0.0642
  924SOL    HW1 3822   1.141   7.086   2.751  2.1364 -2.0535 -0.3919
  924SOL    HW2 3823   1.069   6.986   2.840  0.2889 -0.1281  0.3393
  925SOL     OW 3824   4.552   1.138   5.979 -0.2144  0.2434 -0.2195
  925SOL    HW1 3825   4.569   1.064   5.920  0.3915  0.7632 -0.7148
  925SOL    HW2 3826   4.487   1.191   5.933  0.4658  0.7969 -0.5658
  926SOL     OW 3827   2.571   4.663   2.509 -0.6057 -0.5498 -0.2308
  926SOL    HW1 3828   2.639   4.704   2.455 -0.6561  0.0496  0.1590
  926SOL    HW2 3829   2.598   4.572   2.515  2.3061  0.2969  3.0614
  927SOL     OW 3830   5.335   6.359   4.859 -0.3884 -0.0800  0.3477
  927SOL    HW1 3831   5.413   6.410   4.878 -0.6744 -0.0024  1.3920
  927SOL    HW2 3832   5.365   6.289   4.801 -0.0497  1.4350 -1.4046
  928SOL     OW 3833   7.638   0.708   2.690  0.4968  0.0952 -0.5754
  928SOL    HW1 3834   7.609   0.732   2.778  0.0804 -1.0185 -0.3961
  928SOL    HW2 3835   7.691   0.629   2.703  0.7257  0.1259 -1.2857
  929SOL     OW 3836   0.639   7.177   1.439  0.3116  0.7784  0.0922
  929SOL    HW1 3837   0.619   7.185   1.346  0.7653 -1.4737 -0.2681
  929SOL    HW2 3838   0.554   7.156   1.480  0.2176  1.1757  0.1050
  930SOL     OW 3839   1.937   7.930   3.684  0.2168 -0.1939 -0.3233
  930SOL    HW1 3840   1.991   7.931   3.763  0.3185 -0.3225 -0.3915
  930SOL    HW2 3841   1.878   8.005   3.695 -0.6227 -0.9408  0.4626
  931SOL     OW 3842   0.738   7.474   0.467  0.6425  0.3034  0.1170
  931SOL    HW1 3843   0.661   7.514   0.506  0.6690  0.8544 -0.3866
  931SOL    HW2 3844   0.805   7.542   0.471  1.2233 -0.2884  0.8923
  932SOL     OW 3845   3.606   4.083   1.167 -0.1125  0.3188 -0.0510
  932SOL    HW1 3846   3.550   4.005   1.169 -0.8818  0.8652  0.4698
  932SOL    HW2 3847   3.631   4.097   1.258  0.8785  0.0934 -0.2768
  933SOL     OW 3848   0.270   2.593   7.516  0.1909 -0.3099 -0.3611
  933SOL    HW1 3849   0.334   2.663   7.529 -0.0005 -0.1536 -0.2492
  933SOL    HW2 3850   0.287   2.532   7.587  0.0892 -0.1722 -0.2166
  934SOL     OW 3851   3.177   7.456   5.350 -0.0663  0.2894 -0.2180
  934SOL    HW1 3852   3.251   7.461   5.411 -0.3678 -0.1680  0.1897
  934SOL    HW2 3853   3.119   7.390   5.388 -1.2592  1.4800  0.0838
  935SOL     OW 3854   4.708   5.374   6.050 -0.2146 -0.2153  0.4150
  935SOL    HW1 3855   4.645   5.347   5.983 -0.1457  1.2887 -0.3054
  935SOL    HW2 3856   4.660   5.367   6.133 -0.7724 -0.7031  0.0566
  936SOL     OW 3857   5.657   4.695   2.493  0.8715  0.0966 -0.1200
  936SOL    HW1 3858   5.594   4.631   2.527 -0.4697 -1.0390 -4.1121
  936SOL    HW2 3859   5.603   4.770   2.469  1.3175 -0.0448 -1.6581
  937SOL     OW 3860   6.472   2.771   5.594  0.5403  0.1578 -0.2198
  937SOL    HW1 3861   6.505   2.807   5.512  1.2595 -2.1114 -1.0071
  937SOL    HW2 3862   6.383   2.806   5.601  0.4428  0.3585 -2.0074
  938SOL     OW 3863   3.311   6.998   7.845  0.1043  0.0923  0.2478
  938SOL    HW1 3864   3.305   6.956   7.759 -1.6499 -1.9904  1.2747
  938SOL    HW2 3865   3.395   6.969   7.880  0.3200  0.0341 -0.3140
  939SOL     OW 3866   0.933   0.276   2.840  0.1826  0.2157 -0.4002
  939SOL    HW1 3867   1.019   0.282   2.882 -0.2179  0.4302  0.3919
  939SOL    HW2 3868   0.872   0.316   2.902 -0.5522 -0.2689 -0.7893
  940SOL     OW 3869   2.882   4.237   5.069 -0.6143  0.4128  0.6006
  940SOL    HW1 3870   2.925   4.323   5.071 -0.2263  0.2184  2.3592
  940SOL    HW2 3871   2.934   4.186   5.006 -0.7206  1.3687 -0.3043
  941SOL     OW 3872   1.908   5.764   2.852 -0.4110  0.4139  0.2499
  941SOL    HW1 3873   1.903   5.860   2.853  1.0671  0.5722 -1.3975
  941SOL    HW2 3874   1.976   5.743   2.916  0.5887  0.6271 -0.7183
  942SOL     OW 3875   7.275   3.846   6.061  0.7276  0.2262 -0.0885
  942SOL    HW1 3876   7.233   3.796   5.992 -0.5479  2.5950 -1.1610
  942SOL    HW2 3877   7.203   3.880   6.114  1.4058  1.8545 -0.1324
  943SOL     OW 3878   6.462   8.101   3.272 -0.2507  0.0666  0.0024
  943SOL    HW1 3879   6.532   8.054   3.318 -0.5556 -1.8885 -1.3874
  943SOL    HW2 3880   6.382   8.055   3.296 -0.8088  0.9712 -0.0749
  944SOL     OW 3881   7.100   4.244   2.519 -0.2904 -0.0938  0.0303
  944SOL    HW1 3882   7.076   4.335   2.535  0.3344  0.2399 -0.8552
  944SOL    HW2 3883   7.175   4.248   2.460  1.2119 -1.1326  1.7707
  945SOL     OW 3884   4.510   2.786   0.155  0.7933 -0.0161 -0.0452
  945SOL    HW1 3885   4.455   2.832   0.091 -0.2984  0.4441  1.1661
  945SOL    HW2 3886   4.592   2.770   0.110  0.3228  0.9736 -1.3066
  946SOL     OW 3887   7.857   5.483   0.765 -0.0659  0.0941 -0.2269
  946SOL    HW1 3888   7.774   5.454   0.727 -0.5026  1.3827 -0.3050
  946SOL    HW2 3889   7.895   5.540   0.699  0.5893  0.0001  0.0657
  947SOL     OW 3890   1.371   2.993   5.892  0.0384  0.1066 -0.3913
  947SOL    HW1 3891   1.387   3.017   5.983  0.3529  1.2566 -0.7406
  947SOL    HW2 3892   1.278   2.968   5.890 -0.8269  3.0158 -0.3368
  948SOL     OW 3893   0.319   1.041   2.067  0.1521  0.1383 -0.5048
  948SOL    HW1 3894   0.393   1.091   2.034 -0.2030  0.2544 -1.1493
  948SOL    HW2 3895   0.310   0.969   2.005  0.4033 -0.4981  0.1829
  949SOL     OW 3896   7.201   7.607   7.552 -0.2793  0.4581  0.3331
  949SOL    HW1 3897   7.219   7.669   7.623 -0.0296 -0.6077  1.2227
  949SOL    HW2 3898   7.287   7.568   7.533 -0.0468  1.6919 -1.5345
  950SOL     OW 3899   3.349   2.226   6.094 -0.2308  0.4771  0.4851
  950SOL    HW1 3900   3.388   2.151   6.138  0.0036  0.3311  0.0262
  950SOL    HW2 3901   3.423   2.275   6.059 -0.3985  0.7725  0.5422
  951SOL     OW 3902   4.047   6.155   6.095  0.1500  0.0377 -0.4716
  951SOL    HW1 3903   3.984   6.178   6.026 -1.4882 -0.4999  0.7951
  951SOL    HW2 3904   3.995   6.111   6.161  1.8200 -0.0800  0.8145
  952SOL     OW 3905   1.377   1.172   6.052 -0.0760  0.4288  0.1788
  952SOL    HW1 3906   1.348   1.264   6.054 -2.0887 -0.1399 -0.5396
  952SOL    HW2 3907   1.332   1.132   6.127 -0.8243 -0.3785 -0.6792
  953SOL     OW 3908   0.933   1.599   4.005  0.4885  0.2431  0.0794
  953SOL    HW1 3909   1.017   1.603   3.960  1.3408  0.3673  1.6383
  953SOL    HW2 3910   0.952   1.626   4.095 -1.1570 -0.0489  0.5469
  954SOL     OW 3911   5.243   7.137   1.569 -0.0485  0.0668 -0.4334
  954SOL    HW1 3912   5.261   7.185   1.650  1.4578  2.4505 -2.0419
  954SOL    HW2 3913   5.326   7.138   1.522 -0.8701 -1.2808 -2.0229
  955SOL     OW 3914   0.006   0.960   5.108  0.6799 -0.6103 -0.1438
  955SOL    HW1 3915  -0.011   0.959   5.202 -0.1825  0.8817 -0.2517
  955SOL    HW2 3916   0.098   0.984   5.100  0.4056  0.6785  0.3248
  956SOL     OW 3917   4.294   7.285   0.579  0.7275 -0.4511 -0.4339
  956SOL    HW1 3918   4.232   7.249   0.516  1.3645 -1.1690 -0.6674
  956SOL    HW2 3919   4.359   7.216   0.591 -0.5523 -1.3098  2.7031
  957SOL     OW 3920   3.708   4.757   2.136 -0.0010  0.5230 -0.1003
  957SOL    HW1 3921   3.643   4.691   2.113  2.0383 -1.6582  0.0676
  957SOL    HW2 3922   3.777   4.747   2.070  1.4604  0.8249  1.3220
  958SOL     OW 3923   2.352   7.348   5.688  0.2892  0.0554 -0.0379
  958SOL    HW1 3924   2.306   7.277   5.732 -0.2582  0.2890 -0.2251
  958SOL    HW2 3925   2.388   7.308   5.609 -1.9040  0.4310 -1.3270
  959SOL     OW 3926   2.846   1.197   7.118 -0.0485 -0.4591  0.6014
  959SOL    HW1 3927   2.917   1.194   7.182  0.5154  2.2497  0.2048
  959SOL    HW2 3928   2.874   1.135   7.050  1.0588 -0.7359  1.2792
  960SOL     OW 3929   4.576   5.152   1.585  0.8047 -0.4711  0.5408
  960SOL    HW1 3930   4.482   5.165   1.595  0.4869 -1.8159 -0.3273
  960SOL    HW2 3931   4.605   5.118   1.669  0.8009  1.2432  1.2675
  961SOL     OW 3932   3.428   3.252   0.407  0.0449  0.5437 -0.2775
  961SOL    HW1 3933   3.368   3.208   0.468  2.1728 -1.2851  0.6264
  961SOL    HW2 3934   3.450   3.184   0.343  1.6642  0.9356 -0.1777
  962SOL     OW 3935   6.492   2.962   5.324 -0.0657 -0.1922 -0.6615
  962SOL    HW1 3936   6.406   2.927   5.299 -0.5015  0.6813 -0.4411
  962SOL    HW2 3937   6.473   3.049   5.358  0.9137  0.0012 -0.5787
  963SOL     OW 3938   1.542   2.081   6.755  0.0114 -0.2497  0.1697
  963SOL    HW1 3939   1.505   2.158   6.799 -0.1605  0.5789 -1.3598
  963SOL    HW2 3940   1.635   2.083   6.776 -0.2695 -0.6978  1.6376
  964SOL     OW 3941   1.302   6.950   0.846  0.6310 -0.3449 -0.4872
  964SOL    HW1 3942   1.274   6.987   0.762  1.9021 -0.4255 -0.9740
  964SOL    HW2 3943   1.304   7.024   0.906  1.9448  0.1769 -1.1341
  965SOL     OW 3944   6.192   5.398   6.438 -0.1428  0.0097  0.1861
  965SOL    HW1 3945   6.250   5.333   6.399  0.0388  0.5378 -0.4292
  965SOL    HW2 3946   6.231   5.482   6.416 -0.6170  0.3417  0.5974
  966SOL     OW 3947   0.559   2.338   5.226 -0.2467 -0.0187 -0.4736
  966SOL    HW1 3948   0.490   2.348   5.292  0.9094  0.7401  0.6617
  966SOL    HW2 3949   0.537   2.404   5.160  0.6186  1.9014  1.0349
  967SOL     OW 3950   6.316   4.072   8.013 -0.4139  0.0164 -0.1989
  967SOL    HW1 3951   6.395   4.125   8.003  1.1451 -2.1304  0.3161
  967SOL    HW2 3952   6.333   3.993   7.963 -2.4518 -0.3270 -0.4534
  968SOL     OW 3953   6.683   5.086   4.057  0.3274  0.2799  0.3935
  968SOL    HW1 3954   6.751   5.109   3.994  0.0093  1.1735  0.3515
  968SOL    HW2 3955   6.632   5.167   4.067 -0.6003 -0.3113  0.5709
  969SOL     OW 3956   1.719   6.784   2.519 -0.0531 -0.0853  0.0011
  969SOL    HW1 3957   1.798   6.731   2.506  0.6444  0.8776  0.1976
  969SOL    HW2 3958   1.703   6.780   2.613 -0.2853 -0.3371 -0.0479
  970SOL     OW 3959   4.692   0.432   1.939  0.2636 -0.3186 -0.2521
  970SOL    HW1 3960   4.648   0.347   1.933 -0.1647 -0.0534 -1.0363
  970SOL    HW2 3961   4.730   0.445   1.852 -0.7907  0.8796 -0.5632
  971SOL     OW 3962   7.441   5.670   0.569 -0.2660 -0.4015  0.4958
  971SOL    HW1 3963   7.386   5.701   0.641 -1.4666  0.1493 -0.6225
  971SOL    HW2 3964   7.495   5.745   0.545  0.0700 -0.5576  0.7576
  972SOL     OW 3965   6.396   3.399   4.959  0.5915 -0.4152 -0.2462
  972SOL    HW1 3966   6.448   3.407   5.039 -2.1144  0.1432  1.5845
  972SOL    HW2 3967   6.325   3.463   4.970  0.0868 -0.3649 -3.0970
  973SOL     OW 3968   2.117   2.668   2.878 -0.1631 -0.9044 -0.2026
  973SOL    HW1 3969   2.188   2.617   2.917 -0.3421 -2.5581 -1.8925
  973SOL    HW2 3970   2.080   2.610   2.811 -1.6982  0.7328 -0.8452
  974SOL     OW 3971   3.365   1.290   7.593 -0.5450  0.3118 -0.6572
  974SOL    HW1 3972   3.447   1.267   7.636 -0.9661  1.9706  1.1562
  974SOL    HW2 3973   3.319   1.206   7.585  0.6075 -0.3978 -0.1617
  975SOL     OW 3974   4.501   6.538   0.106 -0.1124  1.1215  0.0582
  975SOL    HW1 3975   4.469   6.628   0.094 -4.0126  0.6030  4.0927
  975SOL    HW2 3976   4.550   6.542   0.188  1.9718 -0.0815 -1.0543
  976SOL     OW 3977   0.645   0.631   8.154 -0.0911 -0.1795  0.0391
  976SOL    HW1 3978   0.617   0.696   8.217 -0.7819  0.4647 -0.9000
  976SOL    HW2 3979   0.698   0.569   8.204 -1.0365  0.0352  1.3321
  977SOL     OW 3980   6.814   6.503   1.597  0.3601  0.4332  0.4536
  977SOL    HW1 3981   6.888   6.516   1.656 -0.6282  0.6815  1.6625
  977SOL    HW2 3982   6.855   6.484   1.512  1.8012  0.7272  1.0513
  978SOL     OW 3983   7.515   0.091   5.193 -0.3061 -0.0710  0.4952
  978SOL    HW1 3984   7.515  -0.001   5.221  2.3101 -0.5750 -0.8122
  978SOL    HW2 3985   7.596   0.127   5.229  0.0105  0.9631 -1.1391
  979SOL     OW 3986   4.035   4.415   3.991  0.5593 -0.0783 -0.1981
  979SOL    HW1 3987   3.993   4.374   3.916  1.5334 -0.7920 -0.3723
  979SOL    HW2 3988   4.123   4.377   3.993  1.0624  1.0798  0.3933
  980SOL     OW 3989   4.280   3.472   4.610  0.2675  0.2158 -0.0539
  980SOL    HW1 3990   4.335   3.395   4.625  0.5977  0.3083 -0.7853
  980SOL    HW2 3991   4.193   3.436   4.591  0.7286 -0.0356 -1.7659
  981SOL     OW 3992   7.254   6.349   4.986  0.1201 -0.4551  0.5129
  981SOL    HW1 3993   7.345   6.338   4.957  0.3502 -0.1992  1.1235
  981SOL    HW2 3994   7.210   6.270   4.956 -0.0775  0.5352 -2.0809
  982SOL     OW 3995   1.841   1.934   3.256  0.2837  0.0472  0.1656
  982SOL    HW1 3996   1.824   1.847   3.292  0.9309 -0.2304 -0.1828
  982SOL    HW2 3997   1.848   1.991   3.333 -2.1551  0.2096  0.3520
  983SOL     OW 3998   6.091   5.161   2.598 -0.1815  0.6217  0.3792
  983SOL    HW1 3999   6.168   5.130   2.550 -1.0194 -2.3020  0.7472
  983SOL    HW2 4000   6.018   5.148   2.538 -0.9040 -0.6093  1.4885
  984SOL     OW 4001   7.687   6.710   1.673 -0.1586  0.0703  0.4001
  984SOL    HW1 4002   7.717   6.679   1.758  0.2816  0.5013  0.4091
  984SOL    HW2 4003   7.694   6.806   1.679 -0.6563  0.1314  0.0772
  985SOL     OW 4004   7.426   7.056   1.507  0.3585  0.5081 -0.1942
  985SOL    HW1 4005   7.342   7.103   1.505 -0.1597 -0.2477  1.5948
  985SOL    HW2 4006   7.462   7.075   1.593  0.6419 -1.4467  0.1760
  986SOL     OW 4007   7.922   7.328   1.370 -0.6583 -0.4743  0.2696
  986SOL    HW1 4008   7.953   7.238   1.356  0.2042 -0.3264  1.1414
  986SOL    HW2 4009   7.835   7.318   1.408 -0.4129 -0.9493  0.7173
  987SOL     OW 4010   2.643   6.570   0.356 -0.0751  0.2215  0.0592
  987SOL    HW1 4011   2.721   6.529   0.394 -0.7693 -0.7368  0.4860
  987SOL    HW2 4012   2.612   6.629   0.425  0.8011  1.3421 -0.4741
  988SOL     OW 4013   6.386   4.469   5.564 -0.3129  0.3532  0.1752
  988SOL    HW1 4014   6.379   4.564   5.574 -0.9680  0.1800  1.5102
  988SOL    HW2 4015   6.433   4.458   5.481  0.3422  1.8394  0.3082
  989SOL     OW 4016   0.211   5.119   6.807 -0.7167 -0.2351 -0.2094
  989SOL    HW1 4017   0.243   5.164   6.885  2.1323  0.6069 -1.7229
  989SOL    HW2 4018   0.173   5.038   6.841 -0.6878  0.6453  2.1337
  990SOL     OW 4019   6.941   1.716   3.821 -0.3766 -0.2388  0.6562
  990SOL    HW1 4020   6.915   1.734   3.731 -0.3359  0.3596  0.7541
  990SOL    HW2 4021   7.017   1.773   3.835  0.8256 -1.7258  0.4635
  991SOL     OW 4022   1.955   4.943   7.411  0.1220 -0.0820 -0.0767
  991SOL    HW1 4023   1.929   4.857   7.378 -2.9747  0.5572  0.3636
  991SOL    HW2 4024   1.973   4.994   7.332 -2.3459  0.0283 -0.6602
  992SOL     OW 4025   2.179   5.495   7.474 -0.0506  0.4484  0.3444
  992SOL    HW1 4026   2.223   5.446   7.544  0.6768 -0.0795 -0.4569
  992SOL    HW2 4027   2.155   5.578   7.514  0.0929  0.0465  1.2978
  993SOL     OW 4028   1.308   3.315   3.644 -0.5315  0.0448 -0.0118
  993SOL    HW1 4029   1.378   3.366   3.604 -1.5985  0.4578 -1.3853
  993SOL    HW2 4030   1.351   3.233   3.669  0.2959 -0.0146 -1.5047
  994SOL     OW 4031   5.978   7.254   1.651  0.3915 -0.1935  0.3002
  994SOL    HW1 4032   5.935   7.192   1.710  1.0212  0.7311  1.8038
  994SOL    HW2 4033   5.971   7.213   1.564  0.7277 -2.3388  1.2012
  995SOL     OW 4034   2.310   8.076   2.576 -0.5826 -0.3262  0.4088
  995SOL    HW1 4035   2.320   8.170   2.590 -1.4039 -0.1220 -0.2613
  995SOL    HW2 4036   2.397   8.039   2.589  0.0231  0.6973 -0.6150
  996SOL     OW 4037   0.986   7.447   3.471  0.1160  0.1668 -0.3072
  996SOL    HW1 4038   0.942   7.513   3.524 -1.4045  0.2976 -1.6720
  996SOL    HW2 4039   1.022   7.495   3.397  1.0740 -0.2084 -0.1008
  997SOL     OW 4040   1.822   7.760   2.102  0.0765 -0.2523  0.0406
  997SOL    HW1 4041   1.835   7.724   2.014 -0.2506 -1.3131  0.4125
  997SOL    HW2 4042   1.888   7.717   2.156 -0.4905 -0.5021  0.5460
  998SOL     OW 4043   6.297   3.573   6.070 -0.2194  0.1273 -0.0336
  998SOL    HW1 4044   6.249   3.526   6.002  0.3848  0.9361 -1.0481
  998SOL    HW2 4045   6.335   3.649   6.025 -0.0584  0.8577  1.2675
  999SOL     OW 4046   0.441   5.704   2.443 -0.1453 -0.1507 -0.1059
  999SOL    HW1 4047   0.402   5.763   2.379  1.6063  1.1146 -0.0628
  999SOL    HW2 4048   0.409   5.735   2.528  0.5159  0.5599 -0.1077
 1000SOL     OW 4049   1.947   5.098   5.065  0.1371  0.5020 -0.2068
 1000SOL    HW1 4050   1.985   5.125   4.981  1.6325  1.0545  0.6040
 1000SOL    HW2 4051   1.949   5.003   5.062  0.0394  0.5138 -0.8573
 1001SOL     OW 4052   4.941   2.278   6.260 -0.1095  0.2937 -0.2079
 1001SOL    HW1 4053   4.942   2.373   6.266 -0.8864  0.3662 -0.9908
 1001SOL    HW2 4054   4.880   2.259   6.188  1.1261 -0.7494 -1.0220
 1002SOL     OW 4055   5.658   7.137   4.839 -0.4549  0.5435  0.8710
 1002SOL    HW1 4056   5.620   7.223   4.820 -1.9393 -0.4888 -1.3402
 1002SOL    HW2 4057   5.587   7.088   4.880  1.1521  1.0571  4.6274
 1003SOL     OW 4058   4.656   8.127   4.333  0.8551 -0.1451  0.0365
 1003SOL    HW1 4059   4.572   8.114   4.290  1.3839 -0.5814 -0.8983
 1003SOL    HW2 4060   4.705   8.186   4.275  1.5891 -0.7621  0.0086
 1004SOL     OW 4061   5.869   1.735   1.453 -0.3729  0.6012  0.3876
 1004SOL    HW1 4062   5.913   1.689   1.381 -2.8831  0.4975 -1.1960
 1004SOL    HW2 4063   5.940   1.778   1.501  1.5737 -0.9098 -0.9985
 1005SOL     OW 4064   7.273   4.368   2.070 -0.0557 -0.3711 -0.1120
 1005SOL    HW1 4065   7.206   4.427   2.035  1.1243 -0.4836 -2.7804
 1005SOL    HW2 4066   7.331   4.352   1.996  2.1436 -1.3959  1.7387
 1006SOL     OW 4067   2.027   7.223   5.116  0.8061  0.4497  0.1413
 1006SOL    HW1 4068   2.099   7.278   5.083  0.9342  0.3651  0.2834
 1006SOL    HW2 4069   1.979   7.199   5.037  1.3619 -0.1075 -0.0359
 1007SOL     OW 4070   2.687   0.280   7.141  0.0557 -0.2481  0.2008
 1007SOL    HW1 4071   2.653   0.355   7.093  0.5448  0.8265  1.4727
 1007SOL    HW2 4072   2.639   0.205   7.106  1.1361  0.2980 -2.7063
 1008SOL     OW 4073   7.386   4.511   0.599 -0.2175 -0.1338 -0.0959
 1008SOL    HW1 4074   7.479   4.494   0.616 -0.1916 -1.6862 -1.4861
 1008SOL    HW2 4075   7.367   4.591   0.648  1.4799 -0.5673  1.3716
 1009SOL     OW 4076   2.102   6.287   7.004  0.1184 -0.6953 -0.0467
 1009SOL    HW1 4077   2.052   6.323   6.930 -1.1217 -0.2586  0.9850
 1009SOL    HW2 4078   2.184   6.337   7.002 -1.1301  1.5643  0.6958
 1010SOL     OW 4079   0.144   5.607   4.823  0.0466 -0.2006 -1.0369
 1010SOL    HW1 4080   0.239   5.618   4.830 -0.0781  0.6776 -0.6066
 1010SOL    HW2 4081   0.132   5.515   4.801  0.9542 -0.5520 -0.1300
 1011SOL     OW 4082   5.317   6.058   5.956  0.3363  0.2549 -0.1397
 1011SOL    HW1 4083   5.351   5.984   5.906 -0.3619 -1.4286  1.7619
 1011SOL    HW2 4084   5.244   6.022   6.007  1.1037  1.7770  2.2039
 1012SOL     OW 4085   6.352   5.374   8.239  0.3223 -0.1937 -1.2353
 1012SOL    HW1 4086   6.393   5.295   8.204  0.2227 -0.1388 -1.4742
 1012SOL    HW2 4087   6.259   5.365   8.219 -0.1413 -1.2312  0.9840
 1013SOL     OW 4088   6.870   5.831   8.164  0.3196 -0.4020 -0.3510
 1013SOL    HW1 4089   6.932   5.903   8.168 -1.8233  1.5237  2.4683
 1013SOL    HW2 4090   6.800   5.862   8.106 -0.2635 -0.4478  0.3009
 1014SOL     OW 4091   7.765   4.581   4.197  0.1114 -0.3792 -0.2592
 1014SOL    HW1 4092   7.843   4.527   4.209  0.1972 -0.2418 -0.2023
 1014SOL    HW2 4093   7.798   4.668   4.175 -0.0399 -0.7202 -1.9848
 1015SOL     OW 4094   0.120   3.548   7.755 -0.1486 -0.2240  0.2233
 1015SOL    HW1 4095   0.143   3.637   7.782  0.6214 -0.1090 -0.7406
 1015SOL    HW2 4096   0.049   3.559   7.693  1.7264 -0.0092 -2.0184
 1016SOL     OW 4097   3.140   0.769   3.828  0.1622  0.4776  0.3024
 1016SOL    HW1 4098   3.166   0.842   3.772 -0.2968  2.0009  1.9836
 1016SOL    HW2 4099   3.221   0.742   3.871  0.1336  0.7688  0.5410
 1017SOL     OW 4100   6.180   1.528   4.612  0.1037  0.7602  0.1676
 1017SOL    HW1 4101   6.194   1.433   4.617  0.5577  0.8587  0.7953
 1017SOL    HW2 4102   6.115   1.547   4.679 -0.3209  0.8398 -0.2558
 1018SOL     OW 4103   6.681   7.766   7.724 -0.3076 -0.2147 -0.3910
 1018SOL    HW1 4104   6.751   7.758   7.789 -0.4526 -0.6088 -0.2833
 1018SOL    HW2 4105   6.644   7.678   7.717 -2.1110  0.3664  1.0195
 1019SOL     OW 4106   3.021   7.858   0.232  0.0333  0.2004  0.1227
 1019SOL    HW1 4107   2.958   7.912   0.183 -0.9544 -0.4929  0.5934
 1019SOL    HW2 4108   2.966   7.797   0.281  1.0435  0.2616  1.3561
 1020SOL     OW 4109   7.633   3.508   2.985  0.0029  0.1987 -0.0105
 1020SOL    HW1 4110   7.614   3.587   2.935  1.5449  0.6378  0.0237
 1020SOL    HW2 4111   7.651   3.441   2.919 -1.2181 -0.1156 -0.0392
 1021SOL     OW 4112   3.557   5.520   4.308 -0.4225 -0.1043  0.3403
 1021SOL    HW1 4113   3.523   5.440   4.348 -1.1115  0.4633  0.9131
 1021SOL    HW2 4114   3.483   5.556   4.259 -0.1665  0.2725  0.2262
 1022SOL     OW 4115   5.630   7.754   7.748  0.3401  0.5745 -0.3351
 1022SOL    HW1 4116   5.607   7.665   7.775 -1.5705  1.1737  0.1458
 1022SOL    HW2 4117   5.645   7.748   7.654  2.4138 -0.6376  0.0090
 1023SOL     OW 4118   6.025   0.609   4.742  0.7676 -0.1903 -0.1908
 1023SOL    HW1 4119   5.936   0.589   4.715  0.2577 -0.6858  1.6539
 1023SOL    HW2 4120   6.079   0.589   4.666 -0.7896  1.3581 -1.7819
 1024SOL     OW 4121   0.214   0.272   6.689  0.4285 -0.2496  0.4545
 1024SOL    HW1 4122   0.200   0.191   6.640  0.9490 -0.0143 -0.0909
 1024SOL    HW2 4123   0.254   0.243   6.772  1.5350 -0.4889 -0.1341
 1025SOL     OW 4124   6.866   1.195   6.903 -0.2171 -0.0869  0.1036
 1025SOL    HW1 4125   6.875   1.136   6.978 -0.1040  0.5255  0.5862
 1025SOL    HW2 4126   6.839   1.279   6.942 -1.5758 -0.1330 -0.6741
 1026SOL     OW 4127   7.091   3.484   1.289  0.4898 -0.2379 -0.1125
 1026SOL    HW1 4128   7.030   3.519   1.353  0.6904  0.1409 -0.1266
 1026SOL    HW2 4129   7.177   3.497   1.328  0.9521  3.2782 -1.8960
 1027SOL     OW 4130   2.901   3.448   3.243 -0.7169 -0.1332  0.1606
 1027SOL    HW1 4131   2.866   3.360   3.251  0.0843 -0.4811 -0.0342
 1027SOL    HW2 4132   2.952   3.461   3.323  0.0487 -0.2680 -0.2886
 1028SOL     OW 4133   7.425   1.111   4.715 -0.3146  0.3399  0.6960
 1028SOL    HW1 4134   7.402   1.019   4.701 -1.7555  0.7808 -0.1283
 1028SOL    HW2 4135   7.371   1.138   4.789 -1.4858  1.0350 -0.3722
 1029SOL     OW 4136   1.677   4.189   1.543 -0.1056  0.0230  0.3591
 1029SOL    HW1 4137   1.588   4.176   1.510 -0.0100  0.5781 -0.1456
 1029SOL    HW2 4138   1.712   4.101   1.553  0.0503 -0.1975 -1.6022
 1030SOL     OW 4139   3.997   2.427   4.988 -0.3883  0.2011 -0.4055
 1030SOL    HW1 4140   3.975   2.502   4.933 -0.4922 -0.6045 -1.4908
 1030SOL    HW2 4141   3.991   2.351   4.929  0.7580 -0.5452  0.4055
 1031SOL     OW 4142   1.635   0.773   7.682  0.5994 -0.5474 -0.1145
 1031SOL    HW1 4143   1.555   0.721   7.678  0.3627 -0.1487 -0.7604
 1031SOL    HW2 4144   1.672   0.768   7.594 -0.0370  1.2965 -0.5350
 1032SOL     OW 4145   5.426   5.089   5.232 -0.3189  0.3865 -0.4620
 1032SOL    HW1 4146   5.426   5.031   5.155 -1.9253  0.7061 -0.7392
 1032SOL    HW2 4147   5.408   5.176   5.196 -0.4490  0.6388  0.2044
 1033SOL     OW 4148   7.846   0.876   4.625  0.0443 -0.0249 -0.4911
 1033SOL    HW1 4149   7.909   0.808   4.600 -0.5023 -0.1444 -1.5956
 1033SOL    HW2 4150   7.803   0.901   4.543 -0.2438  1.1821  0.0037
 1034SOL     OW 4151   0.764   3.044   2.414 -0.0996 -0.5504  0.2681
 1034SOL    HW1 4152   0.698   3.099   2.372  1.5397  2.0423  0.8397
 1034SOL    HW2 4153   0.742   3.045   2.507  1.0627  0.9944  0.5819
 1035SOL     OW 4154   6.733   1.418   5.533  0.1710  0.3917  0.0883
 1035SOL    HW1 4155   6.769   1.334   5.561  0.1648  0.5321  0.5121
 1035SOL    HW2 4156   6.662   1.394   5.472 -0.6022  0.0597  1.0961
 1036SOL     OW 4157   7.612   1.868   5.874 -0.1393  0.0638 -0.2135
 1036SOL    HW1 4158   7.673   1.805   5.913 -0.2180  0.6427  0.8791
 1036SOL    HW2 4159   7.668   1.922   5.817  0.6138  1.2929  1.6194
 1037SOL     OW 4160   0.646   2.492   1.921 -0.3295 -0.7598  0.2237
 1037SOL    HW1 4161   0.707   2.418   1.921 -0.3094 -0.7503 -0.2423
 1037SOL    HW2 4162   0.571   2.461   1.871 -0.9568 -0.9590  1.2754
 1038SOL     OW 4163   3.592   3.976   2.322  0.2466 -0.3120  0.0491
 1038SOL    HW1 4164   3.647   3.953   2.247  1.1259  1.4518  0.0943
 1038SOL    HW2 4165   3.560   3.892   2.355 -0.5399 -1.1342 -2.5473
 1039SOL     OW 4166   6.824   4.401   6.704 -0.2530 -0.0606  0.5165
 1039SOL    HW1 4167   6.877   4.470   6.665  0.7721 -0.2164  1.5869
 1039SOL    HW2 4168   6.784   4.356   6.629  0.4603  0.5896 -0.2681
 1040SOL     OW 4169   5.111   4.557   0.496 -0.3545 -0.0835  0.1492
 1040SOL    HW1 4170   5.152   4.474   0.470  1.9778  0.8868  0.5036
 1040SOL    HW2 4171   5.182   4.609   0.531 -2.0384  1.5585  1.3143
 1041SOL     OW 4172   6.529   1.000   6.349 -0.0988  0.1208 -0.5998
 1041SOL    HW1 4173   6.536   1.095   6.357  0.6118 -0.0760  1.9012
 1041SOL    HW2 4174   6.619   0.970   6.339 -0.1893 -0.3695 -0.0053
 1042SOL     OW 4175   3.524   3.897   4.131  0.1092 -0.0302 -0.2116
 1042SOL    HW1 4176   3.551   3.877   4.041  0.2292  0.5420 -0.3028
 1042SOL    HW2 4177   3.440   3.942   4.122  0.8032  1.3278 -0.1334
 1043SOL     OW 4178   3.223   6.303   4.228  0.2597 -0.4919 -0.5748
 1043SOL    HW1 4179   3.208   6.217   4.189 -0.8557 -1.2854  1.4380
 1043SOL    HW2 4180   3.184   6.365   4.166 -0.3652 -1.5688 -1.2949
 1044SOL     OW 4181   1.623   5.177   5.754  0.2999  0.3769  0.3593
 1044SOL    HW1 4182   1.663   5.259   5.727 -0.4015  0.4092 -0.6023
 1044SOL    HW2 4183   1.634   5.119   5.679 -0.2944 -0.0250  0.5766
 1045SOL     OW 4184   4.781   1.863   4.826 -0.0560  0.4041 -0.0912
 1045SOL    HW1 4185   4.824   1.805   4.762 -1.0613  0.2976 -0.6963
 1045SOL    HW2 4186   4.801   1.825   4.911  0.1036 -0.2884 -0.4311
 1046SOL     OW 4187   1.125   8.272   2.630  0.6956  0.4849 -0.5382
 1046SOL    HW1 4188   1.030   8.270   2.643  0.8567  0.7142  0.8130
 1046SOL    HW2 4189   1.148   8.183   2.606  0.0827  0.5435 -1.3965
 1047SOL     OW 4190   1.284   2.368   6.051  0.3175 -0.0855  0.6201
 1047SOL    HW1 4191   1.289   2.441   6.112 -1.2499  0.5017  0.0977
 1047SOL    HW2 4192   1.353   2.384   5.988 -1.6298  2.4621 -1.0355
 1048SOL     OW 4193   2.966   3.806   0.293 -0.4250  0.4494  0.1071
 1048SOL    HW1 4194   2.979   3.818   0.387 -1.6939 -1.4196  0.5668
 1048SOL    HW2 4195   3.054   3.815   0.255  0.2695  0.1341  1.5916
 1049SOL     OW 4196   3.058   2.974   4.984  0.4267 -0.1061 -0.6560
 1049SOL    HW1 4197   3.114   2.898   4.968  2.0253  0.4507  1.6763
 1049SOL    HW2 4198   2.969   2.939   4.983  0.7016 -1.0814 -4.1323
 1050SOL     OW 4199   7.919   4.275   4.345 -0.3740  0.7121  0.1500
 1050SOL    HW1 4200   8.004   4.318   4.335  0.6191 -1.3088 -0.4406
 1050SOL    HW2 4201   7.922   4.237   4.433 -0.0835 -0.5493 -0.3916
 1051SOL     OW 4202   7.980   5.251   1.884 -0.1330  0.2310 -0.5633
 1051SOL    HW1 4203   7.937   5.250   1.798 -0.3772  0.5603 -0.4511
 1051SOL    HW2 4204   7.909   5.235   1.946 -0.0427  0.4642 -0.3959
 1052SOL     OW 4205   5.352   0.320   3.856 -0.1560 -0.2554  0.5670
 1052SOL    HW1 4206   5.399   0.348   3.935 -0.4970 -0.9632  1.0369
 1052SOL    HW2 4207   5.283   0.262   3.889 -0.2279 -0.6531 -0.2597
 1053SOL     OW 4208   6.684   1.858   3.617  0.3643 -0.2532  0.5129
 1053SOL    HW1 4209   6.752   1.803   3.579 -0.3353 -1.9210  1.5880
 1053SOL    HW2 4210   6.626   1.797   3.662 -1.2266  1.2375  0.5800
 1054SOL     OW 4211   6.968   0.704   2.581  0.2951  0.2301  0.0088
 1054SOL    HW1 4212   6.961   0.696   2.486  3.1300  0.4869 -0.3125
 1054SOL    HW2 4213   6.938   0.620   2.615  2.5697 -1.2586 -1.4056
 1055SOL     OW 4214   7.176   4.021   3.254 -0.2286  0.5725 -0.3975
 1055SOL    HW1 4215   7.093   4.045   3.295 -2.2688 -1.1784 -3.1626
 1055SOL    HW2 4216   7.217   4.105   3.233 -1.3953  1.4886  0.8005
 1056SOL     OW 4217   3.233   7.660   0.248 -0.0012 -0.6093 -0.0804
 1056SOL    HW1 4218   3.171   7.726   0.219  0.3654 -0.4117 -0.4269
 1056SOL    HW2 4219   3.182   7.603   0.307 -0.2768  0.0658  0.3468
 1057SOL     OW 4220   4.853   0.230   6.812 -0.0343 -0.3400 -0.0628
 1057SOL    HW1 4221   4.784   0.214   6.877  0.1464 -0.0924  0.1931
 1057SOL    HW2 4222   4.904   0.301   6.849  0.8576 -1.0707  0.1475
 1058SOL     OW 4223   6.153   3.270   5.668  0.3057 -0.4836  0.2688
 1058SOL    HW1 4224   6.078   3.219   5.698  0.1882 -0.3481  0.2100
 1058SOL    HW2 4225   6.163   3.338   5.735  0.4900 -0.6103  0.3717
 1059SOL     OW 4226   7.839   3.644   3.449 -0.1702  0.1308  0.4679
 1059SOL    HW1 4227   7.917   3.700   3.454  1.0076 -1.5134  1.6693
 1059SOL    HW2 4228   7.834   3.618   3.357  0.4320  0.6401  0.2846
 1060SOL     OW 4229   4.575   1.790   5.975  0.1814  0.1041  0.0499
 1060SOL    HW1 4230   4.521   1.832   6.042  1.4004  0.3780  0.8968
 1060SOL    HW2 4231   4.549   1.698   5.976 -1.2732  0.4819 -0.5836
 1061SOL     OW 4232   4.631   8.277   0.668 -0.2839  0.8734  0.1423
 1061SOL    HW1 4233   4.723   8.280   0.643 -0.5833 -0.1681 -1.2242
 1061SOL    HW2 4234   4.585   8.325   0.599 -1.0032 -0.9885 -0.7621
 1062SOL     OW 4235   4.608   1.092   1.538 -0.0702  0.4814  0.3808
 1062SOL    HW1 4236   4.622   1.183   1.515 -3.0330  0.1309 -4.0098
 1062SOL    HW2 4237   4.687   1.067   1.587  2.8184  4.2313 -1.8329
 1063SOL     OW 4238   6.556   1.545   2.385  0.3305 -0.4957 -0.6244
 1063SOL    HW1 4239   6.518   1.590   2.460  2.3112 -0.6735  0.5576
 1063SOL    HW2 4240   6.488   1.483   2.358 -1.0645  0.7240 -0.0626
 1064SOL     OW 4241   1.521   6.500   1.578 -0.7893  0.5144 -0.5934
 1064SOL    HW1 4242   1.468   6.422   1.595  0.1805 -0.0666 -0.1647
 1064SOL    HW2 4243   1.507   6.518   1.485 -3.4438  1.6916 -0.0627
 1065SOL     OW 4244   3.560   2.362   1.895  0.1363 -0.1769 -0.6865
 1065SOL    HW1 4245   3.465   2.365   1.884  0.1358 -1.4866 -1.2281
 1065SOL    HW2 4246   3.594   2.429   1.836 -0.3690 -0.8926 -1.8210
 1066SOL     OW 4247   4.584   1.617   1.327  0.2680 -0.4268 -0.5316
 1066SOL    HW1 4248   4.625   1.665   1.256 -1.4738  0.8136 -0.7735
 1066SOL    HW2 4249   4.606   1.667   1.406  0.5262 -0.6577 -0.4561
 1067SOL     OW 4250   6.839   4.201   2.352  1.3113 -0.0821  0.0556
 1067SOL    HW1 4251   6.910   4.196   2.287  1.3378 -2.1014  0.1829
 1067SOL    HW2 4252   6.878   4.165   2.432 -0.4550 -3.7354 -0.5172
 1068SOL     OW 4253   7.641   4.128   1.622  0.4558  0.3702 -0.0745
 1068SOL    HW1 4254   7.689   4.170   1.694  0.9372 -3.2858  1.9701
 1068SOL    HW2 4255   7.703   4.128   1.550  1.6220  0.3391  0.8898
 1069SOL     OW 4256   7.604   4.502   1.596 -0.7860 -0.0123 -0.0890
 1069SOL    HW1 4257   7.649   4.462   1.522  0.8564  0.2171  0.7344
 1069SOL    HW2 4258   7.649   4.466   1.673 -2.9141 -0.8168  0.8498
 1070SOL     OW 4259   3.572   7.695   1.077  0.1177  0.3049 -0.3394
 1070SOL    HW1 4260   3.593   7.625   1.138 -1.1674  0.3591  0.2023
 1070SOL    HW2 4261   3.545   7.768   1.133 -1.6750  0.1618 -0.9563
 1071SOL     OW 4262   1.398   5.190   6.527 -0.2538  0.4895 -0.2235
 1071SOL    HW1 4263   1.354   5.132   6.466  0.6725 -0.1980 -0.2691
 1071SOL    HW2 4264   1.436   5.259   6.472  2.1158 -1.0893 -0.7244
 1072SOL     OW 4265   4.296   6.671   3.461  0.1737 -0.4683  0.5507
 1072SOL    HW1 4266   4.311   6.641   3.372  2.3465  2.7243 -0.3039
 1072SOL    HW2 4267   4.210   6.712   3.459  0.4165  0.0180 -0.2299
 1073SOL     OW 4268   2.809   1.256   0.132 -0.6725 -0.2638  0.0424
 1073SOL    HW1 4269   2.862   1.299   0.065 -0.3061 -0.5567  0.1408
 1073SOL    HW2 4270   2.742   1.320   0.154 -0.2617  0.1745  0.0350
 1074SOL     OW 4271   0.024   4.806   0.789 -0.0762  0.3880 -0.1453
 1074SOL    HW1 4272   0.102   4.859   0.778  0.6253 -0.4131  0.7771
 1074SOL    HW2 4273   0.043   4.750   0.864 -1.0761 -0.6473 -0.6230
 1075SOL     OW 4274   3.613   6.443   1.813  0.0421  0.4749  0.2955
 1075SOL    HW1 4275   3.625   6.348   1.803  0.4557  0.6376 -0.9075
 1075SOL    HW2 4276   3.661   6.465   1.893 -0.9908 -0.4905  1.2177
 1076SOL     OW 4277   6.651   1.985   3.218 -0.1871 -0.0762  0.4677
 1076SOL    HW1 4278   6.711   1.916   3.191  1.3740  0.6864  1.8422
 1076SOL    HW2 4279   6.653   2.048   3.146 -0.6802 -0.8556 -0.2461
 1077SOL     OW 4280   5.299   6.279   3.121  0.5237 -0.4265  0.0970
 1077SOL    HW1 4281   5.394   6.283   3.127  0.5411 -1.4215  0.6108
 1077SOL    HW2 4282   5.282   6.204   3.063  0.0563 -0.0985 -0.1940
 1078SOL     OW 4283   1.294   6.886   3.468 -0.1394  0.3971  0.1270
 1078SOL    HW1 4284   1.366   6.941   3.498 -0.4407  0.3807  0.9085
 1078SOL    HW2 4285   1.215   6.933   3.495 -0.4139  0.2102 -0.3416
 1079SOL     OW 4286   5.906   6.456   8.046  0.1809  0.1063  0.1540
 1079SOL    HW1 4287   5.834   6.518   8.060  0.1502  0.1820 -0.3514
 1079SOL    HW2 4288   5.908   6.405   8.127  0.7389  1.2949  0.9166
 1080SOL     OW 4289   6.625   1.770   5.954 -0.2803 -0.0458 -0.1704
 1080SOL    HW1 4290   6.677   1.844   5.925 -2.3581  1.5933  0.0521
 1080SOL    HW2 4291   6.597   1.728   5.872 -0.3096  0.3035 -0.3413
 1081SOL     OW 4292   2.123   4.819   2.922  0.4710 -0.4334  0.2491
 1081SOL    HW1 4293   2.120   4.724   2.928 -0.0833 -0.6118 -1.8222
 1081SOL    HW2 4294   2.148   4.836   2.831  2.1464  1.4250  0.9780
 1082SOL     OW 4295   2.455   8.167   5.098  0.4442 -0.1485 -0.5439
 1082SOL    HW1 4296   2.432   8.161   5.005  2.8712  1.5790 -1.3577
 1082SOL    HW2 4297   2.430   8.256   5.123 -0.1143 -0.5732  0.4737
 1083SOL     OW 4298   5.223   5.324   5.427 -0.0674  0.0558 -0.2039
 1083SOL    HW1 4299   5.269   5.383   5.487  1.0908 -0.2510 -0.7458
 1083SOL    HW2 4300   5.212   5.376   5.347  0.5388 -0.2827 -0.5222
 1084SOL     OW 4301   4.840   4.964   7.254  1.0331  0.1859 -0.4153
 1084SOL    HW1 4302   4.847   5.045   7.305  1.4170 -0.6117  0.8468
 1084SOL    HW2 4303   4.782   4.987   7.181 -0.7239  1.0230  1.1379
 1085SOL     OW 4304   1.197   6.634   3.729 -0.0706 -0.1998 -0.1817
 1085SOL    HW1 4305   1.238   6.687   3.797  0.3769 -1.3816  0.5083
 1085SOL    HW2 4306   1.261   6.630   3.658  0.1897 -0.3923  0.0615
 1086SOL     OW 4307   5.676   1.165   6.994 -0.4288  0.3724  0.2133
 1086SOL    HW1 4308   5.708   1.078   7.018 -0.9454  0.1512  0.0949
 1086SOL    HW2 4309   5.633   1.153   6.909 -0.0386  0.8439 -0.0609
 1087SOL     OW 4310   7.014   0.796   6.233  0.5597  0.7196 -0.1405
 1087SOL    HW1 4311   7.033   0.865   6.169  1.0513 -1.8668 -2.9875
 1087SOL    HW2 4312   6.919   0.800   6.244  0.2042  0.2035 -2.4344
 1088SOL     OW 4313   7.186   3.753   7.061  0.1240  0.3209 -0.4565
 1088SOL    HW1 4314   7.137   3.833   7.042 -0.0917  0.1884 -0.4622
 1088SOL    HW2 4315   7.277   3.775   7.042 -0.2659 -0.4305 -3.8850
 1089SOL     OW 4316   6.058   3.447   0.734  0.5431 -0.1905  0.5075
 1089SOL    HW1 4317   6.130   3.385   0.748 -0.5762 -1.6820 -0.1266
 1089SOL    HW2 4318   6.076   3.484   0.647 -1.1695 -3.1184 -1.2631
 1090SOL     OW 4319   2.578   0.378   2.695  0.1596 -0.0088  0.3229
 1090SOL    HW1 4320   2.644   0.447   2.702  0.7168 -0.6447  1.6625
 1090SOL    HW2 4321   2.614   0.316   2.631 -0.2327  0.7823 -0.6998
 1091SOL     OW 4322   1.935   6.520   5.369  0.3882 -0.0964  0.2075
 1091SOL    HW1 4323   2.010   6.461   5.384 -0.5064 -1.5852 -0.8472
 1091SOL    HW2 4324   1.877   6.470   5.312 -0.9301  1.4430  0.1354
 1092SOL     OW 4325   2.966   2.080   7.431 -0.5450  0.0652  0.2765
 1092SOL    HW1 4326   3.027   2.008   7.447 -0.0362  0.7776  1.7742
 1092SOL    HW2 4327   2.951   2.078   7.337  0.0325 -1.5254  0.1814
 1093SOL     OW 4328   4.416   2.094   2.919 -0.7325 -0.2895 -0.0319
 1093SOL    HW1 4329   4.511   2.105   2.919 -0.7834  0.1962  0.3527
 1093SOL    HW2 4330   4.403   1.999   2.910 -0.2182 -0.3418 -0.2582
 1094SOL     OW 4331   1.356   3.638   5.748 -0.7462 -0.3583  0.3156
 1094SOL    HW1 4332   1.376   3.552   5.710  0.5952  0.2219 -0.3628
 1094SOL    HW2 4333   1.390   3.633   5.838 -0.5951 -0.5112  0.2509
 1095SOL     OW 4334   4.816   2.677   4.605  0.3635 -0.5224 -0.4153
 1095SOL    HW1 4335   4.897   2.710   4.566 -0.8775  0.0268 -2.6759
 1095SOL    HW2 4336   4.752   2.681   4.535 -2.5236  2.1302  2.0804
 1096SOL     OW 4337   0.315   2.505   1.795 -0.2965 -0.3224 -0.0738
 1096SOL    HW1 4338   0.236   2.550   1.766 -0.3091 -1.9112 -2.8312
 1096SOL    HW2 4339   0.283   2.440   1.858 -0.7528  0.8946  1.0016
 1097SOL     OW 4340   2.860   2.647   4.072 -0.2081 -0.8892  0.8260
 1097SOL    HW1 4341   2.883   2.639   4.165 -0.0018  0.5271  0.9186
 1097SOL    HW2 4342   2.881   2.561   4.035 -0.2594 -1.4627  2.0776
 1098SOL     OW 4343   3.296   0.297   7.819  0.2127 -0.2025  0.0995
 1098SOL    HW1 4344   3.327   0.228   7.761 -0.4174 -1.0052  0.6871
 1098SOL    HW2 4345   3.299   0.377   7.766  0.2686 -0.8084 -0.8226
 1099SOL     OW 4346   0.661   6.028   0.859 -0.2303  0.4979 -0.1830
 1099SOL    HW1 4347   0.597   6.000   0.925 -1.7657 -0.2815 -1.9201
 1099SOL    HW2 4348   0.712   5.949   0.840 -0.1942  0.5671 -0.3720
 1100SOL     OW 4349   3.717   0.795   2.805  0.2222  0.3004  0.0715
 1100SOL    HW1 4350   3.764   0.782   2.723 -1.8279  0.9534 -1.2671
 1100SOL    HW2 4351   3.733   0.886   2.829  1.6014 -0.1414  0.9657
 1101SOL     OW 4352   1.767   8.248   1.424 -0.3032 -0.2823  0.2242
 1101SOL    HW1 4353   1.788   8.200   1.504  0.6622 -1.3150 -0.5948
 1101SOL    HW2 4354   1.672   8.252   1.422 -0.3391 -0.4732  1.2975
 1102SOL     OW 4355   5.781   2.166   0.916 -0.5148  0.8252 -0.3781
 1102SOL    HW1 4356   5.785   2.161   0.821  0.0071  1.0402 -0.3683
 1102SOL    HW2 4357   5.861   2.123   0.946 -1.5587 -0.9514  0.0246
 1103SOL     OW 4358   0.085   5.078   3.034 -0.0685  0.0460 -0.7334
 1103SOL    HW1 4359   0.082   4.984   3.053  1.4953  0.1975  0.4154
 1103SOL    HW2 4360   0.178   5.101   3.036 -0.4438  1.7144 -0.5511
 1104SOL     OW 4361   7.637   5.780   3.747  0.0289  0.1407  0.0058
 1104SOL    HW1 4362   7.685   5.848   3.700 -1.5416  0.8292 -0.6729
 1104SOL    HW2 4363   7.654   5.799   3.839  2.1875 -0.5187 -0.1925
 1105SOL     OW 4364   2.768   7.977   5.161  0.3873 -0.0687 -0.1773
 1105SOL    HW1 4365   2.745   7.884   5.161  1.4571 -0.3782  1.3241
 1105SOL    HW2 4366   2.860   7.979   5.136  0.1249  0.6859 -1.1217
 1106SOL     OW 4367   2.486   8.161   6.313 -0.1877  0.3760  0.5129
 1106SOL    HW1 4368   2.404   8.116   6.335  0.9838 -1.2635  1.7063
 1106SOL    HW2 4369   2.529   8.176   6.397  1.1980  0.3446 -0.1582
 1107SOL     OW 4370   0.023   4.594   1.666  0.3337  0.4029  0.0645
 1107SOL    HW1 4371   0.015   4.631   1.754  0.0685 -0.5153  0.4363
 1107SOL    HW2 4372  -0.046   4.529   1.661  0.7898 -0.0437 -0.5779
 1108SOL     OW 4373   3.576   2.048   0.232  0.6861  0.1897 -0.2130
 1108SOL    HW1 4374   3.509   1.981   0.217  1.1241 -0.8705  2.0471
 1108SOL    HW2 4375   3.526   2.129   0.243 -0.0939 -0.2641 -0.2868
 1109SOL     OW 4376   3.527   0.044   4.170  0.1197  0.3566  0.1713
 1109SOL    HW1 4377   3.474   0.094   4.232 -1.0086 -1.3358  0.6593
 1109SOL    HW2 4378   3.594   0.002   4.224 -1.0799 -1.4050  0.3763
 1110SOL     OW 4379   3.078   1.901   4.514  0.2163 -0.0702 -0.2811
 1110SOL    HW1 4380   3.108   1.885   4.603  0.6365  1.5620 -0.0915
 1110SOL    HW2 4381   3.008   1.837   4.500  1.1975 -1.3860  0.6389
 1111SOL     OW 4382   0.801   3.060   7.858 -0.0233  0.0816  0.1114
 1111SOL    HW1 4383   0.862   3.060   7.783 -0.4759 -1.8111 -0.3177
 1111SOL    HW2 4384   0.838   3.124   7.919  1.2217  0.5307 -1.0590
 1112SOL     OW 4385   1.091   3.881   5.251  0.2026 -0.1249 -0.5465
 1112SOL    HW1 4386   1.060   3.929   5.174  2.0178  0.8289 -0.7330
 1112SOL    HW2 4387   1.170   3.928   5.278 -0.3576 -0.4543  1.8880
 1113SOL     OW 4388   1.393   4.542   2.304  0.4790  0.5956  0.4203
 1113SOL    HW1 4389   1.407   4.490   2.225  0.4081 -0.6178  1.1742
 1113SOL    HW2 4390   1.440   4.494   2.372  1.3067  2.1105  0.9575
 1114SOL     OW 4391   6.334   1.107   3.787 -0.5554  0.3621 -0.7452
 1114SOL    HW1 4392   6.241   1.092   3.772 -1.0270  0.4782  1.5929
 1114SOL    HW2 4393   6.355   1.051   3.862  1.2553  0.3867 -1.1935
 1115SOL     OW 4394   3.293   0.686   1.188 -0.6590  0.0800  0.0058
 1115SOL    HW1 4395   3.359   0.729   1.242  2.3553 -0.0624 -3.2496
 1115SOL    HW2 4396   3.233   0.756   1.162  1.0777  1.2944 -0.8667
 1116SOL     OW 4397   4.378   0.003   4.419 -0.5661  0.2217  0.6709
 1116SOL    HW1 4398   4.441   0.045   4.478  1.5882 -1.1796 -0.5244
 1116SOL    HW2 4399   4.391   0.047   4.335 -0.3376 -0.8512  0.1302
 1117SOL     OW 4400   7.958   7.301   4.229  0.1468  0.0980 -0.6112
 1117SOL    HW1 4401   7.891   7.274   4.166 -1.2783 -0.0465  0.8921
 1117SOL    HW2 4402   8.004   7.373   4.186 -0.5734 -0.1964 -1.9269
 1118SOL     OW 4403   0.219   6.986   2.782  0.4640 -0.1226  0.4222
 1118SOL    HW1 4404   0.241   7.067   2.737  3.5199 -0.5156  0.9813
 1118SOL    HW2 4405   0.234   6.917   2.718 -2.2410 -0.3683 -0.0942
 1119SOL     OW 4406   5.004   0.365   4.787 -0.3813  0.1760 -0.3520
 1119SOL    HW1 4407   5.085   0.343   4.834  0.2248 -1.4875 -2.0447
 1119SOL    HW2 4408   5.017   0.455   4.757  0.7259  0.0209 -0.3717
 1120SOL     OW 4409   3.240   1.844   1.852  0.2745  0.1146  0.1054
 1120SOL    HW1 4410   3.174   1.775   1.855  0.9794 -0.5769  0.0933
 1120SOL    HW2 4411   3.287   1.829   1.771  0.6715  0.3795  0.2845
 1121SOL     OW 4412   4.275   4.619   7.577 -0.2049 -0.0923  0.2141
 1121SOL    HW1 4413   4.210   4.666   7.525 -0.7282  1.0156  1.8121
 1121SOL    HW2 4414   4.232   4.537   7.602 -1.0524  0.6630  1.3158
 1122SOL     OW 4415   5.172   1.858   1.639 -0.3918 -0.4890 -0.3055
 1122SOL    HW1 4416   5.226   1.790   1.680 -1.2129 -0.7770  0.3397
 1122SOL    HW2 4417   5.225   1.892   1.567  1.9629  1.3645  2.1036
 1123SOL     OW 4418   5.339   3.120   2.735  0.5249 -0.1935  0.0753
 1123SOL    HW1 4419   5.249   3.124   2.767  0.0320 -1.4491 -1.0071
 1123SOL    HW2 4420   5.385   3.190   2.781 -0.6214 -0.5287  1.8259
 1124SOL     OW 4421   3.399   2.277   5.154 -0.2053 -0.4406  0.2457
 1124SOL    HW1 4422   3.450   2.203   5.121 -0.8100 -0.5477 -0.4743
 1124SOL    HW2 4423   3.309   2.244   5.158 -0.3703  0.0413  0.5957
 1125SOL     OW 4424   2.618   6.208   5.753  0.1330  0.0646 -0.1639
 1125SOL    HW1 4425   2.705   6.246   5.754  0.5165 -0.7725  1.4612
 1125SOL    HW2 4426   2.631   6.118   5.720 -0.4655  0.6038 -2.0060
 1126SOL     OW 4427   0.320   1.301   6.876 -0.4034  0.2495 -0.3047
 1126SOL    HW1 4428   0.355   1.267   6.794 -1.0119  0.0700 -0.4870
 1126SOL    HW2 4429   0.252   1.240   6.901  0.0232  0.1019  0.5306
 1127SOL     OW 4430   2.634   5.615   1.063 -0.0805  0.5556  0.2535
 1127SOL    HW1 4431   2.584   5.676   1.117  0.8847  0.5393  1.1820
 1127SOL    HW2 4432   2.597   5.529   1.083  1.5593  0.2746  2.4791
 1128SOL     OW 4433   3.629   2.097   7.932 -0.1519 -0.5099 -0.5954
 1128SOL    HW1 4434   3.590   2.039   7.997 -1.4154  1.5002  0.5575
 1128SOL    HW2 4435   3.555   2.138   7.888  0.6231  1.3087 -0.3238
 1129SOL     OW 4436   5.338   5.558   1.553  0.7919 -0.4972  0.0819
 1129SOL    HW1 4437   5.340   5.500   1.629 -0.2571  1.1101  1.4266
 1129SOL    HW2 4438   5.259   5.532   1.505  0.5390 -0.4665  0.4727
 1130SOL     OW 4439   2.584   6.190   3.982  0.6746 -0.3887 -0.1168
 1130SOL    HW1 4440   2.540   6.241   4.050 -2.1083 -2.3093 -0.2948
 1130SOL    HW2 4441   2.671   6.173   4.017 -0.4045 -0.7071  2.6774
 1131SOL     OW 4442   0.669   2.748   8.193  0.1909 -0.0380 -0.0564
 1131SOL    HW1 4443   0.684   2.656   8.174 -0.1615 -0.2931  0.8601
 1131SOL    HW2 4444   0.700   2.794   8.114  0.4905 -0.9177 -0.4659
 1132SOL     OW 4445   1.381   1.203   0.185 -0.5102  0.1695  0.3622
 1132SOL    HW1 4446   1.350   1.113   0.197  2.5932 -1.2252 -0.8780
 1132SOL    HW2 4447   1.437   1.199   0.107 -0.4808  3.2931  0.0764
 1133SOL     OW 4448   7.967   7.688   7.767 -0.1013 -0.4522  1.6113
 1133SOL    HW1 4449   7.968   7.783   7.758  2.9810 -0.5326 -0.4577
 1133SOL    HW2 4450   7.907   7.659   7.698  0.8057 -0.0439  0.6256
 1134SOL     OW 4451   2.435   6.118   2.906  0.1167  0.0712 -0.3452
 1134SOL    HW1 4452   2.520   6.076   2.894  0.2616  0.7928 -2.0233
 1134SOL    HW2 4453   2.375   6.046   2.927  0.4691 -0.9662 -2.6140
 1135SOL     OW 4454   2.540   7.141   4.863  0.3805  0.2901  0.3546
 1135SOL    HW1 4455   2.573   7.078   4.799  0.1964  1.5630 -1.0448
 1135SOL    HW2 4456   2.451   7.111   4.882  0.4678 -0.1443  0.1010
 1136SOL     OW 4457   4.027   7.623   5.243  0.0165 -0.4119  0.3861
 1136SOL    HW1 4458   3.944   7.606   5.199  1.1984 -0.7685 -1.8692
 1136SOL    HW2 4459   4.081   7.667   5.177  2.3740 -2.1738  1.0115
 1137SOL     OW 4460   7.706   5.041   0.411  0.4465 -0.4572  0.1033
 1137SOL    HW1 4461   7.762   5.002   0.344  0.7839 -1.6033  1.0083
 1137SOL    HW2 4462   7.659   4.967   0.450 -1.6643  0.4666 -0.5607
 1138SOL     OW 4463   0.169   6.776   0.554  0.4032  0.7011 -0.3362
 1138SOL    HW1 4464   0.149   6.683   0.546  1.9806  0.3531 -0.3995
 1138SOL    HW2 4465   0.089   6.814   0.592 -0.7604 -0.4313 -1.5581
 1139SOL     OW 4466   0.438   6.296   3.231  0.7432  0.3764  0.0010
 1139SOL    HW1 4467   0.446   6.249   3.148  1.1344 -0.3456  0.4403
 1139SOL    HW2 4468   0.392   6.377   3.208  0.6804  0.1005 -0.8852
 1140SOL     OW 4469   5.150   0.888   5.572 -0.6746  0.0089  0.0445
 1140SOL    HW1 4470   5.223   0.827   5.561  0.2230  1.2595 -1.2319
 1140SOL    HW2 4471   5.114   0.900   5.484 -0.4583  1.7497  0.1567
 1141SOL     OW 4472   7.884   4.810   1.275  0.0154  0.0215 -0.5152
 1141SOL    HW1 4473   7.890   4.833   1.182 -1.0188  0.1226 -0.5650
 1141SOL    HW2 4474   7.910   4.890   1.321  1.0162 -0.1802 -0.7082
 1142SOL     OW 4475   1.272   5.709   7.722  0.0204  0.3067 -0.1775
 1142SOL    HW1 4476   1.302   5.786   7.771 -0.0646 -0.4294  1.0536
 1142SOL    HW2 4477   1.234   5.746   7.642 -0.8196  1.6239  0.7833
 1143SOL     OW 4478   4.037   0.442   7.759  0.1753 -0.1117  0.0440
 1143SOL    HW1 4479   4.081   0.357   7.756 -0.5611 -0.4821 -0.5121
 1143SOL    HW2 4480   4.016   0.455   7.852 -1.3401 -1.3948 -0.0987
 1144SOL     OW 4481   0.240   3.244   7.229  0.0494  0.1793  0.3425
 1144SOL    HW1 4482   0.335   3.231   7.232  0.0045 -0.0743  0.7021
 1144SOL    HW2 4483   0.209   3.217   7.316 -0.1222  2.1224  0.9327
 1145SOL     OW 4484   2.469   2.525   3.508 -0.5213 -0.2947  0.0958
 1145SOL    HW1 4485   2.379   2.548   3.484 -1.4034 -1.1251  2.3177
 1145SOL    HW2 4486   2.496   2.463   3.440 -1.3391  0.5021 -1.0047
 1146SOL     OW 4487   5.335   4.594   0.852 -0.4764 -1.1459 -0.4501
 1146SOL    HW1 4488   5.360   4.502   0.863  0.4815 -0.7705  0.9252
 1146SOL    HW2 4489   5.352   4.633   0.938 -0.2581  0.4512 -1.1771
 1147SOL     OW 4490   7.078   5.429   3.838  0.4379  0.1222  0.3675
 1147SOL    HW1 4491   7.046   5.392   3.756  0.6692 -0.5314  0.5671
 1147SOL    HW2 4492   7.153   5.483   3.811  0.3943  0.0643  0.1248
 1148SOL     OW 4493   7.125   3.713   2.667 -0.8166  0.3949 -0.1772
 1148SOL    HW1 4494   7.140   3.800   2.630 -1.6722 -0.3061 -2.3640
 1148SOL    HW2 4495   7.175   3.654   2.611  1.3508 -0.4280  2.4361
 1149SOL     OW 4496   0.794   5.210   5.657 -0.0490  0.2326  0.2018
 1149SOL    HW1 4497   0.749   5.293   5.670 -0.4725  0.1998 -0.9439
 1149SOL    HW2 4498   0.724   5.145   5.649  0.2584 -0.1247  0.3731
 1150SOL     OW 4499   0.616   5.242   1.775  0.3531  0.5693 -0.3117
 1150SOL    HW1 4500   0.601   5.269   1.685  1.2191 -0.5179 -0.8169
 1150SOL    HW2 4501   0.704   5.275   1.796  1.5268 -1.8285 -1.0183
 1151SOL     OW 4502   3.723   4.395   2.012 -0.4154 -0.2982  0.4349
 1151SOL    HW1 4503   3.766   4.418   1.929 -0.4293 -0.3342  0.4179
 1151SOL    HW2 4504   3.665   4.468   2.030 -0.1254 -0.1055  0.6100
 1152SOL     OW 4505   7.823   2.665   7.897  0.2411 -0.6753 -0.0485
 1152SOL    HW1 4506   7.834   2.585   7.949  0.6480 -1.2808 -1.0243
 1152SOL    HW2 4507   7.839   2.636   7.807  2.2210  0.8815 -0.2406
 1153SOL     OW 4508   2.088   5.672   3.053 -0.3229  0.4253 -0.1155
 1153SOL    HW1 4509   2.101   5.719   3.135  0.0232 -0.1982  0.2031
 1153SOL    HW2 4510   2.171   5.682   3.006 -0.3788  0.4433 -0.2119
 1154SOL     OW 4511   7.404   2.855   0.657  0.0126  0.2920  0.1919
 1154SOL    HW1 4512   7.393   2.761   0.644  1.7526  0.1534 -0.5493
 1154SOL    HW2 4513   7.314   2.889   0.659 -0.6533 -0.9817 -2.6243
 1155SOL     OW 4514   3.725   7.701   0.159 -0.2891  0.3111  1.0276
 1155SOL    HW1 4515   3.633   7.725   0.167 -0.6390 -0.0660 -1.1295
 1155SOL    HW2 4516   3.740   7.695   0.065  1.7329 -0.4788  1.3410
 1156SOL     OW 4517   4.328   1.225   0.463  0.4841  0.1637  0.4186
 1156SOL    HW1 4518   4.302   1.142   0.504  1.4220  0.1794  1.0792
 1156SOL    HW2 4519   4.413   1.207   0.424  0.2080  0.5332 -0.3825
 1157SOL     OW 4520   8.110   4.284   3.180  0.3447 -0.0387 -0.6667
 1157SOL    HW1 4521   8.101   4.365   3.232 -0.8562 -0.9597  0.6455
 1157SOL    HW2 4522   8.172   4.231   3.230 -0.5764 -0.8076 -0.3073
 1158SOL     OW 4523   5.923   1.553   4.230 -0.1703 -0.0686  0.0440
 1158SOL    HW1 4524   5.971   1.509   4.160 -2.5291 -1.1493 -1.0200
 1158SOL    HW2 4525   5.908   1.641   4.196 -1.8769 -0.7854 -1.1998
 1159SOL     OW 4526   1.332   4.256   5.591 -0.2154 -0.5972 -0.3333
 1159SOL    HW1 4527   1.256   4.290   5.637 -0.2244 -0.5852 -0.3574
 1159SOL    HW2 4528   1.360   4.327   5.534  0.5097 -0.1831  0.5142
 1160SOL     OW 4529   2.956   4.033   6.731  0.5261 -0.2445 -0.0707
 1160SOL    HW1 4530   2.915   3.988   6.805  2.4771 -2.2902 -0.1257
 1160SOL    HW2 4531   2.978   4.120   6.765 -1.8836  0.1946  0.5523
 1161SOL     OW 4532   8.163   7.028   5.330  0.4084  0.1752  0.4855
 1161SOL    HW1 4533   8.237   6.968   5.328  0.5970  0.4086 -1.3415
 1161SOL    HW2 4534   8.087   6.972   5.343  0.5093 -0.5913 -1.8333
 1162SOL     OW 4535   7.248   5.508   3.613 -0.2440  0.0868  0.2319
 1162SOL    HW1 4536   7.293   5.439   3.565 -2.6121 -1.3996  0.0008
 1162SOL    HW2 4537   7.297   5.588   3.592  0.9738 -1.0984 -1.6786
 1163SOL     OW 4538   0.919   7.243   7.203  0.1075 -0.6243 -0.6006
 1163SOL    HW1 4539   0.881   7.165   7.162 -2.3462  0.5181 -0.6648
 1163SOL    HW2 4540   0.910   7.227   7.297  0.6397 -0.8839 -0.5910
 1164SOL     OW 4541   5.760   7.759   4.657  0.5415  0.3218  0.1353
 1164SOL    HW1 4542   5.822   7.826   4.628  2.8818 -1.4593  0.7155
 1164SOL    HW2 4543   5.815   7.690   4.694 -1.5683 -2.7148 -1.9338
 1165SOL     OW 4544   2.667   5.598   2.971  0.3466 -0.3043 -0.0837
 1165SOL    HW1 4545   2.727   5.652   2.919  0.6172  0.0982  0.6235
 1165SOL    HW2 4546   2.652   5.520   2.917 -0.0376  0.4648 -1.1111
 1166SOL     OW 4547   2.177   3.712   6.610 -0.3500  0.3712 -0.0525
 1166SOL    HW1 4548   2.176   3.807   6.595  0.1481  0.4377  0.3117
 1166SOL    HW2 4549   2.102   3.696   6.667 -0.2116  0.6043  0.1995
 1167SOL     OW 4550   3.508   6.483   7.757  0.2613  0.5289  0.0753
 1167SOL    HW1 4551   3.527   6.415   7.692 -1.5567  0.6902 -0.6981
 1167SOL    HW2 4552   3.497   6.563   7.706 -1.5715  0.5816  0.4840
 1168SOL     OW 4553   3.760   5.766   7.299  0.2423 -0.6341  0.1370
 1168SOL    HW1 4554   3.670   5.737   7.313  0.9612 -2.6975  0.7684
 1168SOL    HW2 4555   3.808   5.739   7.377  0.9972  2.6726  1.0039
 1169SOL     OW 4556   7.997   7.903   0.971 -0.7463 -0.0060 -0.2761
 1169SOL    HW1 4557   8.083   7.923   0.934 -1.0094  1.7011 -0.0813
 1169SOL    HW2 4558   7.940   7.888   0.895 -0.0441 -2.4502 -0.3889
 1170SOL     OW 4559   1.106   4.143   2.276 -0.1479  0.3960  0.2528
 1170SOL    HW1 4560   1.039   4.173   2.337 -0.4806 -1.2170  0.7207
 1170SOL    HW2 4561   1.059   4.130   2.193 -0.2143  0.1681  0.3269
 1171SOL     OW 4562   0.282   5.481   2.712  0.7463  0.3228  0.7608
 1171SOL    HW1 4563   0.301   5.431   2.792  2.0970  0.1168  0.3367
 1171SOL    HW2 4564   0.278   5.416   2.643 -2.6194  0.2230  0.9081
 1172SOL     OW 4565   4.109   6.532   3.897  0.7905 -0.1026  0.3038
 1172SOL    HW1 4566   4.160   6.469   3.846 -0.2475  1.4844 -2.9105
 1172SOL    HW2 4567   4.124   6.616   3.854 -2.5071  0.8543  0.7305
 1173SOL     OW 4568   0.963   1.267   7.350  0.0598  0.4299 -0.4128
 1173SOL    HW1 4569   1.038   1.298   7.298 -0.4212  0.6120 -1.0033
 1173SOL    HW2 4570   0.892   1.327   7.328 -0.3738  0.0169 -0.1486
 1174SOL     OW 4571   2.606   2.538   2.021 -0.0016 -0.0824 -0.4810
 1174SOL    HW1 4572   2.603   2.624   1.979 -0.1141 -0.8403 -2.0664
 1174SOL    HW2 4573   2.514   2.515   2.036  0.0464  0.3107  0.4744
 1175SOL     OW 4574   8.205   7.575   7.591 -0.5363  0.2638 -0.0998
 1175SOL    HW1 4575   8.236   7.485   7.602  0.9503  0.5542 -1.4524
 1175SOL    HW2 4576   8.126   7.566   7.536 -1.2971 -0.2924  1.0449
 1176SOL     OW 4577   6.769   6.700   5.749  0.3494 -0.4896  0.1448
 1176SOL    HW1 4578   6.828   6.630   5.719 -0.2814 -0.5488 -0.9833
 1176SOL    HW2 4579   6.681   6.665   5.735  0.0147  0.7192 -0.9238
 1177SOL     OW 4580   4.735   3.223   4.816 -0.2929  0.4436 -0.5995
 1177SOL    HW1 4581   4.748   3.313   4.846 -1.7667 -0.4148  3.0721
 1177SOL    HW2 4582   4.823   3.185   4.818 -0.1217  0.8533  1.4394
 1178SOL     OW 4583   5.541   5.156   7.115 -0.0871 -0.6194  0.3854
 1178SOL    HW1 4584   5.536   5.078   7.059  0.2285 -0.4815  0.1628
 1178SOL    HW2 4585   5.633   5.162   7.138 -0.0087  0.0355 -0.0887
 1179SOL     OW 4586   7.717   6.761   0.971 -0.4167  0.5651 -0.3099
 1179SOL    HW1 4587   7.738   6.682   1.020 -0.0182  0.3123 -0.8768
 1179SOL    HW2 4588   7.642   6.799   1.017  1.7449  1.9587  2.3087
 1180SOL     OW 4589   1.729   0.977   3.465 -0.0320  0.1750  0.2759
 1180SOL    HW1 4590   1.722   1.069   3.440 -0.0679  0.3596  0.9508
 1180SOL    HW2 4591   1.793   0.940   3.404  1.0111  0.9645  0.8576
 1181SOL     OW 4592   4.385   4.752   2.927 -0.0287 -0.2340  0.0374
 1181SOL    HW1 4593   4.344   4.709   2.853  0.7638  0.2404 -0.6992
 1181SOL    HW2 4594   4.479   4.747   2.908  0.1045  1.4288  0.1371
 1182SOL     OW 4595   5.025   0.444   6.330 -0.0705  0.6351  0.1932
 1182SOL    HW1 4596   5.054   0.422   6.419  1.1275  1.9381  0.1635
 1182SOL    HW2 4597   4.970   0.522   6.342  1.7034  2.0287 -0.3507
 1183SOL     OW 4598   4.483   7.142   3.740 -0.2661  0.3882 -0.1114
 1183SOL    HW1 4599   4.391   7.150   3.766  0.2852 -0.7401  2.5029
 1183SOL    HW2 4600   4.495   7.048   3.725  0.7382  0.3359  0.8915
 1184SOL     OW 4601   4.756   6.346   4.573  0.0127 -0.0112 -0.1655
 1184SOL    HW1 4602   4.764   6.251   4.583  1.0171  0.1202  0.4967
 1184SOL    HW2 4603   4.795   6.382   4.653  0.7714  0.9717 -0.9360
 1185SOL     OW 4604   2.872   3.452   6.132  0.0005 -0.1934 -0.3959
 1185SOL    HW1 4605   2.808   3.509   6.090 -0.8919 -1.4513 -0.7955
 1185SOL    HW2 4606   2.943   3.445   6.068 -0.1022  0.0959 -0.5433
 1186SOL     OW 4607   6.699   5.435   6.635  0.2905  0.4079  0.0924
 1186SOL    HW1 4608   6.629   5.418   6.571 -0.1832  1.2338  0.3721
 1186SOL    HW2 4609   6.779   5.407   6.590 -0.2468 -0.9177 -0.0842
 1187SOL     OW 4610   1.880   7.512   5.513 -0.1520 -0.0968  0.7071
 1187SOL    HW1 4611   1.936   7.492   5.439  0.7224 -0.5424  1.4662
 1187SOL    HW2 4612   1.816   7.441   5.515  0.1791 -0.3943  0.7266
 1188SOL     OW 4613   0.185   4.540   3.982 -0.1536  0.6113  0.1630
 1188SOL    HW1 4614   0.215   4.505   4.066 -0.9222  0.7793  0.5182
 1188SOL    HW2 4615   0.092   4.558   3.996 -0.0585  1.5878 -0.4166
 1189SOL     OW 4616   2.891   2.620   6.696  0.1951 -0.0634 -0.5535
 1189SOL    HW1 4617   2.823   2.598   6.759  2.2431 -1.2020  1.4216
 1189SOL    HW2 4618   2.845   2.633   6.613 -2.6402  1.5811  1.1408
 1190SOL     OW 4619   5.308   0.704   0.257 -0.2488 -0.1253  0.3698
 1190SOL    HW1 4620   5.238   0.648   0.292 -0.2181 -0.2244  0.2734
 1190SOL    HW2 4621   5.354   0.648   0.194 -1.6895  0.7126 -1.5418
 1191SOL     OW 4622   0.854   1.387   6.756  0.2631  0.6299  0.0084
 1191SOL    HW1 4623   0.803   1.426   6.827 -1.2048 -1.5274  0.2439
 1191SOL    HW2 4624   0.789   1.363   6.690  1.2164 -0.3621 -0.6065
 1192SOL     OW 4625   5.676   0.063   2.586  0.1952 -0.5084 -0.6502
 1192SOL    HW1 4626   5.734   0.015   2.527 -0.6043 -3.4471  0.7593
 1192SOL    HW2 4627   5.590   0.022   2.575 -0.8045  1.3006 -0.0487
 1193SOL     OW 4628   3.100   3.368   2.446  0.2963 -0.7145  0.0635
 1193SOL    HW1 4629   3.115   3.279   2.477  0.2783 -0.4512  0.8822
 1193SOL    HW2 4630   3.145   3.423   2.511 -1.4354 -0.0411  0.7557
 1194SOL     OW 4631   3.325   1.589   1.439 -0.0839 -0.2040  0.0272
 1194SOL    HW1 4632   3.260   1.647   1.477 -0.2818  0.7799 -1.7133
 1194SOL    HW2 4633   3.409   1.623   1.470 -0.3030 -0.5995  1.1033
 1195SOL     OW 4634   6.565   7.592   6.029  0.2203  0.2191  0.2074
 1195SOL    HW1 4635   6.588   7.583   6.122 -1.6278  0.0656  0.6822
 1195SOL    HW2 4636   6.630   7.539   5.983 -0.9040 -2.6534  1.6985
 1196SOL     OW 4637   7.168   7.868   3.345  0.0570  0.9076 -0.6365
 1196SOL    HW1 4638   7.251   7.884   3.391  0.1148  1.2732 -0.8610
 1196SOL    HW2 4639   7.174   7.778   3.315 -0.6145  0.1148  1.3949
 1197SOL     OW 4640   1.825   6.629   8.067 -0.5798  0.2263 -0.2258
 1197SOL    HW1 4641   1.896   6.627   8.131 -1.0417  1.2025  0.3471
 1197SOL    HW2 4642   1.866   6.601   7.985  0.0883 -0.7632  0.4217
 1198SOL     OW 4643   5.619   8.048   2.994  0.0074 -0.0715 -0.0301
 1198SOL    HW1 4644   5.691   8.037   3.055 -0.0660  0.0906  0.0871
 1198SOL    HW2 4645   5.658   8.036   2.908 -0.0271 -1.0598  0.0729
 1199SOL     OW 4646   6.220   2.928   4.478  0.2245 -0.1745  0.4963
 1199SOL    HW1 4647   6.202   2.839   4.508 -0.2691  0.4640  2.2157
 1199SOL    HW2 4648   6.315   2.935   4.479  0.3015 -0.9246 -0.4494
 1200SOL     OW 4649   4.777   3.542   7.395  0.5692  0.3078 -0.4331
 1200SOL    HW1 4650   4.861   3.526   7.353  0.7257  1.0360 -0.4147
 1200SOL    HW2 4651   4.776   3.637   7.411 -0.6289  0.4574 -1.2422
 1201SOL     OW 4652   0.226   6.243   3.938 -0.4315 -0.3872  0.4370
 1201SOL    HW1 4653   0.283   6.277   3.869 -0.1273 -0.5908  0.5849
 1201SOL    HW2 4654   0.237   6.148   3.933 -0.3426 -0.3992  0.8187
 1202SOL     OW 4655   3.902   1.964   7.533 -0.4203 -0.2104  0.3003
 1202SOL    HW1 4656   3.812   1.939   7.554 -0.9129  1.5580  0.4029
 1202SOL    HW2 4657   3.928   2.021   7.605  0.8850 -0.8664  0.3828
 1203SOL     OW 4658   0.389   2.885   4.221  0.4685  0.3745  0.2571
 1203SOL    HW1 4659   0.411   2.977   4.204  0.7048  0.0543 -1.3649
 1203SOL    HW2 4660   0.300   2.887   4.254  0.5315  1.2069  0.3899
 1204SOL     OW 4661   5.657   2.292   1.107  0.3212  0.6252  0.2067
 1204SOL    HW1 4662   5.584   2.234   1.129 -0.0965  1.2573  0.5218
 1204SOL    HW2 4663   5.697   2.252   1.030  0.9902 -0.9111  1.2957
 1205SOL     OW 4664   6.854   3.407   4.825 -0.4954  0.3339 -0.3388
 1205SOL    HW1 4665   6.760   3.408   4.845 -0.5760 -0.2416 -0.6939
 1205SOL    HW2 4666   6.894   3.453   4.899 -0.9335 -0.5497  0.4637
 1206SOL     OW 4667   2.057   1.219   7.962  0.1279 -0.1552 -0.5270
 1206SOL    HW1 4668   2.106   1.156   8.015  1.2881  0.6102 -0.6520
 1206SOL    HW2 4669   1.983   1.244   8.017  0.9722  0.1700  0.4947
 1207SOL     OW 4670   4.836   2.202   7.664  0.6935 -0.5242  0.2235
 1207SOL    HW1 4671   4.890   2.249   7.599  1.4230 -0.9309  0.5310
 1207SOL    HW2 4672   4.767   2.265   7.686 -0.1645 -0.7321 -1.6816
 1208SOL     OW 4673   5.587   4.182   0.372  0.0561  0.2325  0.1247
 1208SOL    HW1 4674   5.634   4.103   0.398 -0.6723 -0.5095 -0.7650
 1208SOL    HW2 4675   5.503   4.176   0.417  0.2338  0.8364  0.5613
 1209SOL     OW 4676   0.168   6.065   2.046 -0.4050  0.1097  0.0971
 1209SOL    HW1 4677   0.149   6.133   1.982 -0.6329  1.4989  1.5817
 1209SOL    HW2 4678   0.142   6.103   2.130  0.9576 -1.2019  1.1687
 1210SOL     OW 4679   5.370   4.862   3.381 -0.2310 -0.3503  0.1017
 1210SOL    HW1 4680   5.399   4.779   3.419  1.8698  0.1317 -0.3229
 1210SOL    HW2 4681   5.318   4.837   3.305  0.4806 -1.2786 -0.0906
 1211SOL     OW 4682   5.845   0.909   1.444  0.8814  0.1211 -0.1264
 1211SOL    HW1 4683   5.912   0.956   1.395  2.1902  0.6599  2.0325
 1211SOL    HW2 4684   5.785   0.976   1.475  0.4787 -0.1251 -0.3574
 1212SOL     OW 4685   6.819   5.316   4.790 -0.3907  0.1156 -0.1536
 1212SOL    HW1 4686   6.890   5.252   4.786 -0.7515 -0.2296 -1.2454
 1212SOL    HW2 4687   6.864   5.401   4.782  0.0489 -0.0016  0.9020
 1213SOL     OW 4688   3.251   5.524   0.269  0.2364 -0.6288 -0.3491
 1213SOL    HW1 4689   3.250   5.477   0.352  1.0811 -0.2403 -0.0979
 1213SOL    HW2 4690   3.339   5.508   0.233  0.0765 -0.3357 -0.8922
 1214SOL     OW 4691   2.890   1.822   1.629  0.1258  0.4660  0.2680
 1214SOL    HW1 4692   2.886   1.786   1.718 -1.9746 -0.2493 -0.0552
 1214SOL    HW2 4693   2.886   1.917   1.642 -1.4807  0.3479  0.9554
 1215SOL     OW 4694   5.579   5.533   0.467  0.2890  0.2291 -0.4854
 1215SOL    HW1 4695   5.607   5.542   0.375  0.0091  1.1712 -0.4873
 1215SOL    HW2 4696   5.614   5.448   0.494  1.1349  0.3318 -1.1976
 1216SOL     OW 4697   8.218   4.650   2.615 -0.2238 -0.1196 -0.4987
 1216SOL    HW1 4698   8.269   4.675   2.538 -1.4148  0.8258 -1.0230
 1216SOL    HW2 4699   8.161   4.725   2.631  0.1999 -0.1641  1.5075
 1217SOL     OW 4700   5.735   5.645   1.926  0.3691 -0.4656 -0.0064
 1217SOL    HW1 4701   5.765   5.736   1.931 -0.7275 -0.1189  0.6437
 1217SOL    HW2 4702   5.807   5.598   1.883 -0.3177  1.2858 -3.4071
 1218SOL     OW 4703   1.647   1.605   0.880 -0.1524  0.6186  0.4481
 1218SOL    HW1 4704   1.553   1.589   0.873  0.0658 -1.0363  0.8249
 1218SOL    HW2 4705   1.669   1.575   0.968  0.8986 -0.0183 -0.0175
 1219SOL     OW 4706   1.391   1.213   1.258 -0.0098 -0.1019  0.1896
 1219SOL    HW1 4707   1.356   1.157   1.327  0.1130  1.5760  1.6785
 1219SOL    HW2 4708   1.470   1.168   1.228  1.1522  0.1515  2.6775
 1220SOL     OW 4709   1.988   7.432   5.286  0.2647  0.0622  0.1242
 1220SOL    HW1 4710   1.993   7.349   5.239 -0.3796  0.8211 -1.3593
 1220SOL    HW2 4711   2.078   7.464   5.290  0.3070  0.0453 -0.7132
 1221SOL     OW 4712   1.166   2.089   5.709 -0.1686 -0.0636  0.6508
 1221SOL    HW1 4713   1.121   2.121   5.787 -1.0688  0.7347 -0.1733
 1221SOL    HW2 4714   1.259   2.102   5.727 -0.4184  0.9550  1.2275
 1222SOL     OW 4715   0.071   5.362   2.314 -0.2251  0.2016 -0.5636
 1222SOL    HW1 4716   0.127   5.312   2.374 -0.4763  0.3636 -0.1903
 1222SOL    HW2 4717   0.111   5.449   2.312  0.5481 -0.1577 -1.6599
 1223SOL     OW 4718   4.329   8.255   2.843 -0.8569  0.1733 -0.3493
 1223SOL    HW1 4719   4.330   8.343   2.879  0.3055  0.1960 -0.3895
 1223SOL    HW2 4720   4.398   8.209   2.892 -0.1982 -0.1801 -1.5808
 1224SOL     OW 4721   5.917   6.559   1.158 -0.1369 -0.0638  0.5686
 1224SOL    HW1 4722   5.868   6.478   1.174 -1.2360  0.5775  0.5689
 1224SOL    HW2 4723   5.853   6.629   1.174  1.0221  0.8375  1.4169
 1225SOL     OW 4724   6.254   2.880   5.275  0.5729 -0.0246  0.1867
 1225SOL    HW1 4725   6.223   2.792   5.296 -1.8824  1.0340  1.4308
 1225SOL    HW2 4726   6.209   2.902   5.193  0.9018  0.2085  0.0677
 1226SOL     OW 4727   1.938   2.235   7.608 -0.0966 -0.3753 -0.6398
 1226SOL    HW1 4728   1.878   2.307   7.589 -0.9253 -1.0670 -0.6667
 1226SOL    HW2 4729   1.889   2.176   7.664  1.4397  0.3361  1.6055
 1227SOL     OW 4730   1.333   2.572   6.206 -0.1086  0.3259 -0.2642
 1227SOL    HW1 4731   1.320   2.652   6.257  1.2725  1.4243 -1.5369
 1227SOL    HW2 4732   1.400   2.524   6.254 -2.1070 -0.9780  1.4201
 1228SOL     OW 4733   4.806   6.408   7.705 -0.3417  0.3721 -0.3139
 1228SOL    HW1 4734   4.820   6.315   7.725  0.4249  1.0461  2.7729
 1228SOL    HW2 4735   4.828   6.415   7.612  0.4397 -2.3539 -0.4457
 1229SOL     OW 4736   6.821   8.055   2.561  0.6926  0.4019 -0.4087
 1229SOL    HW1 4737   6.895   8.072   2.619  1.5142 -0.2820 -1.2194
 1229SOL    HW2 4738   6.839   8.106   2.482 -0.7035  1.7871  0.1148
 1230SOL     OW 4739   1.722   6.456   2.755 -0.0269 -0.0029  0.3532
 1230SOL    HW1 4740   1.667   6.429   2.829 -2.0185 -1.9070 -1.6579
 1230SOL    HW2 4741   1.724   6.380   2.697  1.8869  1.2243 -1.3529
 1231SOL     OW 4742   8.114   5.822   5.318 -0.2943 -0.1027 -0.5506
 1231SOL    HW1 4743   8.030   5.790   5.350 -0.5876 -1.0653 -2.1964
 1231SOL    HW2 4744   8.179   5.773   5.369 -0.7498 -1.8039 -1.5403
 1232SOL     OW 4745   2.514   3.058   0.905 -0.2824 -0.1988  0.6246
 1232SOL    HW1 4746   2.508   2.968   0.873  1.4120 -0.5939  1.2871
 1232SOL    HW2 4747   2.604   3.066   0.937 -0.6900  1.4389  1.4834
 1233SOL     OW 4748   5.788   3.992   0.676 -1.0310  1.1674  0.0554
 1233SOL    HW1 4749   5.705   3.964   0.714 -0.2839 -0.7446  0.3985
 1233SOL    HW2 4750   5.847   4.002   0.751 -0.1815 -0.4046 -0.3296
 1234SOL     OW 4751   0.325   8.151   2.088 -0.0697  0.0225 -0.2367
 1234SOL    HW1 4752   0.277   8.163   2.006  1.3338  1.6958 -0.8710
 1234SOL    HW2 4753   0.351   8.239   2.113  0.8686 -0.6281  1.1933
 1235SOL     OW 4754   0.869   7.807   3.224 -0.1536  0.3542 -0.0001
 1235SOL    HW1 4755   0.870   7.826   3.130  0.0497 -0.8022 -0.2458
 1235SOL    HW2 4756   0.930   7.870   3.262  2.2125 -1.1624 -1.0603
 1236SOL     OW 4757   5.256   3.859   8.149  0.0431  0.0116 -0.5914
 1236SOL    HW1 4758   5.219   3.937   8.190 -1.2824 -1.2035  0.6228
 1236SOL    HW2 4759   5.197   3.839   8.076 -0.8408 -1.0237  0.3801
 1237SOL     OW 4760   5.400   5.876   6.788 -0.4942  0.1778  0.4809
 1237SOL    HW1 4761   5.411   5.876   6.883  0.2424 -4.2461  0.5781
 1237SOL    HW2 4762   5.486   5.899   6.753 -0.7944  1.9153  0.7958
 1238SOL     OW 4763   7.957   3.388   6.065  0.5292  0.6523  0.0412
 1238SOL    HW1 4764   7.861   3.391   6.068  0.4608  0.3666 -1.2684
 1238SOL    HW2 4765   7.982   3.341   6.145 -0.6157 -2.1797 -1.1204
 1239SOL     OW 4766   1.556   2.502   5.602 -0.0668 -0.5375 -0.1961
 1239SOL    HW1 4767   1.611   2.481   5.526  0.0261  0.6512 -0.4797
 1239SOL    HW2 4768   1.571   2.595   5.617 -2.6087  0.0643 -0.8243
 1240SOL     OW 4769   1.178   3.239   7.625 -0.1997  0.3118  0.0568
 1240SOL    HW1 4770   1.097   3.276   7.658 -0.5793  0.4602 -1.0215
 1240SOL    HW2 4771   1.224   3.313   7.585  0.1276  0.0790 -0.0037
 1241SOL     OW 4772   7.600   4.483   2.891 -0.4120  0.3144 -0.4008
 1241SOL    HW1 4773   7.670   4.455   2.949  0.0324  1.7934 -0.1866
 1241SOL    HW2 4774   7.542   4.536   2.946 -1.6324 -0.7706 -0.6088
 1242SOL     OW 4775   6.474   6.895   4.167  0.3268  0.7571  0.3040
 1242SOL    HW1 4776   6.390   6.850   4.170 -0.7353  2.6054 -0.2294
 1242SOL    HW2 4777   6.509   6.888   4.256  0.6926 -1.8698  0.0443
 1243SOL     OW 4778   6.398   1.916   3.327  0.2612  0.1697 -0.3578
 1243SOL    HW1 4779   6.444   1.989   3.286 -1.8593  1.2305 -1.0231
 1243SOL    HW2 4780   6.384   1.944   3.417 -1.7499  1.2786 -0.9561
 1244SOL     OW 4781   8.005   4.571   2.866 -0.2948 -0.0244 -0.0949
 1244SOL    HW1 4782   8.081   4.512   2.873 -0.9542 -1.1114 -1.4625
 1244SOL    HW2 4783   7.967   4.549   2.781 -1.0020  1.9021 -0.3112
 1245SOL     OW 4784   2.161   7.999   5.670 -0.5702 -0.5143  0.0096
 1245SOL    HW1 4785   2.100   8.040   5.732  0.1922 -1.0348  1.1385
 1245SOL    HW2 4786   2.224   8.067   5.650 -0.2809 -0.6138  0.5553
 1246SOL     OW 4787   3.649   2.479   5.169  0.1498 -0.5212 -0.1271
 1246SOL    HW1 4788   3.673   2.388   5.188  0.2666 -0.2148  1.3460
 1246SOL    HW2 4789   3.561   2.488   5.207 -0.4751 -0.4023 -1.5479
 1247SOL     OW 4790   1.346   1.883   8.095  0.5447  0.6471  0.0026
 1247SOL    HW1 4791   1.292   1.854   8.169  1.5050 -0.5725  0.2612
 1247SOL    HW2 4792   1.292   1.949   8.051 -2.8450 -2.9847 -1.9456
 1248SOL     OW 4793   6.692   2.271   5.000  0.4392 -0.3334 -0.5588
 1248SOL    HW1 4794   6.707   2.234   4.913  0.3963  0.2529 -0.8234
 1248SOL    HW2 4795   6.687   2.365   4.985 -0.8958 -0.3045 -0.1214
 1249SOL     OW 4796   1.960   7.530   5.967  0.1762 -0.1659  0.3637
 1249SOL    HW1 4797   1.887   7.471   5.987  1.2768 -1.5681  0.4168
 1249SOL    HW2 4798   1.967   7.586   6.044 -2.4797  1.8232 -0.7052
 1250SOL     OW 4799   6.009   1.285   4.768 -0.0182  0.3564  0.7782
 1250SOL    HW1 4800   6.078   1.269   4.832  1.0433  0.6371 -0.2637
 1250SOL    HW2 4801   5.981   1.376   4.785 -0.4418  0.1072  1.4690
 1251SOL     OW 4802   0.885   5.584   6.997  0.0734 -0.2751 -0.1076
 1251SOL    HW1 4803   0.813   5.633   6.957  1.4662  1.5440 -0.5309
 1251SOL    HW2 4804   0.947   5.568   6.926  0.8486 -0.3133  0.5537
 1252SOL     OW 4805   8.051   4.696   0.713  0.2686 -0.0625 -0.1389
 1252SOL    HW1 4806   8.103   4.765   0.755  1.1821 -0.5887 -0.3824
 1252SOL    HW2 4807   7.984   4.673   0.778 -0.3331  1.3504 -0.2254
 1253SOL     OW 4808   7.557   4.495   0.116  0.1285  0.2047  0.3605
 1253SOL    HW1 4809   7.490   4.472   0.180 -0.3995  2.2442  0.6148
 1253SOL    HW2 4810   7.529   4.580   0.082  1.2320 -0.0915 -1.4453
 1254SOL     OW 4811   1.648   3.521   3.642 -0.2592 -0.0093 -0.3673
 1254SOL    HW1 4812   1.671   3.488   3.729 -1.8623 -0.9186 -0.2557
 1254SOL    HW2 4813   1.584   3.591   3.659 -0.2134  0.1371 -0.7972
 1255SOL     OW 4814   3.522   0.334   1.267  0.3710 -0.1580  1.0952
 1255SOL    HW1 4815   3.434   0.352   1.234  1.3396 -1.9158 -3.1006
 1255SOL    HW2 4816   3.524   0.240   1.281  1.6845 -0.2452  0.5107
 1256SOL     OW 4817   3.873   5.735   7.039  0.2497 -0.0543  0.5406
 1256SOL    HW1 4818   3.826   5.707   7.117 -3.7322 -1.5119 -2.0578
 1256SOL    HW2 4819   3.893   5.827   7.054  0.4592 -0.4951  3.5206
 1257SOL     OW 4820   1.058   7.598   3.257 -0.1351  0.0841  0.1240
 1257SOL    HW1 4821   1.060   7.564   3.168 -0.9336  0.2762  0.0182
 1257SOL    HW2 4822   0.995   7.670   3.254 -1.4155 -0.9214  1.1680
 1258SOL     OW 4823   5.902   4.540   7.324  0.4779  0.1225  0.7270
 1258SOL    HW1 4824   5.893   4.483   7.247 -0.0023  0.9922  0.1283
 1258SOL    HW2 4825   5.837   4.507   7.386 -0.5033  0.6239 -0.0068
 1259SOL     OW 4826   8.082   6.460   0.850  0.2783 -0.0168  0.0109
 1259SOL    HW1 4827   7.999   6.419   0.874 -0.7498  0.8941 -1.7492
 1259SOL    HW2 4828   8.120   6.401   0.785  0.5722  0.0041  0.1635
 1260SOL     OW 4829   7.879   0.803   8.249  0.2769  0.3415 -0.7610
 1260SOL    HW1 4830   7.966   0.843   8.257  0.1221  0.4605  5.8106
 1260SOL    HW2 4831   7.820   0.866   8.291 -2.2320 -1.4989 -1.2965
 1261SOL     OW 4832   8.019   6.792   8.105  0.3568 -0.3484  0.0119
 1261SOL    HW1 4833   8.024   6.855   8.177  0.5492 -0.9083  0.5030
 1261SOL    HW2 4834   8.072   6.831   8.035 -2.3567  1.7135 -1.0518
 1262SOL     OW 4835   2.161   5.312   2.072  0.3760 -0.6077  0.5294
 1262SOL    HW1 4836   2.198   5.400   2.070 -1.1683  0.1124  1.4074
 1262SOL    HW2 4837   2.131   5.301   2.162  0.5923 -2.0649  0.4420
 1263SOL     OW 4838   4.814   0.646   2.403 -0.1122 -0.1920 -0.2048
 1263SOL    HW1 4839   4.838   0.643   2.310  0.0357  1.5136 -0.2429
 1263SOL    HW2 4840   4.817   0.738   2.426 -2.6381 -0.2798  0.8499
 1264SOL     OW 4841   1.716   2.886   7.211 -0.6415 -0.1218 -0.3155
 1264SOL    HW1 4842   1.679   2.973   7.192 -0.7823 -0.2499 -0.6328
 1264SOL    HW2 4843   1.717   2.881   7.306  0.9316  0.9189 -0.2203
 1265SOL     OW 4844   2.895   6.689   5.503  0.4523  0.4428 -0.1163
 1265SOL    HW1 4845   2.981   6.651   5.516 -0.1229 -0.7369  0.3587
 1265SOL    HW2 4846   2.841   6.618   5.469 -0.6358  0.8175  0.7291
 1266SOL     OW 4847   1.344   0.037   6.463 -0.7496  0.2629 -0.1278
 1266SOL    HW1 4848   1.390  -0.047   6.458 -1.6500 -0.2726  0.4048
 1266SOL    HW2 4849   1.305   0.049   6.376 -1.1008 -0.1528 -0.0281
 1267SOL     OW 4850   4.560   6.976   0.099  0.2246  0.3620 -0.6923
 1267SOL    HW1 4851   4.495   7.038   0.133 -2.6907 -2.5219 -0.5887
 1267SOL    HW2 4852   4.579   7.007   0.011 -1.9837  0.8810 -1.0430
 1268SOL     OW 4853   5.172   3.026   6.842 -0.1850 -0.1095  0.1980
 1268SOL    HW1 4854   5.187   2.952   6.901  1.3406 -0.0992 -0.1455
 1268SOL    HW2 4855   5.098   3.073   6.881  0.1093 -0.6939  1.5171
 1269SOL     OW 4856   0.689   5.177   5.972 -0.1166  0.5789 -0.5143
 1269SOL    HW1 4857   0.607   5.193   5.924  0.5129  0.5563 -1.6430
 1269SOL    HW2 4858   0.729   5.264   5.978  1.0376  0.2448 -2.3984
 1270SOL     OW 4859   0.245   3.502   3.902  0.0966  0.5738  0.6590
 1270SOL    HW1 4860   0.162   3.496   3.856  1.0640  0.2930 -1.1610
 1270SOL    HW2 4861   0.242   3.433   3.968 -0.7014 -0.1202 -0.0918
 1271SOL     OW 4862   1.630   1.289   2.456  0.7761  0.5852 -0.0242
 1271SOL    HW1 4863   1.661   1.372   2.492 -0.5101  1.3957 -0.7029
 1271SOL    HW2 4864   1.597   1.311   2.368 -1.1122 -0.2739  0.3998
 1272SOL     OW 4865   0.805   2.383   1.049  0.2718 -0.4174  0.4251
 1272SOL    HW1 4866   0.727   2.384   1.103 -0.9216 -2.2468 -1.1237
 1272SOL    HW2 4867   0.776   2.350   0.964  2.6884 -1.0416 -0.2607
 1273SOL     OW 4868   4.298   4.244   5.898  0.4300  0.0094 -0.2689
 1273SOL    HW1 4869   4.389   4.217   5.883  0.4189  0.4099 -1.1563
 1273SOL    HW2 4870   4.287   4.241   5.993  0.6796 -2.2326 -0.2654
 1274SOL     OW 4871   3.283   1.669   7.721  0.2434 -0.5299  0.1907
 1274SOL    HW1 4872   3.193   1.652   7.749  0.6661 -0.8943  1.3754
 1274SOL    HW2 4873   3.335   1.668   7.801  1.0530  1.5496 -0.2439
 1275SOL     OW 4874   2.020   5.837   6.908  0.1719 -0.0365 -0.4419
 1275SOL    HW1 4875   2.108   5.834   6.869  0.0427  1.1019 -0.8710
 1275SOL    HW2 4876   2.028   5.785   6.988  1.1921 -0.1080 -0.5695
 1276SOL     OW 4877   1.615   4.198   5.727  0.1664  0.6525 -0.2024
 1276SOL    HW1 4878   1.533   4.226   5.684 -0.7332  1.0064  1.6306
 1276SOL    HW2 4879   1.670   4.276   5.724 -0.3041  1.0118  0.2057
 1277SOL     OW 4880   3.655   2.412   3.000  0.2302 -0.1532  0.1133
 1277SOL    HW1 4881   3.619   2.483   2.946  2.7240  0.2669 -1.1116
 1277SOL    HW2 4882   3.589   2.343   2.994  0.6553 -0.4517 -4.2090
 1278SOL     OW 4883   1.464   7.025   4.402 -0.2066 -0.2974  0.3707
 1278SOL    HW1 4884   1.506   7.105   4.371 -3.2390  0.8218 -1.2789
 1278SOL    HW2 4885   1.498   6.956   4.345 -0.3076  0.4940 -0.6722
 1279SOL     OW 4886   6.352   2.048   2.332 -0.5798  0.4019  0.1040
 1279SOL    HW1 4887   6.409   2.045   2.409 -0.0162 -0.5835 -0.3297
 1279SOL    HW2 4888   6.376   2.129   2.288  1.0245 -0.3134 -0.4282
 1280SOL     OW 4889   5.202   2.761   5.086 -0.0959  0.3824 -0.4434
 1280SOL    HW1 4890   5.146   2.804   5.150 -0.5326  0.8818 -1.1408
 1280SOL    HW2 4891   5.247   2.834   5.042  0.9678  0.0012 -0.0218
 1281SOL     OW 4892   3.487   0.214   4.652  0.3212  0.1158  0.0394
 1281SOL    HW1 4893   3.559   0.151   4.654  1.0254  0.9057 -0.0485
 1281SOL    HW2 4894   3.410   0.161   4.632  1.2686 -0.3962 -2.6416
 1282SOL     OW 4895   0.115   3.601   5.194  0.2009  0.0223  0.3369
 1282SOL    HW1 4896   0.103   3.593   5.099 -2.6550 -0.0451  0.6124
 1282SOL    HW2 4897   0.183   3.667   5.204 -0.5185  1.1888 -1.7963
 1283SOL     OW 4898   8.146   4.841   3.247 -0.3671  0.3253  0.2426
 1283SOL    HW1 4899   8.121   4.908   3.310 -1.3062 -1.9661  2.4527
 1283SOL    HW2 4900   8.237   4.862   3.226  0.0040  1.1651  2.3887
 1284SOL     OW 4901   7.125   7.397   8.054 -0.0085 -0.2969 -1.1612
 1284SOL    HW1 4902   7.085   7.421   7.971 -0.0299  3.2911 -0.3042
 1284SOL    HW2 4903   7.219   7.412   8.041  0.0088  0.1005 -0.6539
 1285SOL     OW 4904   5.936   4.122   5.779 -0.1361 -0.5059 -0.4754
 1285SOL    HW1 4905   6.022   4.155   5.804 -0.7063  0.8448 -0.2242
 1285SOL    HW2 4906   5.954   4.063   5.705  1.0420 -0.6513 -0.1018
 1286SOL     OW 4907   7.649   5.782   7.538  0.5127 -0.4447  0.0968
 1286SOL    HW1 4908   7.654   5.694   7.575  1.1250 -0.1303  0.8001
 1286SOL    HW2 4909   7.655   5.841   7.614  2.9006  0.2384 -0.5287
 1287SOL     OW 4910   4.401   5.961   1.521  0.1436  0.1748 -0.0252
 1287SOL    HW1 4911   4.436   5.909   1.593  0.7835  1.2993  0.5022
 1287SOL    HW2 4912   4.434   5.917   1.442 -0.0124 -0.6839  0.3817
 1288SOL     OW 4913   3.067   5.601   7.728 -0.3526 -0.3596  0.5490
 1288SOL    HW1 4914   2.976   5.582   7.753 -0.7722  2.1755  1.3224
 1288SOL    HW2 4915   3.087   5.537   7.660 -4.2031  1.3909 -2.7161
 1289SOL     OW 4916   7.613   0.910   1.109 -0.8318 -0.1589 -0.3563
 1289SOL    HW1 4917   7.614   0.832   1.164  1.4367  0.3167  0.3930
 1289SOL    HW2 4918   7.596   0.982   1.170  2.0215  0.4107 -0.0825
 1290SOL     OW 4919   5.736   0.978   0.147 -0.5353 -1.4442 -0.0264
 1290SOL    HW1 4920   5.775   0.976   0.234  1.3330 -0.5006 -0.7818
 1290SOL    HW2 4921   5.810   0.986   0.087 -1.8295 -0.8391 -1.6498
 1291SOL     OW 4922   8.138   4.241   6.949 -1.3219  0.1219 -0.1883
 1291SOL    HW1 4923   8.057   4.262   6.995 -1.1097  1.7121 -0.4580
 1291SOL    HW2 4924   8.129   4.285   6.864 -0.6204 -0.5875 -0.6417
 1292SOL     OW 4925   5.419   0.999   3.652 -0.3258  0.0638  0.0997
 1292SOL    HW1 4926   5.475   0.930   3.688 -0.7404 -0.4211 -0.1641
 1292SOL    HW2 4927   5.467   1.080   3.668 -0.3539 -0.1634  1.4492
 1293SOL     OW 4928   0.517   4.235   8.018 -0.0449  0.1742  0.2423
 1293SOL    HW1 4929   0.610   4.216   8.028 -0.0312  0.9163  1.8317
 1293SOL    HW2 4930   0.478   4.152   7.988  1.1384 -0.0686 -0.6869
 1294SOL     OW 4931   5.242   1.862   3.821  0.2954  0.2548 -0.1958
 1294SOL    HW1 4932   5.238   1.958   3.820  0.7504  0.2891  0.3419
 1294SOL    HW2 4933   5.153   1.834   3.801 -0.0872  0.8051  0.6631
 1295SOL     OW 4934   2.710   2.899   4.440 -0.7187 -0.0783  0.3004
 1295SOL    HW1 4935   2.704   2.966   4.508 -2.6010 -0.9381  1.0249
 1295SOL    HW2 4936   2.803   2.901   4.414 -0.0161  0.5283  2.6114
 1296SOL     OW 4937   6.752   4.642   2.212 -0.6260 -0.1291 -0.2145
 1296SOL    HW1 4938   6.838   4.625   2.252 -0.2190  0.7639 -0.6901
 1296SOL    HW2 4939   6.769   4.706   2.143 -1.6436 -0.1174 -0.4763
 1297SOL     OW 4940   6.762   2.160   0.838 -0.2685 -0.0479  0.0371
 1297SOL    HW1 4941   6.709   2.197   0.768  0.2365  1.0399  0.2081
 1297SOL    HW2 4942   6.840   2.215   0.842  0.5449 -1.1593  0.2908
 1298SOL     OW 4943   1.700   0.725   6.925 -0.0744  0.1173 -0.2785
 1298SOL    HW1 4944   1.795   0.712   6.928  0.1826 -0.6372 -4.5291
 1298SOL    HW2 4945   1.684   0.803   6.978  2.7823 -0.1299  1.1068
 1299SOL     OW 4946   3.660   7.119   2.265 -0.3139  0.3387 -0.0392
 1299SOL    HW1 4947   3.682   7.080   2.181 -0.3940  0.4582 -0.1157
 1299SOL    HW2 4948   3.702   7.206   2.263 -0.5730  0.4635 -0.0796
 1300SOL     OW 4949   8.236   3.897   8.110  0.1338 -0.0367  0.3468
 1300SOL    HW1 4950   8.276   3.825   8.062  1.2278  0.2074  0.8722
 1300SOL    HW2 4951   8.198   3.954   8.043 -0.7166 -1.0676 -0.0744
 1301SOL     OW 4952   5.793   3.941   5.279  0.0805 -0.1427  0.2333
 1301SOL    HW1 4953   5.869   3.909   5.229 -0.1250  1.6018 -1.3354
 1301SOL    HW2 4954   5.717   3.907   5.232 -0.1092  0.8878 -0.2460
 1302SOL     OW 4955   1.955   2.442   3.042 -0.0140 -0.6386  0.5144
 1302SOL    HW1 4956   2.045   2.442   3.076 -0.0831 -0.3472  0.7075
 1302SOL    HW2 4957   1.935   2.350   3.025  1.2392 -0.5461 -1.9817
 1303SOL     OW 4958   5.308   7.684   5.051 -0.0991  0.0115  0.4581
 1303SOL    HW1 4959   5.274   7.773   5.040 -0.3230  0.0043  1.0656
 1303SOL    HW2 4960   5.239   7.628   5.015  1.3289  0.1681 -2.8769
 1304SOL     OW 4961   5.247   3.065   1.956 -0.0598  0.1119  0.3645
 1304SOL    HW1 4962   5.167   3.022   1.924 -0.8145  0.1662  2.0197
 1304SOL    HW2 4963   5.223   3.096   2.044  0.1605  4.6244 -0.9228
 1305SOL     OW 4964   2.230   2.665   6.953  0.0294 -0.6256 -0.2584
 1305SOL    HW1 4965   2.191   2.615   7.025 -0.4067 -0.0202 -0.0616
 1305SOL    HW2 4966   2.164   2.731   6.932 -0.1327 -1.2196 -1.6876
 1306SOL     OW 4967   5.438   1.166   4.316  0.1966 -0.5343 -0.2650
 1306SOL    HW1 4968   5.370   1.130   4.259 -0.4055 -0.1764  0.2187
 1306SOL    HW2 4969   5.393   1.185   4.398  0.8483 -0.1360  0.0079
 1307SOL     OW 4970   0.257   4.393   7.340  0.1140  0.0218  0.0195
 1307SOL    HW1 4971   0.244   4.299   7.354 -1.6421 -0.0118 -1.5118
 1307SOL    HW2 4972   0.302   4.399   7.256  3.8197  0.4954  1.8388
 1308SOL     OW 4973   4.841   3.101   3.980  0.1591  0.6068  0.2559
 1308SOL    HW1 4974   4.786   3.108   3.902 -0.0206 -0.2159  0.2976
 1308SOL    HW2 4975   4.925   3.138   3.953 -0.3107  1.6253  0.1061
 1309SOL     OW 4976   4.248   1.219   3.217  0.0868 -0.6316 -0.1292
 1309SOL    HW1 4977   4.321   1.206   3.157  0.5024 -1.5456  0.5451
 1309SOL    HW2 4978   4.248   1.312   3.236  2.2644 -0.8604  1.3202
 1310SOL     OW 4979   7.334   3.536   2.591  0.3000 -0.3243 -0.2099
 1310SOL    HW1 4980   7.407   3.546   2.652 -0.6710 -1.2345  1.1512
 1310SOL    HW2 4981   7.356   3.593   2.517  2.6305 -0.9586 -0.0807
 1311SOL     OW 4982   6.880   2.062   6.488 -0.2471  0.2096  0.4067
 1311SOL    HW1 4983   6.964   2.084   6.447 -0.5034  1.4263  0.5093
 1311SOL    HW2 4984   6.904   2.025   6.573  0.1700  1.4499  0.8409
 1312SOL     OW 4985   1.021   1.341   1.787 -0.0765 -0.0028  0.3557
 1312SOL    HW1 4986   1.102   1.322   1.834 -0.6384 -2.0392  0.5667
 1312SOL    HW2 4987   1.014   1.272   1.721 -1.7817 -0.0542  0.5406
 1313SOL     OW 4988   6.303   0.053   3.305  0.2035 -0.2307  0.3560
 1313SOL    HW1 4989   6.310   0.091   3.217 -0.7854  2.7378  1.4495
 1313SOL    HW2 4990   6.376  -0.009   3.310  0.9326  0.3042 -2.1730
 1314SOL     OW 4991   3.861   7.170   1.018 -0.1769  0.5839  0.1518
 1314SOL    HW1 4992   3.794   7.177   1.086  1.3875 -0.5529  1.9018
 1314SOL    HW2 4993   3.853   7.081   0.985 -0.0864  0.7112 -0.2128
 1315SOL     OW 4994   6.075   6.004   0.204  0.0018 -0.7051  0.2915
 1315SOL    HW1 4995   6.097   6.089   0.241 -1.9911 -0.0252  0.0550
 1315SOL    HW2 4996   6.020   6.024   0.128  1.7161 -2.1462 -1.4404
 1316SOL     OW 4997   1.511   2.115   0.724 -0.2060  0.0731 -0.0334
 1316SOL    HW1 4998   1.507   2.206   0.694 -0.9540  0.2953  0.6972
 1316SOL    HW2 4999   1.604   2.099   0.740  0.2070  0.0300 -2.1422
 1317SOL     OW 5000   2.852   5.726   6.645  0.0264  0.2640 -0.1610
 1317SOL    HW1 5001   2.934   5.774   6.644 -0.5944  1.3596 -1.0206
 1317SOL    HW2 5002   2.838   5.699   6.554 -1.5734  1.9371 -0.4778
 1318SOL     OW 5003   5.583   3.702   1.564 -0.2801  0.1148 -0.2848
 1318SOL    HW1 5004   5.608   3.610   1.552  0.7771  0.3592 -0.0469
 1318SOL    HW2 5005   5.488   3.701   1.560 -0.3652 -1.1912  1.0285
 1319SOL     OW 5006   7.520   0.415   7.162  0.1546 -0.1581  0.1151
 1319SOL    HW1 5007   7.439   0.380   7.124  0.0631 -0.8012  0.8756
 1319SOL    HW2 5008   7.524   0.376   7.249  1.2860 -0.1380  0.0878
 1320SOL     OW 5009   6.694   2.205   0.350  0.2253 -0.2485 -0.2642
 1320SOL    HW1 5010   6.715   2.260   0.274 -3.5655  2.1350  0.1107
 1320SOL    HW2 5011   6.669   2.121   0.313 -0.2515  0.4417 -1.5859
 1321SOL     OW 5012   6.477   1.946   6.579  0.1103  0.6001 -0.2406
 1321SOL    HW1 5013   6.560   1.907   6.550  0.7967  0.9721  1.1050
 1321SOL    HW2 5014   6.494   2.040   6.581 -0.7245  0.7799 -1.0294
 1322SOL     OW 5015   5.893   8.253   2.852 -0.0121  0.2302 -0.1222
 1322SOL    HW1 5016   5.862   8.338   2.821  0.2149 -0.3395 -2.0756
 1322SOL    HW2 5017   5.917   8.268   2.943 -2.2134  1.6570  0.3044
 1323SOL     OW 5018   6.140   0.547   4.972 -0.2354  0.1145  0.4564
 1323SOL    HW1 5019   6.097   0.462   4.981  1.5842 -1.0417 -1.0856
 1323SOL    HW2 5020   6.106   0.583   4.890  1.0030 -0.4094 -0.3149
 1324SOL     OW 5021   8.023   1.989   6.456  0.7614 -0.3694 -0.2352
 1324SOL    HW1 5022   7.934   2.017   6.480  2.1653  2.6384  2.0842
 1324SOL    HW2 5023   8.035   1.906   6.502 -0.1115  0.3146  1.2958
 1325SOL     OW 5024   5.452   8.184   2.590 -0.8466 -0.4342 -0.6232
 1325SOL    HW1 5025   5.379   8.210   2.647  0.4557  1.0706  0.4703
 1325SOL    HW2 5026   5.451   8.089   2.591 -1.6872 -0.4461  0.8803
 1326SOL     OW 5027   0.943   7.829   1.910 -0.0950  0.2473  0.7081
 1326SOL    HW1 5028   0.860   7.834   1.958 -1.1963  1.9010 -1.2109
 1326SOL    HW2 5029   0.976   7.918   1.908  0.7219 -0.0547 -0.2271
 1327SOL     OW 5030   1.558   6.610   4.594  0.3739 -0.3895  0.2637
 1327SOL    HW1 5031   1.635   6.574   4.637  1.4477  0.6234 -0.7544
 1327SOL    HW2 5032   1.568   6.587   4.502  0.6962  1.7484 -0.2843
 1328SOL     OW 5033   2.267   0.924   0.737  0.3369  0.0450  0.2308
 1328SOL    HW1 5034   2.297   0.916   0.647 -0.1255 -1.0064  0.1617
 1328SOL    HW2 5035   2.249   1.018   0.748  1.5203  0.3568 -0.3879
 1329SOL     OW 5036   6.728   0.210   5.943  0.1503 -0.5047 -0.6767
 1329SOL    HW1 5037   6.788   0.253   6.004 -1.3017  2.2843 -1.0793
 1329SOL    HW2 5038   6.668   0.161   5.999  2.6198 -3.3074 -0.2653
 1330SOL     OW 5039   5.988   1.497   2.645 -0.1249 -0.4290  0.1430
 1330SOL    HW1 5040   6.028   1.523   2.728 -0.7184  0.9265  0.0379
 1330SOL    HW2 5041   6.043   1.537   2.578 -1.3123  1.0525 -0.0113
 1331SOL     OW 5042   1.102   0.813   3.297  0.3767 -0.2251  0.7250
 1331SOL    HW1 5043   1.153   0.766   3.232  0.4453 -0.2666  0.8079
 1331SOL    HW2 5044   1.124   0.905   3.284 -0.2882 -0.1410  0.0984
 1332SOL     OW 5045   1.558   0.925   7.195  0.1122 -0.0267 -0.7971
 1332SOL    HW1 5046   1.603   0.866   7.255  1.1971  2.3315  0.8774
 1332SOL    HW2 5047   1.626   0.958   7.138  0.6147  3.0332  1.3002
 1333SOL     OW 5048   8.004   1.899   5.103 -0.3377  0.5844 -0.7558
 1333SOL    HW1 5049   7.925   1.951   5.089 -0.2198  0.9744 -0.0179
 1333SOL    HW2 5050   7.975   1.825   5.156 -0.3080  0.4555 -0.9209
 1334SOL     OW 5051   2.821   6.167   1.184 -0.7058  0.1905 -0.7655
 1334SOL    HW1 5052   2.881   6.224   1.232 -1.5419  0.7770 -0.3986
 1334SOL    HW2 5053   2.788   6.105   1.249  0.0249 -0.5792 -1.1151
 1335SOL     OW 5054   2.968   1.524   3.353  0.3303 -0.2686 -0.3970
 1335SOL    HW1 5055   3.020   1.534   3.433  0.2271 -1.7610 -0.1163
 1335SOL    HW2 5056   2.955   1.430   3.344 -2.0950  0.0154 -0.6084
 1336SOL     OW 5057   6.340   8.220   1.183  0.4333  0.4066  0.2209
 1336SOL    HW1 5058   6.363   8.312   1.196  0.1356  0.7406 -1.3759
 1336SOL    HW2 5059   6.389   8.194   1.105  0.7448 -0.8961  0.8190
 1337SOL     OW 5060   7.643   2.602   7.059  0.3528 -0.0188  0.7161
 1337SOL    HW1 5061   7.582   2.549   7.110 -0.7770  0.5386 -0.0146
 1337SOL    HW2 5062   7.618   2.585   6.968  0.8283  0.7647  0.4379
 1338SOL     OW 5063   0.974   7.964   2.711  0.5173  0.1525  0.4307
 1338SOL    HW1 5064   1.054   7.961   2.763  2.0670  0.4034 -1.7921
 1338SOL    HW2 5065   0.996   7.918   2.630 -1.6306  0.1629 -0.2293
 1339SOL     OW 5066   1.415   2.415   3.385 -0.5130 -0.2767 -0.1805
 1339SOL    HW1 5067   1.435   2.323   3.367  0.3134  0.0295 -0.8970
 1339SOL    HW2 5068   1.368   2.444   3.307  2.1858  0.7893 -1.5284
 1340SOL     OW 5069   7.164   6.931   4.400  0.2712  0.5398  0.0659
 1340SOL    HW1 5070   7.094   6.939   4.335  0.2877  0.7711  0.0753
 1340SOL    HW2 5071   7.202   6.845   4.384 -0.2173  0.2811  0.2629
 1341SOL     OW 5072   8.182   5.528   8.208  0.3457 -0.1923 -0.3982
 1341SOL    HW1 5073   8.089   5.519   8.188  0.4627  1.4259 -1.9350
 1341SOL    HW2 5074   8.189   5.506   8.301 -1.9823  1.8926  0.3971
 1342SOL     OW 5075   3.083   7.609   3.229  0.0495  0.1683  0.9215
 1342SOL    HW1 5076   3.129   7.528   3.207 -0.9307 -0.8162  2.3291
 1342SOL    HW2 5077   3.139   7.679   3.193  1.5636 -1.0622  0.7853
 1343SOL     OW 5078   3.608   4.414   3.439  0.3869 -0.3498  0.3311
 1343SOL    HW1 5079   3.606   4.409   3.535  0.0990 -2.9224  0.2533
 1343SOL    HW2 5080   3.701   4.421   3.417  0.4839 -0.1812  0.7714
 1344SOL     OW 5081   7.682   5.678   4.900  0.7272 -0.2409 -0.2750
 1344SOL    HW1 5082   7.593   5.712   4.888  1.1590  1.0350 -0.0163
 1344SOL    HW2 5083   7.676   5.586   4.872 -0.5970 -0.1005 -0.5439
 1345SOL     OW 5084   5.131   3.849   3.182  0.2141  0.6313 -0.2300
 1345SOL    HW1 5085   5.184   3.780   3.222  1.2652  1.8877  0.6373
 1345SOL    HW2 5086   5.097   3.899   3.256  0.8764  2.0489 -0.8418
 1346SOL     OW 5087   1.516   7.157   6.099 -0.1686  0.2242  0.3942
 1346SOL    HW1 5088   1.477   7.078   6.061  1.5633 -0.7733  0.6085
 1346SOL    HW2 5089   1.475   7.229   6.051  0.1817 -0.8991 -1.7152
 1347SOL     OW 5090   1.323   5.235   6.197 -0.1315  0.2647 -0.1436
 1347SOL    HW1 5091   1.233   5.220   6.168 -0.1827  0.0606  0.1203
 1347SOL    HW2 5092   1.375   5.221   6.118 -0.3558  0.6830 -0.3661
 1348SOL     OW 5093   3.557   1.639   2.361  0.3485 -0.4488  0.2875
 1348SOL    HW1 5094   3.632   1.657   2.418 -0.3005 -0.0544  1.0327
 1348SOL    HW2 5095   3.548   1.718   2.307  0.4041 -0.4472  0.2810
 1349SOL     OW 5096   3.403   7.683   4.090 -0.1285 -0.4068  0.6334
 1349SOL    HW1 5097   3.330   7.685   4.028  2.2987 -2.0381 -2.5937
 1349SOL    HW2 5098   3.418   7.775   4.114 -0.7558  0.3901 -1.8213
 1350SOL     OW 5099   3.122   2.496   2.270 -0.2839 -0.1693 -0.2617
 1350SOL    HW1 5100   3.070   2.421   2.243 -0.5222 -0.0108 -0.2509
 1350SOL    HW2 5101   3.124   2.490   2.366  0.3070 -0.5632 -0.2963
 1351SOL     OW 5102   7.276   7.756   8.204  0.6432 -0.0466  0.5009
 1351SOL    HW1 5103   7.341   7.693   8.171  1.5263  0.9976  0.1799
 1351SOL    HW2 5104   7.261   7.815   8.130 -2.6450 -1.6963 -0.3633
 1352SOL     OW 5105   5.520   7.770   0.897  0.4318 -0.2150  0.0864
 1352SOL    HW1 5106   5.474   7.708   0.954 -1.3421  0.1315 -0.8971
 1352SOL    HW2 5107   5.572   7.716   0.838  0.8931 -0.6399  0.8712
 1353SOL     OW 5108   6.231   7.336   2.898 -0.0747 -0.6288  0.4612
 1353SOL    HW1 5109   6.271   7.252   2.917  0.7063 -0.5616 -0.8064
 1353SOL    HW2 5110   6.265   7.395   2.965  0.6663 -0.9550  0.3801
 1354SOL     OW 5111   0.432   2.222   1.429 -0.3252  0.3072 -0.2662
 1354SOL    HW1 5112   0.466   2.240   1.516 -0.5352  0.1164 -0.1437
 1354SOL    HW2 5113   0.401   2.132   1.433 -0.1686  0.2404 -0.5925
 1355SOL     OW 5114   5.556   0.876   7.605  0.2527 -0.3544 -0.1772
 1355SOL    HW1 5115   5.635   0.880   7.659 -1.4956  0.7106  2.5219
 1355SOL    HW2 5116   5.514   0.961   7.618 -1.6998 -1.1435 -0.9371
 1356SOL     OW 5117   7.460   5.981   8.208 -0.2638 -0.1066 -0.2336
 1356SOL    HW1 5118   7.527   5.930   8.253  0.1828 -1.1998 -2.0058
 1356SOL    HW2 5119   7.459   6.065   8.253  4.6269  1.2355 -1.9346
 1357SOL     OW 5120   5.825   4.342   0.374  0.2116  0.7553  0.4948
 1357SOL    HW1 5121   5.739   4.303   0.358  1.0208 -0.3593 -1.6249
 1357SOL    HW2 5122   5.883   4.267   0.388  1.1866  1.3699 -0.1482
 1358SOL     OW 5123   6.377   1.138   7.475  0.8281 -0.0330 -0.4644
 1358SOL    HW1 5124   6.311   1.082   7.434  1.4047 -1.6872  0.7305
 1358SOL    HW2 5125   6.451   1.079   7.491  1.9627  1.3925 -0.3059
 1359SOL     OW 5126   7.107   4.184   3.850 -0.4229 -0.3879  0.3341
 1359SOL    HW1 5127   7.087   4.178   3.944  0.9879 -2.2845  0.5597
 1359SOL    HW2 5128   7.202   4.196   3.846 -0.5100  0.0623 -0.8699
 1360SOL     OW 5129   2.175   6.694   6.015 -0.1727 -0.4086 -0.5637
 1360SOL    HW1 5130   2.241   6.759   6.039  0.3370 -0.0705 -2.6476
 1360SOL    HW2 5131   2.213   6.648   5.940 -0.9352 -2.4943  0.2492
 1361SOL     OW 5132   8.013   0.420   7.723 -0.6761  0.6279  0.9152
 1361SOL    HW1 5133   7.997   0.400   7.631  1.4427 -0.8941  0.8268
 1361SOL    HW2 5134   7.926   0.413   7.764 -1.5764  0.8970 -0.8364
 1362SOL     OW 5135   0.353   2.218   7.550  0.1827  0.5095  0.4438
 1362SOL    HW1 5136   0.360   2.148   7.616 -1.0868 -0.5680 -0.5177
 1362SOL    HW2 5137   0.276   2.268   7.576  0.2679  0.6957  0.3364
 1363SOL     OW 5138   5.335   0.364   2.251  0.5644  0.6979 -0.1315
 1363SOL    HW1 5139   5.384   0.359   2.169  2.5403  1.3666  0.9515
 1363SOL    HW2 5140   5.322   0.458   2.266 -1.1906  0.5372 -0.4406
 1364SOL     OW 5141   5.122   7.445   5.433  0.3423 -0.2075 -0.4692
 1364SOL    HW1 5142   5.192   7.486   5.383  1.1999 -1.7629 -0.5944
 1364SOL    HW2 5143   5.156   7.442   5.523 -0.0595  0.1083 -0.3051
 1365SOL     OW 5144   4.666   7.245   4.502 -0.6546  0.2819  0.5681
 1365SOL    HW1 5145   4.590   7.272   4.450  0.1682  0.9644 -0.3047
 1365SOL    HW2 5146   4.644   7.272   4.591 -1.8080 -0.3278  0.4903
 1366SOL     OW 5147   3.063   5.242   4.110  0.3007 -0.1406 -0.7549
 1366SOL    HW1 5148   3.057   5.188   4.189  1.4293  0.9023  0.0783
 1366SOL    HW2 5149   3.071   5.179   4.039 -0.0101 -1.0973  0.0280
 1367SOL     OW 5150   5.135   6.666   5.318  0.4155  0.1054 -0.3541
 1367SOL    HW1 5151   5.119   6.689   5.409  3.7055 -1.6024  0.8196
 1367SOL    HW2 5152   5.212   6.609   5.320 -0.2717 -1.2811 -4.0828
 1368SOL     OW 5153   6.200   1.378   3.756  0.1847 -0.4890 -0.8003
 1368SOL    HW1 5154   6.183   1.446   3.821  0.1853 -0.3737 -0.9202
 1368SOL    HW2 5155   6.125   1.383   3.697 -1.1833 -2.3601  0.6699
 1369SOL     OW 5156   6.970   4.124   5.651 -0.1125  0.3562 -0.0903
 1369SOL    HW1 5157   6.987   4.217   5.640 -0.3211  0.5752  1.3308
 1369SOL    HW2 5158   7.024   4.098   5.726 -0.6258 -0.5003 -0.0050
 1370SOL     OW 5159   2.470   0.227   8.250 -0.3416 -0.9408  0.3257
 1370SOL    HW1 5160   2.503   0.287   8.183  0.3560 -2.4997 -0.7917
 1370SOL    HW2 5161   2.469   0.142   8.207 -1.4231 -1.7289  1.8191
 1371SOL     OW 5162   6.958   3.046   4.286  0.3348 -0.0169 -0.6512
 1371SOL    HW1 5163   6.877   3.076   4.246  0.4711  0.6979 -0.4040
 1371SOL    HW2 5164   7.025   3.105   4.250  0.9126 -1.2525 -1.6680
 1372SOL     OW 5165   2.162   6.176   2.774 -0.6408 -0.0808  0.1104
 1372SOL    HW1 5166   2.239   6.161   2.718  0.0480  1.1014  0.7200
 1372SOL    HW2 5167   2.188   6.144   2.860  0.5345  3.4237  1.2247
 1373SOL     OW 5168   5.109   4.840   5.399 -0.2083 -0.2656 -0.2463
 1373SOL    HW1 5169   5.164   4.775   5.354  0.2765 -1.6167  2.1489
 1373SOL    HW2 5170   5.168   4.913   5.416  0.3168 -0.8330  0.4401
 1374SOL     OW 5171   5.472   3.804   1.138 -0.5544  0.0073  0.2197
 1374SOL    HW1 5172   5.540   3.798   1.071 -1.0603  0.1538 -0.3156
 1374SOL    HW2 5173   5.461   3.897   1.153 -0.2596 -0.0355  0.6966
 1375SOL     OW 5174   3.920   0.783   3.477 -0.1008 -0.2287 -0.5025
 1375SOL    HW1 5175   3.976   0.856   3.503 -0.4178 -0.0419 -0.3448
 1375SOL    HW2 5176   3.851   0.781   3.543 -1.2098  0.5805 -1.5944
 1376SOL     OW 5177   1.846   0.292   2.993  0.6996  0.0198 -0.1198
 1376SOL    HW1 5178   1.814   0.383   2.993  1.4276  0.2997  1.2030
 1376SOL    HW2 5179   1.920   0.293   3.053  0.6637 -1.4826 -0.0171
 1377SOL     OW 5180   2.159   2.450   1.169 -0.2685 -0.1515 -0.5327
 1377SOL    HW1 5181   2.094   2.431   1.236  0.3010  0.4277  0.2028
 1377SOL    HW2 5182   2.243   2.434   1.211  0.0768 -1.7765 -1.7498
 1378SOL     OW 5183   4.356   6.632   3.738  0.3571  0.0736  0.1711
 1378SOL    HW1 5184   4.291   6.698   3.763  0.7643  0.4851  0.1569
 1378SOL    HW2 5185   4.350   6.628   3.642  0.5230  0.2857  0.1522
 1379SOL     OW 5186   2.528   4.242   6.551 -0.0346 -0.5143  0.5013
 1379SOL    HW1 5187   2.560   4.258   6.463  0.6715  0.5570  0.9257
 1379SOL    HW2 5188   2.473   4.318   6.571  1.5354  0.3528  1.7455
 1380SOL     OW 5189   2.797   5.181   6.487  0.2464  0.3270 -0.0278
 1380SOL    HW1 5190   2.788   5.173   6.582 -3.8306  2.7224  0.0429
 1380SOL    HW2 5191   2.718   5.140   6.452  0.6985  1.2078 -2.2413
 1381SOL     OW 5192   4.558   3.413   5.621  0.2071 -0.6493 -0.5987
 1381SOL    HW1 5193   4.597   3.498   5.642 -1.5346 -0.3017  1.6023
 1381SOL    HW2 5194   4.517   3.427   5.535 -1.7492  1.4532  0.5561
 1382SOL     OW 5195   5.656   3.863   5.041  0.1985 -0.7452 -0.1448
 1382SOL    HW1 5196   5.646   3.928   4.972  0.4732 -0.4873  0.0596
 1382SOL    HW2 5197   5.693   3.786   4.997 -0.0446 -0.7342 -0.3675
 1383SOL     OW 5198   6.632   0.049   3.490 -0.1364  0.7776 -0.4515
 1383SOL    HW1 5199   6.601   0.112   3.426 -1.7896 -0.0735 -0.5419
 1383SOL    HW2 5200   6.588   0.074   3.572 -0.2220  0.2071 -0.3168
 1384SOL     OW 5201   5.424   1.036   3.163 -0.6331  0.1006 -0.0712
 1384SOL    HW1 5202   5.476   1.092   3.105 -2.1300  0.0707 -1.5124
 1384SOL    HW2 5203   5.445   0.947   3.136 -0.7161  0.0639 -0.0155
 1385SOL     OW 5204   7.477   5.790   7.336 -0.3465  0.0875  0.2941
 1385SOL    HW1 5205   7.515   5.734   7.269  0.2708  0.4356  0.3434
 1385SOL    HW2 5206   7.538   5.784   7.410 -0.2287  0.8676  0.2725
 1386SOL     OW 5207   0.528   1.514   7.551  0.1595 -0.1649 -0.1174
 1386SOL    HW1 5208   0.554   1.429   7.585 -0.8469 -0.0955  0.8689
 1386SOL    HW2 5209   0.450   1.497   7.498 -0.9328  0.2895  1.2665
 1387SOL     OW 5210   6.624   5.267   7.758  0.2372 -0.5349 -0.0865
 1387SOL    HW1 5211   6.612   5.173   7.745 -4.1040  0.0749 -2.2707
 1387SOL    HW2 5212   6.600   5.306   7.674  1.3684  2.6018  0.9047
 1388SOL     OW 5213   5.692   6.495   0.810 -0.1675  0.6044 -0.1183
 1388SOL    HW1 5214   5.675   6.589   0.815 -1.5333  0.4217 -0.7048
 1388SOL    HW2 5215   5.785   6.488   0.792  0.6160  1.7529  2.9118
 1389SOL     OW 5216   8.257   0.537   3.494 -0.4909  0.3304 -0.6822
 1389SOL    HW1 5217   8.346   0.501   3.497 -0.6080 -0.1061 -1.8801
 1389SOL    HW2 5218   8.225   0.530   3.584 -0.3967 -2.3274 -0.7880
 1390SOL     OW 5219   4.110   2.286   8.269  0.3342 -0.0743  0.6790
 1390SOL    HW1 5220   4.084   2.289   8.362 -1.5990  2.0958  0.1713
 1390SOL    HW2 5221   4.027   2.291   8.221  1.3823  0.7406 -1.1414
 1391SOL     OW 5222   1.980   1.298   1.829 -0.5784  0.1778 -0.6262
 1391SOL    HW1 5223   1.993   1.206   1.807  2.0714  0.7188 -1.6140
 1391SOL    HW2 5224   1.970   1.342   1.745 -1.9166  0.8333 -0.1579
 1392SOL     OW 5225   2.690   2.124   5.222 -0.3480 -0.9294 -0.3801
 1392SOL    HW1 5226   2.659   2.163   5.140 -0.0679 -0.1867 -0.1412
 1392SOL    HW2 5227   2.621   2.144   5.285  0.2782  0.1176 -0.0106
 1393SOL     OW 5228   5.605   5.552   4.828  0.4607 -0.3360 -0.1674
 1393SOL    HW1 5229   5.673   5.615   4.803  1.1130 -0.9366  0.0931
 1393SOL    HW2 5230   5.598   5.494   4.752  0.1911 -0.2438 -0.2151
 1394SOL     OW 5231   1.268   1.265   0.709 -0.1066  0.2252 -0.0272
 1394SOL    HW1 5232   1.258   1.325   0.635 -0.6310 -1.3603 -1.3126
 1394SOL    HW2 5233   1.303   1.319   0.779 -0.2810  1.9554 -1.2058
 1395SOL     OW 5234   7.452   7.182   3.841  0.1152 -0.0235  0.0096
 1395SOL    HW1 5235   7.527   7.131   3.870 -0.4277 -0.5882  0.4499
 1395SOL    HW2 5236   7.454   7.175   3.745  0.3975 -0.3615  0.0388
 1396SOL     OW 5237   3.170   2.329   7.242 -0.2354 -0.9964  0.1279
 1396SOL    HW1 5238   3.244   2.288   7.198  0.0777 -0.6175  0.2944
 1396SOL    HW2 5239   3.181   2.306   7.334 -0.6020 -1.3504  0.0901
 1397SOL     OW 5240   4.910   4.562   3.576  0.6747 -0.3613  0.0014
 1397SOL    HW1 5241   4.841   4.498   3.562  1.1166 -0.5984 -1.2642
 1397SOL    HW2 5242   4.867   4.635   3.621 -0.1348 -0.9685  0.2210
 1398SOL     OW 5243   1.630   8.100   0.482  0.2702  0.2691 -0.6132
 1398SOL    HW1 5244   1.648   8.114   0.575  3.0902 -2.1154 -0.6491
 1398SOL    HW2 5245   1.646   8.185   0.441 -2.4502  1.7734  1.1257
 1399SOL     OW 5246   4.588   5.297   3.605 -0.4256  0.1636 -0.0016
 1399SOL    HW1 5247   4.643   5.257   3.671 -0.3642 -1.5475 -1.0330
 1399SOL    HW2 5248   4.617   5.389   3.601  0.6177 -0.0941  1.2119
 1400SOL     OW 5249   3.507   1.569   4.884 -0.2250 -0.4598  0.0334
 1400SOL    HW1 5250   3.466   1.653   4.866  0.4325  0.1936  1.4463
 1400SOL    HW2 5251   3.548   1.544   4.801 -1.6710 -0.1344 -0.8106
 1401SOL     OW 5252   0.371   6.061   5.179 -0.0546  0.0752 -0.0346
 1401SOL    HW1 5253   0.292   6.069   5.233  0.5104 -0.0858  0.8406
 1401SOL    HW2 5254   0.422   6.140   5.201 -0.2322  0.4777 -1.0372
 1402SOL     OW 5255   3.806   1.983   4.930 -0.3037 -0.0941 -0.4632
 1402SOL    HW1 5256   3.834   1.895   4.907  0.8613  0.6480 -2.1015
 1402SOL    HW2 5257   3.747   2.008   4.859  0.3554  0.8856 -0.6803
 1403SOL     OW 5258   7.708   2.013   0.918 -0.9169  0.2217  0.0136
 1403SOL    HW1 5259   7.729   1.931   0.875 -1.3264  0.2008 -0.1504
 1403SOL    HW2 5260   7.736   2.081   0.856 -1.2938  0.1945 -0.1890
 1404SOL     OW 5261   5.113   5.822   0.066  0.2909 -0.6122  0.6414
 1404SOL    HW1 5262   5.201   5.826   0.105 -0.1294 -2.2098  1.8473
 1404SOL    HW2 5263   5.074   5.907   0.086  1.8210  0.4832 -0.6914
 1405SOL     OW 5264   0.519   4.171   0.977  0.0606  0.5942 -0.2335
 1405SOL    HW1 5265   0.607   4.136   0.989  0.1349  0.2828 -1.4627
 1405SOL    HW2 5266   0.491   4.136   0.892 -1.3150  0.5495  0.2086
 1406SOL     OW 5267   2.012   3.757   5.394 -0.0424 -0.2354  0.1135
 1406SOL    HW1 5268   1.922   3.725   5.404 -0.7232  1.6620  0.5135
 1406SOL    HW2 5269   2.023   3.769   5.300  0.9391 -3.3844 -0.2874
 1407SOL     OW 5270   5.690   0.175   8.013  0.1669 -0.6593 -0.8196
 1407SOL    HW1 5271   5.630   0.111   7.974  0.8644 -0.9062 -1.5204
 1407SOL    HW2 5272   5.710   0.236   7.942  2.3822 -1.7810 -1.2480
 1408SOL     OW 5273   6.877   5.105   3.391 -0.3264  0.4252  0.4996
 1408SOL    HW1 5274   6.942   5.062   3.446 -0.2515 -0.3632 -0.1775
 1408SOL    HW2 5275   6.860   5.042   3.321 -0.7668  1.2116 -0.1173
 1409SOL     OW 5276   6.225   3.245   5.213 -0.0289 -0.5147  0.4130
 1409SOL    HW1 5277   6.297   3.305   5.196  1.6044 -2.3392  0.5352
 1409SOL    HW2 5278   6.195   3.219   5.126 -0.5036  0.1767  0.3618
 1410SOL     OW 5279   0.033   1.755   0.859 -0.6411  0.4881  0.1363
 1410SOL    HW1 5280   0.038   1.812   0.936  0.2955  1.7426 -0.8123
 1410SOL    HW2 5281  -0.061   1.742   0.845 -0.8272  0.5626  1.2611
 1411SOL     OW 5282   3.255   3.845   6.500 -0.1749 -0.3794  0.3377
 1411SOL    HW1 5283   3.350   3.857   6.490 -0.3450  0.4011 -0.4432
 1411SOL    HW2 5284   3.242   3.751   6.494  0.3986 -0.3887 -1.1349
 1412SOL     OW 5285   2.685   4.002   2.300 -0.3830 -0.1170 -0.2835
 1412SOL    HW1 5286   2.726   4.062   2.238  0.5984 -1.8978 -1.4717
 1412SOL    HW2 5287   2.752   3.988   2.368  0.3463 -1.5940 -1.2457
 1413SOL     OW 5288   1.046   1.010   4.468 -0.0230  0.6102  1.0148
 1413SOL    HW1 5289   1.059   0.946   4.398  1.3544  1.8452  0.0808
 1413SOL    HW2 5290   0.952   1.030   4.466  0.0370  0.8218 -0.6744
 1414SOL     OW 5291   4.231   1.884   7.691 -0.2658 -0.1741 -0.0945
 1414SOL    HW1 5292   4.171   1.887   7.766 -2.2855 -0.7099 -1.5780
 1414SOL    HW2 5293   4.318   1.874   7.729 -1.0189  1.3742  2.2072
 1415SOL     OW 5294   0.942   5.489   3.728 -0.4223 -0.0124  0.1495
 1415SOL    HW1 5295   0.960   5.579   3.754 -1.2051  0.1281  0.2132
 1415SOL    HW2 5296   0.878   5.496   3.657 -0.6147 -0.5273  0.2637
 1416SOL     OW 5297   6.112   7.098   5.120 -0.3763 -0.6856  0.2031
 1416SOL    HW1 5298   6.119   7.027   5.183 -1.8466 -1.2738 -0.2525
 1416SOL    HW2 5299   6.018   7.115   5.112 -0.1278  0.5069 -0.5808
 1417SOL     OW 5300   2.783   2.217   4.743  0.2864 -0.2893 -0.3865
 1417SOL    HW1 5301   2.817   2.138   4.702  0.8326  0.1827 -0.8563
 1417SOL    HW2 5302   2.855   2.248   4.798  0.2619  0.1598 -0.6025
 1418SOL     OW 5303   3.218   6.324   1.919 -0.6181  0.1493  0.1870
 1418SOL    HW1 5304   3.193   6.378   1.994 -1.5567 -0.5217  0.3863
 1418SOL    HW2 5305   3.140   6.323   1.863 -0.9770 -1.6871  0.6270
 1419SOL     OW 5306   0.332   1.423   6.395  0.0281 -0.7767  0.5443
 1419SOL    HW1 5307   0.283   1.504   6.410  2.2377  1.0620 -1.3294
 1419SOL    HW2 5308   0.281   1.355   6.440 -2.6055  1.4085  1.1266
 1420SOL     OW 5309   5.964   3.043   4.506 -0.3740  0.1471 -0.2842
 1420SOL    HW1 5310   5.963   3.135   4.480  0.4869 -0.1184 -1.3332
 1420SOL    HW2 5311   6.053   3.014   4.487 -0.2172 -0.5396  1.3849
 1421SOL     OW 5312   7.190   2.844   1.505 -0.3929 -0.0047  0.8841
 1421SOL    HW1 5313   7.110   2.853   1.453  1.2852 -0.6760 -2.0684
 1421SOL    HW2 5314   7.206   2.750   1.508  0.6541  0.1672  0.8082
 1422SOL     OW 5315   5.476   0.836   5.227  0.1775 -0.0562  0.0947
 1422SOL    HW1 5316   5.515   0.907   5.277  0.3825 -0.5186  0.6013
 1422SOL    HW2 5317   5.528   0.831   5.146 -0.0618  0.5937 -0.1035
 1423SOL     OW 5318   6.162   4.636   7.244  0.0775  0.7770 -0.8279
 1423SOL    HW1 5319   6.085   4.598   7.287 -0.3654  0.1600 -2.1193
 1423SOL    HW2 5320   6.233   4.574   7.262  0.1719  1.0990 -0.0483
 1424SOL     OW 5321   5.179   0.917   6.232 -0.0940  0.4226 -0.6595
 1424SOL    HW1 5322   5.084   0.913   6.220 -0.2213  0.5057  0.2598
 1424SOL    HW2 5323   5.195   0.875   6.317  0.7841 -0.3519 -1.1906
 1425SOL     OW 5324   6.475   5.162   8.148  0.3371  0.5370 -0.4304
 1425SOL    HW1 5325   6.564   5.128   8.139  0.8350  0.4050  3.4773
 1425SOL    HW2 5326   6.420   5.093   8.111  1.7414  0.4680 -2.6169
 1426SOL     OW 5327   5.944   2.001   6.193  0.4314 -0.3653 -0.0762
 1426SOL    HW1 5328   5.971   1.991   6.102 -1.5689  0.4319 -0.8002
 1426SOL    HW2 5329   6.026   1.991   6.243  1.9900  1.5133 -2.0750
 1427SOL     OW 5330   7.087   1.606   6.922  0.3908  0.4535  0.1067
 1427SOL    HW1 5331   7.118   1.520   6.893  0.2998 -0.5722  2.7339
 1427SOL    HW2 5332   7.035   1.639   6.849 -2.6012 -3.3420  0.2433
 1428SOL     OW 5333   1.518   6.052   3.817  0.2237  0.0119  0.0044
 1428SOL    HW1 5334   1.600   6.056   3.768 -1.1132 -0.8705 -2.5162
 1428SOL    HW2 5335   1.534   6.102   3.896  3.2963 -0.4760 -0.2076
 1429SOL     OW 5336   1.297   0.106   1.639  0.3259  0.0618 -0.6818
 1429SOL    HW1 5337   1.237   0.102   1.564 -1.0838  2.1206  0.2620
 1429SOL    HW2 5338   1.264   0.178   1.693  1.0629 -1.5626  2.1503
 1430SOL     OW 5339   5.400   7.563   4.387  0.3625 -0.0773  0.0714
 1430SOL    HW1 5340   5.311   7.543   4.415  0.0014 -0.2528 -1.1112
 1430SOL    HW2 5341   5.405   7.529   4.297  1.4808  0.3212 -0.0397
 1431SOL     OW 5342   2.017   5.137   6.881  0.4152 -0.2969  0.0945
 1431SOL    HW1 5343   1.934   5.128   6.928 -1.0429 -0.9789 -2.4092
 1431SOL    HW2 5344   2.048   5.224   6.903 -1.5918  0.4498  0.2048
 1432SOL     OW 5345   2.222   3.108   4.802  0.6377 -0.1896 -0.2661
 1432SOL    HW1 5346   2.178   3.191   4.784  0.5954  0.4491  2.3912
 1432SOL    HW2 5347   2.161   3.041   4.768 -0.6444  0.7993 -0.0008
 1433SOL     OW 5348   2.756   2.931   6.367  0.0447  0.3996  0.0857
 1433SOL    HW1 5349   2.725   2.907   6.280  0.4321 -1.3345  0.3898
 1433SOL    HW2 5350   2.678   2.960   6.414 -0.1901  1.2060 -0.7700
 1434SOL     OW 5351   3.764   5.305   6.500  0.4899 -0.0147  0.0781
 1434SOL    HW1 5352   3.757   5.227   6.445  2.4491 -2.2054  2.6599
 1434SOL    HW2 5353   3.857   5.329   6.496  0.3970  0.6218  1.3161
 1435SOL     OW 5354   0.511   6.102   5.520 -0.3160  0.0544  0.1852
 1435SOL    HW1 5355   0.505   6.138   5.432 -0.2773  1.1462  0.6122
 1435SOL    HW2 5356   0.480   6.172   5.577 -0.3167 -0.6224  1.0463
 1436SOL     OW 5357   6.787   1.609   5.318 -0.1411 -0.2224  0.1240
 1436SOL    HW1 5358   6.727   1.587   5.247 -0.4000  1.1681 -0.1204
 1436SOL    HW2 5359   6.780   1.536   5.380  0.2874 -1.5899 -1.3837
 1437SOL     OW 5360   5.750   3.703   4.843  0.1909  0.3608 -0.2470
 1437SOL    HW1 5361   5.799   3.624   4.820  0.2611  0.5374 -0.7027
 1437SOL    HW2 5362   5.773   3.766   4.775 -1.5012  0.1156 -1.0847
 1438SOL     OW 5363   4.665   1.096   6.879 -0.4522  0.3388 -0.1511
 1438SOL    HW1 5364   4.664   1.000   6.885 -1.5458  0.1142 -2.6857
 1438SOL    HW2 5365   4.757   1.118   6.861 -0.2212 -0.2474  0.2795
 1439SOL     OW 5366   7.549   7.386   0.549  0.2735 -0.0955 -0.3914
 1439SOL    HW1 5367   7.536   7.430   0.632  0.6809 -0.4253 -0.1502
 1439SOL    HW2 5368   7.494   7.308   0.554 -0.0938  0.1430 -0.6369
 1440SOL     OW 5369   3.478   0.232   0.714  0.0564  0.2794  0.5404
 1440SOL    HW1 5370   3.502   0.317   0.752 -1.4993  1.0386 -0.0928
 1440SOL    HW2 5371   3.555   0.177   0.729  1.2543  1.9028  0.6228
 1441SOL     OW 5372   3.748   8.042   5.373  0.3694  0.4342 -0.4486
 1441SOL    HW1 5373   3.813   8.058   5.305  0.2660  1.3398 -0.3517
 1441SOL    HW2 5374   3.756   8.117   5.433  0.0388 -0.0331  0.2011
 1442SOL     OW 5375   7.893   5.557   2.754 -0.1519 -0.3247  0.0811
 1442SOL    HW1 5376   7.848   5.477   2.728 -0.7543 -0.0011  0.1242
 1442SOL    HW2 5377   7.986   5.538   2.737 -0.1702 -1.3881  1.0043
 1443SOL     OW 5378   6.715   4.016   3.731 -0.4710  1.1893  0.1366
 1443SOL    HW1 5379   6.759   4.080   3.675 -2.9110  0.5503 -2.7252
 1443SOL    HW2 5380   6.772   3.939   3.728  0.0429  1.5764 -0.4443
 1444SOL     OW 5381   1.000   0.786   1.545  0.2300 -0.3894 -0.0204
 1444SOL    HW1 5382   1.020   0.869   1.500  0.3097 -0.4422 -0.0824
 1444SOL    HW2 5383   1.077   0.771   1.601 -1.1676  1.3268  2.5980
 1445SOL     OW 5384   5.358   0.718   8.220 -0.2073  0.3881  0.2836
 1445SOL    HW1 5385   5.439   0.768   8.212  0.7195 -1.1377 -0.1548
 1445SOL    HW2 5386   5.385   0.633   8.254 -1.8130  0.3305  1.5717
 1446SOL     OW 5387   1.527   4.156   6.422  0.1217 -0.3261 -0.4778
 1446SOL    HW1 5388   1.581   4.195   6.353  1.6933 -0.0196  0.8600
 1446SOL    HW2 5389   1.584   4.156   6.499 -1.1496 -1.8278  0.5040
 1447SOL     OW 5390   3.196   3.673   4.112 -0.0029 -0.1497 -0.3284
 1447SOL    HW1 5391   3.247   3.602   4.150  1.3962  0.3787 -1.1589
 1447SOL    HW2 5392   3.182   3.647   4.021 -1.3173 -0.3211 -0.1017
 1448SOL     OW 5393   1.940   3.891   6.102 -0.1735 -0.7187  0.5617
 1448SOL    HW1 5394   1.852   3.927   6.114  0.2105  0.1430  0.8356
 1448SOL    HW2 5395   1.927   3.796   6.109 -1.3142 -0.7082 -0.9357
 1449SOL     OW 5396   6.105   6.332   5.526 -0.6313 -0.2487 -0.1287
 1449SOL    HW1 5397   6.118   6.395   5.454 -0.0056 -0.0119  0.1873
 1449SOL    HW2 5398   6.102   6.386   5.605  1.9867 -0.7377  0.3868
 1450SOL     OW 5399   1.556   0.640   1.782 -0.1330 -1.2909 -0.1078
 1450SOL    HW1 5400   1.649   0.625   1.765 -0.1702 -0.6346 -0.9464
 1450SOL    HW2 5401   1.550   0.644   1.877  0.8914 -0.2664 -0.0519
 1451SOL     OW 5402   4.711   6.068   2.788 -0.2749 -0.0618 -0.4667
 1451SOL    HW1 5403   4.621   6.065   2.821 -1.2594 -0.1796 -2.9269
 1451SOL    HW2 5404   4.742   5.978   2.794 -1.2469 -0.5162 -1.8551
 1452SOL     OW 5405   2.745   5.785   5.991 -0.2406 -0.3036  0.1542
 1452SOL    HW1 5406   2.663   5.739   5.974 -0.6487 -0.6198  2.5642
 1452SOL    HW2 5407   2.808   5.716   6.012  0.9410 -0.1279 -2.4808
 1453SOL     OW 5408   5.008   5.010   2.261 -0.0392 -1.0597 -0.6663
 1453SOL    HW1 5409   5.036   5.098   2.286  1.5729 -0.5012 -3.9427
 1453SOL    HW2 5410   4.923   5.023   2.219 -1.3142 -1.6083  1.5354
 1454SOL     OW 5411   5.223   1.516   6.460 -0.2222 -0.6144 -0.3582
 1454SOL    HW1 5412   5.285   1.550   6.395  0.3667  0.3814  0.6876
 1454SOL    HW2 5413   5.273   1.510   6.541 -1.4037 -0.0904  0.4433
 1455SOL     OW 5414   2.329   2.464   2.083 -0.2596 -0.2659  0.4744
 1455SOL    HW1 5415   2.238   2.489   2.067 -0.5609 -1.3516  0.4165
 1455SOL    HW2 5416   2.333   2.448   2.177  0.2778  1.3137  0.7361
 1456SOL     OW 5417   1.345   2.201   6.277 -0.5061 -0.0601  0.5927
 1456SOL    HW1 5418   1.373   2.114   6.250 -1.6511 -0.0931 -0.6324
 1456SOL    HW2 5419   1.297   2.235   6.201 -0.1696  1.6033  1.0731
 1457SOL     OW 5420   2.389   1.674   7.088 -0.1345 -0.4594  0.2887
 1457SOL    HW1 5421   2.399   1.594   7.139  0.4650 -0.3597  0.3412
 1457SOL    HW2 5422   2.456   1.667   7.019  2.0363  1.3178  2.0220
 1458SOL     OW 5423   0.745   4.232   1.142 -0.1769  0.8573 -0.5896
 1458SOL    HW1 5424   0.811   4.220   1.073  0.9117  1.0596  0.3932
 1458SOL    HW2 5425   0.704   4.146   1.151  0.6777  0.4521 -0.4894
 1459SOL     OW 5426   8.180   2.421   0.764 -0.3298 -0.0471  0.0324
 1459SOL    HW1 5427   8.116   2.454   0.827 -0.0220 -1.5776  1.1914
 1459SOL    HW2 5428   8.127   2.381   0.695 -0.7096  2.6386 -1.3722
 1460SOL     OW 5429   2.243   1.735   5.095 -0.6269  0.0179 -0.0755
 1460SOL    HW1 5430   2.307   1.754   5.026  0.1350 -1.7346  0.0904
 1460SOL    HW2 5431   2.173   1.798   5.082  0.5048  1.0863 -1.1315
 1461SOL     OW 5432   3.608   8.095   5.085 -0.2480  0.2807 -0.0545
 1461SOL    HW1 5433   3.558   8.032   5.032 -0.6723  0.8541 -0.3494
 1461SOL    HW2 5434   3.698   8.088   5.053 -0.0569 -1.0150  0.7201
 1462SOL     OW 5435   5.747   0.754   2.932 -0.1455 -0.3439  0.4775
 1462SOL    HW1 5436   5.832   0.798   2.941 -0.9509  1.2858  0.5632
 1462SOL    HW2 5437   5.697   0.811   2.873 -1.3833 -0.9558  0.9070
 1463SOL     OW 5438   8.078   4.986   0.802  0.1265  0.0105 -0.2274
 1463SOL    HW1 5439   8.104   5.075   0.779  0.5091 -0.2224 -0.7052
 1463SOL    HW2 5440   8.155   4.947   0.842  0.5759 -0.6897 -1.6748
 1464SOL     OW 5441   1.180   2.078   5.025  0.4794  0.9253  0.5220
 1464SOL    HW1 5442   1.124   2.043   5.094 -1.5565 -1.0766 -1.9050
 1464SOL    HW2 5443   1.132   2.154   4.993 -0.2103  0.0708 -0.5829
 1465SOL     OW 5444   3.279   0.887   2.774 -0.0736  0.1924 -0.3904
 1465SOL    HW1 5445   3.333   0.919   2.847  1.2095  0.9183 -1.6127
 1465SOL    HW2 5446   3.310   0.798   2.758  0.2401  0.3365 -0.5930
 1466SOL     OW 5447   2.613   0.940   7.772 -0.1254  0.2946  0.2086
 1466SOL    HW1 5448   2.646   0.967   7.686  0.8832  0.5696  0.6618
 1466SOL    HW2 5449   2.642   0.850   7.782 -0.8110  0.0472 -0.0094
 1467SOL     OW 5450   1.903   5.008   3.965  0.8184  0.3346  0.2767
 1467SOL    HW1 5451   1.816   5.030   3.931 -0.7404 -1.9601  2.4380
 1467SOL    HW2 5452   1.928   4.929   3.917  1.0801  0.2299  0.5821
 1468SOL     OW 5453   2.360   6.243   2.325  0.3192 -0.3413 -0.4730
 1468SOL    HW1 5454   2.371   6.337   2.337 -0.0211 -0.3212 -0.3068
 1468SOL    HW2 5455   2.434   6.217   2.270 -0.7215  0.4109 -2.3534
 1469SOL     OW 5456   0.430   1.123   0.547  0.3354 -0.0317 -0.2929
 1469SOL    HW1 5457   0.400   1.048   0.599  1.9374 -0.1762  0.4796
 1469SOL    HW2 5458   0.360   1.188   0.558 -1.1654 -1.4105 -1.1021
 1470SOL     OW 5459   6.753   0.229   6.695 -0.2021  0.0576 -0.3253
 1470SOL    HW1 5460   6.810   0.278   6.636 -1.6606 -0.3279 -2.1450
 1470SOL    HW2 5461   6.728   0.293   6.762  0.9748  0.6837 -0.4467
 1471SOL     OW 5462   4.234   2.485   5.108  0.0737  0.0861 -0.3121
 1471SOL    HW1 5463   4.213   2.568   5.150 -1.1616 -0.4368  0.1381
 1471SOL    HW2 5464   4.158   2.465   5.053  0.1552 -0.9695 -0.0672
 1472SOL     OW 5465   3.949   8.209   1.680  0.3746  0.0919 -0.1198
 1472SOL    HW1 5466   3.962   8.171   1.593 -0.1943 -0.4887  0.0436
 1472SOL    HW2 5467   3.975   8.300   1.670 -1.6940  0.5978 -1.4606
 1473SOL     OW 5468   5.388   5.402   1.783 -0.6509  0.3015  0.1381
 1473SOL    HW1 5469   5.361   5.383   1.873  1.6822 -0.1211  0.8292
 1473SOL    HW2 5470   5.457   5.338   1.765 -0.2566  1.1404 -1.5150
 1474SOL     OW 5471   3.210   2.127   3.422 -0.8431  0.1478  0.2056
 1474SOL    HW1 5472   3.163   2.054   3.463  1.0302 -0.7122  0.9470
 1474SOL    HW2 5473   3.218   2.193   3.491  1.4695 -0.9091  1.0793
 1475SOL     OW 5474   4.447   6.073   7.053 -0.2089 -0.0900  0.2003
 1475SOL    HW1 5475   4.511   6.036   7.114 -0.0793  0.9333  0.7091
 1475SOL    HW2 5476   4.464   6.029   6.970  1.7965  0.7986  0.0732
 1476SOL     OW 5477   4.775   1.541   3.436 -0.6616  0.2703  0.7046
 1476SOL    HW1 5478   4.762   1.493   3.518 -2.7909  0.7584  0.7131
 1476SOL    HW2 5479   4.700   1.600   3.430 -0.6024  0.2298 -1.6070
 1477SOL     OW 5480   1.358   4.531   5.577  0.5246 -0.3366 -0.0113
 1477SOL    HW1 5481   1.272   4.546   5.538  0.1668  0.6791  1.0860
 1477SOL    HW2 5482   1.344   4.547   5.671  1.7753 -0.7447  0.2581
 1478SOL     OW 5483   3.608   5.700   5.541  0.0051  0.1806 -0.1145
 1478SOL    HW1 5484   3.596   5.751   5.461  1.0110 -3.6436 -3.0256
 1478SOL    HW2 5485   3.520   5.675   5.568 -0.3228 -1.5292 -2.4098
 1479SOL     OW 5486   6.964   2.329   7.447  0.2451 -0.3132 -1.0040
 1479SOL    HW1 5487   6.881   2.302   7.407 -1.0270  0.9551  0.6143
 1479SOL    HW2 5488   6.942   2.408   7.496  2.2503 -0.4235  0.1822
 1480SOL     OW 5489   1.637   5.419   1.470  0.3985 -0.0944 -0.1406
 1480SOL    HW1 5490   1.671   5.330   1.478 -2.6428 -1.4706 -0.8729
 1480SOL    HW2 5491   1.630   5.451   1.560  2.4563 -0.1249  0.0744
 1481SOL     OW 5492   8.028   1.399   2.624 -0.6101  0.0818  0.5690
 1481SOL    HW1 5493   7.978   1.318   2.611 -0.7616  0.2087  0.3427
 1481SOL    HW2 5494   8.021   1.417   2.717  0.4151 -0.7980  0.8279
 1482SOL     OW 5495   7.250   3.079   7.638 -0.2448  0.6903 -0.2736
 1482SOL    HW1 5496   7.165   3.088   7.593  0.1922  1.5586 -0.9619
 1482SOL    HW2 5497   7.315   3.095   7.570  0.4508  1.3443  0.5177
 1483SOL     OW 5498   3.522   6.181   4.344 -0.3028  0.6283  0.1372
 1483SOL    HW1 5499   3.469   6.213   4.271 -0.6630  2.1037  0.9924
 1483SOL    HW2 5500   3.548   6.093   4.318 -1.5722  0.5898 -1.1575
 1484SOL     OW 5501   1.282   4.251   1.929 -0.1370  0.3482 -0.2102
 1484SOL    HW1 5502   1.278   4.156   1.915 -1.8632  0.4830 -0.8129
 1484SOL    HW2 5503   1.192   4.280   1.920  0.3656  2.0517  0.0521
 1485SOL     OW 5504   7.827   8.108   8.230  0.0736  0.0901  0.3374
 1485SOL    HW1 5505   7.869   8.110   8.317  0.2918 -1.2042  0.2878
 1485SOL    HW2 5506   7.739   8.075   8.247 -0.3987  1.2800  0.2386
 1486SOL     OW 5507   3.682   1.068   5.218 -0.6074 -0.3648  0.1944
 1486SOL    HW1 5508   3.697   1.162   5.213  0.7494 -0.5952 -0.6666
 1486SOL    HW2 5509   3.588   1.059   5.234 -0.7520  1.1273  0.3178
 1487SOL     OW 5510   3.749   0.131   8.233 -0.2640  0.0273  0.0965
 1487SOL    HW1 5511   3.687   0.202   8.217  0.5970  0.9028  0.5400
 1487SOL    HW2 5512   3.764   0.132   8.327  0.9740  0.3296 -0.0760
 1488SOL     OW 5513   8.183   6.816   1.144 -0.5004 -0.3459 -0.6585
 1488SOL    HW1 5514   8.168   6.749   1.077  0.1744 -0.0922 -1.0711
 1488SOL    HW2 5515   8.158   6.898   1.102 -0.3097 -0.2133 -0.5113
 1489SOL     OW 5516   0.559   6.852   3.013 -0.0061  0.8104  0.2129
 1489SOL    HW1 5517   0.534   6.771   3.058  1.8580  0.8515  1.4320
 1489SOL    HW2 5518   0.481   6.907   3.020 -0.2288  0.3409  2.3457
 1490SOL     OW 5519   1.361   0.080   4.924 -0.2832  0.5492  0.0468
 1490SOL    HW1 5520   1.313   0.004   4.958  0.6204  1.0558  2.6366
 1490SOL    HW2 5521   1.294   0.135   4.884 -1.3418 -0.3937  0.4857
 1491SOL     OW 5522   4.529   2.860   3.166 -0.4030 -0.1165 -0.6452
 1491SOL    HW1 5523   4.614   2.823   3.144 -0.3870 -0.2315 -0.3934
 1491SOL    HW2 5524   4.531   2.869   3.262  0.2831  2.1440 -0.7919
 1492SOL     OW 5525   6.177   4.166   5.883 -0.0187  0.2094  0.2950
 1492SOL    HW1 5526   6.254   4.208   5.847  0.2849 -0.9194 -0.4027
 1492SOL    HW2 5527   6.206   4.078   5.908 -0.4831  0.5601  2.2979
 1493SOL     OW 5528   0.831   7.991   4.869 -0.5338 -0.2826 -0.4367
 1493SOL    HW1 5529   0.825   8.086   4.882  0.6339 -0.2164 -0.2390
 1493SOL    HW2 5530   0.816   7.978   4.776 -1.3151  0.0289 -0.3593
 1494SOL     OW 5531   6.389   2.852   3.264 -0.0368 -0.2554  0.1601
 1494SOL    HW1 5532   6.370   2.940   3.296  1.8631  0.7545 -1.2889
 1494SOL    HW2 5533   6.342   2.845   3.181  0.3380 -0.3623 -0.0456
 1495SOL     OW 5534   4.638   6.046   5.471 -0.4101 -0.0385 -0.0995
 1495SOL    HW1 5535   4.601   6.003   5.394  1.1161  3.2804 -2.9737
 1495SOL    HW2 5536   4.730   6.019   5.471 -0.6675 -1.0276  1.4421
 1496SOL     OW 5537   1.921   4.850   6.133 -0.1892 -0.1101 -0.0083
 1496SOL    HW1 5538   1.918   4.841   6.038  1.8997  1.4448 -0.3008
 1496SOL    HW2 5539   1.842   4.805   6.164 -0.8996 -0.7038 -2.4452
 1497SOL     OW 5540   3.179   1.100   5.283  0.2076 -0.1954  0.4275
 1497SOL    HW1 5541   3.219   1.042   5.348 -0.2321 -1.2583 -0.2192
 1497SOL    HW2 5542   3.251   1.152   5.250  0.9578 -1.5586 -0.1831
 1498SOL     OW 5543   1.376   2.127   1.429 -0.0282 -0.5732 -0.1653
 1498SOL    HW1 5544   1.466   2.131   1.460  0.8445 -1.2090 -2.4298
 1498SOL    HW2 5545   1.325   2.106   1.507  1.9984 -2.0768  0.8597
 1499SOL     OW 5546   8.064   8.268   0.510  0.2046 -0.3285 -0.2328
 1499SOL    HW1 5547   8.045   8.357   0.480  2.3123 -0.2411 -1.4873
 1499SOL    HW2 5548   8.023   8.212   0.444  0.7204 -0.2374 -0.6324
 1500SOL     OW 5549   6.213   4.203   0.189  0.6140 -0.1596  0.1678
 1500SOL    HW1 5550   6.217   4.183   0.282 -0.3303 -1.3500 -0.0328
 1500SOL    HW2 5551   6.120   4.202   0.168  0.8435 -0.3641 -0.8969
 1501SOL     OW 5552   0.954   2.752   5.165 -0.5771 -0.1443  0.7003
 1501SOL    HW1 5553   0.992   2.714   5.085 -1.0744 -1.2348  0.9560
 1501SOL    HW2 5554   0.913   2.677   5.209 -2.7378  0.9005  0.6016
 1502SOL     OW 5555   3.202   3.445   8.225  0.1800 -0.3761 -0.1209
 1502SOL    HW1 5556   3.111   3.415   8.230 -0.2215  0.5236 -1.3990
 1502SOL    HW2 5557   3.201   3.533   8.263 -0.2386  1.0231 -3.0494
 1503SOL     OW 5558   4.161   6.074   5.388  0.0527 -0.0649  0.0189
 1503SOL    HW1 5559   4.163   6.082   5.483  0.5341  2.0972 -0.1166
 1503SOL    HW2 5560   4.223   6.141   5.357 -0.7745 -0.0872 -1.8225
 1504SOL     OW 5561   1.478   2.807   1.621 -0.5199 -0.2525  0.1190
 1504SOL    HW1 5562   1.519   2.830   1.538  0.4366 -0.6128  0.4877
 1504SOL    HW2 5563   1.430   2.886   1.646  0.8262  0.5649  0.2181
 1505SOL     OW 5564   8.226   2.527   6.463 -0.1258  0.5328 -0.7958
 1505SOL    HW1 5565   8.233   2.433   6.447 -1.3998  0.3392 -0.3372
 1505SOL    HW2 5566   8.187   2.533   6.550  0.2302  1.4859 -0.6986
 1506SOL     OW 5567   7.901   1.069   4.807  0.0642  0.3124 -0.2557
 1506SOL    HW1 5568   7.996   1.077   4.817  0.1862  1.2107 -1.7673
 1506SOL    HW2 5569   7.890   1.013   4.730 -0.6175  0.4180 -0.2445
 1507SOL     OW 5570   0.396   2.885   3.235  0.4136 -0.4988  0.0747
 1507SOL    HW1 5571   0.333   2.859   3.302 -0.2161 -0.1780 -0.3800
 1507SOL    HW2 5572   0.473   2.914   3.284 -0.5865  1.1839  0.7248
 1508SOL     OW 5573   4.884   2.746   6.890  0.5270 -0.6134  0.3366
 1508SOL    HW1 5574   4.931   2.745   6.973  0.0489 -1.5985  0.6121
 1508SOL    HW2 5575   4.841   2.832   6.887 -0.3296 -0.9679  1.6172
 1509SOL     OW 5576   3.288   5.663   2.872  0.1251 -0.3566 -0.1264
 1509SOL    HW1 5577   3.328   5.577   2.871  2.0921  0.5042 -0.6556
 1509SOL    HW2 5578   3.211   5.654   2.929  1.4253 -1.9430  1.4679
 1510SOL     OW 5579   2.094   3.050   7.144 -0.0708 -0.3295  0.3168
 1510SOL    HW1 5580   2.157   3.042   7.072 -1.7440 -0.0304 -1.2400
 1510SOL    HW2 5581   2.051   2.965   7.147 -2.5640  0.7581 -1.5699
 1511SOL     OW 5582   3.104   5.699   0.504 -0.4799 -0.4422  0.6649
 1511SOL    HW1 5583   3.053   5.627   0.542 -0.6632 -0.6094  0.1147
 1511SOL    HW2 5584   3.187   5.697   0.551  0.4385 -2.5016 -0.8702
 1512SOL     OW 5585   3.509   0.920   4.558  0.7618  0.3550 -0.0419
 1512SOL    HW1 5586   3.435   0.890   4.505  0.4943 -1.2137  1.1371
 1512SOL    HW2 5587   3.585   0.910   4.500  0.3904 -0.7033 -0.3797
 1513SOL     OW 5588   4.051   3.084   2.431 -0.0375  0.5153 -0.7819
 1513SOL    HW1 5589   4.079   3.078   2.522  1.2864  0.2121 -1.1954
 1513SOL    HW2 5590   4.094   3.163   2.397 -0.3443  0.5061 -1.2051
 1514SOL     OW 5591   2.333   1.294   7.004 -0.4207  0.3509 -0.4639
 1514SOL    HW1 5592   2.391   1.342   7.062 -0.4185  1.1520 -1.1183
 1514SOL    HW2 5593   2.382   1.284   6.923  0.5857 -2.9811  0.4099
 1515SOL     OW 5594   6.528   1.130   1.806 -0.2939 -0.1729  0.0797
 1515SOL    HW1 5595   6.474   1.111   1.729 -0.8106  0.0883  0.3671
 1515SOL    HW2 5596   6.481   1.201   1.850 -0.9675 -1.4818  1.5799
 1516SOL     OW 5597   4.576   7.333   6.422  0.3199 -0.7219 -0.2658
 1516SOL    HW1 5598   4.575   7.259   6.362 -0.7328 -0.9034 -0.0436
 1516SOL    HW2 5599   4.663   7.373   6.410 -0.5220  0.4752 -3.3732
 1517SOL     OW 5600   6.908   4.730   3.896 -0.3080 -0.3145 -0.1174
 1517SOL    HW1 5601   6.842   4.787   3.936  0.2402 -0.3557  0.8451
 1517SOL    HW2 5602   6.879   4.723   3.804 -0.5751  1.2288 -0.1831
 1518SOL     OW 5603   0.165   4.010   6.682  0.1436 -0.0517 -0.2050
 1518SOL    HW1 5604   0.240   3.950   6.688  2.3622  2.4890 -0.6573
 1518SOL    HW2 5605   0.123   3.987   6.599 -0.1962 -2.0964  0.4666
 1519SOL     OW 5606   3.454   5.686   3.277 -0.3791  0.2175  0.0094
 1519SOL    HW1 5607   3.367   5.652   3.296 -0.1698  0.5385  1.7018
 1519SOL    HW2 5608   3.511   5.644   3.342  0.9693 -0.8592 -1.7454
 1520SOL     OW 5609   0.043   5.937   4.878  0.1751  0.7092  0.0550
 1520SOL    HW1 5610  -0.016   6.013   4.879 -1.5724 -0.5144 -2.2252
 1520SOL    HW2 5611  -0.008   5.867   4.919  1.4973  0.4926  1.4435
 1521SOL     OW 5612   6.690   2.386   6.154  0.1933 -0.2022  0.4238
 1521SOL    HW1 5613   6.638   2.308   6.134  0.3236 -0.3403  0.6135
 1521SOL    HW2 5614   6.731   2.366   6.238  0.4613 -0.0516  0.3315
 1522SOL     OW 5615   5.108   5.864   1.360  0.6578 -0.3412  0.6690
 1522SOL    HW1 5616   5.064   5.841   1.442 -1.8739 -0.6113 -0.6655
 1522SOL    HW2 5617   5.077   5.952   1.339  0.6976 -0.5501 -0.3393
 1523SOL     OW 5618   2.886   0.951   3.598  0.4927 -0.0210 -0.0287
 1523SOL    HW1 5619   2.962   0.993   3.639 -0.0352  0.0868  0.8700
 1523SOL    HW2 5620   2.910   0.858   3.595 -0.1074 -0.2998  2.1242
 1524SOL     OW 5621   7.587   0.061   2.316  0.6055  0.5536 -0.9319
 1524SOL    HW1 5622   7.518   0.048   2.252 -0.1754 -0.3532  0.0515
 1524SOL    HW2 5623   7.564   0.143   2.360 -0.5888 -0.3637  0.2372
 1525SOL     OW 5624   6.680   1.304   4.409  0.2470  0.0415  0.5919
 1525SOL    HW1 5625   6.728   1.279   4.330  0.3424 -1.3713  1.0632
 1525SOL    HW2 5626   6.743   1.291   4.480 -0.7460 -1.7422  1.2095
 1526SOL     OW 5627   6.407   5.993   2.548  0.3854  0.3863  0.3015
 1526SOL    HW1 5628   6.422   5.913   2.498  1.2549  0.3378  0.6202
 1526SOL    HW2 5629   6.365   6.053   2.487 -1.1288 -0.6042  0.3017
 1527SOL     OW 5630   5.796   6.323   5.370  0.9908  0.2477 -0.0767
 1527SOL    HW1 5631   5.744   6.366   5.302  0.8216 -0.5247 -0.4463
 1527SOL    HW2 5632   5.831   6.395   5.422 -0.3643  0.7988  0.1186
 1528SOL     OW 5633   7.557   6.543   3.996 -0.2184 -0.1560 -0.2539
 1528SOL    HW1 5634   7.605   6.502   3.924 -1.4029 -0.6823 -0.7784
 1528SOL    HW2 5635   7.572   6.485   4.071 -0.3489 -0.5363 -0.5155
 1529SOL     OW 5636   0.060   1.607   6.731  0.3653  0.3589 -0.1765
 1529SOL    HW1 5637   0.060   1.699   6.756 -0.3174  0.4681 -0.5339
 1529SOL    HW2 5638   0.149   1.590   6.701  0.8857  0.5199  1.2090
 1530SOL     OW 5639   6.788   6.261   3.886  0.0636  0.2517 -0.5090
 1530SOL    HW1 5640   6.872   6.306   3.889 -0.2731  1.1515 -2.6025
 1530SOL    HW2 5641   6.730   6.314   3.940  0.6654 -0.0694  0.4908
 1531SOL     OW 5642   4.512   1.552   4.221 -0.2503 -0.2879 -0.0079
 1531SOL    HW1 5643   4.558   1.563   4.138 -0.3642 -0.8207 -0.1494
 1531SOL    HW2 5644   4.459   1.631   4.230 -2.1803 -1.2749 -1.7127
 1532SOL     OW 5645   0.725   1.686   7.526  0.1312  0.2823 -0.2532
 1532SOL    HW1 5646   0.683   1.771   7.536  1.3112  0.7028  1.5137
 1532SOL    HW2 5647   0.652   1.623   7.534 -0.3745  1.0314  1.7045
 1533SOL     OW 5648   0.007   2.122   7.845 -0.1641 -0.0733  0.0386
 1533SOL    HW1 5649   0.010   2.218   7.837  0.1834 -0.1175 -0.3794
 1533SOL    HW2 5650   0.058   2.104   7.924 -0.9948  0.1484  0.6335
 1534SOL     OW 5651   7.627   4.707   6.254 -0.0893  0.2233  0.6173
 1534SOL    HW1 5652   7.669   4.749   6.329  0.1980 -1.0219  1.1794
 1534SOL    HW2 5653   7.572   4.775   6.216 -0.0415  0.9540  1.7999
 1535SOL     OW 5654   2.752   4.383   6.975 -0.2839 -0.6741 -0.4341
 1535SOL    HW1 5655   2.737   4.355   7.065  0.4562  0.8480  0.2057
 1535SOL    HW2 5656   2.788   4.471   6.983 -1.8112  0.1989 -2.2915
 1536SOL     OW 5657   0.791   6.257   6.887  0.0653 -0.0317 -0.2584
 1536SOL    HW1 5658   0.769   6.184   6.828  0.1824 -0.6099  0.3965
 1536SOL    HW2 5659   0.725   6.252   6.956  0.2316  0.3250 -0.0750
 1537SOL     OW 5660   3.137   5.924   4.888  0.1861  0.5728  0.3748
 1537SOL    HW1 5661   3.096   5.838   4.875 -0.9969  1.2919 -1.0012
 1537SOL    HW2 5662   3.170   5.948   4.802  1.2336  1.1637  0.9240
 1538SOL     OW 5663   4.659   3.499   2.669 -0.4478  0.5222 -0.1434
 1538SOL    HW1 5664   4.675   3.588   2.638  1.2379 -0.7616 -3.4176
 1538SOL    HW2 5665   4.746   3.467   2.694 -1.3456  0.4723  3.4375
 1539SOL     OW 5666   2.919   5.532   5.980 -0.1971 -0.6355  0.4554
 1539SOL    HW1 5667   2.938   5.481   5.902 -0.6390  0.1375 -0.1694
 1539SOL    HW2 5668   2.900   5.466   6.047  1.7416 -1.3636  0.3651
 1540SOL     OW 5669   2.801   7.517   7.135  0.2910 -0.4834  0.3904
 1540SOL    HW1 5670   2.765   7.605   7.142  1.6812  0.1056  0.4017
 1540SOL    HW2 5671   2.871   7.515   7.200 -0.8637 -2.2104  1.6892
 1541SOL     OW 5672   4.114   3.776   2.517  0.0604  0.3511  0.4053
 1541SOL    HW1 5673   4.084   3.790   2.427 -2.2248 -2.5189  0.5867
 1541SOL    HW2 5674   4.102   3.861   2.559 -1.0663  1.1598 -1.4189
 1542SOL     OW 5675   5.250   7.636   6.211  0.4352 -0.0063  0.0723
 1542SOL    HW1 5676   5.293   7.556   6.180  2.0490  0.7151  0.3411
 1542SOL    HW2 5677   5.320   7.701   6.215 -0.3947  0.8689  1.8548
 1543SOL     OW 5678   2.064   1.750   3.374  0.1978  0.1967 -0.2590
 1543SOL    HW1 5679   2.055   1.845   3.364 -2.0512 -0.0213 -0.8759
 1543SOL    HW2 5680   2.025   1.714   3.295 -1.8143 -1.2660  1.2935
 1544SOL     OW 5681   2.020   0.014   1.334 -0.0218  0.6246  0.0538
 1544SOL    HW1 5682   1.933  -0.008   1.365 -0.2420  1.8746  0.3686
 1544SOL    HW2 5683   2.006   0.071   1.258  0.4601  2.3106  1.1559
 1545SOL     OW 5684   1.477   0.926   7.879  0.1474  0.1013  0.1320
 1545SOL    HW1 5685   1.531   0.865   7.830  1.5716  2.0166 -0.8057
 1545SOL    HW2 5686   1.456   0.995   7.817 -1.5756  0.5178  1.1052
 1546SOL     OW 5687   5.257   0.764   5.959  1.0389 -0.0145 -0.1656
 1546SOL    HW1 5688   5.251   0.739   6.051  0.6181 -0.2968 -0.2672
 1546SOL    HW2 5689   5.214   0.849   5.954 -0.7912 -0.9020 -0.4460
 1547SOL     OW 5690   0.905   7.139   1.651  0.6651 -0.6971  0.8200
 1547SOL    HW1 5691   0.950   7.153   1.734 -0.1650  0.8241  1.0425
 1547SOL    HW2 5692   0.951   7.065   1.611  2.3117 -0.2145  1.7488
 1548SOL     OW 5693   2.441   2.154   4.375 -0.1541 -0.5217  0.1698
 1548SOL    HW1 5694   2.399   2.200   4.447 -0.0419  1.3008 -0.8560
 1548SOL    HW2 5695   2.518   2.207   4.354 -0.0044 -1.1881 -1.0803
 1549SOL     OW 5696   3.624   7.820   5.255  0.0457 -0.2740  0.1293
 1549SOL    HW1 5697   3.593   7.861   5.174  0.1726 -0.2691  0.0833
 1549SOL    HW2 5698   3.663   7.892   5.305 -0.2592 -0.2277  0.3079
 1550SOL     OW 5699   3.702   2.861   0.903  0.0085 -0.6976 -0.5973
 1550SOL    HW1 5700   3.733   2.948   0.926 -2.7821  0.7563 -1.8635
 1550SOL    HW2 5701   3.776   2.820   0.857  0.6806  1.8803 -2.0074
 1551SOL     OW 5702   4.800   7.466   4.067  0.2030  0.1096  0.0543
 1551SOL    HW1 5703   4.716   7.423   4.049  1.0465 -2.2076  1.2082
 1551SOL    HW2 5704   4.778   7.559   4.073 -1.9594 -0.2196 -1.4103
 1552SOL     OW 5705   2.288   6.285   5.130 -0.4228 -0.4165 -0.2510
 1552SOL    HW1 5706   2.302   6.366   5.081  0.3018 -0.4556 -0.1055
 1552SOL    HW2 5707   2.375   6.251   5.147 -0.7314 -1.7999 -1.2679
 1553SOL     OW 5708   3.080   3.832   5.669  0.4212 -0.2241 -0.2592
 1553SOL    HW1 5709   3.035   3.894   5.726  1.5381  0.2307  0.1609
 1553SOL    HW2 5710   3.013   3.804   5.607 -0.0851  1.4869 -0.5372
 1554SOL     OW 5711   0.052   6.236   4.662 -0.6089 -0.2653  0.2130
 1554SOL    HW1 5712   0.029   6.145   4.681 -0.4291 -0.2739  0.3943
 1554SOL    HW2 5713   0.124   6.256   4.723 -0.5825 -0.0337  0.1074
 1555SOL     OW 5714   1.700   1.746   1.445 -0.4440  0.4987 -0.4148
 1555SOL    HW1 5715   1.759   1.707   1.381  0.9774  1.0495  0.5149
 1555SOL    HW2 5716   1.680   1.675   1.506 -1.3073  0.1351 -1.1050
 1556SOL     OW 5717   4.868   0.630   8.278  0.2267 -0.4690  0.1737
 1556SOL    HW1 5718   4.871   0.717   8.319 -0.8571  1.6271 -3.6640
 1556SOL    HW2 5719   4.776   0.618   8.254  0.6438 -1.8845 -0.8804
 1557SOL     OW 5720   5.729   7.666   0.175  0.0356 -0.1167  0.3297
 1557SOL    HW1 5721   5.820   7.675   0.144 -0.3555  1.6748 -0.4110
 1557SOL    HW2 5722   5.735   7.606   0.250  1.5573 -1.5002 -0.8316
 1558SOL     OW 5723   6.202   5.250   7.403 -0.0834  0.2213  0.2085
 1558SOL    HW1 5724   6.118   5.277   7.365  0.5609  0.9817 -0.7055
 1558SOL    HW2 5725   6.247   5.204   7.332  1.2143  1.8228 -0.0524
 1559SOL     OW 5726   0.306   4.951   7.851  0.0223 -0.1404 -0.1069
 1559SOL    HW1 5727   0.327   4.962   7.758 -0.7373  1.3637 -0.1148
 1559SOL    HW2 5728   0.376   4.894   7.884 -0.7314 -2.3101 -1.9847
 1560SOL     OW 5729   7.102   3.601   4.481 -0.3273 -0.3236  0.2761
 1560SOL    HW1 5730   7.018   3.571   4.515 -0.0001 -0.9591  0.5438
 1560SOL    HW2 5731   7.086   3.619   4.388 -0.2737 -2.5279 -0.2197
 1561SOL     OW 5732   0.682   7.168   7.757  0.1409  0.2204  0.7090
 1561SOL    HW1 5733   0.756   7.109   7.743 -0.1874  0.1723 -0.9985
 1561SOL    HW2 5734   0.723   7.251   7.784  1.0082  0.7027 -1.8127
 1562SOL     OW 5735   2.513   1.184   0.107  0.0471  0.4387  0.3190
 1562SOL    HW1 5736   2.584   1.241   0.077 -0.3429  0.8381  0.1475
 1562SOL    HW2 5737   2.500   1.123   0.034 -0.2014  0.7576  0.0912
 1563SOL     OW 5738   1.270   2.098   0.527  0.4275  0.0163  0.3109
 1563SOL    HW1 5739   1.299   2.024   0.474  1.2813 -0.0593  0.8654
 1563SOL    HW2 5740   1.349   2.129   0.571 -0.0359  0.8726  0.5582
 1564SOL     OW 5741   6.064   4.333   4.888  0.1294  0.2102 -0.1846
 1564SOL    HW1 5742   6.113   4.412   4.910 -0.0269  0.5689 -1.0572
 1564SOL    HW2 5743   6.038   4.296   4.972  0.8413  0.6809  0.2550
 1565SOL     OW 5744   5.227   5.300   6.491 -0.0500 -0.5695 -0.1404
 1565SOL    HW1 5745   5.210   5.389   6.522  1.1478 -1.1705  2.5065
 1565SOL    HW2 5746   5.142   5.268   6.461 -0.7511  1.0112  0.0633
 1566SOL     OW 5747   3.775   7.176   8.068 -0.0885  0.3649 -0.3959
 1566SOL    HW1 5748   3.809   7.203   8.153 -1.2631  0.7092 -0.0172
 1566SOL    HW2 5749   3.826   7.098   8.045 -0.2938 -0.2030  0.9897
 1567SOL     OW 5750   4.858   4.129   1.322  0.1642 -0.0995 -0.3001
 1567SOL    HW1 5751   4.863   4.142   1.227  0.8472  1.9993 -0.0533
 1567SOL    HW2 5752   4.765   4.125   1.341  0.0059 -2.5155 -1.2159
 1568SOL     OW 5753   2.921   2.543   4.844  0.8282  0.1957  0.3011
 1568SOL    HW1 5754   3.001   2.509   4.804  0.9234  0.5846  0.1522
 1568SOL    HW2 5755   2.934   2.532   4.938  0.3299 -1.3326  0.2181
 1569SOL     OW 5756   0.347   0.840   3.148 -0.2575 -0.4107 -0.2059
 1569SOL    HW1 5757   0.406   0.897   3.100 -0.7347  1.4215  1.2792
 1569SOL    HW2 5758   0.283   0.810   3.083  0.0289  0.7094 -1.0210
 1570SOL     OW 5759   7.780   3.421   0.976 -0.0844 -0.2181 -0.0587
 1570SOL    HW1 5760   7.697   3.381   1.001 -0.8714 -0.4129 -2.7120
 1570SOL    HW2 5761   7.827   3.351   0.930  0.4107  0.6260 -0.8786
 1571SOL     OW 5762   3.029   1.007   3.186  0.5427  0.0979  0.1161
 1571SOL    HW1 5763   3.022   0.918   3.154 -1.8449  0.1023  0.4684
 1571SOL    HW2 5764   3.113   1.038   3.153  1.0018 -1.9588 -0.7689
 1572SOL     OW 5765   2.523   7.663   5.812  0.1449 -0.2161  0.2698
 1572SOL    HW1 5766   2.541   7.715   5.890  0.0717 -0.3820  0.3964
 1572SOL    HW2 5767   2.606   7.661   5.765  0.8314 -2.0224  1.4532
 1573SOL     OW 5768   7.220   2.939   5.601 -0.0739 -0.2640 -0.4481
 1573SOL    HW1 5769   7.206   2.997   5.676  1.9617  0.0038 -0.2240
 1573SOL    HW2 5770   7.313   2.949   5.579  0.2473 -2.9894 -0.7539
 1574SOL     OW 5771   5.295   2.540   3.975  0.2195 -0.0128  0.4434
 1574SOL    HW1 5772   5.255   2.599   4.038  0.2940 -0.9241  1.3912
 1574SOL    HW2 5773   5.389   2.557   3.983  0.1448  3.0678 -2.7246
 1575SOL     OW 5774   4.926   7.681   4.724  0.1640 -0.0153  0.7047
 1575SOL    HW1 5775   4.984   7.726   4.663  1.2363 -1.6420  0.4592
 1575SOL    HW2 5776   4.898   7.602   4.677 -2.9225  1.0685  0.5180
 1576SOL     OW 5777   2.850   4.589   7.102  0.4853  0.0859 -0.1662
 1576SOL    HW1 5778   2.811   4.658   7.048  0.1938  1.1216  1.3025
 1576SOL    HW2 5779   2.832   4.616   7.192  2.4350 -0.6968  0.5160
 1577SOL     OW 5780   2.168   2.549   4.843 -0.2484  0.5615  0.0517
 1577SOL    HW1 5781   2.205   2.563   4.756  0.2149 -0.2882  0.1050
 1577SOL    HW2 5782   2.180   2.455   4.860  0.5765  0.8848  1.4355
 1578SOL     OW 5783   3.223   4.521   3.496 -0.2894 -0.2334  0.0281
 1578SOL    HW1 5784   3.308   4.548   3.532 -0.6024 -0.0360  0.6387
 1578SOL    HW2 5785   3.165   4.595   3.515 -0.6545 -0.4653 -0.1818
 1579SOL     OW 5786   3.061   2.737   6.133  0.7089  0.3928  0.3925
 1579SOL    HW1 5787   3.001   2.702   6.067  2.1579 -0.0844 -0.7055
 1579SOL    HW2 5788   3.133   2.674   6.136  1.3460  1.1368  1.4251
 1580SOL     OW 5789   4.027   6.297   3.144  0.0125  0.2934  0.3568
 1580SOL    HW1 5790   3.947   6.253   3.173  0.1239 -0.1304  0.0207
 1580SOL    HW2 5791   4.012   6.316   3.051 -0.1849  1.3014  0.5741
 1581SOL     OW 5792   7.767   8.236   4.106 -0.6872  0.7332 -0.3204
 1581SOL    HW1 5793   7.712   8.237   4.184 -1.2865  2.8106 -0.6963
 1581SOL    HW2 5794   7.722   8.293   4.044 -0.3774 -1.1066 -2.3279
 1582SOL     OW 5795   3.839   3.496   0.426 -0.0931  0.3258  0.0509
 1582SOL    HW1 5796   3.857   3.533   0.340 -2.1537  1.0221 -0.1375
 1582SOL    HW2 5797   3.925   3.488   0.467  0.7456  2.0849 -1.2227
 1583SOL     OW 5798   7.451   4.883   6.162 -0.0655 -0.3342  0.5254
 1583SOL    HW1 5799   7.363   4.848   6.172  0.3143 -1.1932  0.9749
 1583SOL    HW2 5800   7.448   4.935   6.082 -0.8103 -0.8712  0.1992
 1584SOL     OW 5801   0.232   2.384   1.288  0.1355  0.7331 -0.3609
 1584SOL    HW1 5802   0.169   2.426   1.347  1.0716  2.2244 -0.3644
 1584SOL    HW2 5803   0.247   2.298   1.326 -3.0164 -0.3353 -1.1891
 1585SOL     OW 5804   2.363   2.110   0.355  0.4871 -0.2312  0.3598
 1585SOL    HW1 5805   2.308   2.100   0.277 -2.6567  0.9950  2.2168
 1585SOL    HW2 5806   2.420   2.184   0.335 -0.7236  0.4843 -0.5563
 1586SOL     OW 5807   4.072   5.267   0.717  0.1804  0.1916  0.1324
 1586SOL    HW1 5808   4.031   5.202   0.661  2.4726  0.5233 -2.0898
 1586SOL    HW2 5809   4.164   5.268   0.690  1.0738  1.5152  2.8597
 1587SOL     OW 5810   5.296   2.550   6.343  0.0415  0.7792 -0.1030
 1587SOL    HW1 5811   5.369   2.502   6.303 -1.2334 -0.7480 -0.7297
 1587SOL    HW2 5812   5.233   2.560   6.272 -1.2160  0.2218  0.8964
 1588SOL     OW 5813   0.667   0.336   2.459  0.4852  0.7104  0.6292
 1588SOL    HW1 5814   0.721   0.297   2.528 -0.5418 -1.0317  0.4965
 1588SOL    HW2 5815   0.731   0.367   2.394  1.3930 -0.0533  1.1238
 1589SOL     OW 5816   1.398   3.872   4.671  0.0079 -0.3288 -0.3802
 1589SOL    HW1 5817   1.463   3.837   4.732  0.4040  0.4328 -0.3492
 1589SOL    HW2 5818   1.364   3.795   4.626  1.1083 -0.7307 -0.5679
 1590SOL     OW 5819   0.677   0.829   6.845  0.1057  0.1823  0.0217
 1590SOL    HW1 5820   0.745   0.893   6.826 -1.1692  1.9981  1.2503
 1590SOL    HW2 5821   0.685   0.763   6.776  2.8924  0.4705 -0.0062
 1591SOL     OW 5822   2.872   4.778   6.386  0.0526  0.6392 -0.4257
 1591SOL    HW1 5823   2.881   4.752   6.478  0.3423  0.5652 -0.4742
 1591SOL    HW2 5824   2.778   4.778   6.370 -0.0162  0.9750 -0.0349
 1592SOL     OW 5825   4.231   3.300   5.728  0.0845  0.1779  0.0060
 1592SOL    HW1 5826   4.147   3.313   5.773 -0.6938 -1.2572 -0.9384
 1592SOL    HW2 5827   4.247   3.382   5.682  0.0826  1.0857  1.5720
 1593SOL     OW 5828   2.457   6.348   5.433  0.3148 -0.0842  0.6243
 1593SOL    HW1 5829   2.415   6.278   5.483  1.0054 -0.9232  0.0716
 1593SOL    HW2 5830   2.481   6.306   5.350  0.6485  0.8437  0.2432
 1594SOL     OW 5831   3.814   3.588   2.253 -0.2146 -0.0640 -0.0795
 1594SOL    HW1 5832   3.739   3.589   2.193  0.0214  0.0462 -0.3730
 1594SOL    HW2 5833   3.819   3.497   2.283 -0.8617  0.0668  0.4442
 1595SOL     OW 5834   6.756   7.885   2.173 -0.1584  0.5240  0.0766
 1595SOL    HW1 5835   6.839   7.839   2.165 -0.5106 -0.9808  3.4489
 1595SOL    HW2 5836   6.780   7.974   2.198  0.4524  0.5557 -0.6117
 1596SOL     OW 5837   0.471   8.036   4.721 -0.3798 -0.0038 -0.0273
 1596SOL    HW1 5838   0.468   8.011   4.629 -0.9330 -1.2746  0.3118
 1596SOL    HW2 5839   0.384   8.015   4.754 -0.4829  1.2963  0.5853
 1597SOL     OW 5840   8.163   1.961   1.797  0.7113 -0.6510 -0.7617
 1597SOL    HW1 5841   8.256   1.979   1.811  0.2087  0.7806  1.0982
 1597SOL    HW2 5842   8.122   2.047   1.796 -0.9311 -1.3082  1.4741
 1598SOL     OW 5843   4.384   4.845   5.581 -0.1840  0.3329  0.1404
 1598SOL    HW1 5844   4.423   4.857   5.495  2.4832  0.8076  1.2862
 1598SOL    HW2 5845   4.346   4.930   5.602  0.1874  0.5678 -0.1197
 1599SOL     OW 5846   7.225   2.046   2.120  0.0695  0.4594 -0.3694
 1599SOL    HW1 5847   7.185   2.018   2.037  0.1152  1.4467 -0.7339
 1599SOL    HW2 5848   7.317   2.062   2.097  0.1195  0.5742 -0.0851
 1600SOL     OW 5849   6.435   1.900   5.678 -0.1053 -0.0393 -0.1668
 1600SOL    HW1 5850   6.510   1.885   5.736 -1.7512  0.3690  2.2337
 1600SOL    HW2 5851   6.426   1.817   5.630  0.0178 -1.2813  1.8139
 1601SOL     OW 5852   3.345   5.462   7.399  0.3238 -0.5140 -0.5367
 1601SOL    HW1 5853   3.356   5.407   7.322  0.1332  1.7354 -2.2507
 1601SOL    HW2 5854   3.273   5.521   7.377 -0.8526 -0.8498  2.0401
 1602SOL     OW 5855   4.317   0.451   1.138 -0.1815  0.0570  0.0258
 1602SOL    HW1 5856   4.327   0.430   1.231 -0.6137 -1.1123 -0.1714
 1602SOL    HW2 5857   4.235   0.407   1.113  0.7454 -0.9953 -1.2794
 1603SOL     OW 5858   3.527   4.495   1.371  0.2768 -0.8850 -0.5677
 1603SOL    HW1 5859   3.446   4.499   1.319  0.1055  0.0676 -0.2564
 1603SOL    HW2 5860   3.597   4.499   1.305  0.0833 -1.7615 -0.8413
 1604SOL     OW 5861   4.088   0.022   6.452  0.0120 -0.4934  0.1175
 1604SOL    HW1 5862   4.150   0.038   6.523 -0.3274 -3.9239  1.3979
 1604SOL    HW2 5863   4.138  -0.026   6.386 -0.4345 -0.0790 -0.5313
 1605SOL     OW 5864   8.273   6.362   1.372  0.2987  0.3570  0.4699
 1605SOL    HW1 5865   8.308   6.309   1.300 -0.3946  0.5231 -0.0035
 1605SOL    HW2 5866   8.349   6.380   1.427  0.4417 -1.5755  0.9499
 1606SOL     OW 5867   3.944   3.042   4.924  0.1871  0.3138 -0.1450
 1606SOL    HW1 5868   4.009   3.112   4.928 -1.5332  2.0738 -1.1224
 1606SOL    HW2 5869   3.878   3.074   4.862 -1.9308 -1.0704  1.2440
 1607SOL     OW 5870   4.848   4.259   5.145 -0.1615  0.0043 -0.2104
 1607SOL    HW1 5871   4.907   4.331   5.167  0.2933 -0.8685  1.5814
 1607SOL    HW2 5872   4.905   4.187   5.119 -0.5260 -0.3035 -0.1751
 1608SOL     OW 5873   1.789   4.361   0.666  0.3671  0.1590 -0.6583
 1608SOL    HW1 5874   1.856   4.307   0.708 -1.6349 -1.2740  0.9109
 1608SOL    HW2 5875   1.738   4.397   0.738 -0.5753  1.2234 -1.7951
 1609SOL     OW 5876   0.459   5.922   1.114  0.2047  0.3033  0.5410
 1609SOL    HW1 5877   0.462   5.883   1.201 -1.8450 -1.2059  0.0073
 1609SOL    HW2 5878   0.388   5.986   1.118  0.1744  0.3095  0.0300
 1610SOL     OW 5879   4.764   7.624   1.229 -0.6358  0.3836 -0.5963
 1610SOL    HW1 5880   4.740   7.717   1.223 -1.0707  0.2021 -1.9685
 1610SOL    HW2 5881   4.691   7.584   1.275 -1.2206  0.4690 -1.4233
 1611SOL     OW 5882   7.283   2.856   0.326  0.6525 -0.5234 -0.1262
 1611SOL    HW1 5883   7.303   2.946   0.300 -0.1503 -0.4695 -0.6040
 1611SOL    HW2 5884   7.368   2.813   0.333  1.0530  0.3115  0.2615
 1612SOL     OW 5885   0.615   4.462   6.306 -0.2567  0.4714  0.2343
 1612SOL    HW1 5886   0.695   4.414   6.283 -1.0156 -1.0616  0.6441
 1612SOL    HW2 5887   0.642   4.553   6.309  1.5791 -0.0483  0.7802
 1613SOL     OW 5888   7.635   4.385   6.794  0.1907  0.4732  0.3052
 1613SOL    HW1 5889   7.571   4.455   6.804  0.8196  1.2049 -0.6460
 1613SOL    HW2 5890   7.665   4.367   6.883  0.3441  1.7251  0.5114
 1614SOL     OW 5891   2.301   7.581   2.658  0.6545  0.0148  0.3050
 1614SOL    HW1 5892   2.325   7.493   2.685  0.0776 -0.0363  0.6786
 1614SOL    HW2 5893   2.317   7.635   2.735  2.2420  0.4742 -0.3244
 1615SOL     OW 5894   0.385   5.859   6.592 -0.6662 -0.7457 -0.4073
 1615SOL    HW1 5895   0.342   5.791   6.540 -1.3147  0.4366 -1.4922
 1615SOL    HW2 5896   0.470   5.870   6.551  0.5516 -2.6986  1.4034
 1616SOL     OW 5897   1.853   0.442   0.075  0.1823  0.2812  0.2626
 1616SOL    HW1 5898   1.901   0.459   0.156 -0.2188  2.7184  0.0804
 1616SOL    HW2 5899   1.785   0.380   0.100  0.6233  0.2832  1.5816
 1617SOL     OW 5900   7.652   7.418   2.510  0.0475 -0.5052 -0.1706
 1617SOL    HW1 5901   7.600   7.493   2.539 -0.1425 -1.2462  1.5429
 1617SOL    HW2 5902   7.740   7.454   2.498 -0.3713  0.2996 -0.8911
 1618SOL     OW 5903   5.807   5.259   4.632  0.3846 -0.6102  0.1414
 1618SOL    HW1 5904   5.809   5.354   4.627  0.9833 -0.6597 -0.7496
 1618SOL    HW2 5905   5.748   5.232   4.562  2.0023 -0.9702 -1.1509
 1619SOL     OW 5906   4.018   6.111   0.055 -0.4329  0.5022 -0.4327
 1619SOL    HW1 5907   4.061   6.152  -0.020 -1.8261  1.6123 -0.6729
 1619SOL    HW2 5908   4.085   6.110   0.124  0.7914 -0.3378 -1.5946
 1620SOL     OW 5909   4.398   7.001   0.845  0.0371  0.7919  0.0727
 1620SOL    HW1 5910   4.399   7.048   0.928  0.9137  0.6278  0.1735
 1620SOL    HW2 5911   4.467   7.044   0.793  0.3600  0.0874 -0.0916
 1621SOL     OW 5912   4.209   4.569   4.893  0.2907  0.1903  0.1580
 1621SOL    HW1 5913   4.218   4.513   4.971  0.8184  1.3451  0.9634
 1621SOL    HW2 5914   4.115   4.573   4.877  0.0220  1.2104  1.7372
 1622SOL     OW 5915   4.301   6.761   6.729 -0.1002  0.0023  0.1301
 1622SOL    HW1 5916   4.250   6.798   6.802 -1.1276  1.0902 -1.0853
 1622SOL    HW2 5917   4.391   6.760   6.761 -0.6087 -0.1876  1.6645
 1623SOL     OW 5918   5.931   1.386   8.017 -0.1385 -0.3599 -0.2173
 1623SOL    HW1 5919   5.949   1.357   7.927 -0.1768  2.0172 -1.0709
 1623SOL    HW2 5920   6.017   1.386   8.059  0.3059  0.9283 -1.0663
 1624SOL     OW 5921   7.308   0.826   6.973 -0.1599 -0.3644  0.2307
 1624SOL    HW1 5922   7.382   0.801   7.027  0.2504 -0.6826 -0.4625
 1624SOL    HW2 5923   7.282   0.912   7.005 -0.0567 -0.6334  1.0589
 1625SOL     OW 5924   1.437   4.547   6.838 -0.8530  0.1434 -0.3971
 1625SOL    HW1 5925   1.410   4.490   6.911 -0.5365 -0.4032 -0.7000
 1625SOL    HW2 5926   1.482   4.620   6.880 -0.0429 -0.5281 -0.0781
 1626SOL     OW 5927   0.932   6.019   1.510 -0.1052 -0.4362 -0.1281
 1626SOL    HW1 5928   0.885   5.996   1.590  0.1162  2.1290  0.8192
 1626SOL    HW2 5929   0.874   6.083   1.467  2.7507  3.7948  1.6668
 1627SOL     OW 5930   2.760   1.053   3.932 -0.2027 -0.2691 -0.0072
 1627SOL    HW1 5931   2.807   1.113   3.875  0.4521 -2.2052 -1.6284
 1627SOL    HW2 5932   2.829   0.999   3.972 -0.8644 -1.3344 -0.2674
 1628SOL     OW 5933   5.266   6.233   7.265 -0.1926  0.1227 -0.0903
 1628SOL    HW1 5934   5.255   6.307   7.205 -1.1026 -0.0898 -0.2072
 1628SOL    HW2 5935   5.284   6.159   7.208 -0.1358  0.0967 -0.0381
 1629SOL     OW 5936   0.002   5.755   2.602  0.1291  0.5002  0.3564
 1629SOL    HW1 5937   0.032   5.825   2.545  0.2863 -0.3883 -0.6679
 1629SOL    HW2 5938   0.045   5.772   2.686 -0.9314  2.4238  0.5697
 1630SOL     OW 5939   4.229   0.059   4.735  0.2641 -0.1396  0.3198
 1630SOL    HW1 5940   4.245   0.153   4.733  0.7064 -0.2182 -0.8014
 1630SOL    HW2 5941   4.300   0.023   4.789  0.5352  0.1023  0.1281
 1631SOL     OW 5942   3.853   2.577   3.152 -0.2769 -0.0509 -0.1398
 1631SOL    HW1 5943   3.778   2.544   3.101 -0.1064  0.6436 -0.8474
 1631SOL    HW2 5944   3.862   2.668   3.126  0.5879 -0.0225  0.2251
 1632SOL     OW 5945   2.492   5.982   0.810 -0.4141 -0.2896  0.1966
 1632SOL    HW1 5946   2.582   5.973   0.841 -0.0039  3.3517  0.5609
 1632SOL    HW2 5947   2.438   5.966   0.888  0.2526  1.8717  1.1857
 1633SOL     OW 5948   6.348   3.198   3.986  0.0831  0.0278  0.3688
 1633SOL    HW1 5949   6.281   3.255   4.025 -0.2968 -0.9176  1.1234
 1633SOL    HW2 5950   6.315   3.109   3.999  0.7874 -0.3959 -0.5798
 1634SOL     OW 5951   1.663   6.070   0.518  0.4122 -0.0843 -0.4712
 1634SOL    HW1 5952   1.577   6.047   0.552 -0.9378  2.3250 -1.9602
 1634SOL    HW2 5953   1.686   5.998   0.459 -0.0816 -1.2548  0.7378
 1635SOL     OW 5954   0.745   3.930   4.948  0.3097 -0.5020  0.8274
 1635SOL    HW1 5955   0.775   3.879   4.872 -1.7750 -0.3127 -0.1832
 1635SOL    HW2 5956   0.697   4.003   4.910 -0.3656 -0.1345  2.3373
 1636SOL     OW 5957   4.809   1.099   4.490  0.3988  0.5880  0.2666
 1636SOL    HW1 5958   4.731   1.053   4.520  0.7107 -1.3119 -1.6158
 1636SOL    HW2 5959   4.808   1.182   4.538 -3.6592  1.4134 -0.8349
 1637SOL     OW 5960   4.124   5.772   2.240 -0.3725  0.1454 -0.1077
 1637SOL    HW1 5961   4.134   5.680   2.215  1.1795 -0.2505  1.7369
 1637SOL    HW2 5962   4.029   5.785   2.246 -0.6161 -1.6449  0.6298
 1638SOL     OW 5963   8.041   3.500   2.692  0.4368  0.3149  0.1729
 1638SOL    HW1 5964   8.020   3.426   2.749 -0.3937  0.3421 -0.0821
 1638SOL    HW2 5965   8.069   3.461   2.610 -2.6167  0.2044 -0.9332
 1639SOL     OW 5966   2.792   3.138   0.555  0.4653  0.6081  0.4278
 1639SOL    HW1 5967   2.699   3.118   0.544  0.3854  0.5688  1.1211
 1639SOL    HW2 5968   2.837   3.074   0.500  0.0862  0.6286  0.0836
 1640SOL     OW 5969   3.191   8.230   2.267 -0.1711 -0.1259 -0.2705
 1640SOL    HW1 5970   3.133   8.187   2.329  0.6856 -1.7795 -0.5570
 1640SOL    HW2 5971   3.271   8.246   2.317  0.3028 -0.9110 -0.7486
 1641SOL     OW 5972   4.552   2.808   7.115  0.5140  0.4344 -0.4465
 1641SOL    HW1 5973   4.460   2.829   7.098  0.7854  0.0940 -2.6719
 1641SOL    HW2 5974   4.596   2.824   7.031  2.3591 -0.1430  0.3531
 1642SOL     OW 5975   2.371   2.577   6.027  0.0473 -0.4265  0.2990
 1642SOL    HW1 5976   2.329   2.606   6.107  2.1604 -0.5027  1.5053
 1642SOL    HW2 5977   2.301   2.577   5.962 -1.9111 -1.0329  2.2722
 1643SOL     OW 5978   5.298   1.955   1.428 -0.3062 -0.0671 -0.0661
 1643SOL    HW1 5979   5.341   1.883   1.382 -0.2373 -0.2308  0.2540
 1643SOL    HW2 5980   5.212   1.962   1.387 -0.6057 -0.8295  0.4155
 1644SOL     OW 5981   5.387   6.762   7.445  0.5543 -0.2229  0.2996
 1644SOL    HW1 5982   5.386   6.676   7.403 -0.4166 -0.4129  0.6844
 1644SOL    HW2 5983   5.299   6.772   7.481  1.4980 -0.3501  2.8468
 1645SOL     OW 5984   3.174   1.022   5.009  0.1677 -1.1879 -0.1818
 1645SOL    HW1 5985   3.169   1.046   5.102 -1.8847 -0.8878 -0.3197
 1645SOL    HW2 5986   3.267   1.027   4.988  0.7006 -1.4342  1.8984
 1646SOL     OW 5987   7.768   2.840   0.101  0.3913  0.2382  0.1855
 1646SOL    HW1 5988   7.848   2.801   0.064  0.0481 -0.2751 -0.0146
 1646SOL    HW2 5989   7.801   2.907   0.162  0.9863 -0.5859  0.7896
 1647SOL     OW 5990   5.939   2.422   3.416  0.0665 -0.4581  0.5445
 1647SOL    HW1 5991   5.991   2.410   3.495 -0.1672  0.9705  0.9522
 1647SOL    HW2 5992   5.875   2.351   3.417  1.0205 -1.3208  0.8475
 1648SOL     OW 5993   6.892   6.889   1.604 -0.3867 -0.5245 -0.1757
 1648SOL    HW1 5994   6.981   6.905   1.634 -1.3767  1.6173  1.9083
 1648SOL    HW2 5995   6.857   6.975   1.583 -1.9545 -1.3151 -1.0222
 1649SOL     OW 5996   4.648   5.322   0.455 -0.1018 -0.6485  0.3921
 1649SOL    HW1 5997   4.601   5.328   0.372 -0.3095 -0.8123  0.4972
 1649SOL    HW2 5998   4.678   5.231   0.458  0.4167 -0.4869  0.2210
 1650SOL     OW 5999   2.001   5.208   1.152 -0.1572  0.0533 -0.2878
 1650SOL    HW1 6000   1.916   5.165   1.143 -0.0620 -0.4364  1.0225
 1650SOL    HW2 6001   2.040   5.170   1.230  1.9558 -0.8460 -1.6939
 1651SOL     OW 6002   2.882   0.986   1.092  0.0706  0.0414 -0.1934
 1651SOL    HW1 6003   2.812   0.923   1.073 -0.2086  0.4665 -0.6064
 1651SOL    HW2 6004   2.881   1.046   1.017  2.9411 -1.7150 -1.7962
 1652SOL     OW 6005   4.846   4.827   8.215  0.1743  0.5020  0.0362
 1652SOL    HW1 6006   4.879   4.753   8.165  2.0043  1.7923 -0.7569
 1652SOL    HW2 6007   4.817   4.788   8.298  0.8043 -1.1266 -0.4586
 1653SOL     OW 6008   2.745   7.465   4.636 -0.1869  0.2510  0.4468
 1653SOL    HW1 6009   2.763   7.387   4.585 -0.4523 -0.0147  0.7501
 1653SOL    HW2 6010   2.740   7.433   4.727 -1.8173  0.3494  0.4242
 1654SOL     OW 6011   2.318   6.947   3.715 -0.4058 -0.4736 -0.3003
 1654SOL    HW1 6012   2.342   6.857   3.693 -2.6018 -0.7095 -2.0903
 1654SOL    HW2 6013   2.239   6.938   3.769 -0.8237  0.3766 -0.7521
 1655SOL     OW 6014   1.798   4.020   7.885 -0.0117  0.3691  0.0436
 1655SOL    HW1 6015   1.774   3.935   7.848  0.2771  0.9400 -1.5422
 1655SOL    HW2 6016   1.894   4.022   7.880 -0.0549  1.0778 -0.6228
 1656SOL     OW 6017   5.905   7.985   2.099 -0.1635  0.0131 -0.2061
 1656SOL    HW1 6018   5.832   8.045   2.115  0.5117  1.7372 -2.9338
 1656SOL    HW2 6019   5.863   7.901   2.083 -1.5444  0.8113 -1.0319
 1657SOL     OW 6020   3.118   5.191   7.128 -0.0766 -0.3767 -0.3900
 1657SOL    HW1 6021   3.211   5.193   7.152 -0.3764  0.5088  0.7979
 1657SOL    HW2 6022   3.116   5.227   7.039  0.7806 -1.0336 -0.6847
 1658SOL     OW 6023   5.073   5.702   5.140 -0.5847 -0.2520  0.1300
 1658SOL    HW1 6024   4.980   5.685   5.155 -0.7135  0.8791  0.7414
 1658SOL    HW2 6025   5.087   5.790   5.175  0.6489 -0.2796 -0.2505
 1659SOL     OW 6026   7.647   0.558   5.035  0.0569  0.3877 -0.3062
 1659SOL    HW1 6027   7.620   0.625   5.097  2.3351  1.8110 -0.7209
 1659SOL    HW2 6028   7.725   0.594   4.994  1.5739 -2.6291 -0.3635
 1660SOL     OW 6029   1.915   0.284   6.150  0.8478 -0.0792 -0.3479
 1660SOL    HW1 6030   1.883   0.372   6.169 -0.9067 -0.6839 -0.2666
 1660SOL    HW2 6031   1.886   0.267   6.061 -0.2328 -1.1283  0.1702
 1661SOL     OW 6032   2.634   1.514   2.985 -0.3520 -0.7220  0.3329
 1661SOL    HW1 6033   2.544   1.527   3.012 -0.3605 -0.2833  0.1075
 1661SOL    HW2 6034   2.686   1.532   3.063 -0.3759  0.5397  0.0817
 1662SOL     OW 6035   2.024   4.603   7.391  0.3974  0.3179 -0.4857
 1662SOL    HW1 6036   1.966   4.527   7.384  0.9988 -0.1863 -0.0863
 1662SOL    HW2 6037   1.991   4.651   7.466  0.9597 -0.3910  0.2344
 1663SOL     OW 6038   4.222   2.346   2.249 -0.0942  0.1148  0.0540
 1663SOL    HW1 6039   4.174   2.426   2.270 -0.0445 -0.0784  0.9335
 1663SOL    HW2 6040   4.241   2.306   2.333 -1.4391 -1.6182 -0.3989
 1664SOL     OW 6041   6.483   8.203   5.136  0.3959  0.3214  0.0663
 1664SOL    HW1 6042   6.561   8.175   5.088  0.1641 -0.0340 -0.1131
 1664SOL    HW2 6043   6.417   8.138   5.113  0.4703 -0.2726  1.4251
 1665SOL     OW 6044   0.551   4.586   5.202  0.2165 -0.3881  0.3154
 1665SOL    HW1 6045   0.572   4.530   5.276  0.7731 -0.8365 -0.1745
 1665SOL    HW2 6046   0.461   4.562   5.179  1.5395 -3.7122 -2.1161
 1666SOL     OW 6047   6.294   7.086   5.640  0.2651 -0.0381  0.0789
 1666SOL    HW1 6048   6.362   7.097   5.573  0.3077 -0.8625 -0.0215
 1666SOL    HW2 6049   6.247   7.007   5.613 -1.7589  1.3496 -0.7450
 1667SOL     OW 6050   8.010   1.758   7.056 -0.1955  0.3459 -0.3347
 1667SOL    HW1 6051   8.097   1.796   7.066  0.3686 -1.1915  1.0913
 1667SOL    HW2 6052   8.017   1.701   6.980  0.5219 -0.8722  0.5973
 1668SOL     OW 6053   1.342   6.074   5.177  0.4183 -0.3132 -0.8021
 1668SOL    HW1 6054   1.354   6.121   5.260 -0.1604 -1.9355  0.2582
 1668SOL    HW2 6055   1.250   6.087   5.155  0.4131 -0.4077 -0.8375
 1669SOL     OW 6056   4.239   3.836   5.649  0.0406 -0.2986  0.0344
 1669SOL    HW1 6057   4.200   3.753   5.619 -1.2929  0.3532 -0.1128
 1669SOL    HW2 6058   4.286   3.812   5.729  1.6996 -1.6248 -1.2654
 1670SOL     OW 6059   2.568   4.414   0.283  0.0248 -0.0027  0.1630
 1670SOL    HW1 6060   2.596   4.504   0.264  0.1817 -0.0571  0.1296
 1670SOL    HW2 6061   2.637   4.360   0.245  0.9546 -0.0870  1.8759
 1671SOL     OW 6062   7.422   1.981   3.555 -0.1153  0.6534 -0.0849
 1671SOL    HW1 6063   7.339   1.950   3.590 -0.8887 -0.5944 -2.7541
 1671SOL    HW2 6064   7.484   1.911   3.574 -0.4139  0.2154 -0.6675
 1672SOL     OW 6065   7.835   0.966   2.667 -0.7247  0.1499  0.1925
 1672SOL    HW1 6066   7.746   0.983   2.699 -0.2992  0.6768  1.1164
 1672SOL    HW2 6067   7.887   0.952   2.746  0.5609  2.4908 -0.1493
 1673SOL     OW 6068   4.413   4.641   7.825 -0.3576  0.2110  0.5731
 1673SOL    HW1 6069   4.470   4.565   7.815  0.5035  0.8193  0.7742
 1673SOL    HW2 6070   4.347   4.630   7.755 -0.6515 -1.0489  1.0169
 1674SOL     OW 6071   6.571   8.086   0.679  0.8313 -0.0269 -0.2664
 1674SOL    HW1 6072   6.619   8.165   0.653 -1.6931  1.1330 -1.8477
 1674SOL    HW2 6073   6.490   8.090   0.628 -0.7230 -2.0969  1.8451
 1675SOL     OW 6074   3.461   2.201   0.876 -0.0601  0.1457  0.0464
 1675SOL    HW1 6075   3.554   2.188   0.895 -0.4669 -0.3761  1.9028
 1675SOL    HW2 6076   3.431   2.260   0.944 -0.9558  0.8763 -0.9567
 1676SOL     OW 6077   0.189   3.982   0.464 -0.3494 -0.2424  0.1516
 1676SOL    HW1 6078   0.122   4.030   0.514 -0.5558 -1.3401  0.9532
 1676SOL    HW2 6079   0.175   4.011   0.373 -0.9431  0.6538  0.5077
 1677SOL     OW 6080   6.116   4.347   6.447  0.0274 -0.0931 -0.4175
 1677SOL    HW1 6081   6.115   4.255   6.473 -0.2039 -0.0933 -0.4254
 1677SOL    HW2 6082   6.204   4.361   6.414  0.3201 -0.0901  0.3546
 1678SOL     OW 6083   1.868   2.054   4.453 -0.1325  0.7211  0.3606
 1678SOL    HW1 6084   1.865   2.054   4.357  1.2522  0.7179  0.3071
 1678SOL    HW2 6085   1.778   2.075   4.479 -0.3356  1.6193 -0.9523
 1679SOL     OW 6086   0.638   5.945   1.347  0.2610  0.1584 -0.6955
 1679SOL    HW1 6087   0.722   5.926   1.306  0.1696 -0.6164 -0.5277
 1679SOL    HW2 6088   0.610   5.862   1.385  0.1235  0.7441  0.5330
 1680SOL     OW 6089   8.143   6.629   6.813  0.1468  0.3790  0.2230
 1680SOL    HW1 6090   8.155   6.539   6.844  1.2794  1.0176  1.7803
 1680SOL    HW2 6091   8.211   6.640   6.747 -1.2592 -0.4896 -1.4443
 1681SOL     OW 6092   0.535   4.860   0.774 -0.7341 -1.4439  0.1300
 1681SOL    HW1 6093   0.611   4.862   0.831 -0.0647 -0.3326 -0.7652
 1681SOL    HW2 6094   0.567   4.891   0.689 -1.9443 -1.9896 -0.5593
 1682SOL     OW 6095   6.867   7.893   2.894 -0.5035  0.4215  0.1103
 1682SOL    HW1 6096   6.904   7.805   2.895  1.2828  1.1255 -0.2203
 1682SOL    HW2 6097   6.798   7.890   2.827  0.3253 -0.4194 -0.7237
 1683SOL     OW 6098   2.065   2.741   4.054  0.0741  0.1164 -0.4697
 1683SOL    HW1 6099   2.156   2.771   4.062 -0.5373  1.9211  0.4679
 1683SOL    HW2 6100   2.045   2.752   3.961  0.9422 -0.7860 -0.7877
 1684SOL     OW 6101   4.282   6.131   2.690  0.6991  1.2805 -0.6576
 1684SOL    HW1 6102   4.214   6.118   2.755 -0.0954  1.0714 -1.5071
 1684SOL    HW2 6103   4.327   6.210   2.718  0.5553  1.0412  0.2875
 1685SOL     OW 6104   4.457   4.345   6.770  0.1020  0.4611 -0.0370
 1685SOL    HW1 6105   4.430   4.357   6.861 -0.0279  0.4407 -0.0735
 1685SOL    HW2 6106   4.394   4.394   6.719  0.2869  0.6284 -0.1055
 1686SOL     OW 6107   2.624   1.930   7.320  0.1254  0.0783 -0.2507
 1686SOL    HW1 6108   2.705   1.883   7.340  1.0625  1.3721 -0.8123
 1686SOL    HW2 6109   2.576   1.873   7.260  1.4423  0.0284 -1.2863
 1687SOL     OW 6110   1.117   5.998   6.314 -0.1334  0.3764  0.4159
 1687SOL    HW1 6111   1.108   5.975   6.406 -1.2694 -0.7740  0.0496
 1687SOL    HW2 6112   1.153   5.919   6.273  0.0252  0.7550 -0.1874
 1688SOL     OW 6113   7.626   6.893   6.853 -0.5337  0.5120  0.0223
 1688SOL    HW1 6114   7.704   6.910   6.799  0.2558  0.0038  0.9774
 1688SOL    HW2 6115   7.568   6.844   6.795  0.4351 -0.3017 -0.2961
 1689SOL     OW 6116   4.385   2.974   0.923 -0.5477  0.1049  0.2258
 1689SOL    HW1 6117   4.364   2.882   0.908  1.7490 -0.6067  0.9625
 1689SOL    HW2 6118   4.473   2.985   0.888 -1.4054  2.5067 -1.4318
 1690SOL     OW 6119   8.264   1.697   1.814  0.1809  0.1742 -0.5956
 1690SOL    HW1 6120   8.301   1.690   1.726  0.5638  2.4767 -0.6805
 1690SOL    HW2 6121   8.227   1.785   1.817 -2.4981 -0.8886  0.5796
 1691SOL     OW 6122   6.809   5.430   0.555  0.1512 -0.2484 -0.1382
 1691SOL    HW1 6123   6.865   5.496   0.514  2.5948 -2.3302 -0.4325
 1691SOL    HW2 6124   6.747   5.405   0.486  1.4909 -0.7181 -1.2212
 1692SOL     OW 6125   5.800   2.566   2.971  1.0342  0.2576  0.2270
 1692SOL    HW1 6126   5.759   2.532   2.892 -2.6307 -0.5481  2.2717
 1692SOL    HW2 6127   5.891   2.536   2.965 -0.1539 -3.6740 -1.6228
 1693SOL     OW 6128   5.004   4.817   3.944  0.0910 -0.3546 -0.0364
 1693SOL    HW1 6129   5.071   4.813   3.877  0.9400  1.8612  0.5978
 1693SOL    HW2 6130   5.020   4.741   4.000  0.9027 -0.8547 -0.9370
 1694SOL     OW 6131   1.771   7.035   8.185 -0.2652 -0.6538 -0.3542
 1694SOL    HW1 6132   1.748   7.112   8.133  1.7850  0.3881  0.1525
 1694SOL    HW2 6133   1.728   7.049   8.269 -0.4622 -0.4041 -0.4931
 1695SOL     OW 6134   5.492   5.316   2.346  0.4128  0.1336  0.4004
 1695SOL    HW1 6135   5.456   5.352   2.427 -1.1045  1.7547 -0.9178
 1695SOL    HW2 6136   5.560   5.377   2.321 -0.4471  0.7423 -0.5269
 1696SOL     OW 6137   5.223   3.875   5.459 -0.0877  0.0228 -0.2981
 1696SOL    HW1 6138   5.250   3.829   5.538 -0.2871  0.0690 -0.2011
 1696SOL    HW2 6139   5.303   3.913   5.424  0.0176 -0.0865 -0.1761
 1697SOL     OW 6140   3.680   3.218   3.989  0.0687  0.4041 -0.0308
 1697SOL    HW1 6141   3.724   3.153   4.043 -0.6863  0.5083  0.7217
 1697SOL    HW2 6142   3.594   3.228   4.029 -0.7313  0.0664 -1.5731
 1698SOL     OW 6143   5.733   5.775   2.272  0.1267 -0.2343  0.5056
 1698SOL    HW1 6144   5.715   5.866   2.246 -1.4328 -0.6241  0.1313
 1698SOL    HW2 6145   5.673   5.759   2.345 -0.6616 -1.4106 -0.3762
 1699SOL     OW 6146   2.006   2.539   7.101 -0.0098  0.2202  0.0826
 1699SOL    HW1 6147   1.946   2.490   7.157  0.2013 -0.0959  0.0336
 1699SOL    HW2 6148   1.950   2.604   7.058  0.0439  1.3778  1.6741
 1700SOL     OW 6149   4.524   2.631   4.896 -0.5032  0.4641  0.3249
 1700SOL    HW1 6150   4.459   2.655   4.830  0.5313  0.2338 -0.8207
 1700SOL    HW2 6151   4.559   2.547   4.866 -0.8720 -0.2602  1.8384
 1701SOL     OW 6152   1.561   2.467   2.952  0.3061  0.1361 -0.1879
 1701SOL    HW1 6153   1.590   2.466   3.043 -1.6856  0.8649  0.5021
 1701SOL    HW2 6154   1.505   2.544   2.945 -0.9248 -0.8208 -1.5724
 1702SOL     OW 6155   7.362   4.636   4.042 -0.2027 -0.4963  0.7305
 1702SOL    HW1 6156   7.417   4.627   3.965  0.3695  0.5740  1.0013
 1702SOL    HW2 6157   7.402   4.707   4.093  0.3844 -2.2003  2.8128
 1703SOL     OW 6158   2.617   7.697   5.139  0.2158  0.5650  0.3034
 1703SOL    HW1 6159   2.537   7.736   5.174 -0.8963 -1.2512 -0.1123
 1703SOL    HW2 6160   2.639   7.628   5.202 -0.5204 -1.2235 -1.3256
 1704SOL     OW 6161   6.004   0.257   6.042 -0.0578  0.3004 -0.0717
 1704SOL    HW1 6162   6.091   0.296   6.032 -0.9707  2.0905 -1.7377
 1704SOL    HW2 6163   5.972   0.288   6.126  1.6347 -2.0763  1.5947
 1705SOL     OW 6164   5.190   6.735   5.017  0.3541 -0.1751 -0.1011
 1705SOL    HW1 6165   5.121   6.724   4.951  0.8889  0.2924 -0.7465
 1705SOL    HW2 6166   5.149   6.707   5.099 -0.1882 -1.1608 -0.6924
 1706SOL     OW 6167   1.115   8.048   6.047 -0.4700 -0.0807 -0.3274
 1706SOL    HW1 6168   1.034   8.071   6.091 -0.4844  0.0178 -0.4054
 1706SOL    HW2 6169   1.102   7.957   6.020 -0.3978 -0.1926  0.0112
 1707SOL     OW 6170   7.140   0.791   5.060 -0.1343 -0.1522 -0.7801
 1707SOL    HW1 6171   7.199   0.717   5.045 -2.4370 -2.1375 -0.6172
 1707SOL    HW2 6172   7.123   0.825   4.972  1.1472  0.4261 -0.8334
 1708SOL     OW 6173   0.763   0.221   7.676  0.2919  0.2906 -0.5178
 1708SOL    HW1 6174   0.824   0.271   7.730  0.5007 -0.7970  0.2937
 1708SOL    HW2 6175   0.780   0.129   7.699 -0.7005 -0.1117 -1.2938
 1709SOL     OW 6176   1.899   8.123   5.027  0.3017 -0.3645 -0.0647
 1709SOL    HW1 6177   1.830   8.128   5.093  0.8450  0.9360  0.4271
 1709SOL    HW2 6178   1.980   8.134   5.075  0.7076  0.5604 -0.9227
 1710SOL     OW 6179   3.710   5.179   4.005 -0.2455  0.2275 -0.0866
 1710SOL    HW1 6180   3.726   5.254   3.947 -0.5454 -0.1131 -0.6140
 1710SOL    HW2 6181   3.639   5.131   3.963 -0.6065  0.0841  0.6690
 1711SOL     OW 6182   5.756   4.763   5.868  0.2920  0.7014 -0.1532
 1711SOL    HW1 6183   5.712   4.692   5.821 -0.7975  1.0390  0.3285
 1711SOL    HW2 6184   5.697   4.837   5.861 -0.7456  0.3373  3.1031
 1712SOL     OW 6185   5.603   2.544   7.327 -0.1262  0.4039 -0.8933
 1712SOL    HW1 6186   5.640   2.471   7.377 -1.3754  0.6546  0.4505
 1712SOL    HW2 6187   5.563   2.503   7.250 -0.1714 -0.2511 -0.5235
 1713SOL     OW 6188   4.638   2.326   8.064  0.0205  0.0940 -0.1052
 1713SOL    HW1 6189   4.649   2.243   8.018  0.5971 -0.5710  1.1732
 1713SOL    HW2 6190   4.545   2.346   8.056 -0.2987 -1.1500  0.3228
 1714SOL     OW 6191   6.085   4.690   4.650  0.3387  0.2047 -0.4850
 1714SOL    HW1 6192   6.062   4.779   4.623 -0.3533  0.1723 -0.0302
 1714SOL    HW2 6193   6.086   4.694   4.745  1.1773 -0.0719 -0.4717
 1715SOL     OW 6194   5.456   1.818   5.597  0.0791  0.1796 -0.0262
 1715SOL    HW1 6195   5.540   1.864   5.601  0.7190 -0.9370 -0.1306
 1715SOL    HW2 6196   5.459   1.770   5.514 -0.0929 -0.9027  0.5652
 1716SOL     OW 6197   6.367   1.832   4.609  0.3100 -0.1440  0.0141
 1716SOL    HW1 6198   6.273   1.817   4.621 -0.4111  4.4870  2.6865
 1716SOL    HW2 6199   6.377   1.844   4.515 -1.8730 -0.4035 -0.3215
 1717SOL     OW 6200   3.901   6.235   3.709 -0.1677 -0.1761 -0.3220
 1717SOL    HW1 6201   3.814   6.274   3.722 -0.1540  0.6543 -2.3414
 1717SOL    HW2 6202   3.889   6.143   3.733 -1.4540  0.0412 -0.0308
 1718SOL     OW 6203   1.424   0.277   2.855  0.0047 -0.1587 -0.0724
 1718SOL    HW1 6204   1.424   0.220   2.779 -0.9367  0.0941 -0.2675
 1718SOL    HW2 6205   1.436   0.365   2.819 -0.0976 -0.0754  0.0956
 1719SOL     OW 6206   4.450   6.372   4.002 -0.6556  0.5223  0.0828
 1719SOL    HW1 6207   4.366   6.340   3.971  0.3936  0.0174 -2.4672
 1719SOL    HW2 6208   4.505   6.294   4.009  0.0405  1.0166  0.3009
 1720SOL     OW 6209   1.079   4.369   0.235  0.5113 -0.3202 -0.0549
 1720SOL    HW1 6210   1.107   4.333   0.319  1.5452 -0.7609 -0.5750
 1720SOL    HW2 6211   1.054   4.293   0.183  0.8898 -0.1434 -0.5061
 1721SOL     OW 6212   5.168   6.455   8.236 -0.0890  0.2789  0.0119
 1721SOL    HW1 6213   5.252   6.419   8.264  1.6743  2.3228 -2.1632
 1721SOL    HW2 6214   5.103   6.408   8.287  2.4401 -0.2642  3.0062
 1722SOL     OW 6215   0.787   2.820   6.963  0.0878 -0.3937 -0.5152
 1722SOL    HW1 6216   0.782   2.749   6.900 -2.5214  1.0190 -2.0928
 1722SOL    HW2 6217   0.727   2.795   7.033 -0.7404  0.1693 -1.0124
 1723SOL     OW 6218   0.247   0.659   5.250 -0.1992 -0.2377 -0.0546
 1723SOL    HW1 6219   0.241   0.752   5.274 -0.2727 -0.2256 -0.1193
 1723SOL    HW2 6220   0.314   0.624   5.308  0.2430 -0.0157 -0.4178
 1724SOL     OW 6221   1.333   5.522   1.826  0.5526 -0.6959  0.8557
 1724SOL    HW1 6222   1.301   5.537   1.915 -3.2377  0.7692 -0.5368
 1724SOL    HW2 6223   1.284   5.446   1.795 -1.9558  1.5457 -1.3329
 1725SOL     OW 6224   5.893   6.355   5.989  0.0429 -0.3806 -0.4351
 1725SOL    HW1 6225   5.918   6.390   5.904  0.5074  1.4456  0.3906
 1725SOL    HW2 6226   5.891   6.432   6.047 -1.2246 -1.4154  0.9842
 1726SOL     OW 6227   5.854   7.771   1.183  0.0684 -0.9136 -0.1130
 1726SOL    HW1 6228   5.763   7.784   1.158  0.6015  2.6768 -0.8214
 1726SOL    HW2 6229   5.854   7.778   1.278 -0.2947  0.4592 -0.1936
 1727SOL     OW 6230   4.616   4.351   3.151  0.3603 -0.0790  0.3438
 1727SOL    HW1 6231   4.585   4.350   3.061 -0.0310 -1.0978  0.4765
 1727SOL    HW2 6232   4.687   4.287   3.153 -0.6366 -1.2055  1.0839
 1728SOL     OW 6233   2.804   7.948   7.793 -0.1605 -0.8359 -0.2697
 1728SOL    HW1 6234   2.897   7.969   7.793 -0.1326 -0.6151 -2.7382
 1728SOL    HW2 6235   2.794   7.880   7.859  1.8522 -1.2147 -0.3047
 1729SOL     OW 6236   0.872   5.454   3.158 -0.0400  0.4135 -0.9456
 1729SOL    HW1 6237   0.956   5.499   3.160  0.4488 -0.3932  2.1739
 1729SOL    HW2 6238   0.809   5.517   3.195  0.2606 -0.6150  1.5087
 1730SOL     OW 6239   3.432   2.795   5.065  0.1029 -0.4841  0.4582
 1730SOL    HW1 6240   3.366   2.784   4.997 -0.0357 -1.3334  0.7256
 1730SOL    HW2 6241   3.510   2.752   5.030  0.7013  0.9412 -0.0746
 1731SOL     OW 6242   4.833   0.551   0.378  0.9231  0.2311 -0.0596
 1731SOL    HW1 6243   4.768   0.551   0.308 -0.1086 -1.4787  0.8344
 1731SOL    HW2 6244   4.787   0.591   0.452  1.1897 -0.1451  0.3127
 1732SOL     OW 6245   7.801   4.851   6.429  0.5024 -0.2137 -0.2434
 1732SOL    HW1 6246   7.864   4.784   6.458  0.9552 -0.3667 -1.5303
 1732SOL    HW2 6247   7.856   4.920   6.392 -0.0775 -0.1485 -0.9872
 1733SOL     OW 6248   3.303   1.913   3.714 -0.1034  0.3580 -0.2879
 1733SOL    HW1 6249   3.366   1.862   3.662 -1.2402 -2.7651  1.1626
 1733SOL    HW2 6250   3.219   1.899   3.671 -0.3003  2.1576 -0.5761
 1734SOL     OW 6251   6.787   3.088   7.922 -0.1463  0.3165 -0.5375
 1734SOL    HW1 6252   6.740   3.009   7.948 -0.3757  0.7785  0.4985
 1734SOL    HW2 6253   6.728   3.132   7.861 -0.3559  0.0895 -0.4999
 1735SOL     OW 6254   7.010   6.272   7.788  0.3601 -0.5273  0.5322
 1735SOL    HW1 6255   7.079   6.261   7.854 -1.1927  1.4134  2.6103
 1735SOL    HW2 6256   7.025   6.359   7.752 -0.8693 -0.1840  0.8310
 1736SOL     OW 6257   3.025   0.825   2.161  0.2793  0.7407  0.4807
 1736SOL    HW1 6258   2.961   0.895   2.175  1.1384  1.6670 -0.0462
 1736SOL    HW2 6259   2.979   0.760   2.109  0.2153  2.1616 -1.3455
 1737SOL     OW 6260   1.299   5.415   2.170  0.2355 -0.4174 -0.6223
 1737SOL    HW1 6261   1.364   5.374   2.226 -0.1889 -2.1678 -1.3631
 1737SOL    HW2 6262   1.346   5.486   2.126  1.0652 -0.2790  0.4499
 1738SOL     OW 6263   0.121   3.934   2.485 -0.5719  0.2115  0.1953
 1738SOL    HW1 6264   0.160   3.880   2.554  1.1745  0.5168 -0.5003
 1738SOL    HW2 6265   0.146   4.024   2.508  0.5827  0.2679 -1.1075
 1739SOL     OW 6266   2.419   6.547   4.743  0.1509  0.7073  0.3549
 1739SOL    HW1 6267   2.330   6.514   4.727  0.9307 -0.5426 -1.9329
 1739SOL    HW2 6268   2.471   6.469   4.761  1.0553  1.2649  0.2365
 1740SOL     OW 6269   0.350   5.661   4.121 -0.8341 -0.7105  0.0667
 1740SOL    HW1 6270   0.420   5.724   4.102 -0.0649 -1.2612  0.9963
 1740SOL    HW2 6271   0.293   5.707   4.183 -0.4794 -0.7831  0.4529
 1741SOL     OW 6272   7.673   1.493   1.875 -0.1547 -0.0838 -0.0683
 1741SOL    HW1 6273   7.634   1.580   1.885  0.2195  0.0303  0.4263
 1741SOL    HW2 6274   7.701   1.490   1.783 -0.0232  0.3819 -0.0455
 1742SOL     OW 6275   0.551   2.709   7.156 -0.1164 -0.0503 -0.1228
 1742SOL    HW1 6276   0.602   2.628   7.157 -0.6183 -0.3642  0.4707
 1742SOL    HW2 6277   0.583   2.760   7.230 -2.2588 -1.2833  1.7865
 1743SOL     OW 6278   5.530   5.932   1.034  0.7096  0.4973 -0.1460
 1743SOL    HW1 6279   5.523   6.008   0.977  1.0018  1.1457  0.6596
 1743SOL    HW2 6280   5.623   5.928   1.058  0.5829  0.2663  0.3270
 1744SOL     OW 6281   1.877   4.667   7.610 -0.4778 -0.4024 -0.3311
 1744SOL    HW1 6282   1.824   4.661   7.689 -0.8185 -0.5185 -0.5664
 1744SOL    HW2 6283   1.823   4.718   7.549 -0.5084 -0.9065 -0.7265
 1745SOL     OW 6284   7.806   5.008   6.757  0.5438 -0.0609  0.6432
 1745SOL    HW1 6285   7.881   5.011   6.698 -0.0301  0.9542 -0.0750
 1745SOL    HW2 6286   7.814   4.925   6.804  0.8598 -1.0303 -1.0773
 1746SOL     OW 6287   2.390   1.703   6.369 -0.2008 -0.1336 -0.1890
 1746SOL    HW1 6288   2.357   1.625   6.413  1.8369 -0.4513  0.9006
 1746SOL    HW2 6289   2.455   1.739   6.429 -1.1319  2.5015 -0.6087
 1747SOL     OW 6290   4.279   5.312   5.419  0.0741 -0.1482 -0.0230
 1747SOL    HW1 6291   4.204   5.371   5.420  0.1172 -0.0824 -0.5472
 1747SOL    HW2 6292   4.266   5.256   5.342  2.0571  1.8380 -1.9642
 1748SOL     OW 6293   3.864   0.983   0.757  0.6955  0.4202 -0.0192
 1748SOL    HW1 6294   3.801   0.911   0.762 -0.4632  1.4356  0.2230
 1748SOL    HW2 6295   3.828   1.042   0.691  0.2014  2.1173  1.6839
 1749SOL     OW 6296   4.937   6.567   2.494 -0.0173  0.3409 -0.0051
 1749SOL    HW1 6297   4.902   6.557   2.582 -2.8051 -1.7852 -1.2082
 1749SOL    HW2 6298   5.019   6.517   2.494 -0.9818 -1.2968  0.8881
 1750SOL     OW 6299   4.290   4.358   1.870  0.0958 -0.0975  0.8411
 1750SOL    HW1 6300   4.280   4.312   1.954  0.5794  0.4751  1.2141
 1750SOL    HW2 6301   4.306   4.449   1.894  2.0377 -0.2163  0.1993
 1751SOL     OW 6302   1.234   5.610   5.276 -0.4044  0.2508 -0.0458
 1751SOL    HW1 6303   1.247   5.537   5.215  0.2332  0.2521  0.0833
 1751SOL    HW2 6304   1.322   5.640   5.296 -0.6329  0.5314  0.5455
 1752SOL     OW 6305   6.970   5.427   4.566 -0.0696  0.4959  0.1010
 1752SOL    HW1 6306   6.990   5.518   4.588  0.2009  0.0918  1.6149
 1752SOL    HW2 6307   7.019   5.375   4.629 -0.0962 -0.7240 -0.8406
 1753SOL     OW 6308   5.428   1.696   4.492  0.5787 -0.4495  0.2624
 1753SOL    HW1 6309   5.425   1.606   4.460 -2.2505 -0.9627  1.5897
 1753SOL    HW2 6310   5.363   1.743   4.438 -0.4848 -0.0981  1.7801
 1754SOL     OW 6311   4.003   1.269   6.717  0.3886  0.3534 -0.3086
 1754SOL    HW1 6312   3.958   1.234   6.640  0.2424  2.7304 -1.3736
 1754SOL    HW2 6313   3.958   1.350   6.738  0.5020 -0.1555  2.2724
 1755SOL     OW 6314   1.779   6.474   6.736 -0.2906 -0.4689 -0.7666
 1755SOL    HW1 6315   1.754   6.547   6.792 -1.9101 -1.8221  0.3820
 1755SOL    HW2 6316   1.873   6.462   6.753 -0.1713  0.8219 -0.3932
 1756SOL     OW 6317   8.264   4.081   7.145  0.0190  0.2541  0.4694
 1756SOL    HW1 6318   8.202   4.140   7.101  0.0012 -0.6708 -0.7867
 1756SOL    HW2 6319   8.210   4.009   7.176  0.2266  0.2665  0.8567
 1757SOL     OW 6320   3.443   8.061   1.414 -0.1686  0.1215 -0.8687
 1757SOL    HW1 6321   3.511   8.077   1.480  1.3805 -0.5176 -2.2608
 1757SOL    HW2 6322   3.361   8.072   1.462  0.8960  1.0117  0.8452
 1758SOL     OW 6323   3.159   2.277   4.077 -0.3010 -0.4422 -0.7754
 1758SOL    HW1 6324   3.133   2.219   4.006 -1.4445 -1.6166  0.5601
 1758SOL    HW2 6325   3.209   2.222   4.137  2.2102  0.9290 -1.4272
 1759SOL     OW 6326   1.942   0.021   7.517 -0.2183  0.0565  0.2581
 1759SOL    HW1 6327   2.028   0.008   7.559  0.4608 -1.9649 -1.5736
 1759SOL    HW2 6328   1.919   0.112   7.537  1.4932  0.1281  2.2949
 1760SOL     OW 6329   6.316   7.752   5.431 -0.0801  0.0429  0.4176
 1760SOL    HW1 6330   6.237   7.698   5.428 -0.5510  0.6727  1.1625
 1760SOL    HW2 6331   6.284   7.842   5.435  0.6899  0.4978 -1.9837
 1761SOL     OW 6332   6.129   1.792   1.352 -0.1382 -0.0490 -0.6268
 1761SOL    HW1 6333   6.120   1.729   1.280 -0.4526 -0.4743 -0.2185
 1761SOL    HW2 6334   6.221   1.788   1.377 -0.2986 -0.8575 -0.1456
 1762SOL     OW 6335   2.900   0.029   7.472 -0.1768  0.3444 -0.2383
 1762SOL    HW1 6336   2.976  -0.023   7.445  0.0555 -0.0910  1.1284
 1762SOL    HW2 6337   2.827  -0.033   7.470 -0.3516  0.5652 -0.8106
 1763SOL     OW 6338   4.724   6.460   3.794 -0.0394  0.0128 -0.0429
 1763SOL    HW1 6339   4.676   6.539   3.816 -0.9329 -0.3821 -0.4810
 1763SOL    HW2 6340   4.655   6.394   3.781  0.7082 -0.9496  0.7781
 1764SOL     OW 6341   4.090   2.586   2.308  0.3303  0.0923  0.1156
 1764SOL    HW1 6342   4.136   2.671   2.308  0.6206 -0.0552  0.8990
 1764SOL    HW2 6343   4.092   2.558   2.400 -0.0327 -0.6227 -0.0895
 1765SOL     OW 6344   0.335   4.729   3.126  0.5811 -0.2645 -0.0916
 1765SOL    HW1 6345   0.372   4.675   3.196  1.8284  0.1830 -0.3853
 1765SOL    HW2 6346   0.273   4.787   3.170  1.0812 -0.2395  0.5880
 1766SOL     OW 6347   3.889   6.533   3.322 -0.5103  0.4146  0.2774
 1766SOL    HW1 6348   3.957   6.511   3.258  0.5039 -0.1779  1.5221
 1766SOL    HW2 6349   3.835   6.600   3.278 -0.4613 -0.6951 -1.5596
 1767SOL     OW 6350   6.984   4.304   4.129  0.5542  0.4521 -0.2042
 1767SOL    HW1 6351   6.895   4.340   4.132  0.1355 -0.5120 -0.6941
 1767SOL    HW2 6352   7.039   4.380   4.110 -0.1910  1.0262 -0.1187
 1768SOL     OW 6353   5.249   0.066   4.609  0.4757 -0.3354  0.2729
 1768SOL    HW1 6354   5.313   0.076   4.679  1.6718  0.0317 -0.8340
 1768SOL    HW2 6355   5.301   0.063   4.529 -0.8892 -0.1368 -0.6619
 1769SOL     OW 6356   7.044   6.707   5.426  0.2891  0.4156  0.0732
 1769SOL    HW1 6357   6.950   6.724   5.418 -0.0535 -0.8289  1.0696
 1769SOL    HW2 6358   7.066   6.657   5.347 -0.1194 -0.1784  0.3281
 1770SOL     OW 6359   4.766   4.096   0.577 -0.4500  0.5621 -0.5119
 1770SOL    HW1 6360   4.687   4.144   0.554  0.1410  0.9840 -1.7655
 1770SOL    HW2 6361   4.772   4.104   0.672 -1.8698  0.5697 -0.3967
 1771SOL     OW 6362   4.592   3.069   4.999 -0.4085  0.2708  0.1246
 1771SOL    HW1 6363   4.617   2.978   4.981 -0.0355  0.5854 -1.0729
 1771SOL    HW2 6364   4.655   3.121   4.949 -0.9075  1.1771  0.4241
 1772SOL     OW 6365   2.180   1.389   4.304 -0.6393 -0.0671  0.5255
 1772SOL    HW1 6366   2.111   1.406   4.369  0.5660  1.0354  1.5811
 1772SOL    HW2 6367   2.190   1.472   4.257 -0.2125 -0.2848  0.2223
 1773SOL     OW 6368   3.822   1.063   1.455 -0.0001 -0.1719 -0.3314
 1773SOL    HW1 6369   3.891   1.041   1.518  0.0818  1.9243  0.4103
 1773SOL    HW2 6370   3.776   0.980   1.439  2.0984 -1.4302 -0.1474
 1774SOL     OW 6371   2.267   3.067   6.066 -0.0980 -0.2588  0.2111
 1774SOL    HW1 6372   2.270   3.131   5.995 -1.8770  1.9634  1.9692
 1774SOL    HW2 6373   2.345   3.013   6.054  0.2855  0.7824 -2.6832
 1775SOL     OW 6374   4.880   1.803   6.677 -0.1054 -0.0330 -0.3544
 1775SOL    HW1 6375   4.967   1.845   6.681 -0.1274 -0.0376  0.2921
 1775SOL    HW2 6376   4.850   1.802   6.768 -1.2205  0.8738 -0.6911
 1776SOL     OW 6377   8.269   5.730   5.708  0.2383 -0.3065 -0.3616
 1776SOL    HW1 6378   8.304   5.669   5.642  1.8298  0.1096  0.0474
 1776SOL    HW2 6379   8.232   5.673   5.775 -0.7255 -0.7538 -1.2361
 1777SOL     OW 6380   0.017   1.916   1.090 -0.3067 -0.2361  0.2264
 1777SOL    HW1 6381   0.027   1.842   1.149  1.3133 -1.3999 -1.3963
 1777SOL    HW2 6382  -0.054   1.967   1.127 -0.4765 -1.8124  2.2129
 1778SOL     OW 6383   6.547   3.226   5.443 -0.0025 -0.4620 -0.4819
 1778SOL    HW1 6384   6.486   3.189   5.507 -0.0667  0.3342 -0.0717
 1778SOL    HW2 6385   6.630   3.182   5.463  0.0441 -0.0321  0.3340
 1779SOL     OW 6386   7.646   8.009   7.624 -0.4163 -0.3322  0.7402
 1779SOL    HW1 6387   7.677   7.919   7.619  0.8133  0.1664 -1.2924
 1779SOL    HW2 6388   7.609   8.016   7.713 -0.7584 -2.8653  0.8742
 1780SOL     OW 6389   6.350   4.369   2.697  0.2885  0.5987 -0.1564
 1780SOL    HW1 6390   6.443   4.376   2.677  0.2008  1.6297 -0.2504
 1780SOL    HW2 6391   6.332   4.444   2.752 -0.3555  0.0372  0.4124
 1781SOL     OW 6392   1.198   0.443   1.418 -0.5318 -0.0709  0.1761
 1781SOL    HW1 6393   1.123   0.427   1.476 -1.5666  3.1285 -0.0752
 1781SOL    HW2 6394   1.274   0.439   1.476 -1.1539 -0.7018  0.9739
 1782SOL     OW 6395   1.648   1.880   1.882 -0.5248  0.4310 -0.8301
 1782SOL    HW1 6396   1.595   1.853   1.958  0.4291 -0.2228 -0.3752
 1782SOL    HW2 6397   1.705   1.805   1.866 -0.0090  0.9753 -1.5602
 1783SOL     OW 6398   2.368   4.017   6.612  0.0083  0.4289 -0.2577
 1783SOL    HW1 6399   2.386   3.984   6.700 -3.3537  1.5384  1.0127
 1783SOL    HW2 6400   2.435   4.084   6.597 -0.0674  1.0815  2.0111
 1784SOL     OW 6401   3.822   1.588   1.046 -0.0641  1.0220  0.0280
 1784SOL    HW1 6402   3.889   1.648   1.081  2.0914  0.3040 -2.5295
 1784SOL    HW2 6403   3.870   1.529   0.989 -2.4525 -1.8068  0.7051
 1785SOL     OW 6404   6.521   5.030   2.678  0.3446  0.6962  0.1141
 1785SOL    HW1 6405   6.612   5.052   2.698  1.0499 -0.3045 -1.7720
 1785SOL    HW2 6406   6.520   4.935   2.670 -0.5480  0.7774 -1.1731
 1786SOL     OW 6407   7.608   2.762   1.137  0.1422  0.0473 -0.3501
 1786SOL    HW1 6408   7.696   2.769   1.172 -0.3255  0.3668  0.8231
 1786SOL    HW2 6409   7.553   2.749   1.214 -0.8078 -0.4160 -1.0828
 1787SOL     OW 6410   4.213   4.734   5.294  0.4831 -0.1878 -0.0982
 1787SOL    HW1 6411   4.155   4.792   5.344 -1.3780  0.8768 -3.2224
 1787SOL    HW2 6412   4.164   4.652   5.287 -0.0196  0.2120 -1.4786
 1788SOL     OW 6413   0.952   1.969   8.276  0.0845 -0.4969 -0.1657
 1788SOL    HW1 6414   0.951   2.064   8.269  1.4952 -0.2945  1.6614
 1788SOL    HW2 6415   0.875   1.948   8.331  0.8122 -0.2045  1.0053
 1789SOL     OW 6416   4.629   3.163   1.475 -0.4586 -0.9589 -0.2040
 1789SOL    HW1 6417   4.673   3.131   1.553  1.3520  0.6624 -0.4735
 1789SOL    HW2 6418   4.687   3.231   1.441 -1.4550 -1.2290 -2.6569
 1790SOL     OW 6419   3.314   1.973   2.403 -0.5835  0.0062 -0.1308
 1790SOL    HW1 6420   3.306   1.923   2.322  0.0116  0.6289 -0.5915
 1790SOL    HW2 6421   3.247   2.042   2.395 -1.1618 -0.4962  0.3404
 1791SOL     OW 6422   3.419   3.221   5.066  0.0684 -0.5311 -0.0326
 1791SOL    HW1 6423   3.510   3.194   5.062 -0.0504 -1.2133  1.3737
 1791SOL    HW2 6424   3.383   3.174   5.141 -1.0460  0.9012  0.3692
 1792SOL     OW 6425   7.417   7.595   0.092 -1.1858 -0.4824  0.4002
 1792SOL    HW1 6426   7.484   7.574   0.157 -0.6736 -2.2113 -0.6283
 1792SOL    HW2 6427   7.334   7.595   0.140 -0.8368 -1.9443  1.0306
 1793SOL     OW 6428   6.352   1.502   0.917 -0.3349 -0.5189  0.6220
 1793SOL    HW1 6429   6.389   1.458   0.841 -2.2747  1.6773 -1.7694
 1793SOL    HW2 6430   6.391   1.589   0.916 -1.8078  0.1691  0.9742
 1794SOL     OW 6431   2.413   1.126   6.215 -0.2652 -0.8223  0.1931
 1794SOL    HW1 6432   2.368   1.136   6.132 -0.0380  1.2327  0.2737
 1794SOL    HW2 6433   2.442   1.035   6.216  0.0010 -0.8067 -2.1096
 1795SOL     OW 6434   2.650   2.330   4.321 -0.1318  0.8873  0.1694
 1795SOL    HW1 6435   2.606   2.398   4.270  0.2978  1.1275  0.1098
 1795SOL    HW2 6436   2.645   2.361   4.411 -1.9180 -0.0970  0.4527
 1796SOL     OW 6437   1.260   6.638   2.727  0.2687 -0.2551  0.1501
 1796SOL    HW1 6438   1.342   6.677   2.694 -0.0842 -0.1490 -0.6131
 1796SOL    HW2 6439   1.230   6.581   2.657 -0.7220  0.2965  0.1119
 1797SOL     OW 6440   4.376   1.572   1.657  0.0548 -0.3468  0.0607
 1797SOL    HW1 6441   4.320   1.650   1.666 -0.9127 -1.1092  0.8682
 1797SOL    HW2 6442   4.328   1.515   1.598  0.4188 -0.6321  0.0403
 1798SOL     OW 6443   4.294   3.436   3.603  0.0016  0.1918 -0.0823
 1798SOL    HW1 6444   4.226   3.389   3.554  0.1341  1.1442 -1.2261
 1798SOL    HW2 6445   4.246   3.503   3.652  0.1282  1.3575 -1.4707
 1799SOL     OW 6446   1.284   4.642   5.303 -0.1333  0.1712 -0.1929
 1799SOL    HW1 6447   1.188   4.640   5.310  0.0100 -1.2066  3.1441
 1799SOL    HW2 6448   1.306   4.559   5.261 -0.3507  0.0984 -0.1655
 1800SOL     OW 6449   0.703   5.452   5.719 -0.1240 -0.0782  0.7811
 1800SOL    HW1 6450   0.627   5.479   5.770  0.3758 -0.8343  1.9607
 1800SOL    HW2 6451   0.723   5.528   5.664 -0.4972  0.8879  1.9396
 1801SOL     OW 6452   6.598   3.513   4.760 -0.4284 -0.6709  0.1902
 1801SOL    HW1 6453   6.554   3.580   4.708 -0.4161 -0.8422 -0.0411
 1801SOL    HW2 6454   6.531   3.448   4.779 -0.4927 -0.4952  0.5919
 1802SOL     OW 6455   4.565   1.672   6.441  0.1852 -0.2965  0.3875
 1802SOL    HW1 6456   4.631   1.741   6.437 -0.8544  0.7082  0.0295
 1802SOL    HW2 6457   4.502   1.695   6.373  1.7861 -3.7528 -2.6167
 1803SOL     OW 6458   3.338   0.642   3.152 -0.0875  0.4184 -0.2048
 1803SOL    HW1 6459   3.408   0.590   3.111 -0.6437 -0.5624  0.0365
 1803SOL    HW2 6460   3.355   0.633   3.246 -0.4091  0.3554 -0.1520
 1804SOL     OW 6461   5.740   0.590   7.312  0.1077  0.1511  0.3581
 1804SOL    HW1 6462   5.776   0.524   7.254 -0.8756  1.1175 -1.4319
 1804SOL    HW2 6463   5.764   0.674   7.271  2.1325  1.0261  3.0310
 1805SOL     OW 6464   6.397   0.198   1.194 -0.0318 -0.0174  0.1175
 1805SOL    HW1 6465   6.324   0.248   1.230 -2.0835 -2.8486  0.1648
 1805SOL    HW2 6466   6.475   0.247   1.222 -1.8223  3.4271 -0.4087
 1806SOL     OW 6467   0.300   6.798   3.412 -0.2349  0.5738  0.1940
 1806SOL    HW1 6468   0.367   6.847   3.364  0.4713  1.4366  1.9753
 1806SOL    HW2 6469   0.220   6.809   3.359  0.3878  1.9281 -0.5132
 1807SOL     OW 6470   6.936   4.956   6.452 -0.0839 -0.1872 -0.2740
 1807SOL    HW1 6471   6.967   4.884   6.508 -0.5641 -0.9083 -0.9195
 1807SOL    HW2 6472   6.869   5.000   6.505 -1.1962 -1.4255 -0.5890
 1808SOL     OW 6473   2.182   4.821   5.555  0.8430  0.2167  0.1137
 1808SOL    HW1 6474   2.224   4.820   5.468  1.1512 -0.8469  0.2665
 1808SOL    HW2 6475   2.092   4.794   5.539  1.1588 -0.9748  0.2347
 1809SOL     OW 6476   0.363   8.226   3.718 -0.0694  0.1287  0.3169
 1809SOL    HW1 6477   0.406   8.145   3.747 -2.8861 -1.4975  0.2727
 1809SOL    HW2 6478   0.353   8.216   3.624  1.0022  1.3400  0.0373
 1810SOL     OW 6479   4.144   0.879   6.547 -0.2012  0.0598  0.1380
 1810SOL    HW1 6480   4.156   0.973   6.557 -2.1133  0.3864 -0.3603
 1810SOL    HW2 6481   4.189   0.858   6.465 -1.1212  0.8463 -0.5917
 1811SOL     OW 6482   4.477   6.906   6.335  0.3930 -0.1085 -0.4263
 1811SOL    HW1 6483   4.381   6.912   6.328  0.5142  0.0719 -2.7274
 1811SOL    HW2 6484   4.494   6.812   6.342  0.0504 -0.1750 -0.4542
 1812SOL     OW 6485   0.476   1.699   7.758  0.2667  0.1276  0.0313
 1812SOL    HW1 6486   0.491   1.637   7.688 -0.7443 -1.0742  0.8475
 1812SOL    HW2 6487   0.403   1.662   7.808 -0.3118  1.9224  0.5922
 1813SOL     OW 6488   4.352   7.703   0.837 -0.2552  0.6011  0.7126
 1813SOL    HW1 6489   4.370   7.746   0.754  1.0347  0.3728  0.8467
 1813SOL    HW2 6490   4.423   7.639   0.846 -0.6424  0.3010  1.7671
 1814SOL     OW 6491   5.216   7.592   6.484 -0.0758 -0.1734 -0.2553
 1814SOL    HW1 6492   5.212   7.627   6.395 -0.8495  0.1171 -0.1190
 1814SOL    HW2 6493   5.216   7.497   6.473  0.4717 -0.1372 -0.5840
 1815SOL     OW 6494   6.331   7.929   7.849  0.8212  0.5129 -0.0887
 1815SOL    HW1 6495   6.401   7.994   7.847  0.3361  1.0847  0.7549
 1815SOL    HW2 6496   6.330   7.891   7.761  2.1522  0.5163 -0.1262
 1816SOL     OW 6497   8.105   1.556   3.535  0.2102 -0.3711 -0.3436
 1816SOL    HW1 6498   8.054   1.629   3.571 -0.0788  0.1235 -1.6939
 1816SOL    HW2 6499   8.042   1.484   3.528  0.4907 -0.7854  0.9716
 1817SOL     OW 6500   4.651   4.651   3.142  0.7719 -0.5213  0.4333
 1817SOL    HW1 6501   4.615   4.642   3.230 -1.1986 -2.2889 -0.4660
 1817SOL    HW2 6502   4.651   4.561   3.107  2.0875  0.0403 -1.1637
 1818SOL     OW 6503   3.701   8.234   2.865  0.0329 -0.1769  0.4343
 1818SOL    HW1 6504   3.754   8.186   2.928 -0.0535  0.2032  0.7979
 1818SOL    HW2 6505   3.621   8.181   2.856 -0.9962  0.9273  2.4244
 1819SOL     OW 6506   4.588   6.208   2.011  0.1390 -0.6031  0.4100
 1819SOL    HW1 6507   4.600   6.287   2.065 -1.9326 -0.2186  0.3822
 1819SOL    HW2 6508   4.516   6.161   2.053 -0.3827 -1.1694 -1.0551
 1820SOL     OW 6509   7.544   6.141   3.083  0.4133  0.6978 -0.6414
 1820SOL    HW1 6510   7.495   6.101   3.155  0.6865  1.1056 -0.2197
 1820SOL    HW2 6511   7.476   6.171   3.022  0.2285 -0.9181 -1.2561
 1821SOL     OW 6512   6.541   7.532   7.698 -0.1231  0.2431 -0.2649
 1821SOL    HW1 6513   6.505   7.485   7.773 -0.8020  0.9480 -0.1430
 1821SOL    HW2 6514   6.467   7.545   7.640  0.6307 -1.3687 -1.6489
 1822SOL     OW 6515   5.067   7.863   2.930  0.4217 -0.1870  0.0236
 1822SOL    HW1 6516   5.088   7.850   3.023 -0.7262  0.4881  0.3956
 1822SOL    HW2 6517   5.037   7.777   2.901  0.9293 -0.4417  0.2248
 1823SOL     OW 6518   7.346   6.764   1.638  0.0934  0.1646  0.0560
 1823SOL    HW1 6519   7.426   6.810   1.662 -1.2501  1.1285  3.1631
 1823SOL    HW2 6520   7.340   6.690   1.698 -0.5233 -0.9505 -1.3017
 1824SOL     OW 6521   8.186   0.125   3.536 -0.0009 -0.3624  0.0977
 1824SOL    HW1 6522   8.156   0.192   3.475  0.4615  0.2292  0.5134
 1824SOL    HW2 6523   8.147   0.044   3.503 -1.3292  0.2407  0.1091
 1825SOL     OW 6524   8.029   4.071   7.710 -0.3856 -0.1012 -0.0376
 1825SOL    HW1 6525   8.029   4.164   7.688 -0.9182  0.4427  2.0535
 1825SOL    HW2 6526   8.098   4.033   7.654  0.4417  1.6898 -0.3036
 1826SOL     OW 6527   7.645   5.088   7.191 -1.0457  0.3963 -0.1556
 1826SOL    HW1 6528   7.635   5.165   7.135 -0.9583  0.5348  0.0182
 1826SOL    HW2 6529   7.732   5.098   7.229 -1.1144  0.3143  0.0205
 1827SOL     OW 6530   1.136   6.495   2.514  0.3331  0.1561 -0.0085
 1827SOL    HW1 6531   1.183   6.412   2.517  2.4995  1.2576 -1.2991
 1827SOL    HW2 6532   1.060   6.478   2.458  0.4079 -1.0782  0.2466
 1828SOL     OW 6533   6.217   6.621   2.804 -0.1514  0.4723  0.1006
 1828SOL    HW1 6534   6.208   6.573   2.722  0.2296 -0.1662  0.4284
 1828SOL    HW2 6535   6.309   6.609   2.830 -0.0060  1.4772  0.1307
 1829SOL     OW 6536   6.347   2.313   2.731  0.2428  0.0124 -1.0063
 1829SOL    HW1 6537   6.330   2.291   2.823  2.9765 -0.5892 -0.5537
 1829SOL    HW2 6538   6.275   2.271   2.683 -0.7637 -0.4137  0.7777
 1830SOL     OW 6539   4.063   4.871   4.740  0.4128 -0.1410  0.7982
 1830SOL    HW1 6540   4.147   4.828   4.727 -0.1069 -0.6348 -1.2882
 1830SOL    HW2 6541   4.054   4.930   4.665 -1.6087 -0.9948  0.2831
 1831SOL     OW 6542   7.720   2.484   0.766 -0.3259 -0.1168 -0.1849
 1831SOL    HW1 6543   7.744   2.549   0.700 -2.3990 -0.0094 -0.9261
 1831SOL    HW2 6544   7.631   2.508   0.792 -0.4114 -1.5222  0.9707
 1832SOL     OW 6545   5.141   5.257   5.669  0.4095 -0.0240  0.0089
 1832SOL    HW1 6546   5.145   5.235   5.576  0.1290 -2.0842  0.4381
 1832SOL    HW2 6547   5.157   5.174   5.714  0.8108  0.9845  1.8097
 1833SOL     OW 6548   5.054   1.454   3.820 -0.7088 -0.3619  0.2932
 1833SOL    HW1 6549   5.037   1.364   3.848  2.2686 -2.1997 -2.9450
 1833SOL    HW2 6550   5.012   1.460   3.734  0.2224  0.9029 -0.0938
 1834SOL     OW 6551   3.280   1.920   2.844  0.0209  0.3441  0.0165
 1834SOL    HW1 6552   3.355   1.862   2.858 -1.6759 -1.6295  1.5515
 1834SOL    HW2 6553   3.227   1.875   2.778 -0.8485  0.6187  0.5150
 1835SOL     OW 6554   3.350   3.207   1.707 -0.6111 -0.2486  0.3163
 1835SOL    HW1 6555   3.323   3.159   1.628  0.7355 -2.1085  0.8905
 1835SOL    HW2 6556   3.420   3.265   1.676 -0.2050 -0.8470  0.0862
 1836SOL     OW 6557   1.981   6.637   1.106 -0.0812 -0.0153 -0.6512
 1836SOL    HW1 6558   2.034   6.561   1.082 -0.3817 -0.4240 -0.0818
 1836SOL    HW2 6559   1.914   6.643   1.037  0.9090  0.7328 -1.5698
 1837SOL     OW 6560   4.790   6.930   3.911  0.2881 -0.3211 -0.5321
 1837SOL    HW1 6561   4.765   6.860   3.850 -1.3354  0.2581 -0.5969
 1837SOL    HW2 6562   4.782   6.891   3.998 -2.1185  0.1275 -0.4787
 1838SOL     OW 6563   6.583   7.100   2.811  0.1433 -0.5813  0.7610
 1838SOL    HW1 6564   6.631   7.074   2.890  0.5387 -0.8828  0.4278
 1838SOL    HW2 6565   6.543   7.019   2.779  0.2665 -0.5281  0.4663
 1839SOL     OW 6566   6.085   7.439   3.394 -0.3581 -0.3826 -0.2200
 1839SOL    HW1 6567   6.020   7.375   3.422 -0.3285 -0.2699  0.1006
 1839SOL    HW2 6568   6.166   7.414   3.439 -0.2291 -0.3966 -0.4551
 1840SOL     OW 6569   4.918   8.197   6.389  0.0293  0.0495 -0.0840
 1840SOL    HW1 6570   4.917   8.272   6.448 -1.7604  0.2014 -0.2365
 1840SOL    HW2 6571   4.934   8.235   6.303  0.3095  0.1195  0.0006
 1841SOL     OW 6572   7.841   1.106   0.696 -0.5157  0.1875 -0.2063
 1841SOL    HW1 6573   7.763   1.161   0.686 -0.2328  0.8630  1.1986
 1841SOL    HW2 6574   7.805   1.018   0.711 -1.0513  0.6114  1.1579
 1842SOL     OW 6575   6.623   2.435   6.820  0.0301 -0.5733  0.3739
 1842SOL    HW1 6576   6.617   2.522   6.858  1.2348 -0.8563  1.3078
 1842SOL    HW2 6577   6.716   2.425   6.799 -0.5104 -0.6281 -2.2746
 1843SOL     OW 6578   8.223   6.383   4.468 -0.5078  0.5593  0.4127
 1843SOL    HW1 6579   8.216   6.466   4.516  0.4530  0.5290  0.6225
 1843SOL    HW2 6580   8.235   6.317   4.536 -0.9107  0.2879  0.2238
 1844SOL     OW 6581   5.608   0.523   3.668  0.2290 -0.4901  0.6090
 1844SOL    HW1 6582   5.533   0.480   3.628  1.9149 -1.6255 -1.5487
 1844SOL    HW2 6583   5.650   0.570   3.596  1.6093  0.0852  1.7429
 1845SOL     OW 6584   5.584   7.856   5.424 -0.2546 -0.0442 -0.1512
 1845SOL    HW1 6585   5.582   7.948   5.396  3.0062 -0.2053 -1.3419
 1845SOL    HW2 6586   5.650   7.854   5.493  0.3548 -1.6102 -0.7492
 1846SOL     OW 6587   2.180   2.716   6.609 -0.0990 -0.1571  0.3003
 1846SOL    HW1 6588   2.200   2.686   6.520 -0.1764 -0.6183  0.4355
 1846SOL    HW2 6589   2.128   2.645   6.647 -1.6546  0.8204  0.0846
 1847SOL     OW 6590   5.933   5.884   3.147 -0.0371 -0.0219  0.3763
 1847SOL    HW1 6591   5.963   5.906   3.059 -1.5965  0.8131  0.0099
 1847SOL    HW2 6592   5.992   5.930   3.205  0.8084 -0.3136 -0.2316
 1848SOL     OW 6593   4.065   7.990   8.137  0.1622 -0.0456 -0.6964
 1848SOL    HW1 6594   4.119   8.044   8.194 -0.2471  0.8584 -1.1504
 1848SOL    HW2 6595   4.083   8.022   8.048 -1.1912  0.3635 -0.8471
 1849SOL     OW 6596   4.673   1.789   1.158 -0.7158 -0.1824  0.8218
 1849SOL    HW1 6597   4.627   1.757   1.081  0.1399 -0.3369  0.3626
 1849SOL    HW2 6598   4.649   1.882   1.164  1.2916  0.5821 -1.2615
 1850SOL     OW 6599   0.836   4.789   7.339  0.1108  0.3841  0.1111
 1850SOL    HW1 6600   0.820   4.883   7.353  0.9467  0.5311  0.1312
 1850SOL    HW2 6601   0.907   4.768   7.400 -0.4526 -0.3964  0.5098
 1851SOL     OW 6602   1.900   0.633   5.732 -0.0946  0.0081 -0.1994
 1851SOL    HW1 6603   1.922   0.663   5.820 -1.0588  1.6807 -0.4897
 1851SOL    HW2 6604   1.971   0.574   5.708 -0.1400 -1.0080  1.9444
 1852SOL     OW 6605   6.410   0.792   0.110 -0.1639  0.6594 -0.5343
 1852SOL    HW1 6606   6.426   0.699   0.096 -0.5511  0.6918 -1.2479
 1852SOL    HW2 6607   6.370   0.822   0.029 -0.8101  1.2718 -0.0051
 1853SOL     OW 6608   7.731   6.839   4.497 -0.1509  0.2397  0.6325
 1853SOL    HW1 6609   7.711   6.840   4.403  0.9581  0.3203  0.3826
 1853SOL    HW2 6610   7.657   6.883   4.538 -0.5715  0.3498 -0.2243
 1854SOL     OW 6611   7.904   6.428   1.849  0.2983 -0.0765  0.1567
 1854SOL    HW1 6612   7.831   6.456   1.794  2.1672  1.5132 -1.6837
 1854SOL    HW2 6613   7.932   6.345   1.812  2.8668  1.9247 -2.9365
 1855SOL     OW 6614   7.903   0.634   2.964 -0.1156  0.2470  0.9138
 1855SOL    HW1 6615   7.835   0.655   3.027 -1.2565 -2.8908  0.8761
 1855SOL    HW2 6616   7.967   0.583   3.014  1.7206  2.1755  0.6747
 1856SOL     OW 6617   6.336   0.893   1.293  0.3003  0.2583  0.2143
 1856SOL    HW1 6618   6.280   0.822   1.262  1.4703 -0.7761  0.4008
 1856SOL    HW2 6619   6.374   0.930   1.213  1.0487 -0.4944  0.2086
 1857SOL     OW 6620   1.255   6.522   4.591 -0.0779 -0.2108  0.4509
 1857SOL    HW1 6621   1.331   6.548   4.537 -0.6825  0.0995 -0.2714
 1857SOL    HW2 6622   1.210   6.605   4.609 -0.7492 -0.4915  0.0909
 1858SOL     OW 6623   1.211   1.251   2.037  0.2008 -0.1883 -0.4859
 1858SOL    HW1 6624   1.290   1.209   2.069 -0.2331 -2.1409 -1.8437
 1858SOL    HW2 6625   1.154   1.255   2.114  1.3392  0.6780  0.3546
 1859SOL     OW 6626   4.904   4.000   3.693 -0.8231  0.5540  0.4741
 1859SOL    HW1 6627   4.913   4.075   3.751 -2.2749 -0.3161  1.9255
 1859SOL    HW2 6628   4.811   3.977   3.697 -0.5250 -0.9622 -0.3665
 1860SOL     OW 6629   2.545   3.949   6.841 -0.2724  0.1527 -0.2443
 1860SOL    HW1 6630   2.552   4.041   6.815 -0.1069  0.0780 -0.4694
 1860SOL    HW2 6631   2.541   3.951   6.936  2.0731  0.2549 -0.0964
 1861SOL     OW 6632   3.262   6.101   6.238  0.3814  0.1887  0.7035
 1861SOL    HW1 6633   3.209   6.079   6.161 -0.4846  0.1735  1.2997
 1861SOL    HW2 6634   3.242   6.192   6.256  0.1772  0.0428  1.2260
 1862SOL     OW 6635   6.301   5.474   0.480  0.3874 -0.7677 -0.6782
 1862SOL    HW1 6636   6.314   5.510   0.568  1.4150 -0.3955 -0.9624
 1862SOL    HW2 6637   6.370   5.516   0.428 -1.7218  0.9434 -2.2389
 1863SOL     OW 6638   8.216   7.808   3.666 -0.0844  0.3979 -0.0012
 1863SOL    HW1 6639   8.231   7.713   3.660 -0.5708  0.3856 -1.3584
 1863SOL    HW2 6640   8.294   7.847   3.626  0.6692  0.6383  1.6130
 1864SOL     OW 6641   4.450   2.213   7.450 -0.0033 -0.1528  0.0187
 1864SOL    HW1 6642   4.538   2.246   7.435  0.0818  0.3498  1.4548
 1864SOL    HW2 6643   4.438   2.145   7.384  0.6830  1.1612 -1.5015
 1865SOL     OW 6644   3.834   5.871   4.135  0.3181 -0.8644 -0.2282
 1865SOL    HW1 6645   3.754   5.864   4.084 -0.4404  1.1725  0.5829
 1865SOL    HW2 6646   3.805   5.903   4.221  1.9891  0.1238  0.0134
 1866SOL     OW 6647   6.175   3.352   0.112  0.5057 -0.1759 -0.2165
 1866SOL    HW1 6648   6.246   3.320   0.056 -0.7683  0.6296 -2.4387
 1866SOL    HW2 6649   6.165   3.444   0.088 -0.9845 -0.1605  0.3656
 1867SOL     OW 6650   8.119   7.652   0.686  0.0919 -0.5258 -0.2909
 1867SOL    HW1 6651   8.140   7.719   0.750 -0.2975 -0.1526 -0.5443
 1867SOL    HW2 6652   8.202   7.608   0.667  0.4115  0.1194 -0.3891
 1868SOL     OW 6653   2.978   2.441   4.440  0.2461  0.2007  0.2750
 1868SOL    HW1 6654   3.055   2.408   4.487 -0.5534  0.9564  2.1903
 1868SOL    HW2 6655   2.946   2.364   4.392  2.8560  0.1479 -1.6237
 1869SOL     OW 6656   0.161   3.391   0.394 -0.2007  0.0584 -0.7019
 1869SOL    HW1 6657   0.111   3.449   0.452 -0.1063 -0.3242 -0.2378
 1869SOL    HW2 6658   0.109   3.388   0.314 -2.0555 -1.9764  0.4696
 1870SOL     OW 6659   3.159   4.427   1.519 -0.3627 -0.1974 -0.1271
 1870SOL    HW1 6660   3.111   4.434   1.601  0.8742 -0.1862  0.6175
 1870SOL    HW2 6661   3.168   4.332   1.505 -1.3835 -0.2189 -0.7610
 1871SOL     OW 6662   7.763   1.430   2.419  0.0557 -0.8370 -0.0926
 1871SOL    HW1 6663   7.727   1.487   2.487 -1.9347 -1.8267 -0.2359
 1871SOL    HW2 6664   7.780   1.347   2.463  3.2043 -0.1452  0.1828
 1872SOL     OW 6665   3.592   1.425   1.092 -0.7176  0.0462 -0.1014
 1872SOL    HW1 6666   3.673   1.472   1.108 -0.8099  0.4478 -0.8080
 1872SOL    HW2 6667   3.606   1.339   1.133 -0.8788  0.9606  1.9764
 1873SOL     OW 6668   1.993   6.323   5.125  0.2842 -0.4613  0.3199
 1873SOL    HW1 6669   2.087   6.334   5.110  0.2729  0.7183  0.9599
 1873SOL    HW2 6670   1.952   6.353   5.044  0.4376 -0.2364  0.3237
 1874SOL     OW 6671   3.388   7.321   7.780  0.4398  0.6320  0.1265
 1874SOL    HW1 6672   3.461   7.308   7.840  0.0237 -1.3521  0.2754
 1874SOL    HW2 6673   3.411   7.269   7.703  0.8274  2.8915 -1.4061
 1875SOL     OW 6674   3.879   6.175   4.038  0.3475  0.7240  0.2602
 1875SOL    HW1 6675   3.936   6.104   4.008  1.9978  1.6160  1.1139
 1875SOL    HW2 6676   3.867   6.157   4.132 -1.8364 -0.1122 -0.1241
 1876SOL     OW 6677   3.467   7.513   6.962  0.5794  0.0560 -0.0703
 1876SOL    HW1 6678   3.381   7.470   6.964  0.7888 -0.4550 -1.1512
 1876SOL    HW2 6679   3.466   7.565   6.882  1.3042 -0.0172 -0.1355
 1877SOL     OW 6680   4.221   2.541   2.563  0.1843  0.1580 -0.0290
 1877SOL    HW1 6681   4.166   2.473   2.603  0.2090  0.4565  0.5121
 1877SOL    HW2 6682   4.204   2.619   2.614  0.9829  0.2996  0.0308
 1878SOL     OW 6683   2.693   6.749   6.833  0.4039  0.2202 -0.1862
 1878SOL    HW1 6684   2.622   6.811   6.821  0.4097  0.2054 -0.2950
 1878SOL    HW2 6685   2.772   6.802   6.831  0.3072  0.5491  2.0649
 1879SOL     OW 6686   2.777   7.726   2.119 -0.2871 -0.5583 -0.0055
 1879SOL    HW1 6687   2.771   7.742   2.025  0.8525  0.0827  0.0110
 1879SOL    HW2 6688   2.776   7.630   2.127 -1.4289 -0.6020 -0.5754
 1880SOL     OW 6689   7.873   2.203   2.399 -0.0687  0.1677 -0.4866
 1880SOL    HW1 6690   7.901   2.276   2.454 -0.1046  1.1646 -1.7452
 1880SOL    HW2 6691   7.787   2.178   2.434  1.5371 -1.8824  2.4069
 1881SOL     OW 6692   2.567   5.434   4.754 -0.0108  0.2922  0.1855
 1881SOL    HW1 6693   2.594   5.476   4.673  1.3439 -2.1241 -0.7135
 1881SOL    HW2 6694   2.547   5.344   4.729 -0.6727 -0.2314  2.3604
 1882SOL     OW 6695   3.038   2.822   3.925  0.2545 -0.3854  0.0292
 1882SOL    HW1 6696   3.047   2.774   3.843  1.8445 -1.8382  0.9913
 1882SOL    HW2 6697   3.010   2.756   3.989 -0.9998  0.7256  0.6723
 1883SOL     OW 6698   5.308   7.707   1.767 -0.4395  0.4858  0.0033
 1883SOL    HW1 6699   5.289   7.626   1.814  0.8884  0.3443  0.3455
 1883SOL    HW2 6700   5.222   7.743   1.745 -1.0526 -0.8444  0.1236
 1884SOL     OW 6701   1.770   0.962   7.055 -0.1359 -0.1359  0.4098
 1884SOL    HW1 6702   1.839   0.932   7.114 -0.4329 -0.5373  0.5561
 1884SOL    HW2 6703   1.817   1.002   6.982  0.2993 -1.4518 -0.0694
 1885SOL     OW 6704   6.377   0.193   2.150  0.3907 -0.1969 -0.6955
 1885SOL    HW1 6705   6.327   0.253   2.094  0.5987  0.1884 -0.4768
 1885SOL    HW2 6706   6.314   0.162   2.215  0.7031  1.3250  0.4092
 1886SOL     OW 6707   1.434   1.066   4.162 -0.0895  0.0781 -0.5096
 1886SOL    HW1 6708   1.515   1.074   4.212 -0.5378  1.7734 -0.0099
 1886SOL    HW2 6709   1.459   1.018   4.083  1.0033 -1.0334  0.4759
 1887SOL     OW 6710   4.821   4.459   5.532  0.5924 -0.8847 -0.0303
 1887SOL    HW1 6711   4.751   4.426   5.475 -0.5562 -0.4088  1.0655
 1887SOL    HW2 6712   4.821   4.553   5.519  0.8711 -0.8599  0.1428
 1888SOL     OW 6713   7.027   1.884   5.561 -0.3377  0.8707  0.2263
 1888SOL    HW1 6714   6.943   1.916   5.530 -0.5335  1.0974  0.9804
 1888SOL    HW2 6715   7.046   1.808   5.505 -2.0391 -0.4871  1.3863
 1889SOL     OW 6716   7.697   6.168   2.472  0.3815  0.1643  0.1683
 1889SOL    HW1 6717   7.752   6.227   2.421  0.4722  0.7111  0.8811
 1889SOL    HW2 6718   7.610   6.176   2.433  0.9943 -1.6438 -1.7776
 1890SOL     OW 6719   2.343   6.746   1.856 -0.2878  0.0338 -0.0051
 1890SOL    HW1 6720   2.395   6.757   1.776  1.0935 -4.0506  0.1235
 1890SOL    HW2 6721   2.254   6.731   1.823 -0.5930  2.4095 -0.4569
 1891SOL     OW 6722   4.261   7.944   6.671  0.2452  0.0947 -0.4444
 1891SOL    HW1 6723   4.282   8.006   6.740  0.5639 -1.3628  0.8315
 1891SOL    HW2 6724   4.181   7.978   6.631 -0.4850  0.4909  1.2730
 1892SOL     OW 6725   5.997   2.132   6.998 -0.0212  0.5556  0.1919
 1892SOL    HW1 6726   5.961   2.063   7.054  0.7463  1.0398  1.3215
 1892SOL    HW2 6727   6.080   2.156   7.040  1.3186 -0.0418 -1.9467
 1893SOL     OW 6728   7.656   7.829   1.057  0.3555 -0.0352 -0.4185
 1893SOL    HW1 6729   7.579   7.858   1.008 -0.6712 -0.8044  0.6903
 1893SOL    HW2 6730   7.629   7.832   1.149  0.7639 -2.7129 -0.1268
 1894SOL     OW 6731   1.055   6.083   4.301 -0.1396 -0.1764  0.1606
 1894SOL    HW1 6732   1.001   6.093   4.222  1.4396  1.3323 -0.8151
 1894SOL    HW2 6733   1.020   6.148   4.362 -0.1441  0.0204 -0.0469
 1895SOL     OW 6734   6.312   3.600   1.115  0.5600  0.2369 -0.1380
 1895SOL    HW1 6735   6.373   3.616   1.188 -0.3943 -2.3425  1.3611
 1895SOL    HW2 6736   6.341   3.517   1.078 -1.9201 -1.0374  0.5891
 1896SOL     OW 6737   6.134   2.411   0.830 -0.6114 -0.0768  0.1005
 1896SOL    HW1 6738   6.145   2.316   0.837 -0.2699  0.0401  1.5835
 1896SOL    HW2 6739   6.158   2.432   0.740  1.3551 -1.1555  0.3074
 1897SOL     OW 6740   6.231   2.564   4.339  0.0784  0.2398 -0.5114
 1897SOL    HW1 6741   6.300   2.592   4.399  0.0896  1.7267 -1.1886
 1897SOL    HW2 6742   6.204   2.478   4.372  0.6774  0.6427  1.0968
 1898SOL     OW 6743   2.742   4.446   6.297 -0.1722 -0.1755  0.2711
 1898SOL    HW1 6744   2.812   4.490   6.248 -1.5094  0.8927 -0.7464
 1898SOL    HW2 6745   2.735   4.360   6.257  0.7341 -0.4119  0.5831
 1899SOL     OW 6746   5.579   2.170   2.881 -0.4329  0.1106 -0.1924
 1899SOL    HW1 6747   5.630   2.239   2.839 -0.4111  0.1406 -0.1187
 1899SOL    HW2 6748   5.629   2.090   2.868 -2.8780 -0.9958 -4.9222
 1900SOL     OW 6749   0.364   6.281   2.557  1.1944 -0.5386 -0.3290
 1900SOL    HW1 6750   0.310   6.321   2.625  1.2361 -0.6468 -0.2320
 1900SOL    HW2 6751   0.452   6.318   2.571  0.6240  1.8283 -2.2030
 1901SOL     OW 6752   7.561   3.045   6.763 -0.6005 -0.5845 -0.0616
 1901SOL    HW1 6753   7.530   3.107   6.830  0.0498  0.3300 -0.5824
 1901SOL    HW2 6754   7.550   3.092   6.681 -0.0847 -1.1743 -0.4700
 1902SOL     OW 6755   6.779   6.197   3.512  0.5901 -0.2440 -0.0283
 1902SOL    HW1 6756   6.762   6.141   3.588  0.3233  0.5833  0.5449
 1902SOL    HW2 6757   6.766   6.286   3.545  2.8668  0.2973 -0.4096
 1903SOL     OW 6758   2.862   5.826   7.996  0.3283 -0.6778 -0.5612
 1903SOL    HW1 6759   2.830   5.752   8.047  0.1377 -0.3417 -0.1897
 1903SOL    HW2 6760   2.950   5.843   8.030 -0.2321  0.2796  0.4705
 1904SOL     OW 6761   2.519   7.790   3.957 -1.2200 -0.0434 -0.0271
 1904SOL    HW1 6762   2.468   7.737   4.019 -1.7597  0.0520 -0.3776
 1904SOL    HW2 6763   2.528   7.734   3.879 -0.7702 -0.0645  0.0370
 1905SOL     OW 6764   6.714   3.931   8.056 -0.3585  0.1487 -0.3282
 1905SOL    HW1 6765   6.739   4.016   8.019  0.2951 -0.3236 -0.9971
 1905SOL    HW2 6766   6.621   3.921   8.035 -0.6241  0.9988  0.3675
 1906SOL     OW 6767   1.914   7.159   3.257 -0.2380  0.2653 -0.4267
 1906SOL    HW1 6768   1.867   7.100   3.316 -0.3738  0.5668 -0.2309
 1906SOL    HW2 6769   1.884   7.246   3.282  1.6539  0.5990  0.8205
 1907SOL     OW 6770   7.617   3.964   1.026  0.4151  0.4171 -0.4524
 1907SOL    HW1 6771   7.670   3.930   0.953  0.1700 -0.7280 -0.1305
 1907SOL    HW2 6772   7.531   3.981   0.987  0.1474 -0.6285 -0.3701
 1908SOL     OW 6773   5.030   5.368   4.093 -0.1747  0.1225 -0.3615
 1908SOL    HW1 6774   4.990   5.321   4.020 -1.4023  1.5218 -0.6468
 1908SOL    HW2 6775   5.121   5.338   4.094 -0.6438 -1.4131 -1.1923
 1909SOL     OW 6776   5.093   6.856   3.900  0.0337 -0.1537  0.7950
 1909SOL    HW1 6777   5.037   6.839   3.824  2.2563 -2.2107 -0.5250
 1909SOL    HW2 6778   5.034   6.843   3.975 -1.7516 -0.0586 -0.5097
 1910SOL     OW 6779   5.063   4.174   4.562  0.0168 -0.0800 -0.7203
 1910SOL    HW1 6780   4.992   4.139   4.507 -2.2230  1.4303  1.0462
 1910SOL    HW2 6781   5.108   4.096   4.595 -1.9163 -1.1994 -0.5449
 1911SOL     OW 6782   2.610   2.653   4.422 -0.0923 -0.3311 -0.1864
 1911SOL    HW1 6783   2.660   2.614   4.494 -0.2722 -0.6327 -0.2223
 1911SOL    HW2 6784   2.642   2.743   4.416 -0.7946  0.0290  0.9664
 1912SOL     OW 6785   5.535   0.756   2.613  0.1438  0.1227  0.0736
 1912SOL    HW1 6786   5.567   0.846   2.617  0.6034  0.0327 -1.1364
 1912SOL    HW2 6787   5.441   0.764   2.625  0.0532  0.8819 -0.9125
 1913SOL     OW 6788   5.692   5.638   3.480  0.2036 -0.1854  0.5420
 1913SOL    HW1 6789   5.698   5.609   3.389 -1.0156  0.5333  0.2022
 1913SOL    HW2 6790   5.605   5.609   3.508  0.2592  0.2924  1.2220
 1914SOL     OW 6791   7.485   3.797   7.086  0.4678 -0.1480  0.3793
 1914SOL    HW1 6792   7.578   3.778   7.073  1.0581  2.3116  0.4789
 1914SOL    HW2 6793   7.477   3.891   7.071 -1.7938 -0.0576  1.5932
 1915SOL     OW 6794   2.526   2.119   8.277  0.1624  0.0520  0.3229
 1915SOL    HW1 6795   2.525   2.135   8.182 -1.3982  0.0671  0.3114
 1915SOL    HW2 6796   2.469   2.187   8.313  0.3918 -0.2264  1.2267
 1916SOL     OW 6797   4.948   4.900   1.721 -0.4735  0.0632  0.6181
 1916SOL    HW1 6798   4.983   4.963   1.658  0.8853  0.9784  2.1936
 1916SOL    HW2 6799   4.951   4.816   1.675 -0.8514  0.8921 -0.9943
 1917SOL     OW 6800   5.577   6.881   6.309  0.3786  0.1375 -0.1827
 1917SOL    HW1 6801   5.630   6.959   6.291 -0.0537  0.5884  0.4672
 1917SOL    HW2 6802   5.495   6.915   6.343 -0.1011 -0.5833 -0.6008
 1918SOL     OW 6803   7.426   7.110   5.310 -0.1690  0.7193 -0.4139
 1918SOL    HW1 6804   7.432   7.179   5.375 -0.1168  0.7551 -0.4573
 1918SOL    HW2 6805   7.372   7.147   5.240 -0.7398  0.4677 -0.1178
 1919SOL     OW 6806   2.770   8.185   6.256 -0.3596 -0.1970 -0.4916
 1919SOL    HW1 6807   2.792   8.111   6.312 -1.1742 -0.0242  0.0716
 1919SOL    HW2 6808   2.790   8.262   6.309 -1.8764 -0.0341 -0.1156
 1920SOL     OW 6809   4.745   3.942   2.874 -0.0430  0.2509  0.2099
 1920SOL    HW1 6810   4.670   3.885   2.859  0.6362 -1.0601  1.5893
 1920SOL    HW2 6811   4.818   3.883   2.888  0.2693  1.3206  3.9869
 1921SOL     OW 6812   3.199   3.569   7.173 -0.3446  0.0544  0.1057
 1921SOL    HW1 6813   3.198   3.474   7.190 -2.2650  0.2981  1.9138
 1921SOL    HW2 6814   3.222   3.608   7.257 -1.7105  1.2186 -0.0173
 1922SOL     OW 6815   5.667   0.148   3.981 -0.0946 -0.3286 -0.1464
 1922SOL    HW1 6816   5.626   0.214   4.036  0.7486 -0.2487  0.4019
 1922SOL    HW2 6817   5.749   0.189   3.951  0.1399 -0.8956 -0.2920
 1923SOL     OW 6818   2.480   4.923   4.845 -0.0326 -0.4474  0.2295
 1923SOL    HW1 6819   2.414   4.979   4.884 -1.0291 -1.8145  0.5964
 1923SOL    HW2 6820   2.564   4.959   4.875 -0.4540  2.2492 -1.5007
 1924SOL     OW 6821   2.130   1.529   1.242  0.3930 -0.3442 -0.1415
 1924SOL    HW1 6822   2.198   1.549   1.178  1.5161  0.4550  1.2327
 1924SOL    HW2 6823   2.116   1.435   1.234  1.9974 -0.5982 -0.1545
 1925SOL     OW 6824   4.943   8.215   0.844 -0.0281  0.4127  0.4279
 1925SOL    HW1 6825   5.012   8.236   0.907 -0.2249  1.0514  0.4339
 1925SOL    HW2 6826   4.873   8.176   0.897  0.4457 -0.5456  0.3781
 1926SOL     OW 6827   3.988   4.843   1.670  0.3733 -0.0786 -0.0805
 1926SOL    HW1 6828   3.949   4.901   1.605 -0.0516  0.5862  0.7443
 1926SOL    HW2 6829   4.082   4.859   1.662  0.2163  1.5556  0.8489
 1927SOL     OW 6830   5.064   7.839   1.225  0.3373 -1.1349 -0.1228
 1927SOL    HW1 6831   5.146   7.806   1.260  1.0544 -0.2248 -0.8570
 1927SOL    HW2 6832   5.051   7.790   1.144  0.3169 -1.0638 -0.1627
 1928SOL     OW 6833   1.184   1.025   4.971 -0.4696  0.4893  0.5091
 1928SOL    HW1 6834   1.177   0.992   4.881  0.0679 -0.7979  0.9287
 1928SOL    HW2 6835   1.128   1.103   4.971 -1.5729 -0.2499 -0.5796
 1929SOL     OW 6836   4.405   5.241   7.906  0.1485 -0.3725 -0.0140
 1929SOL    HW1 6837   4.419   5.148   7.888 -2.9870 -1.2393  1.3158
 1929SOL    HW2 6838   4.407   5.283   7.820 -0.5083 -2.0399 -0.8976
 1930SOL     OW 6839   5.592   7.015   8.205  0.9570  0.5740  0.6950
 1930SOL    HW1 6840   5.625   7.097   8.243 -0.6892  0.7483  1.8779
 1930SOL    HW2 6841   5.521   6.989   8.264 -0.7159  0.0256 -1.4379
 1931SOL     OW 6842   7.572   7.852   6.980  0.1982  0.2269  0.6484
 1931SOL    HW1 6843   7.666   7.865   6.983  0.1476  1.1703 -0.8564
 1931SOL    HW2 6844   7.560   7.757   6.984  1.1915  0.1083  0.9522
 1932SOL     OW 6845   5.982   4.816   1.081  0.4547 -0.0542 -0.3276
 1932SOL    HW1 6846   6.009   4.899   1.041  0.8145  0.5483  1.0876
 1932SOL    HW2 6847   6.028   4.749   1.031 -0.2172  0.5453 -1.8105
 1933SOL     OW 6848   7.595   3.155   4.956 -0.3169  0.4660 -0.1591
 1933SOL    HW1 6849   7.582   3.237   4.907  1.5612  0.7803 -0.1908
 1933SOL    HW2 6850   7.662   3.108   4.908 -0.7171 -0.6936  0.3824
 1934SOL     OW 6851   0.749   6.655   2.365 -0.2453  0.2404 -0.6028
 1934SOL    HW1 6852   0.695   6.719   2.319  1.4902  0.6094 -2.3000
 1934SOL    HW2 6853   0.821   6.707   2.401  0.4093 -0.5486 -0.7443
 1935SOL     OW 6854   5.060   6.191   4.563  0.0898  0.4872  0.0740
 1935SOL    HW1 6855   5.045   6.100   4.589  2.1733  0.1854  0.4601
 1935SOL    HW2 6856   5.057   6.240   4.645  0.5932  0.4972  0.0900
 1936SOL     OW 6857   5.996   2.688   4.330  0.0458 -0.4357  0.1468
 1936SOL    HW1 6858   6.084   2.657   4.349 -0.6738 -2.0952  1.0461
 1936SOL    HW2 6859   5.941   2.610   4.341 -1.8057  1.0009  1.7747
 1937SOL     OW 6860   0.489   5.410   2.413  0.5059  0.4373  0.0429
 1937SOL    HW1 6861   0.474   5.407   2.318  0.7980  1.1365 -0.0311
 1937SOL    HW2 6862   0.476   5.502   2.436 -0.6189  0.0954  0.8678
 1938SOL     OW 6863   5.221   4.642   5.085 -0.3254  0.0688  0.3847
 1938SOL    HW1 6864   5.134   4.604   5.098 -0.6952  1.0891  1.0607
 1938SOL    HW2 6865   5.281   4.568   5.087 -1.0958 -0.5531  0.8061
 1939SOL     OW 6866   6.304   7.291   3.269  0.2041  0.2561  0.3774
 1939SOL    HW1 6867   6.278   7.204   3.300 -2.0508  0.2710 -1.1898
 1939SOL    HW2 6868   6.221   7.337   3.254  1.2448  1.6650 -1.5864
 1940SOL     OW 6869   4.226   0.368   1.597 -0.3840  0.1000 -0.2349
 1940SOL    HW1 6870   4.154   0.431   1.592  0.2801  0.8366 -0.9960
 1940SOL    HW2 6871   4.305   0.421   1.580  0.2996 -0.7482  0.2162
 1941SOL     OW 6872   6.583   1.346   3.316 -0.4354  0.2056  0.0166
 1941SOL    HW1 6873   6.645   1.414   3.341 -0.3852  0.0709  0.2591
 1941SOL    HW2 6874   6.630   1.264   3.329 -0.7720  0.0854  0.5347
 1942SOL     OW 6875   7.455   3.918   1.925 -0.0532  0.0136  0.2869
 1942SOL    HW1 6876   7.420   3.850   1.868 -2.2498  0.2712  1.2317
 1942SOL    HW2 6877   7.547   3.894   1.937 -0.2805 -1.6789 -0.9556
 1943SOL     OW 6878   8.222   4.817   6.048 -0.3085  0.1536 -0.1823
 1943SOL    HW1 6879   8.249   4.727   6.066  0.6757  0.1603 -1.5400
 1943SOL    HW2 6880   8.128   4.818   6.069 -0.3162 -1.1566 -0.0706
 1944SOL     OW 6881   4.372   1.856   6.830 -0.4493 -0.2003  0.8330
 1944SOL    HW1 6882   4.419   1.856   6.914  0.0512 -1.0127  0.5710
 1944SOL    HW2 6883   4.438   1.882   6.766 -0.7240  0.0073  0.6318
 1945SOL     OW 6884   5.342   2.932   7.950 -0.3188 -0.3861 -0.6684
 1945SOL    HW1 6885   5.297   2.881   7.882  0.6616 -1.2581 -0.6816
 1945SOL    HW2 6886   5.337   2.878   8.029 -1.5559  0.6727  0.0205
 1946SOL     OW 6887   7.035   0.523   3.332 -0.5427 -0.5465  0.2316
 1946SOL    HW1 6888   7.045   0.465   3.407  0.7843  0.2464  0.6934
 1946SOL    HW2 6889   7.010   0.608   3.369 -0.0258 -0.1841 -0.2300
 1947SOL     OW 6890   2.285   1.362   6.272  0.1330 -0.2916 -0.3497
 1947SOL    HW1 6891   2.312   1.422   6.202 -2.8854  1.0162 -0.5304
 1947SOL    HW2 6892   2.329   1.279   6.250  3.0761  1.3289 -1.0288
 1948SOL     OW 6893   2.058   5.055   0.381  0.1047 -0.1208 -0.7477
 1948SOL    HW1 6894   2.128   5.113   0.412 -2.5787  1.9364  2.0370
 1948SOL    HW2 6895   2.028   5.096   0.299  0.4023  0.5201 -0.5423
 1949SOL     OW 6896   8.228   3.151   6.072 -0.0295 -0.0908  0.0705
 1949SOL    HW1 6897   8.317   3.136   6.104 -0.4027 -1.4609  0.5278
 1949SOL    HW2 6898   8.231   3.238   6.031  0.5643  1.6789  3.5052
 1950SOL     OW 6899   6.996   0.307   6.509  0.0284 -0.4138  0.2480
 1950SOL    HW1 6900   7.033   0.391   6.535 -0.4862 -0.2343  0.4185
 1950SOL    HW2 6901   7.007   0.305   6.414  2.7140 -1.4644  0.4960
 1951SOL     OW 6902   2.682   6.611   5.042 -0.2644 -0.8202 -0.1891
 1951SOL    HW1 6903   2.766   6.566   5.035 -0.8643 -1.7693 -1.7822
 1951SOL    HW2 6904   2.693   6.691   4.991 -0.4438 -1.1407 -0.7350
 1952SOL     OW 6905   0.059   2.606   1.811  0.0052 -0.2102 -0.5513
 1952SOL    HW1 6906  -0.005   2.537   1.824  0.7230 -0.7624  0.1369
 1952SOL    HW2 6907   0.035   2.673   1.875  0.8391 -0.9608  0.5783
 1953SOL     OW 6908   5.110   8.033   0.731  0.2918 -0.0435  0.2231
 1953SOL    HW1 6909   5.085   8.013   0.641 -0.4169 -0.4211  0.4934
 1953SOL    HW2 6910   5.040   8.091   0.763  0.4361 -0.0687  0.5897
 1954SOL     OW 6911   7.921   2.461   6.878 -0.1708  0.0710  0.0401
 1954SOL    HW1 6912   7.932   2.374   6.839  0.9665  0.4323 -0.4848
 1954SOL    HW2 6913   7.836   2.492   6.847  0.5662  0.2231 -1.9071
 1955SOL     OW 6914   0.793   6.759   3.817 -0.3059  0.0362  0.5387
 1955SOL    HW1 6915   0.717   6.812   3.843 -0.4278  0.7199 -1.0638
 1955SOL    HW2 6916   0.756   6.672   3.799 -0.3648 -0.1834  1.6441
 1956SOL     OW 6917   1.611   3.157   7.635 -1.0346 -0.1401  0.0983
 1956SOL    HW1 6918   1.627   3.108   7.716 -1.6217 -2.8529 -1.2925
 1956SOL    HW2 6919   1.677   3.226   7.636  0.4127 -1.4295  1.8711
 1957SOL     OW 6920   6.770   6.259   7.625  0.4658 -0.6233 -0.6134
 1957SOL    HW1 6921   6.860   6.237   7.648  0.4459  1.2419  1.5997
 1957SOL    HW2 6922   6.716   6.205   7.683  0.2750  0.5182  0.3022
 1958SOL     OW 6923   6.169   6.910   4.905  0.7954  0.0305  0.3957
 1958SOL    HW1 6924   6.102   6.848   4.933 -0.4261  1.1637  0.0610
 1958SOL    HW2 6925   6.168   6.978   4.972  0.2761  1.0062 -0.5710
 1959SOL     OW 6926   2.385   3.873   0.058  0.2316 -0.0925 -0.0052
 1959SOL    HW1 6927   2.360   3.832  -0.025  0.5440  1.7053 -1.0284
 1959SOL    HW2 6928   2.481   3.881   0.053  0.0961  1.6989 -0.3213
 1960SOL     OW 6929   1.094   1.883   7.255  0.0392 -0.1647  0.3293
 1960SOL    HW1 6930   1.001   1.876   7.279 -0.1098 -2.3566 -0.6652
 1960SOL    HW2 6931   1.136   1.810   7.301  0.5965 -1.3681 -1.9163
 1961SOL     OW 6932   5.141   5.733   6.774  0.3993  0.6143  0.4159
 1961SOL    HW1 6933   5.089   5.809   6.801 -0.3487  0.6284 -0.9658
 1961SOL    HW2 6934   5.232   5.763   6.779  0.1131  1.6053 -0.0820
 1962SOL     OW 6935   2.006   5.211   4.540 -0.0021  0.8590 -0.0858
 1962SOL    HW1 6936   1.946   5.277   4.506 -0.9700  1.2753  2.2092
 1962SOL    HW2 6937   1.954   5.131   4.546 -0.1343  1.0154  1.1618
 1963SOL     OW 6938   3.860   3.516   2.853  0.2053  0.0755  0.0092
 1963SOL    HW1 6939   3.821   3.435   2.885  0.3449  0.9381  2.5859
 1963SOL    HW2 6940   3.947   3.489   2.822 -0.4827 -1.0387 -1.0317
 1964SOL     OW 6941   1.874   7.490   2.852  0.7246  0.0551 -0.2092
 1964SOL    HW1 6942   1.876   7.581   2.820  0.1534  0.5831  1.1667
 1964SOL    HW2 6943   1.798   7.451   2.810 -0.4730  0.9656  0.9953
 1965SOL     OW 6944   3.160   3.341   0.536 -0.1864  0.6135 -0.0044
 1965SOL    HW1 6945   3.204   3.264   0.571  0.0492  1.1528  0.9183
 1965SOL    HW2 6946   3.118   3.310   0.455  0.6265 -0.2598 -0.1082
 1966SOL     OW 6947   5.917   1.156   1.359  0.0505 -0.2479  0.3269
 1966SOL    HW1 6948   5.997   1.155   1.306  0.0401 -0.7675  0.3214
 1966SOL    HW2 6949   5.949   1.150   1.450  0.0825  0.8902  0.4134
 1967SOL     OW 6950   3.194   4.079   1.765  0.5322  0.3452 -0.0064
 1967SOL    HW1 6951   3.170   4.171   1.775  3.0716  0.9128  1.8406
 1967SOL    HW2 6952   3.288   4.076   1.782  0.5866 -2.5817 -0.1812
 1968SOL     OW 6953   1.687   1.012   3.976 -0.0589 -0.1490  0.4211
 1968SOL    HW1 6954   1.715   1.094   4.016 -0.2701  0.0870  0.0866
 1968SOL    HW2 6955   1.734   1.008   3.893 -1.6925  0.7245 -0.6148
 1969SOL     OW 6956   3.077   0.880   0.766 -0.3227  0.1479  0.3465
 1969SOL    HW1 6957   3.014   0.952   0.774 -1.2734 -0.2923 -2.1926
 1969SOL    HW2 6958   3.033   0.815   0.711  1.4449 -1.2784  0.5300
 1970SOL     OW 6959   4.296   1.717   3.088  0.1821 -0.1105 -0.0440
 1970SOL    HW1 6960   4.383   1.742   3.120 -0.5154  1.5115  0.6902
 1970SOL    HW2 6961   4.288   1.625   3.111  1.4376 -0.1086  0.4869
 1971SOL     OW 6962   2.956   2.278   5.289 -0.2677 -0.0646 -0.5111
 1971SOL    HW1 6963   2.871   2.234   5.286 -0.2935 -0.0351 -0.2712
 1971SOL    HW2 6964   2.955   2.325   5.373  0.6108 -1.3160  0.2316
 1972SOL     OW 6965   7.404   4.039   0.895 -0.3656  0.2952 -0.5890
 1972SOL    HW1 6966   7.323   4.080   0.926  0.2701  1.0532  0.1107
 1972SOL    HW2 6967   7.375   3.980   0.825 -1.5396  0.4118 -0.2307
 1973SOL     OW 6968   0.038   3.129   2.276  0.6293 -0.6006  0.3604
 1973SOL    HW1 6969  -0.006   3.110   2.359 -0.5693 -0.7932 -0.2886
 1973SOL    HW2 6970  -0.026   3.104   2.209  2.1180 -1.8433 -0.6626
 1974SOL     OW 6971   7.174   3.149   2.927 -0.2015  0.0448 -0.7069
 1974SOL    HW1 6972   7.146   3.237   2.904  0.6238  0.7325  0.7491
 1974SOL    HW2 6973   7.132   3.092   2.863 -2.3621  1.2927 -0.4791
 1975SOL     OW 6974   6.685   4.927   4.838 -0.0068  0.0169 -0.4179
 1975SOL    HW1 6975   6.647   4.846   4.874  0.4906  0.6610  1.6469
 1975SOL    HW2 6976   6.611   4.988   4.834 -0.5965 -0.7152 -2.8357
 1976SOL     OW 6977   2.883   3.688   3.689 -0.0446  0.7651 -0.0656
 1976SOL    HW1 6978   2.914   3.725   3.772 -0.1446  0.7769 -0.0339
 1976SOL    HW2 6979   2.888   3.761   3.627  0.7773  0.5588 -0.2583
 1977SOL     OW 6980   7.767   5.199   2.064  0.3137 -0.2785  0.2743
 1977SOL    HW1 6981   7.768   5.118   2.013  1.6749 -0.4996  0.6198
 1977SOL    HW2 6982   7.768   5.170   2.155 -0.3074  0.1277  0.4152
 1978SOL     OW 6983   1.997   1.500   1.642 -0.1587  0.1387 -0.3360
 1978SOL    HW1 6984   2.002   1.594   1.624 -1.4210  0.4589  0.8868
 1978SOL    HW2 6985   2.079   1.465   1.606 -0.1758  1.5186 -1.8226
 1979SOL     OW 6986   5.596   2.944   7.181 -0.3918  0.0156  0.4291
 1979SOL    HW1 6987   5.620   2.912   7.267  0.2817 -2.6526 -0.6567
 1979SOL    HW2 6988   5.512   2.902   7.162 -0.2247  0.0561 -0.4702
 1980SOL     OW 6989   6.396   1.431   3.140 -0.2360  0.3081 -0.5577
 1980SOL    HW1 6990   6.416   1.368   3.071  0.2147 -1.2125  0.9096
 1980SOL    HW2 6991   6.464   1.417   3.206 -0.3341  2.1016 -0.0155
 1981SOL     OW 6992   1.986   3.936   1.132  0.1021  0.0487 -0.1901
 1981SOL    HW1 6993   1.925   3.929   1.059  1.8245  0.2144 -1.7053
 1981SOL    HW2 6994   2.062   3.885   1.105  2.0527  2.6009  0.1154
 1982SOL     OW 6995   1.423   2.295   4.794  0.9322  0.3651  0.2367
 1982SOL    HW1 6996   1.461   2.380   4.778 -0.8529  1.2118  0.2173
 1982SOL    HW2 6997   1.361   2.310   4.866 -2.0992 -0.0123 -2.0784
 1983SOL     OW 6998   5.816   5.656   2.829  0.5134  0.0616 -0.1498
 1983SOL    HW1 6999   5.894   5.631   2.879  0.2103 -0.0749  0.2585
 1983SOL    HW2 7000   5.841   5.644   2.738  0.9872  0.0653 -0.0222
 1984SOL     OW 7001   7.838   3.901   7.219 -0.0069  0.1296  0.4750
 1984SOL    HW1 7002   7.841   3.990   7.253 -0.0355 -0.2506  1.5215
 1984SOL    HW2 7003   7.905   3.899   7.151 -0.5087  1.1405 -0.0760
 1985SOL     OW 7004   7.155   2.611   4.261 -0.3279 -0.6987  0.2236
 1985SOL    HW1 7005   7.203   2.607   4.178 -1.3740 -0.2169 -0.4338
 1985SOL    HW2 7006   7.193   2.542   4.314 -2.2710 -3.8394 -2.1216
 1986SOL     OW 7007   1.568   0.882   3.101 -0.4531  0.1643 -0.0352
 1986SOL    HW1 7008   1.625   0.954   3.126 -0.8829  1.0133 -1.4332
 1986SOL    HW2 7009   1.545   0.899   3.010  1.0669 -2.8191 -1.1038
 1987SOL     OW 7010   0.489   5.338   5.249 -0.0064 -0.2421 -0.2591
 1987SOL    HW1 7011   0.528   5.262   5.293 -1.0879 -0.3577  0.5420
 1987SOL    HW2 7012   0.516   5.413   5.301  1.0539 -0.0527 -1.0464
 1988SOL     OW 7013   0.302   0.802   8.041 -0.5261  0.5491 -0.3485
 1988SOL    HW1 7014   0.220   0.809   7.992 -0.3069 -1.8531 -1.2083
 1988SOL    HW2 7015   0.367   0.843   7.985 -0.8556  0.8693 -0.4976
 1989SOL     OW 7016   6.819   6.121   0.489  0.1286 -0.0232  0.3991
 1989SOL    HW1 7017   6.855   6.205   0.458  0.2559 -1.1744 -2.9774
 1989SOL    HW2 7018   6.894   6.075   0.525  0.5448  0.3843  0.0714
 1990SOL     OW 7019   6.376   1.703   0.057 -0.7095  0.2345  0.4604
 1990SOL    HW1 7020   6.465   1.706   0.023 -1.1065 -2.7055 -1.1776
 1990SOL    HW2 7021   6.325   1.755  -0.005 -0.2748  1.5182  1.1333
 1991SOL     OW 7022   4.516   1.544   3.793  0.2424 -0.0509  0.3422
 1991SOL    HW1 7023   4.436   1.564   3.840 -0.9275 -1.7936 -0.7598
 1991SOL    HW2 7024   4.525   1.614   3.728  0.8745  1.3536  1.8850
 1992SOL     OW 7025   1.865   1.705   5.661  0.5019 -0.1751 -0.0646
 1992SOL    HW1 7026   1.853   1.654   5.741  0.4425  0.0945  0.0992
 1992SOL    HW2 7027   1.949   1.675   5.626  1.9219  1.6561  1.5569
 1993SOL     OW 7028   2.249   4.121   5.874 -0.2921  0.6912  0.4890
 1993SOL    HW1 7029   2.179   4.066   5.838 -0.2507  1.5015 -0.8954
 1993SOL    HW2 7030   2.267   4.185   5.805  2.3674  0.0381  0.4348
 1994SOL     OW 7031   7.814   4.921   0.758  0.3013 -0.1772  0.9062
 1994SOL    HW1 7032   7.802   4.985   0.688  1.6987 -1.1046 -0.2250
 1994SOL    HW2 7033   7.904   4.935   0.788  0.7720 -1.8316  0.3758
 1995SOL     OW 7034   0.193   7.994   0.554  0.0282  0.0673  0.0406
 1995SOL    HW1 7035   0.238   8.038   0.482  0.4659 -1.3311 -0.5811
 1995SOL    HW2 7036   0.102   8.024   0.548 -0.0283 -0.3129 -1.3486
 1996SOL     OW 7037   0.444   7.706   8.220 -0.3885 -0.2294  0.1809
 1996SOL    HW1 7038   0.388   7.720   8.144 -0.7949 -1.0532  0.3095
 1996SOL    HW2 7039   0.443   7.789   8.267  0.0649  0.3553 -0.8448
 1997SOL     OW 7040   2.938   3.857   4.992 -0.0365 -0.5156 -0.7157
 1997SOL    HW1 7041   2.941   3.929   4.929  0.6445  0.9052  0.8693
 1997SOL    HW2 7042   3.014   3.803   4.970  0.6549  0.4012 -0.6399
 1998SOL     OW 7043   7.449   1.301   1.146 -0.0081  0.1323 -1.0489
 1998SOL    HW1 7044   7.505   1.264   1.078  1.5127  1.0785 -0.3636
 1998SOL    HW2 7045   7.495   1.282   1.228 -0.8377  0.7053 -0.4276
 1999SOL     OW 7046   5.185   5.379   6.123  0.3930 -0.0397  0.4675
 1999SOL    HW1 7047   5.275   5.391   6.153  0.5696 -0.5817  0.1693
 1999SOL    HW2 7048   5.189   5.399   6.029 -0.0115  0.9494  0.6446
 2000SOL     OW 7049   7.001   1.398   3.457 -0.6986 -0.0456  0.6762
 2000SOL    HW1 7050   7.063   1.395   3.384  1.0766 -2.0204  2.1357
 2000SOL    HW2 7051   6.991   1.491   3.476  1.2214  0.3733 -0.1312
 2001SOL     OW 7052   0.194   0.305   8.055  0.4833 -0.0292  0.4291
 2001SOL    HW1 7053   0.199   0.391   8.013 -0.2100 -0.9370 -1.7086
 2001SOL    HW2 7054   0.102   0.296   8.079  0.1310 -0.8634 -1.0874
 2002SOL     OW 7055   2.898   4.212   5.982  0.0999  0.1240  0.2835
 2002SOL    HW1 7056   2.814   4.214   5.935  1.2217  1.7832 -1.7827
 2002SOL    HW2 7057   2.919   4.304   5.996  1.6429 -0.2701  0.6546
 2003SOL     OW 7058   6.660   2.572   4.449 -0.6278  0.0030  0.2785
 2003SOL    HW1 7059   6.673   2.537   4.537 -0.8614  1.8190  1.0874
 2003SOL    HW2 7060   6.573   2.610   4.451  0.3987  2.5763  0.2401
 2004SOL     OW 7061   0.504   3.169   1.339  0.2328  0.1884  0.0045
 2004SOL    HW1 7062   0.544   3.182   1.425  0.0223  1.2660 -0.0384
 2004SOL    HW2 7063   0.540   3.087   1.307  1.8241  0.7599  0.2800
 2005SOL     OW 7064   4.931   0.971   7.910 -0.3487  0.1414 -0.2508
 2005SOL    HW1 7065   4.839   0.972   7.882 -0.4410  1.4811  0.0089
 2005SOL    HW2 7066   4.966   1.054   7.877  1.2016 -1.0316 -1.6749
 2006SOL     OW 7067   6.623   3.948   3.242  0.0970 -0.4063  0.5085
 2006SOL    HW1 7068   6.536   3.929   3.207  1.1705 -0.1360 -2.5501
 2006SOL    HW2 7069   6.639   3.879   3.306 -0.7783 -2.9321 -1.8353
 2007SOL     OW 7070   2.937   6.128   1.600 -0.1823 -0.1243 -0.2936
 2007SOL    HW1 7071   2.884   6.050   1.580 -0.7530  0.5149 -1.3603
 2007SOL    HW2 7072   2.970   6.156   1.515  2.3869 -0.8187  0.3918
 2008SOL     OW 7073   3.151   2.204   6.447  0.9055 -0.0849  0.4671
 2008SOL    HW1 7074   3.117   2.155   6.373 -0.5981  0.9792  0.4093
 2008SOL    HW2 7075   3.212   2.267   6.408  0.6524 -0.0012  0.1995
 2009SOL     OW 7076   8.280   6.425   1.820 -0.2152  0.4920 -0.1715
 2009SOL    HW1 7077   8.309   6.514   1.843  0.6864  0.2062 -0.1786
 2009SOL    HW2 7078   8.236   6.435   1.735 -1.3917  1.1508  0.4775
 2010SOL     OW 7079   4.065   8.230   0.699 -0.0435 -0.4747 -0.1777
 2010SOL    HW1 7080   4.003   8.179   0.750 -0.9906 -0.0205 -0.8585
 2010SOL    HW2 7081   4.145   8.177   0.698  0.2509 -0.2087  2.3332
 2011SOL     OW 7082   1.641   1.197   4.605  0.0626  0.0995 -0.0772
 2011SOL    HW1 7083   1.552   1.174   4.630  0.3926  0.3951  1.5144
 2011SOL    HW2 7084   1.633   1.237   4.518 -1.2389 -0.5750 -0.2931
 2012SOL     OW 7085   7.546   5.114   6.774 -0.0336 -0.4723 -0.4177
 2012SOL    HW1 7086   7.503   5.040   6.816  2.6331 -0.6096  2.4515
 2012SOL    HW2 7087   7.633   5.081   6.750  0.8846  1.3959  0.1019
 2013SOL     OW 7088   3.038   5.001   6.506 -1.0205 -0.3274  0.3377
 2013SOL    HW1 7089   2.972   4.955   6.559 -1.1844 -0.9437 -0.3789
 2013SOL    HW2 7090   2.993   5.079   6.474 -1.4549 -0.8070 -0.2496
 2014SOL     OW 7091   7.822   6.352   4.611  0.4730  0.0408 -0.5501
 2014SOL    HW1 7092   7.751   6.412   4.586  0.3823  0.0910 -0.1861
 2014SOL    HW2 7093   7.840   6.301   4.532 -0.1402 -0.1432 -0.5733
 2015SOL     OW 7094   0.969   7.998   0.566 -0.3358  0.0959 -0.1800
 2015SOL    HW1 7095   0.969   7.956   0.480 -0.8555 -0.4041  0.0544
 2015SOL    HW2 7096   1.031   7.948   0.618 -0.3060  0.1622 -0.1510
 2016SOL     OW 7097   4.885   2.063   3.635  0.0275  0.1821  0.2628
 2016SOL    HW1 7098   4.801   2.033   3.599 -0.0794 -0.7423  1.2212
 2016SOL    HW2 7099   4.945   2.061   3.561 -0.6526  0.2740 -0.3088
 2017SOL     OW 7100   0.629   5.519   6.720 -0.2448  0.5689  0.6110
 2017SOL    HW1 7101   0.663   5.521   6.630 -3.4930  0.3231 -0.7367
 2017SOL    HW2 7102   0.671   5.442   6.760  2.3829  1.5068 -0.1063
 2018SOL     OW 7103   3.592   6.345   0.087  0.3022  0.0166 -0.7252
 2018SOL    HW1 7104   3.515   6.400   0.097  0.8199  0.4750  1.1450
 2018SOL    HW2 7105   3.560   6.256   0.095  0.0008  0.2215  0.5633
 2019SOL     OW 7106   0.211   4.164   6.136  0.0684  0.4198 -0.0175
 2019SOL    HW1 7107   0.197   4.174   6.042 -0.5584  0.2748  0.0594
 2019SOL    HW2 7108   0.274   4.233   6.159 -0.1290  0.7477 -0.4567
 2020SOL     OW 7109   3.249   6.342   5.587  0.8493 -0.2608  0.4512
 2020SOL    HW1 7110   3.337   6.377   5.570  0.3995  0.3192 -0.7430
 2020SOL    HW2 7111   3.266   6.263   5.639  2.0929 -0.2515  0.1094
 2021SOL     OW 7112   1.810   4.672   2.341  0.3816  0.0115 -0.3666
 2021SOL    HW1 7113   1.741   4.654   2.277 -0.5376  2.3110 -0.1484
 2021SOL    HW2 7114   1.890   4.679   2.289 -0.2181  1.0619 -1.1949
 2022SOL     OW 7115   1.438   6.027   5.990  0.4149  0.2164 -0.5149
 2022SOL    HW1 7116   1.370   6.053   6.052  0.7550 -0.7042  0.2690
 2022SOL    HW2 7117   1.464   6.109   5.947 -2.1478  0.4159 -1.8672
 2023SOL     OW 7118   3.402   0.743   1.659 -0.4425 -0.1593  0.1799
 2023SOL    HW1 7119   3.454   0.757   1.738 -0.6630  0.0306  0.2920
 2023SOL    HW2 7120   3.399   0.829   1.617 -1.3135  0.0132  0.5717
 2024SOL     OW 7121   4.454   8.058   3.702 -0.4721  0.7135  0.4414
 2024SOL    HW1 7122   4.405   8.136   3.673 -0.9271  0.2365 -0.1059
 2024SOL    HW2 7123   4.405   8.026   3.778  0.2275  1.4677  1.2282
 2025SOL     OW 7124   6.241   4.659   3.721 -0.2584 -0.1204 -0.0709
 2025SOL    HW1 7125   6.154   4.632   3.690 -2.0945  2.3497  2.3332
 2025SOL    HW2 7126   6.257   4.742   3.676  0.1215  0.1878  0.6172
 2026SOL     OW 7127   8.059   2.992   2.722 -0.0034  0.1769 -0.4579
 2026SOL    HW1 7128   8.004   2.925   2.680 -0.4636 -0.4780  1.1120
 2026SOL    HW2 7129   8.099   2.947   2.797  2.4643  0.7286 -1.3576
 2027SOL     OW 7130   4.295   1.520   7.940  0.1001 -0.5598  0.0445
 2027SOL    HW1 7131   4.263   1.491   8.026 -2.1826  0.1372 -0.4895
 2027SOL    HW2 7132   4.216   1.523   7.886  1.3452 -0.0390 -1.8114
 2028SOL     OW 7133   1.015   2.380   7.486  0.1379 -0.5971  0.2341
 2028SOL    HW1 7134   0.997   2.309   7.425  0.3315 -0.5790  0.1541
 2028SOL    HW2 7135   0.959   2.452   7.458 -0.2883 -0.8199  0.5018
 2029SOL     OW 7136   2.263   4.519   5.787  0.6138  0.2102  0.2378
 2029SOL    HW1 7137   2.325   4.487   5.721  0.3684 -0.0418  0.1288
 2029SOL    HW2 7138   2.313   4.519   5.868  0.3330 -1.4633  0.4507
 2030SOL     OW 7139   4.513   1.319   1.245  0.3339 -0.4117  0.0201
 2030SOL    HW1 7140   4.549   1.245   1.196 -0.2461 -1.2004  0.7563
 2030SOL    HW2 7141   4.560   1.395   1.211  2.0327 -1.2853  0.3038
 2031SOL     OW 7142   2.203   5.355   4.685  0.2826  0.3133  0.1650
 2031SOL    HW1 7143   2.219   5.433   4.738 -0.6473  0.8005 -0.2437
 2031SOL    HW2 7144   2.110   5.358   4.664  0.1941 -0.9979  0.2664
 2032SOL     OW 7145   2.789   6.375   7.007  0.1647 -0.2553  0.2693
 2032SOL    HW1 7146   2.725   6.308   6.984 -0.9145  0.7232  0.3268
 2032SOL    HW2 7147   2.792   6.432   6.930  1.6244 -0.7504 -0.0787
 2033SOL     OW 7148   4.047   2.604   7.892 -0.4750 -0.4074 -0.2437
 2033SOL    HW1 7149   4.057   2.697   7.872 -1.3608 -0.2294  0.1121
 2033SOL    HW2 7150   4.009   2.602   7.980  1.8973 -1.1570  0.8713
 2034SOL     OW 7151   4.180   0.208   6.691  0.4572  0.2568  0.1996
 2034SOL    HW1 7152   4.108   0.262   6.722  2.0951  1.1700  2.8335
 2034SOL    HW2 7153   4.254   0.269   6.683  2.0774 -1.2788  2.1651
 2035SOL     OW 7154   7.842   7.249   5.349  0.1943  0.2367 -0.1087
 2035SOL    HW1 7155   7.862   7.163   5.385  2.3890  1.0338  0.7876
 2035SOL    HW2 7156   7.825   7.303   5.426  2.6452  1.4260 -0.2866
 2036SOL     OW 7157   3.277   3.681   5.819  0.4662 -0.0159 -0.6719
 2036SOL    HW1 7158   3.205   3.708   5.762 -2.4464 -1.5935  1.9171
 2036SOL    HW2 7159   3.295   3.757   5.874  0.2044  0.1485 -0.8153
 2037SOL     OW 7160   7.904   3.492   4.638  0.1338 -0.1567  0.1137
 2037SOL    HW1 7161   7.964   3.497   4.565 -0.0402  0.7606  0.0190
 2037SOL    HW2 7162   7.938   3.555   4.702 -0.5576  0.1613  0.1775
 2038SOL     OW 7163   6.475   5.980   4.330  0.2766 -0.0009 -0.4271
 2038SOL    HW1 7164   6.480   5.898   4.281  1.3566 -1.3164  1.7671
 2038SOL    HW2 7165   6.386   6.012   4.314 -0.2278 -1.6814 -1.1641
 2039SOL     OW 7166   4.959   8.048   1.355  0.1506  0.3225 -0.6889
 2039SOL    HW1 7167   4.895   8.017   1.419  0.5809 -0.3778 -0.5869
 2039SOL    HW2 7168   5.018   7.973   1.341  1.3779  1.1783 -0.2344
 2040SOL     OW 7169   0.488   6.276   6.988  0.1419 -0.8861 -0.0694
 2040SOL    HW1 7170   0.396   6.264   7.013  0.2563 -0.5007  0.5658
 2040SOL    HW2 7171   0.535   6.209   7.038  0.3903 -0.0178  0.8876
 2041SOL     OW 7172   7.968   0.386   1.119  0.2835 -0.0009  0.2390
 2041SOL    HW1 7173   8.058   0.362   1.142  0.1726 -1.7035 -0.9731
 2041SOL    HW2 7174   7.942   0.323   1.052 -0.6309  2.5982 -2.0053
 2042SOL     OW 7175   4.383   5.339   7.641  0.2193 -0.0987 -0.0853
 2042SOL    HW1 7176   4.404   5.369   7.552 -0.2396 -0.3381 -0.2738
 2042SOL    HW2 7177   4.297   5.299   7.633 -0.0863  0.4070  0.5866
 2043SOL     OW 7178   4.699   4.781   2.042 -0.4936 -0.2614  0.1042
 2043SOL    HW1 7179   4.658   4.863   2.014  1.9181  0.7154 -0.8665
 2043SOL    HW2 7180   4.703   4.729   1.962  1.7859  0.4600 -0.3275
 2044SOL     OW 7181   2.455   0.072   3.552  0.2156  0.1427  0.0221
 2044SOL    HW1 7182   2.382   0.114   3.599  1.0075  0.8967  0.6044
 2044SOL    HW2 7183   2.415  -0.004   3.510 -0.6397 -0.2777  1.4959
 2045SOL     OW 7184   1.510   0.794   4.634 -0.6741 -0.2253 -0.1478
 2045SOL    HW1 7185   1.460   0.875   4.639 -0.3009 -0.0092  0.0288
 2045SOL    HW2 7186   1.487   0.757   4.549  0.6978  1.0552 -1.0991
 2046SOL     OW 7187   6.415   6.318   4.361 -0.2900  0.1433 -0.4430
 2046SOL    HW1 7188   6.332   6.274   4.381  0.8231 -1.2186  1.6357
 2046SOL    HW2 7189   6.418   6.392   4.422 -0.1484  0.4119 -0.7770
 2047SOL     OW 7190   7.759   8.118   1.835 -0.0011  0.4433 -0.1971
 2047SOL    HW1 7191   7.791   8.193   1.886 -1.7833  1.0302  0.1194
 2047SOL    HW2 7192   7.839   8.079   1.798  1.1327  1.3817  1.1360
 2048SOL     OW 7193   5.733   6.829   2.776  0.2925 -0.5947 -0.6781
 2048SOL    HW1 7194   5.734   6.764   2.706  1.2120 -0.0860 -1.1624
 2048SOL    HW2 7195   5.819   6.819   2.818 -0.5152 -1.3820  0.8510
 2049SOL     OW 7196   5.232   8.163   1.352  0.6363 -0.4572  0.0600
 2049SOL    HW1 7197   5.268   8.130   1.269 -0.2022 -1.4758  0.0894
 2049SOL    HW2 7198   5.208   8.085   1.401  0.9409  0.1441  1.2023
 2050SOL     OW 7199   7.681   1.972   2.538  0.3943  0.1993  0.5629
 2050SOL    HW1 7200   7.763   1.937   2.574  0.8058  2.1168  1.6296
 2050SOL    HW2 7201   7.695   1.971   2.443  1.7617  0.6910  0.7355
 2051SOL     OW 7202   6.210   1.833   2.960  0.1773  0.0909 -0.1941
 2051SOL    HW1 7203   6.283   1.849   3.019  0.6937 -2.0276 -0.1821
 2051SOL    HW2 7204   6.240   1.866   2.875  0.4200  0.8616  0.1832
 2052SOL     OW 7205   7.227   2.283   6.637  0.1681 -0.6296  0.0782
 2052SOL    HW1 7206   7.309   2.286   6.587 -0.1649  0.9159 -0.4423
 2052SOL    HW2 7207   7.171   2.223   6.588  0.8969 -1.5274  0.3166
 2053SOL     OW 7208   1.521   0.525   2.715 -0.5290 -0.0220 -0.4496
 2053SOL    HW1 7209   1.516   0.621   2.712  1.0013  0.0844 -0.5443
 2053SOL    HW2 7210   1.535   0.499   2.624  0.6680 -0.1941 -0.2366
 2054SOL     OW 7211   7.433   2.781   5.775  0.3126  0.2978  0.6418
 2054SOL    HW1 7212   7.448   2.687   5.762  0.5823  0.5319 -0.8802
 2054SOL    HW2 7213   7.353   2.799   5.727  1.0159  1.1074 -0.2584
 2055SOL     OW 7214   0.372   0.652   0.418 -0.5688  0.1434  0.8258
 2055SOL    HW1 7215   0.446   0.601   0.384 -0.0478 -1.0263  3.4536
 2055SOL    HW2 7216   0.303   0.587   0.431 -1.1519  0.7697  0.9069
 2056SOL     OW 7217   8.151   2.594   4.846  0.2873 -0.6382 -0.0603
 2056SOL    HW1 7218   8.238   2.559   4.826 -0.4705 -2.0617 -1.0447
 2056SOL    HW2 7219   8.108   2.602   4.761 -0.7597 -0.5656  0.4602
 2057SOL     OW 7220   0.565   6.761   1.564  0.1086 -0.2797  0.1407
 2057SOL    HW1 7221   0.508   6.768   1.488  1.5527  0.6444 -0.9039
 2057SOL    HW2 7222   0.643   6.810   1.540  0.4280  0.4384  2.4023
 2058SOL     OW 7223   8.221   6.879   0.660 -0.6856 -0.0634  0.2796
 2058SOL    HW1 7224   8.200   6.871   0.753  0.9929 -0.5444  0.6389
 2058SOL    HW2 7225   8.137   6.867   0.616 -1.0581 -3.0826  1.5930
 2059SOL     OW 7226   6.333   8.214   4.800 -0.1696 -0.1113  0.4021
 2059SOL    HW1 7227   6.238   8.214   4.790 -0.0544 -0.6084 -0.8417
 2059SOL    HW2 7228   6.347   8.184   4.889 -1.1615 -0.8276  0.3364
 2060SOL     OW 7229   6.622   6.691   8.201 -0.4625 -0.1993  0.5471
 2060SOL    HW1 7230   6.567   6.618   8.228  1.8210 -2.2933 -0.0888
 2060SOL    HW2 7231   6.611   6.756   8.271 -3.3786 -0.6180  0.5938
 2061SOL     OW 7232   3.644   7.021   2.958 -0.5246  0.1497 -0.3185
 2061SOL    HW1 7233   3.718   6.965   2.980 -0.5918 -0.3587 -1.3194
 2061SOL    HW2 7234   3.568   6.977   2.996 -0.5459 -0.3226 -0.8977
 2062SOL     OW 7235   4.178   7.049   7.329  0.4975 -0.2843 -0.5395
 2062SOL    HW1 7236   4.269   7.025   7.348  0.3479 -0.3147  0.1832
 2062SOL    HW2 7237   4.127   7.005   7.397 -0.0189  0.0930 -0.6722
 2063SOL     OW 7238   1.235   2.811   6.363  0.1497  0.0847 -0.1335
 2063SOL    HW1 7239   1.235   2.765   6.447  1.2228  1.9039  0.9342
 2063SOL    HW2 7240   1.143   2.834   6.349  0.1324  1.1647  1.4161
 2064SOL     OW 7241   1.608   1.662   2.158 -0.2750  0.1156 -0.0459
 2064SOL    HW1 7242   1.520   1.682   2.189  0.1928  0.7439  0.9041
 2064SOL    HW2 7243   1.659   1.741   2.176  0.1881  0.2757 -1.8365
 2065SOL     OW 7244   5.301   6.972   3.775 -0.3759 -0.3340 -0.1560
 2065SOL    HW1 7245   5.361   7.014   3.835 -0.3761  0.2228 -0.5411
 2065SOL    HW2 7246   5.240   6.924   3.831  0.8559 -1.5299  0.2248
 2066SOL     OW 7247   5.797   1.371   6.239  0.4798  0.5418 -0.5020
 2066SOL    HW1 7248   5.738   1.427   6.189 -0.3024 -0.4063 -0.6871
 2066SOL    HW2 7249   5.884   1.408   6.225  0.3013  0.2820 -2.6425
 2067SOL     OW 7250   3.647   0.226   0.435 -0.4714  0.0474 -0.5574
 2067SOL    HW1 7251   3.730   0.221   0.483 -1.4221 -1.5866  1.0321
 2067SOL    HW2 7252   3.629   0.320   0.430 -0.0999  0.3473  2.0025
 2068SOL     OW 7253   5.580   5.535   2.152  0.4629 -1.0449 -0.0852
 2068SOL    HW1 7254   5.642   5.570   2.088  0.1147  0.9792  0.6094
 2068SOL    HW2 7255   5.597   5.585   2.232 -0.8575 -1.7007  0.6427
 2069SOL     OW 7256   4.125   6.936   0.809 -0.1291 -0.1163 -0.7572
 2069SOL    HW1 7257   4.090   6.902   0.727  0.9690 -0.4237 -1.1197
 2069SOL    HW2 7258   4.219   6.921   0.803 -0.0850 -0.6416  0.7910
 2070SOL     OW 7259   5.991   0.917   2.729  0.2793  0.5061 -0.1882
 2070SOL    HW1 7260   5.967   0.883   2.815  0.0225  1.0817 -0.0282
 2070SOL    HW2 7261   6.087   0.920   2.730  0.2449  1.9192  0.6394
 2071SOL     OW 7262   3.204   0.915   6.583  0.0692 -0.0835  0.1023
 2071SOL    HW1 7263   3.265   0.988   6.596 -0.2575  0.2830 -0.3791
 2071SOL    HW2 7264   3.250   0.857   6.522  0.1358 -0.0423  0.1135
 2072SOL     OW 7265   8.194   1.371   6.712  0.1761  0.0797 -0.1464
 2072SOL    HW1 7266   8.257   1.438   6.689  0.3090 -0.1118 -0.3408
 2072SOL    HW2 7267   8.231   1.328   6.790  0.2772 -0.0203 -0.2493
 2073SOL     OW 7268   7.210   2.486   2.696  0.3352  0.3233  0.0454
 2073SOL    HW1 7269   7.173   2.568   2.726  3.3209  0.4664  4.2326
 2073SOL    HW2 7270   7.145   2.420   2.719 -0.4185  1.1556  0.3456
 2074SOL     OW 7271   1.406   2.661   0.696  0.3657  0.1051 -0.0537
 2074SOL    HW1 7272   1.447   2.743   0.666  0.0609  0.1518 -0.3531
 2074SOL    HW2 7273   1.315   2.685   0.711  0.0007 -0.4462 -1.2773
 2075SOL     OW 7274   3.641   0.665   4.937  0.1619  0.1555  0.1432
 2075SOL    HW1 7275   3.701   0.726   4.980 -1.0388  1.9074 -0.5521
 2075SOL    HW2 7276   3.670   0.578   4.966  2.1686  1.0076  0.8776
 2076SOL     OW 7277   0.708   7.077   3.039  0.3800 -0.1580 -0.2709
 2076SOL    HW1 7278   0.655   7.135   2.983  3.1096  1.1636 -1.6757
 2076SOL    HW2 7279   0.665   6.992   3.032 -1.9965  0.9650 -0.6517
 2077SOL     OW 7280   7.738   6.655   0.427  0.4596  0.3222 -0.0685
 2077SOL    HW1 7281   7.758   6.740   0.467 -0.2989  1.2524 -1.5643
 2077SOL    HW2 7282   7.821   6.608   0.429  1.0952  1.4019  0.1007
 2078SOL     OW 7283   7.010   7.725   4.599  0.1725  0.2398  0.2021
 2078SOL    HW1 7284   6.973   7.805   4.562  1.5832  0.5431 -0.6553
 2078SOL    HW2 7285   7.006   7.738   4.694 -0.6352  0.8291  0.0983
 2079SOL     OW 7286   6.825   7.996   0.718 -0.0647 -0.4029  0.3071
 2079SOL    HW1 7287   6.734   8.021   0.704  0.0365  0.4558  1.0987
 2079SOL    HW2 7288   6.874   8.078   0.719  0.9063 -0.9157 -1.2162
 2080SOL     OW 7289   0.115   5.805   2.846  0.3426  0.3966  0.2385
 2080SOL    HW1 7290   0.128   5.894   2.877 -3.0155  0.3920  2.1079
 2080SOL    HW2 7291   0.127   5.750   2.924  0.9976 -0.6720 -0.5827
 2081SOL     OW 7292   1.181   5.699   2.359 -0.2875  0.5524  0.7149
 2081SOL    HW1 7293   1.126   5.663   2.289  2.3300  0.5361 -1.4975
 2081SOL    HW2 7294   1.207   5.623   2.411 -1.3162  0.4010  1.0289
 2082SOL     OW 7295   6.980   2.010   0.385 -0.6960 -0.0117 -0.1278
 2082SOL    HW1 7296   6.894   2.016   0.345 -1.1137 -0.1947  0.7321
 2082SOL    HW2 7297   7.002   2.100   0.410  0.1862  0.3502 -1.9895
 2083SOL     OW 7298   7.141   1.873   0.083 -0.6694  0.3878  0.6849
 2083SOL    HW1 7299   7.145   1.968   0.091  0.4871  0.3204  1.0538
 2083SOL    HW2 7300   7.232   1.845   0.082 -0.9972 -0.7318  0.6769
 2084SOL     OW 7301   5.465   4.965   4.996  0.6384  0.0399 -0.1868
 2084SOL    HW1 7302   5.525   5.031   4.962  0.9919 -0.3428 -0.3146
 2084SOL    HW2 7303   5.518   4.886   5.004  0.6443  0.1675  1.4828
 2085SOL     OW 7304   4.870   8.011   5.328 -0.0344 -0.3114  0.3914
 2085SOL    HW1 7305   4.940   7.949   5.351  0.7940  1.1923  2.1699
 2085SOL    HW2 7306   4.808   8.005   5.400 -1.4984 -1.1892 -0.8838
 2086SOL     OW 7307   8.102   5.143   8.244 -0.4312 -0.4013  0.2705
 2086SOL    HW1 7308   8.029   5.142   8.306 -0.7005 -1.2587 -0.0491
 2086SOL    HW2 7309   8.177   5.171   8.295 -0.9481  0.3310  0.6450
 2087SOL     OW 7310   6.921   0.782   0.491  0.1185 -0.1039 -0.0915
 2087SOL    HW1 7311   7.001   0.803   0.539  0.5741 -0.4421 -0.6850
 2087SOL    HW2 7312   6.860   0.750   0.558  0.4577  0.2144  0.3728
 2088SOL     OW 7313   2.420   5.425   6.586 -0.6243 -0.0045 -0.4224
 2088SOL    HW1 7314   2.370   5.350   6.620 -1.1385  0.9042  0.9143
 2088SOL    HW2 7315   2.465   5.460   6.663 -0.7626  1.3376 -0.9325
 2089SOL     OW 7316   4.008   4.342   5.859 -0.1556  0.1216 -0.2065
 2089SOL    HW1 7317   3.994   4.350   5.953  2.2321 -2.7380  0.5464
 2089SOL    HW2 7318   3.921   4.351   5.820 -1.6305 -1.4154  2.5143
 2090SOL     OW 7319   1.943   6.590   2.473 -0.2680 -0.5237  0.1895
 2090SOL    HW1 7320   1.960   6.502   2.506  0.4920 -1.0990 -1.6053
 2090SOL    HW2 7321   2.022   6.614   2.425 -1.4350  0.0479 -1.5692
 2091SOL     OW 7322   2.102   2.080   7.162 -0.1950 -0.0569  0.2012
 2091SOL    HW1 7323   2.016   2.051   7.193  0.2361  0.5624  2.1259
 2091SOL    HW2 7324   2.162   2.010   7.189  0.1242  0.2531  0.3032
 2092SOL     OW 7325   7.038   7.386   0.221  0.0428  0.5270  0.6236
 2092SOL    HW1 7326   7.089   7.311   0.190 -0.9283 -0.9856  2.4893
 2092SOL    HW2 7327   7.097   7.461   0.211  1.1166 -0.4924 -1.0882
 2093SOL     OW 7328   1.477   4.740   0.914  0.4709  0.5189  0.6108
 2093SOL    HW1 7329   1.488   4.823   0.867  1.6325  0.5754  0.9518
 2093SOL    HW2 7330   1.384   4.734   0.931 -0.6137 -0.8246 -4.1859
 2094SOL     OW 7331   6.714   6.809   4.420 -0.3590  0.0049 -0.3982
 2094SOL    HW1 7332   6.772   6.885   4.410  0.0260 -0.3218 -0.6992
 2094SOL    HW2 7333   6.634   6.845   4.457  0.6258  0.2343  1.6482
 2095SOL     OW 7334   7.128   1.886   7.291 -0.8361 -0.1970 -0.4182
 2095SOL    HW1 7335   7.212   1.868   7.332 -0.2065  3.5468  0.2694
 2095SOL    HW2 7336   7.146   1.887   7.197 -0.0756  0.6685 -0.2708
 2096SOL     OW 7337   6.807   2.374   2.327 -0.1275 -0.1906 -0.6977
 2096SOL    HW1 7338   6.881   2.329   2.288  1.5649  1.6000  0.2532
 2096SOL    HW2 7339   6.830   2.467   2.321 -1.9059  0.3646  0.4000
 2097SOL     OW 7340   5.668   3.910   5.859  1.1095 -0.5142  0.3769
 2097SOL    HW1 7341   5.748   3.943   5.819  0.6681 -0.9154 -0.8907
 2097SOL    HW2 7342   5.601   3.924   5.792  0.4641 -1.7778  0.7432
 2098SOL     OW 7343   7.090   6.182   1.351 -0.0405  0.6138  0.2785
 2098SOL    HW1 7344   7.139   6.249   1.304 -2.1578  2.2948  0.3120
 2098SOL    HW2 7345   7.156   6.137   1.404  1.8074  1.0994 -1.4700
 2099SOL     OW 7346   6.495   6.548   7.064  0.1581 -0.4085 -0.1995
 2099SOL    HW1 7347   6.512   6.601   7.142 -0.3696 -0.5018 -0.0160
 2099SOL    HW2 7348   6.553   6.473   7.072  0.1940 -0.3544  0.0418
 2100SOL     OW 7349   5.040   2.024   7.215  0.4144  0.0645 -0.1392
 2100SOL    HW1 7350   5.061   1.938   7.250  0.0383 -0.2246 -0.6278
 2100SOL    HW2 7351   4.957   2.013   7.169 -0.3060  0.9649  0.8879
 2101SOL     OW 7352   4.825   7.435   3.302 -0.3484 -0.1227  0.1882
 2101SOL    HW1 7353   4.868   7.460   3.383  1.9993  0.1856 -1.0680
 2101SOL    HW2 7354   4.866   7.353   3.277  0.2650  0.6528 -1.5371
 2102SOL     OW 7355   5.323   2.577   7.479 -0.3931  0.3881 -0.2227
 2102SOL    HW1 7356   5.375   2.566   7.559 -1.6257  0.0491  0.5576
 2102SOL    HW2 7357   5.377   2.537   7.410  1.7775  2.7711 -0.0624
 2103SOL     OW 7358   6.430   0.687   4.283  0.6824 -0.5391 -0.1678
 2103SOL    HW1 7359   6.435   0.781   4.269 -0.4849 -0.7428 -2.4544
 2103SOL    HW2 7360   6.511   0.653   4.244  0.8596 -0.5291  0.1891
 2104SOL     OW 7361   1.333   6.960   6.053  0.1057  0.0506 -0.0588
 2104SOL    HW1 7362   1.296   6.895   5.994  1.6189 -0.0479 -0.9531
 2104SOL    HW2 7363   1.276   6.958   6.130 -0.6744 -1.3373 -0.6400
 2105SOL     OW 7364   7.327   7.398   4.213 -0.1288 -0.0120  0.4984
 2105SOL    HW1 7365   7.380   7.473   4.239 -1.0234  0.9695 -0.3581
 2105SOL    HW2 7366   7.336   7.395   4.117 -0.6000 -0.6157  0.4674
 2106SOL     OW 7367   3.737   0.494   1.442  0.5460  0.2030  0.1249
 2106SOL    HW1 7368   3.794   0.477   1.367  1.1661 -2.8850  1.1393
 2106SOL    HW2 7369   3.716   0.407   1.476 -0.2948  1.4577  3.1149
 2107SOL     OW 7370   0.778   5.063   7.380  0.3624  0.0520 -0.4529
 2107SOL    HW1 7371   0.687   5.090   7.372  0.6470  0.6548 -1.9524
 2107SOL    HW2 7372   0.810   5.111   7.457 -0.7491 -0.7610  0.5646
 2108SOL     OW 7373   1.772   6.233   7.939  0.3422 -0.0647 -1.0999
 2108SOL    HW1 7374   1.685   6.229   7.901 -0.0035  1.3790 -0.5289
 2108SOL    HW2 7375   1.798   6.141   7.951 -0.8048 -0.5047 -1.9076
 2109SOL     OW 7376   0.383   5.553   6.405  0.1906  0.5499 -0.2523
 2109SOL    HW1 7377   0.388   5.638   6.360  0.0562  1.7295  1.8387
 2109SOL    HW2 7378   0.392   5.488   6.335 -1.0971  2.2564 -2.1113
 2110SOL     OW 7379   6.136   3.381   7.204  0.3014 -0.2783 -0.3937
 2110SOL    HW1 7380   6.060   3.364   7.148  0.3464 -1.7754 -0.0380
 2110SOL    HW2 7381   6.202   3.320   7.173  0.6141 -0.5248  0.7488
 2111SOL     OW 7382   8.199   8.045   1.894  0.1066 -0.2652 -0.0260
 2111SOL    HW1 7383   8.200   8.057   1.989  3.7505 -0.4047  0.0688
 2111SOL    HW2 7384   8.215   8.133   1.859 -2.2672 -0.0121 -0.6500
 2112SOL     OW 7385   6.238   0.019   0.187  0.5418  0.8463  0.8818
 2112SOL    HW1 7386   6.268   0.070   0.111 -0.7022  0.5755  0.1846
 2112SOL    HW2 7387   6.308  -0.046   0.200  1.0728  1.2992  0.3693
 2113SOL     OW 7388   3.061   5.258   6.310 -0.0185  0.5691  0.2787
 2113SOL    HW1 7389   3.040   5.282   6.401  0.1418  1.0292  0.1948
 2113SOL    HW2 7390   3.136   5.313   6.287  1.3375 -1.0721  0.5778
 2114SOL     OW 7391   7.732   7.224   7.843 -0.3873  0.0424 -0.2306
 2114SOL    HW1 7392   7.809   7.249   7.893 -2.2340  2.0546  1.8129
 2114SOL    HW2 7393   7.727   7.129   7.853  1.9753 -0.2051 -0.7769
 2115SOL     OW 7394   4.007   2.330   4.434  0.1473 -0.0158  0.1516
 2115SOL    HW1 7395   4.092   2.319   4.390  1.6251 -0.8584  2.9118
 2115SOL    HW2 7396   3.943   2.302   4.369  1.8898  1.1729 -2.2525
 2116SOL     OW 7397   2.813   1.338   4.064 -0.5445  0.4918  0.2065
 2116SOL    HW1 7398   2.884   1.285   4.026 -0.1645 -1.2135  3.0313
 2116SOL    HW2 7399   2.858   1.401   4.120 -1.1745  1.4834 -0.3751
 2117SOL     OW 7400   0.669   2.908   7.310 -0.2626 -0.1002  0.3382
 2117SOL    HW1 7401   0.748   2.963   7.307  0.2172 -0.7519  0.7019
 2117SOL    HW2 7402   0.603   2.964   7.352  0.3093  0.1049  0.9980
 2118SOL     OW 7403   4.267   6.966   2.333  0.1319 -0.1512 -0.3194
 2118SOL    HW1 7404   4.226   6.884   2.306 -0.6366 -1.0976  3.1977
 2118SOL    HW2 7405   4.205   7.033   2.306 -0.9152 -1.0650 -0.2719
 2119SOL     OW 7406   2.978   1.333   5.137 -0.3671  0.0277  0.2510
 2119SOL    HW1 7407   2.890   1.350   5.170 -0.4767  0.6913 -0.3660
 2119SOL    HW2 7408   2.984   1.238   5.133 -1.1985 -0.0192 -0.0554
 2120SOL     OW 7409   7.309   4.331   7.202 -0.4570  0.3039 -0.5851
 2120SOL    HW1 7410   7.287   4.310   7.111 -0.4317  0.1909 -0.5645
 2120SOL    HW2 7411   7.382   4.274   7.224 -0.4112  0.3870 -0.5187
 2121SOL     OW 7412   1.778   0.291   2.499  0.2755 -0.1717  0.0212
 2121SOL    HW1 7413   1.772   0.197   2.516 -0.7805 -0.0585  0.3369
 2121SOL    HW2 7414   1.841   0.323   2.564 -1.3250 -0.2622  1.6905
 2122SOL     OW 7415   4.307   3.889   0.918  0.7186  0.3956  0.3601
 2122SOL    HW1 7416   4.378   3.954   0.919  0.8676  0.3058 -1.5548
 2122SOL    HW2 7417   4.292   3.869   1.011  0.9256  2.8630  1.0010
 2123SOL     OW 7418   7.687   1.818   7.731 -0.0416 -0.6475  0.3044
 2123SOL    HW1 7419   7.687   1.850   7.641  0.8978  1.4521  0.9937
 2123SOL    HW2 7420   7.779   1.797   7.748 -0.1901 -0.8677  0.8338
 2124SOL     OW 7421   5.112   3.011   3.358 -0.7581 -0.3958  0.2578
 2124SOL    HW1 7422   5.111   3.039   3.267 -0.6241  0.0329  0.3878
 2124SOL    HW2 7423   5.139   2.919   3.354  0.1132 -0.1411 -0.0699
 2125SOL     OW 7424   2.155   6.697   5.355 -0.0672 -0.2250  0.2413
 2125SOL    HW1 7425   2.185   6.661   5.271 -3.3718  0.0811 -1.2467
 2125SOL    HW2 7426   2.132   6.620   5.407  0.2154 -0.4023  0.1062
 2126SOL     OW 7427   5.321   4.736   2.408 -0.3085 -0.1910 -0.4659
 2126SOL    HW1 7428   5.357   4.699   2.488 -0.6615  0.5556  0.0569
 2126SOL    HW2 7429   5.258   4.802   2.439  3.1982  3.9592 -1.1770
 2127SOL     OW 7430   7.520   7.707   3.952 -0.2930 -0.1097  0.1460
 2127SOL    HW1 7431   7.483   7.675   4.034 -0.5041 -1.7922 -0.5804
 2127SOL    HW2 7432   7.599   7.755   3.979  0.3264 -1.6642  1.2688
 2128SOL     OW 7433   2.173   0.498   5.546 -0.1266  0.1452  0.1125
 2128SOL    HW1 7434   2.208   0.570   5.599  0.0758 -1.0907  1.7768
 2128SOL    HW2 7435   2.194   0.521   5.456 -1.7251  3.0481  0.3730
 2129SOL     OW 7436   6.406   6.334   1.832  0.3059  0.2555  0.5058
 2129SOL    HW1 7437   6.439   6.389   1.760  0.0391  0.7267  0.7409
 2129SOL    HW2 7438   6.405   6.393   1.908  2.0401 -0.6234  1.2677
 2130SOL     OW 7439   2.942   1.399   4.863  0.5951 -0.1335 -0.0527
 2130SOL    HW1 7440   2.857   1.438   4.843  0.1923 -0.3278  1.2074
 2130SOL    HW2 7441   2.943   1.390   4.959  2.4091  0.7274  0.0640
 2131SOL     OW 7442   2.014   7.417   4.785 -0.2821  0.0115  0.1811
 2131SOL    HW1 7443   1.944   7.463   4.831 -2.4211 -0.3734 -2.4175
 2131SOL    HW2 7444   2.091   7.474   4.795 -1.5626  1.6705  1.1565
 2132SOL     OW 7445   2.713   6.124   7.912 -0.0019 -0.0547 -0.0414
 2132SOL    HW1 7446   2.709   6.137   8.007  0.0837  0.5632 -0.1163
 2132SOL    HW2 7447   2.795   6.076   7.898 -0.9408 -1.8613  0.3594
 2133SOL     OW 7448   3.168   4.177   0.037  0.0351 -0.7964 -0.2542
 2133SOL    HW1 7449   3.212   4.145   0.116  0.7958 -0.2948 -0.4655
 2133SOL    HW2 7450   3.081   4.205   0.068  0.6066  0.1469  0.5627
 2134SOL     OW 7451   0.484   1.285   4.764 -0.1683  0.7436 -0.3010
 2134SOL    HW1 7452   0.442   1.254   4.844 -1.1253  4.1074  0.7009
 2134SOL    HW2 7453   0.434   1.246   4.693 -1.3868  0.2326  0.8060
 2135SOL     OW 7454   0.361   2.934   7.045 -1.1868 -0.1456  0.6507
 2135SOL    HW1 7455   0.422   2.904   6.978 -1.2819  0.1697  0.4211
 2135SOL    HW2 7456   0.380   2.879   7.121  0.6957  1.1906  1.2095
 2136SOL     OW 7457   4.268   4.144   2.265 -0.2013  0.2859  0.1265
 2136SOL    HW1 7458   4.296   4.144   2.356  0.0338 -0.7133  0.0667
 2136SOL    HW2 7459   4.285   4.234   2.235  0.8679  0.2976  0.7148
 2137SOL     OW 7460   0.063   1.299   4.935 -0.1997 -0.1439  0.3803
 2137SOL    HW1 7461   0.148   1.256   4.942  0.5846  1.2541  0.0345
 2137SOL    HW2 7462   0.085   1.391   4.915 -1.7727  0.4459  1.2171
 2138SOL     OW 7463   4.188   6.951   3.233 -0.3560 -0.4870  0.2499
 2138SOL    HW1 7464   4.275   6.943   3.272 -0.1394  0.0880 -0.0952
 2138SOL    HW2 7465   4.200   7.014   3.162 -1.4118  1.0038  1.3265
 2139SOL     OW 7466   6.711   6.015   4.500 -0.5398 -0.0150  0.1427
 2139SOL    HW1 7467   6.677   6.075   4.566  1.2378  2.0648 -0.6887
 2139SOL    HW2 7468   6.651   6.023   4.426 -0.8710 -0.0416  0.4089
 2140SOL     OW 7469   2.400   3.475   7.908  0.0214 -0.3064  0.1047
 2140SOL    HW1 7470   2.357   3.422   7.840 -2.1961 -0.3020  1.4284
 2140SOL    HW2 7471   2.423   3.412   7.976 -1.2916  0.1786  1.0332
 2141SOL     OW 7472   7.627   5.229   5.900  0.6732 -0.0465  0.1550
 2141SOL    HW1 7473   7.621   5.323   5.883  0.1824  0.3782  2.3945
 2141SOL    HW2 7474   7.652   5.223   5.992 -2.6445 -2.0930  1.0802
 2142SOL     OW 7475   7.259   2.247   8.149  0.0797  0.1852 -0.3320
 2142SOL    HW1 7476   7.189   2.279   8.092 -0.0319  1.7580  0.6101
 2142SOL    HW2 7477   7.316   2.323   8.161  0.7630 -0.4566  0.6665
 2143SOL     OW 7478   5.002   4.138   7.783 -0.0020 -0.1347  0.3723
 2143SOL    HW1 7479   5.009   4.223   7.739 -1.2200  0.3046  0.9718
 2143SOL    HW2 7480   5.091   4.118   7.811  0.1292  1.5921  1.3791
 2144SOL     OW 7481   3.658   6.301   3.038 -0.0848  0.3704 -0.1082
 2144SOL    HW1 7482   3.695   6.387   3.056  0.7608 -0.0114  0.0274
 2144SOL    HW2 7483   3.607   6.313   2.958  0.4635  0.8764 -0.3904
 2145SOL     OW 7484   0.607   3.974   2.906 -0.2310  0.3719  0.1630
 2145SOL    HW1 7485   0.630   3.971   2.999  0.3274  1.9030  0.0947
 2145SOL    HW2 7486   0.512   3.986   2.905 -0.2615  0.1791  0.5220
 2146SOL     OW 7487   6.256   7.643   2.024  0.3287  0.2599 -0.1308
 2146SOL    HW1 7488   6.293   7.561   2.056 -1.2697 -0.8976 -1.1197
 2146SOL    HW2 7489   6.258   7.635   1.929 -2.3655  0.1165 -0.2502
 2147SOL     OW 7490   7.516   5.147   0.897  0.1634 -0.4062  0.4922
 2147SOL    HW1 7491   7.449   5.214   0.885  0.2290 -0.5563 -0.9221
 2147SOL    HW2 7492   7.547   5.128   0.808  1.9428 -0.4732  1.0881
 2148SOL     OW 7493   0.963   2.838   4.296 -0.1303 -0.1843 -0.0507
 2148SOL    HW1 7494   0.940   2.930   4.282  2.7864  0.3130 -2.7142
 2148SOL    HW2 7495   0.898   2.789   4.245  0.6790  0.7361 -2.0632
 2149SOL     OW 7496   7.966   4.819   6.146 -0.3031  0.2828  0.5391
 2149SOL    HW1 7497   7.944   4.739   6.194 -1.5689  0.2509 -0.0518
 2149SOL    HW2 7498   7.884   4.845   6.104  0.0960  1.8707  0.6789
 2150SOL     OW 7499   2.262   1.915   0.893  1.4458 -0.1221  0.2729
 2150SOL    HW1 7500   2.334   1.930   0.953  1.2032  0.1924  0.4878
 2150SOL    HW2 7501   2.302   1.921   0.806  1.1760  3.1019  0.2617
 2151SOL     OW 7502   1.616   3.104   4.465 -0.3933 -0.3075  0.4407
 2151SOL    HW1 7503   1.658   3.044   4.527  1.0409  0.0995 -0.0963
 2151SOL    HW2 7504   1.528   3.067   4.452 -0.3332 -1.0087  1.8510
 2152SOL     OW 7505   1.565   1.525   1.627 -0.5180 -0.1176  0.4816
 2152SOL    HW1 7506   1.632   1.559   1.687 -0.7043 -0.1497  0.7101
 2152SOL    HW2 7507   1.492   1.501   1.684 -0.0936 -1.6499  0.4283
 2153SOL     OW 7508   1.042   5.065   2.640 -0.3989  0.2964  0.2551
 2153SOL    HW1 7509   0.990   5.005   2.693 -1.7574  1.1639 -0.0461
 2153SOL    HW2 7510   1.038   5.148   2.687 -1.5409  1.0557 -1.1256
 2154SOL     OW 7511   4.940   7.378   4.305  0.8771  0.2155 -0.0495
 2154SOL    HW1 7512   4.916   7.443   4.239 -3.0117 -0.5136  0.3740
 2154SOL    HW2 7513   4.879   7.305   4.290  1.0720 -0.7662  3.1383
 2155SOL     OW 7514   8.116   7.515   3.448  0.6587  0.3779  0.0696
 2155SOL    HW1 7515   8.034   7.541   3.490  0.2681  1.1422 -1.0979
 2155SOL    HW2 7516   8.162   7.464   3.514 -0.7159  0.0117  0.7840
 2156SOL     OW 7517   4.831   3.261   5.475  0.1267 -0.1775  0.0608
 2156SOL    HW1 7518   4.832   3.207   5.554 -0.1940 -1.2566 -0.6615
 2156SOL    HW2 7519   4.827   3.199   5.403 -0.1304  0.8082 -0.7993
 2157SOL     OW 7520   7.103   6.539   7.701  0.1270  0.0078 -0.2777
 2157SOL    HW1 7521   7.178   6.596   7.716 -0.3445  0.7456 -0.6263
 2157SOL    HW2 7522   7.031   6.599   7.682 -0.5154 -0.6901 -0.1078
 2158SOL     OW 7523   2.637   4.226   7.204  0.2986 -0.2197 -0.2045
 2158SOL    HW1 7524   2.638   4.133   7.225 -2.9147 -0.0655  1.2240
 2158SOL    HW2 7525   2.700   4.265   7.264 -0.5771 -1.1728  1.4054
 2159SOL     OW 7526   4.795   2.749   1.895 -0.1864 -0.6163  0.1426
 2159SOL    HW1 7527   4.751   2.778   1.975  0.0606 -2.2898  0.9306
 2159SOL    HW2 7528   4.736   2.683   1.858  0.5757 -1.2104 -0.0301
 2160SOL     OW 7529   3.256   5.976   3.320 -0.2542  0.3687 -0.1367
 2160SOL    HW1 7530   3.315   6.027   3.375 -0.7343  1.3359 -0.4847
 2160SOL    HW2 7531   3.303   5.895   3.302  0.7855  0.9377 -0.0536
 2161SOL     OW 7532   1.222   7.615   4.917 -0.2461  0.4877  0.0405
 2161SOL    HW1 7533   1.213   7.587   5.008  0.2749 -3.9719 -1.0429
 2161SOL    HW2 7534   1.134   7.607   4.881 -0.4895  2.4335  0.0792
 2162SOL     OW 7535   2.409   4.967   0.494  0.7934 -0.0691  0.1072
 2162SOL    HW1 7536   2.373   4.938   0.578 -0.1672 -1.0514 -0.6081
 2162SOL    HW2 7537   2.396   4.892   0.435  3.8233 -0.3835 -0.2952
 2163SOL     OW 7538   1.917   1.595   2.302 -0.0587  0.4614 -0.0589
 2163SOL    HW1 7539   1.957   1.511   2.281 -2.4264 -0.8126  0.2046
 2163SOL    HW2 7540   1.867   1.618   2.224  1.9002  2.5582 -0.7963
 2164SOL     OW 7541   7.507   6.864   5.022  0.1556 -0.0807  0.1702
 2164SOL    HW1 7542   7.544   6.781   5.053  1.1220  0.6051  0.8988
 2164SOL    HW2 7543   7.448   6.838   4.950  0.0187 -1.4405  0.7321
 2165SOL     OW 7544   4.693   7.355   3.678  0.2382  0.2617  0.0239
 2165SOL    HW1 7545   4.772   7.303   3.690  0.7990  1.2353  0.7178
 2165SOL    HW2 7546   4.621   7.295   3.696  0.8724 -0.2581  0.8597
 2166SOL     OW 7547   1.854   4.354   6.330  0.2529 -0.3420 -0.6638
 2166SOL    HW1 7548   1.859   4.260   6.319  1.3121 -0.2287 -1.2978
 2166SOL    HW2 7549   1.793   4.384   6.263 -1.1183 -0.6842  0.3760
 2167SOL     OW 7550   2.341   0.752   2.277 -0.2071 -0.3417 -0.5246
 2167SOL    HW1 7551   2.294   0.822   2.323  0.0561 -0.2127 -0.4490
 2167SOL    HW2 7552   2.419   0.737   2.329  0.9429  0.9504 -1.7680
 2168SOL     OW 7553   3.912   6.117   5.556 -0.0754  0.4281 -0.1319
 2168SOL    HW1 7554   3.869   6.129   5.472 -1.6053  0.2331  0.5931
 2168SOL    HW2 7555   3.959   6.199   5.571 -0.3251  0.7101 -0.8808
 2169SOL     OW 7556   1.363   0.947   1.325  0.2858  0.0596  0.1840
 2169SOL    HW1 7557   1.344   0.988   1.409  0.3532 -0.6195  0.5437
 2169SOL    HW2 7558   1.370   0.854   1.345  0.0865 -0.1387 -0.6145
 2170SOL     OW 7559   3.475   4.991   3.123  0.0718  0.0514 -0.5179
 2170SOL    HW1 7560   3.526   4.952   3.194 -0.2175  1.4425  0.5072
 2170SOL    HW2 7561   3.498   4.939   3.046  1.4222 -0.6750  0.3211
 2171SOL     OW 7562   3.695   6.706   3.875  0.0662 -0.2138 -0.6869
 2171SOL    HW1 7563   3.722   6.615   3.886  1.4494  0.1901 -0.5728
 2171SOL    HW2 7564   3.754   6.741   3.808 -1.0728  0.3466 -1.4314
 2172SOL     OW 7565   2.140   7.075   7.767 -0.6251  0.4345  0.1770
 2172SOL    HW1 7566   2.183   6.993   7.790 -0.9003  0.0005 -0.8270
 2172SOL    HW2 7567   2.148   7.129   7.846 -1.0449 -0.7954  1.0853
 2173SOL     OW 7568   7.008   1.399   5.686  0.3851 -0.2020  0.4463
 2173SOL    HW1 7569   7.081   1.393   5.748  0.2240 -1.4552  0.5444
 2173SOL    HW2 7570   7.015   1.319   5.633  1.2024  1.3566 -1.9541
 2174SOL     OW 7571   4.263   1.948   3.680  0.4169 -0.1011 -0.6815
 2174SOL    HW1 7572   4.252   1.998   3.761 -1.0335 -0.9805 -0.3045
 2174SOL    HW2 7573   4.174   1.926   3.653  0.9488 -1.0297 -1.7494
 2175SOL     OW 7574   4.112   0.449   3.969  0.1825  0.3856 -0.3095
 2175SOL    HW1 7575   4.074   0.368   3.935 -0.5636  0.4193  0.4054
 2175SOL    HW2 7576   4.136   0.499   3.891  0.9620 -0.6529 -0.7605
 2176SOL     OW 7577   3.777   6.608   8.113 -0.0414 -0.1120 -0.0704
 2176SOL    HW1 7578   3.803   6.666   8.041  0.3734  1.3699  1.2209
 2176SOL    HW2 7579   3.766   6.522   8.072  1.4664  0.4073 -1.6743
 2177SOL     OW 7580   7.269   0.428   5.659 -0.5813  0.6979  0.4958
 2177SOL    HW1 7581   7.215   0.396   5.587  0.5026  0.4097 -0.2214
 2177SOL    HW2 7582   7.341   0.365   5.664 -0.4725  0.8969  1.6261
 2178SOL     OW 7583   0.956   1.255   0.976  0.0982  0.2726 -0.0974
 2178SOL    HW1 7584   0.925   1.345   0.977 -2.1135 -0.4134 -1.0426
 2178SOL    HW2 7585   0.984   1.240   0.886 -0.0929 -0.1590 -0.0874
 2179SOL     OW 7586   0.396   5.318   1.881 -0.0637 -0.2759  0.1787
 2179SOL    HW1 7587   0.481   5.277   1.864  0.4167  0.4627  0.7011
 2179SOL    HW2 7588   0.402   5.403   1.838  0.3741  0.7522  2.1612
 2180SOL     OW 7589   2.837   4.726   7.704  0.1644 -0.4383  0.4363
 2180SOL    HW1 7590   2.882   4.778   7.638  0.9900 -1.6980 -0.0475
 2180SOL    HW2 7591   2.884   4.744   7.785 -0.2385  0.3753  0.4947
 2181SOL     OW 7592   7.098   1.744   4.232  0.3244  0.3964 -0.2100
 2181SOL    HW1 7593   7.058   1.672   4.280 -0.3128  0.9064  0.0414
 2181SOL    HW2 7594   7.187   1.751   4.268  0.5302 -0.5162 -0.5235
 2182SOL     OW 7595   5.582   6.153   1.685 -0.0260 -0.1767 -0.4587
 2182SOL    HW1 7596   5.622   6.107   1.759  0.9871 -1.2302 -1.6058
 2182SOL    HW2 7597   5.494   6.175   1.716  0.6218  0.1362  1.3241
 2183SOL     OW 7598   1.009   0.936   6.623  0.8443 -0.1570  0.1314
 2183SOL    HW1 7599   1.082   0.880   6.597 -0.8407 -2.7398  0.6074
 2183SOL    HW2 7600   0.998   0.920   6.716  0.4672  1.1884  0.3312
 2184SOL     OW 7601   1.263   5.361   5.156 -0.2416 -0.2784  0.1896
 2184SOL    HW1 7602   1.248   5.281   5.106 -2.3908 -0.0322  0.3663
 2184SOL    HW2 7603   1.308   5.331   5.235  2.4588 -0.7751 -1.3961
 2185SOL     OW 7604   4.564   6.797   4.358  0.2287 -0.1420 -0.1176
 2185SOL    HW1 7605   4.616   6.877   4.365  0.7049 -0.5040  0.5105
 2185SOL    HW2 7606   4.486   6.815   4.410 -0.4624  0.5289 -1.3364
 2186SOL     OW 7607   4.751   3.447   1.872 -0.0998 -0.3243  0.2232
 2186SOL    HW1 7608   4.785   3.408   1.791  0.2879  1.6667 -0.6186
 2186SOL    HW2 7609   4.657   3.428   1.870 -0.3021  0.6521 -1.3003
 2187SOL     OW 7610   6.163   1.532   2.905  0.2800 -0.2394  0.6439
 2187SOL    HW1 7611   6.256   1.525   2.882  0.5391  1.7518  0.8974
 2187SOL    HW2 7612   6.163   1.573   2.992 -0.8103  2.8970 -0.6804
 2188SOL     OW 7613   5.911   4.679   1.752 -0.0256  0.1296  0.3699
 2188SOL    HW1 7614   5.906   4.622   1.829 -2.5584  1.6261  1.4512
 2188SOL    HW2 7615   5.875   4.626   1.681  1.8175 -1.0716  0.2686
 2189SOL     OW 7616   6.706   0.452   6.844 -0.9129 -0.2171  0.2787
 2189SOL    HW1 7617   6.618   0.438   6.880 -0.7759 -1.4899  0.1643
 2189SOL    HW2 7618   6.764   0.434   6.917 -0.7357  0.7965  0.4021
 2190SOL     OW 7619   6.395   7.818   2.384 -0.5331  0.4046  0.2367
 2190SOL    HW1 7620   6.485   7.833   2.410 -1.1652  1.8618  1.7158
 2190SOL    HW2 7621   6.398   7.818   2.288  0.8467  1.7531  0.2362
 2191SOL     OW 7622   3.465   7.782   3.459  0.3799 -0.5310 -0.0590
 2191SOL    HW1 7623   3.387   7.760   3.510  0.9718 -1.6120  0.3970
 2191SOL    HW2 7624   3.435   7.850   3.399 -0.9158 -0.9432  0.0915
 2192SOL     OW 7625   1.344   8.279   1.049 -0.2055  0.0111  0.3297
 2192SOL    HW1 7626   1.289   8.296   1.125  0.4056  0.6540  0.6343
 2192SOL    HW2 7627   1.412   8.346   1.052 -1.3342  1.4072 -1.9318
 2193SOL     OW 7628   5.744   7.925   1.708 -0.1949  0.9454 -0.5444
 2193SOL    HW1 7629   5.761   7.960   1.796 -1.6504 -1.0439  0.6256
 2193SOL    HW2 7630   5.693   7.993   1.665 -0.8845  1.2945  0.7632
 2194SOL     OW 7631   2.808   1.618   3.170 -0.6073  0.1818 -0.2030
 2194SOL    HW1 7632   2.887   1.581   3.210 -0.3726  1.8090  0.9019
 2194SOL    HW2 7633   2.744   1.619   3.241 -1.5284 -0.7467 -0.9915
 2195SOL     OW 7634   6.196   3.893   7.269  0.3898 -0.7362  0.0107
 2195SOL    HW1 7635   6.150   3.881   7.185  0.5787 -0.6120 -0.1116
 2195SOL    HW2 7636   6.229   3.807   7.291  1.3184 -0.5503 -0.6153
 2196SOL     OW 7637   6.690   0.543   1.860  0.6274  0.0790  0.2248
 2196SOL    HW1 7638   6.618   0.480   1.850  1.1272 -0.2786 -1.5359
 2196SOL    HW2 7639   6.676   0.582   1.946 -1.0966 -0.7023  0.3478
 2197SOL     OW 7640   2.525   2.181   2.620 -0.3368 -0.0699 -0.6258
 2197SOL    HW1 7641   2.458   2.115   2.599 -0.6762  0.0347  0.1266
 2197SOL    HW2 7642   2.608   2.138   2.598 -0.5883 -0.5640 -0.6282
 2198SOL     OW 7643   2.741   2.944   3.059 -0.3615 -0.2359 -0.2735
 2198SOL    HW1 7644   2.713   2.990   3.138 -0.6086 -0.0419 -0.4747
 2198SOL    HW2 7645   2.833   2.970   3.047 -0.6218  0.5323 -0.6241
 2199SOL     OW 7646   0.906   7.674   8.104  0.3164  0.1043 -0.2438
 2199SOL    HW1 7647   0.820   7.637   8.128  1.0699 -1.7151 -0.2069
 2199SOL    HW2 7648   0.936   7.717   8.184  1.4706 -3.3319  1.3514
 2200SOL     OW 7649   2.803   3.194   6.043  0.4003 -0.1720  0.0478
 2200SOL    HW1 7650   2.889   3.162   6.071  0.4979  0.0072 -0.0396
 2200SOL    HW2 7651   2.799   3.284   6.077  0.1218 -0.2830  0.3102
 2201SOL     OW 7652   1.151   3.267   6.877  0.0010 -0.0230  0.9946
 2201SOL    HW1 7653   1.246   3.277   6.890  0.4758 -0.8689 -1.3774
 2201SOL    HW2 7654   1.136   3.173   6.891  0.5208 -0.9834 -3.4732
 2202SOL     OW 7655   8.128   3.433   4.456  0.6787 -0.1576 -0.1164
 2202SOL    HW1 7656   8.101   3.374   4.386 -0.3341 -0.7731  0.7471
 2202SOL    HW2 7657   8.137   3.518   4.414 -1.8491 -0.0799 -0.6741
 2203SOL     OW 7658   1.332   5.625   7.394 -0.7535  0.2557  0.2468
 2203SOL    HW1 7659   1.299   5.555   7.338 -0.8963 -0.5160  1.2512
 2203SOL    HW2 7660   1.333   5.702   7.338 -2.2209 -0.1644 -0.4317
 2204SOL     OW 7661   7.019   6.702   7.931 -0.1006  0.1339 -0.5554
 2204SOL    HW1 7662   7.000   6.719   7.838 -0.7807 -2.0051 -0.8445
 2204SOL    HW2 7663   6.944   6.653   7.962  1.7962 -2.6081  0.0773
 2205SOL     OW 7664   0.936   6.714   6.587  0.3938 -0.0861 -0.3733
 2205SOL    HW1 7665   0.888   6.720   6.670  0.1569  0.2939 -0.5367
 2205SOL    HW2 7666   1.021   6.676   6.612 -0.1121 -1.0914 -0.1406
 2206SOL     OW 7667   2.032   8.142   6.770  0.4105 -0.0327  0.5779
 2206SOL    HW1 7668   1.954   8.185   6.805  0.2531 -0.2327  0.4784
 2206SOL    HW2 7669   2.045   8.182   6.684 -0.9384 -1.5845 -0.4142
 2207SOL     OW 7670   0.497   7.116   1.964  0.4105 -0.2834 -0.2479
 2207SOL    HW1 7671   0.428   7.072   1.914 -0.6216  0.9050  0.0904
 2207SOL    HW2 7672   0.567   7.051   1.971  0.2924 -0.7332 -2.5925
 2208SOL     OW 7673   7.999   2.981   1.080  0.0987 -0.1512  0.1146
 2208SOL    HW1 7674   7.913   3.016   1.101  0.3423  0.6064 -0.1294
 2208SOL    HW2 7675   7.988   2.886   1.087 -0.6060 -0.0391  0.6313
 2209SOL     OW 7676   1.451   3.336   0.573  0.2447 -0.4920  0.1255
 2209SOL    HW1 7677   1.392   3.376   0.638  1.4336 -0.6557  1.3469
 2209SOL    HW2 7678   1.467   3.248   0.607  1.3205 -0.3874 -0.0983
 2210SOL     OW 7679   0.901   2.230   0.571 -0.2934 -0.5810  0.1540
 2210SOL    HW1 7680   0.811   2.206   0.548  0.5521 -3.0867 -0.8457
 2210SOL    HW2 7681   0.919   2.180   0.651  0.3671 -0.5092  0.0539
 2211SOL     OW 7682   0.299   0.185   6.923 -0.1939  0.3186  0.7070
 2211SOL    HW1 7683   0.311   0.095   6.892 -0.4417  0.2570  0.7882
 2211SOL    HW2 7684   0.381   0.207   6.965 -0.1312  0.1296  0.6854
 2212SOL     OW 7685   0.567   6.060   2.395 -0.0616  0.0932 -0.2545
 2212SOL    HW1 7686   0.529   6.141   2.429  0.9141  0.5409 -0.1852
 2212SOL    HW2 7687   0.531   5.991   2.451  0.7456  0.7083  1.0851
 2213SOL     OW 7688   6.101   8.281   3.709  0.1577  0.1310  0.4406
 2213SOL    HW1 7689   6.135   8.237   3.631  0.0761 -0.7902  0.9033
 2213SOL    HW2 7690   6.007   8.262   3.708 -0.0307  1.0543  0.1782
 2214SOL     OW 7691   7.578   4.832   0.527 -0.2752 -0.5490  0.4206
 2214SOL    HW1 7692   7.632   4.763   0.565  2.8132 -0.7987 -3.7988
 2214SOL    HW2 7693   7.523   4.787   0.462 -1.6078  0.4723  0.7756
 2215SOL     OW 7694   6.324   0.813   6.902  0.2640 -0.4523 -0.3657
 2215SOL    HW1 7695   6.364   0.748   6.960  0.3693 -0.0264  0.0466
 2215SOL    HW2 7696   6.334   0.896   6.949  0.7342 -0.0379 -1.1793
 2216SOL     OW 7697   0.802   4.894   0.588  0.3772  0.0465  0.2292
 2216SOL    HW1 7698   0.844   4.975   0.616  0.9408  0.1396 -0.8153
 2216SOL    HW2 7699   0.717   4.922   0.555  0.5947  0.2317 -0.1861
 2217SOL     OW 7700   2.209   7.153   3.051  0.0365 -0.0502  0.2332
 2217SOL    HW1 7701   2.172   7.190   3.131 -2.5045 -1.1064 -0.3715
 2217SOL    HW2 7702   2.201   7.222   2.986  0.6323  0.2555  0.4716
 2218SOL     OW 7703   1.405   3.049   1.691  0.1915 -0.0243 -0.4973
 2218SOL    HW1 7704   1.323   3.027   1.734  1.0438 -0.8766  0.7715
 2218SOL    HW2 7705   1.449   3.109   1.752  0.5459  0.3707 -1.1262
 2219SOL     OW 7706   6.109   7.192   1.952  0.4788  0.2960  0.9190
 2219SOL    HW1 7707   6.093   7.098   1.936 -0.9268  0.8734 -1.5609
 2219SOL    HW2 7708   6.033   7.220   2.002  0.9607  0.1340  1.7714
 2220SOL     OW 7709   3.573   5.051   5.204 -0.2217 -0.1495  0.1680
 2220SOL    HW1 7710   3.595   5.113   5.135 -0.6780 -1.9484 -1.7017
 2220SOL    HW2 7711   3.655   5.037   5.250  0.2287  0.6861 -0.3581
 2221SOL     OW 7712   3.940   4.945   4.269  0.2272  0.3594  0.1321
 2221SOL    HW1 7713   3.942   5.028   4.316  0.4418  0.6202 -0.3313
 2221SOL    HW2 7714   3.853   4.909   4.286  0.7319 -0.1766  1.7942
 2222SOL     OW 7715   8.263   3.727   1.311 -0.0592 -0.4564 -1.0710
 2222SOL    HW1 7716   8.283   3.815   1.341 -1.3711 -0.7990  1.0130
 2222SOL    HW2 7717   8.171   3.732   1.283  0.2461 -0.8834 -2.2081
 2223SOL     OW 7718   3.590   3.044   7.052  0.5822  0.3864  0.2454
 2223SOL    HW1 7719   3.508   3.059   7.004  0.0931  0.3051  1.0262
 2223SOL    HW2 7720   3.571   2.969   7.108  0.2324  2.0783  2.5081
 2224SOL     OW 7721   5.002   5.565   2.093 -0.3423 -0.2065 -0.0120
 2224SOL    HW1 7722   4.917   5.556   2.137 -0.7169  0.0348 -0.6810
 2224SOL    HW2 7723   5.030   5.654   2.115 -0.6045 -0.0281 -0.3742
 2225SOL     OW 7724   6.600   4.647   2.889  0.1126  0.2630 -0.2241
 2225SOL    HW1 7725   6.601   4.696   2.971  0.5442 -1.2043  0.6840
 2225SOL    HW2 7726   6.619   4.557   2.915  2.6569  0.1366 -2.1900
 2226SOL     OW 7727   7.945   3.179   5.016  0.7463 -0.0281 -0.2101
 2226SOL    HW1 7728   7.900   3.212   4.938  0.6754  0.6827  0.1299
 2226SOL    HW2 7729   7.931   3.246   5.083  1.6412 -0.1665  0.1332
 2227SOL     OW 7730   1.440   0.804   3.841 -0.1146  0.4410  0.6509
 2227SOL    HW1 7731   1.478   0.765   3.920 -1.7956 -0.0723  1.2624
 2227SOL    HW2 7732   1.495   0.774   3.770 -0.1291 -1.3707  1.3495
 2228SOL     OW 7733   6.104   1.891   4.661 -0.3559 -0.3324  0.2495
 2228SOL    HW1 7734   6.021   1.843   4.655 -0.4304 -0.1060 -0.9265
 2228SOL    HW2 7735   6.092   1.965   4.601  0.9792 -0.7374 -0.5517
 2229SOL     OW 7736   4.824   1.489   4.231  0.8397 -0.4211 -0.4068
 2229SOL    HW1 7737   4.809   1.545   4.155  0.5785 -1.1192 -0.8795
 2229SOL    HW2 7738   4.800   1.401   4.202  0.6641 -0.6906  0.5069
 2230SOL     OW 7739   6.400   6.418   1.384 -0.4143  0.0299  0.1227
 2230SOL    HW1 7740   6.443   6.481   1.326 -0.3777 -1.4826 -1.5931
 2230SOL    HW2 7741   6.443   6.335   1.365 -0.2427 -0.5040  2.5448
 2231SOL     OW 7742   8.252   2.547   5.672 -0.0214  0.0324  0.5522
 2231SOL    HW1 7743   8.321   2.488   5.702 -0.4079 -0.8640 -0.2993
 2231SOL    HW2 7744   8.295   2.633   5.669  0.5255 -0.1730  1.8358
 2232SOL     OW 7745   5.400   4.078   3.048 -0.3758 -0.1622  0.5164
 2232SOL    HW1 7746   5.462   4.137   3.091 -0.1854  0.1644 -0.1974
 2232SOL    HW2 7747   5.439   3.991   3.056 -0.0500 -0.0198  0.4775
 2233SOL     OW 7748   1.265   7.903   4.417 -0.4602  0.7821  0.1461
 2233SOL    HW1 7749   1.235   7.834   4.357  1.5947  1.8591 -2.2837
 2233SOL    HW2 7750   1.190   7.963   4.422 -0.8905  0.3656 -0.8910
 2234SOL     OW 7751   1.030   5.352   2.159 -0.6377 -0.4854  0.3633
 2234SOL    HW1 7752   1.027   5.260   2.186 -2.8388 -0.4232  0.4734
 2234SOL    HW2 7753   1.123   5.374   2.162 -0.1615 -2.3769  1.4423
 2235SOL     OW 7754   1.318   0.323   0.821 -0.5421  0.3146 -0.5227
 2235SOL    HW1 7755   1.250   0.257   0.833 -1.1357  1.0024 -0.0176
 2235SOL    HW2 7756   1.387   0.298   0.883  0.8192 -1.7963 -2.7241
 2236SOL     OW 7757   4.544   5.510   5.011  0.4657  0.3499 -0.6844
 2236SOL    HW1 7758   4.568   5.496   5.103 -0.3415  0.2245 -0.4850
 2236SOL    HW2 7759   4.551   5.424   4.970  1.9087  0.6009 -1.0155
 2237SOL     OW 7760   2.080   4.885   3.677  0.0450 -0.3675 -0.4718
 2237SOL    HW1 7761   2.107   4.793   3.673  2.5805  0.2937 -0.2934
 2237SOL    HW2 7762   2.109   4.922   3.593  2.5051  1.0352  0.8822
 2238SOL     OW 7763   8.238   3.113   3.010  0.1777  0.2312  0.8436
 2238SOL    HW1 7764   8.247   3.037   3.068  3.5180  0.5463  0.9605
 2238SOL    HW2 7765   8.244   3.076   2.922 -0.8497  0.1319  0.8096
 2239SOL     OW 7766   7.352   2.835   3.782 -0.7871  0.8036  0.4833
 2239SOL    HW1 7767   7.442   2.812   3.762 -1.6741 -2.4605 -0.2655
 2239SOL    HW2 7768   7.331   2.785   3.861 -1.3451  3.3323  2.0784
 2240SOL     OW 7769   1.530   1.859   1.282  0.1074  0.2877  0.2524
 2240SOL    HW1 7770   1.496   1.939   1.321 -0.2113  0.1435  0.2711
 2240SOL    HW2 7771   1.596   1.829   1.344 -0.1339  0.2612  0.4982
 2241SOL     OW 7772   1.144   0.361   4.876  0.9841  0.3626 -0.2807
 2241SOL    HW1 7773   1.084   0.431   4.902  0.3177 -0.2530 -0.1418
 2241SOL    HW2 7774   1.230   0.391   4.907  0.4724  0.4210  1.1654
 2242SOL     OW 7775   0.075   5.471   5.761  0.1169 -0.5588  0.5015
 2242SOL    HW1 7776  -0.003   5.438   5.717 -0.5469  1.7404 -0.2060
 2242SOL    HW2 7777   0.149   5.429   5.716 -0.6590 -2.3033  0.7858
 2243SOL     OW 7778   3.257   2.856   6.808  0.3219 -0.1397  0.1954
 2243SOL    HW1 7779   3.187   2.838   6.871 -0.7888 -0.4161 -1.0769
 2243SOL    HW2 7780   3.288   2.943   6.831 -0.1180 -0.2028  1.0696
 2244SOL     OW 7781   5.903   7.847   4.178  0.2962  0.1451  0.1301
 2244SOL    HW1 7782   5.916   7.799   4.260 -0.1812 -1.9940 -0.9457
 2244SOL    HW2 7783   5.967   7.809   4.118 -0.9099 -0.0196 -1.1026
 2245SOL     OW 7784   7.687   5.541   5.871  0.0734  0.0911  0.0055
 2245SOL    HW1 7785   7.628   5.586   5.810  0.7602 -0.8452 -1.3996
 2245SOL    HW2 7786   7.775   5.571   5.846  0.3846 -0.5097  0.3558
 2246SOL     OW 7787   5.124   4.625   6.000  0.1794 -0.1561 -0.6175
 2246SOL    HW1 7788   5.057   4.638   5.933  2.0067  1.9923 -2.1849
 2246SOL    HW2 7789   5.113   4.700   6.059 -0.3708 -1.1727  0.6398
 2247SOL     OW 7790   6.621   0.533   5.762 -0.3892 -0.3362 -0.3627
 2247SOL    HW1 7791   6.600   0.587   5.838  2.2642  0.5544 -0.1322
 2247SOL    HW2 7792   6.555   0.557   5.697 -1.3533  0.5982  0.9099
 2248SOL     OW 7793   5.995   3.561   4.164 -0.1627  0.0584  0.0928
 2248SOL    HW1 7794   6.065   3.498   4.178 -0.4250 -0.3801 -0.5626
 2248SOL    HW2 7795   6.026   3.641   4.208 -0.1443 -0.7175  1.5382
 2249SOL     OW 7796   0.547   7.170   1.190  0.5167 -0.2663  1.1866
 2249SOL    HW1 7797   0.464   7.124   1.193 -0.6500  1.8049  2.9095
 2249SOL    HW2 7798   0.555   7.199   1.099 -0.7184 -0.3530  1.0340
 2250SOL     OW 7799   3.665   3.682   2.771  0.0124  0.2408 -0.1466
 2250SOL    HW1 7800   3.728   3.615   2.798 -0.9539 -0.2317  1.0140
 2250SOL    HW2 7801   3.719   3.753   2.736  1.1937 -0.1085  0.9015
 2251SOL     OW 7802   7.964   7.667   0.135  0.0401  0.3711 -0.8090
 2251SOL    HW1 7803   7.976   7.606   0.062 -0.6648 -1.0401  0.2275
 2251SOL    HW2 7804   8.004   7.624   0.210 -1.5948  0.5607  0.2288
 2252SOL     OW 7805   2.497   7.427   5.054 -0.1892  0.5617 -0.2926
 2252SOL    HW1 7806   2.522   7.342   5.091  0.5933 -0.0474 -2.1300
 2252SOL    HW2 7807   2.577   7.479   5.058  0.2643  0.0794 -2.1579
 2253SOL     OW 7808   6.707   0.034   8.113  0.7638 -0.2847 -0.6539
 2253SOL    HW1 7809   6.717   0.111   8.057  0.8140  0.5311  0.4316
 2253SOL    HW2 7810   6.768   0.050   8.186 -0.0291 -0.8257  0.1396
 2254SOL     OW 7811   7.290   1.795   6.591 -0.4075 -0.2401  0.6212
 2254SOL    HW1 7812   7.339   1.713   6.603 -1.6385 -1.2855 -1.0507
 2254SOL    HW2 7813   7.219   1.772   6.531 -1.1268  1.9430  0.5457
 2255SOL     OW 7814   1.122   3.476   0.246  0.0150  0.5330 -0.3619
 2255SOL    HW1 7815   1.113   3.417   0.171 -2.2346 -0.8767  0.8907
 2255SOL    HW2 7816   1.036   3.475   0.288  0.5788  2.9229  1.0819
 2256SOL     OW 7817   1.861   2.426   0.693  0.2374  0.0937  0.0561
 2256SOL    HW1 7818   1.845   2.430   0.788 -0.2346  1.0616 -0.0499
 2256SOL    HW2 7819   1.832   2.511   0.661 -0.0304 -0.3959 -1.0316
 2257SOL     OW 7820   7.260   2.524   3.135  0.1822  0.0156  0.2570
 2257SOL    HW1 7821   7.299   2.449   3.180 -0.2618 -2.1514 -2.7043
 2257SOL    HW2 7822   7.176   2.492   3.103  0.5950  1.2961 -2.3219
 2258SOL     OW 7823   3.862   8.280   5.267  0.0311  0.3785 -0.5460
 2258SOL    HW1 7824   3.915   8.314   5.338 -1.2953  0.4597  0.4499
 2258SOL    HW2 7825   3.911   8.206   5.232  0.3869 -0.0830  0.8957
 2259SOL     OW 7826   7.079   1.198   6.337  0.0970 -0.1454  0.1494
 2259SOL    HW1 7827   7.121   1.214   6.422 -0.3752  1.3195  0.1439
 2259SOL    HW2 7828   6.989   1.229   6.349 -0.1168 -0.3875 -0.7401
 2260SOL     OW 7829   2.118   0.625   3.343  0.0647 -0.3945  1.0044
 2260SOL    HW1 7830   2.183   0.688   3.313 -0.9480 -0.0652 -0.6492
 2260SOL    HW2 7831   2.129   0.622   3.438  2.0696  0.0774  0.8221
 2261SOL     OW 7832   2.420   4.102   3.631 -0.1196  0.6636  0.1722
 2261SOL    HW1 7833   2.388   4.175   3.684 -1.2078  1.9818 -2.1592
 2261SOL    HW2 7834   2.356   4.094   3.561  1.1448 -1.1400 -0.8359
 2262SOL     OW 7835   0.435   1.619   5.682 -0.2426 -0.5059  0.1876
 2262SOL    HW1 7836   0.450   1.658   5.596  0.6934 -2.4074 -0.5731
 2262SOL    HW2 7837   0.514   1.640   5.731  0.6186 -1.9901 -0.4816
 2263SOL     OW 7838   2.712   0.790   3.074 -0.0844 -0.6725  0.0387
 2263SOL    HW1 7839   2.730   0.696   3.080 -1.0235 -0.9973 -1.5484
 2263SOL    HW2 7840   2.797   0.831   3.090  0.2156 -1.7396  1.3669
 2264SOL     OW 7841   2.263   7.150   4.595 -0.1959  0.2907 -0.0217
 2264SOL    HW1 7842   2.240   7.242   4.582  2.9445  1.4371  1.2937
 2264SOL    HW2 7843   2.332   7.133   4.531 -0.7568 -1.2095 -0.2746
 2265SOL     OW 7844   3.146   2.217   8.162  0.1396  0.0618 -0.5657
 2265SOL    HW1 7845   3.107   2.177   8.239 -1.8482  0.8302 -1.1212
 2265SOL    HW2 7846   3.234   2.242   8.190 -0.6894  0.7518  1.6175
 2266SOL     OW 7847   2.483   3.772   5.272  0.0296  0.7338  0.1175
 2266SOL    HW1 7848   2.481   3.676   5.270  0.1163  0.7269  0.3549
 2266SOL    HW2 7849   2.576   3.793   5.276  0.1001  0.8596 -1.3849
 2267SOL     OW 7850   7.333   2.771   2.824 -0.6346  0.0274  1.0883
 2267SOL    HW1 7851   7.250   2.814   2.805 -1.0496 -1.0500  0.3831
 2267SOL    HW2 7852   7.330   2.752   2.918 -1.0054  0.3627  1.1452
 2268SOL     OW 7853   3.368   7.375   3.811 -0.3379  0.1357 -0.2539
 2268SOL    HW1 7854   3.427   7.362   3.737  0.5340  0.3862  0.3907
 2268SOL    HW2 7855   3.292   7.419   3.773 -0.0828 -0.1139 -1.0777
 2269SOL     OW 7856   0.583   5.436   6.044 -0.4607  0.2784 -0.0355
 2269SOL    HW1 7857   0.551   5.453   5.956  1.3324 -0.6539 -0.9057
 2269SOL    HW2 7858   0.504   5.413   6.094 -1.3199 -0.8307 -1.7977
 2270SOL     OW 7859   5.643   1.129   3.456 -0.2072  0.2732 -0.8926
 2270SOL    HW1 7860   5.558   1.155   3.420 -1.7362 -1.3945  1.1675
 2270SOL    HW2 7861   5.675   1.207   3.502  0.2719  1.4413 -3.1060
 2271SOL     OW 7862   0.883   5.253   1.852  0.2633  0.3915  0.3650
 2271SOL    HW1 7863   0.909   5.210   1.934 -0.5962 -0.0907  0.3981
 2271SOL    HW2 7864   0.910   5.191   1.784 -3.2971 -1.5905  0.5061
 2272SOL     OW 7865   2.709   3.823   6.445 -0.4658  0.5324 -0.0930
 2272SOL    HW1 7866   2.666   3.883   6.384 -1.7962 -0.5792 -0.2969
 2272SOL    HW2 7867   2.645   3.753   6.458  1.6265 -1.7139 -1.1610
 2273SOL     OW 7868   0.101   4.111   7.923 -0.4666 -0.9471 -0.2291
 2273SOL    HW1 7869   0.009   4.133   7.936 -0.0982  0.4107  0.2242
 2273SOL    HW2 7870   0.144   4.136   8.005  0.8209  1.5770 -1.5464
 2274SOL     OW 7871   7.661   2.259   2.133  0.1629 -0.0615 -0.4674
 2274SOL    HW1 7872   7.702   2.288   2.214  0.6929 -0.4191 -0.6035
 2274SOL    HW2 7873   7.678   2.329   2.070  0.0196  0.0738 -0.3562
 2275SOL     OW 7874   2.401   1.667   2.589  0.1706 -0.1014 -0.4974
 2275SOL    HW1 7875   2.385   1.632   2.677  0.5852  1.5148  0.2733
 2275SOL    HW2 7876   2.355   1.608   2.530 -0.8326 -0.7528  0.8873
 2276SOL     OW 7877   5.848   0.207   1.112 -0.2011 -0.0071 -0.2162
 2276SOL    HW1 7878   5.944   0.212   1.114 -0.2404  0.5447  0.4378
 2276SOL    HW2 7879   5.829   0.148   1.039  0.6304  0.0456 -0.4854
 2277SOL     OW 7880   0.967   5.300   4.731  0.0664  0.1770 -0.0690
 2277SOL    HW1 7881   0.911   5.283   4.655  1.8708  0.6325 -1.5751
 2277SOL    HW2 7882   0.916   5.268   4.805 -1.3038 -1.3652 -1.5716
 2278SOL     OW 7883   5.524   7.312   3.155  0.0619 -0.3029 -0.3767
 2278SOL    HW1 7884   5.593   7.325   3.090  0.8258  0.2237  0.5183
 2278SOL    HW2 7885   5.491   7.224   3.137 -0.7612  0.3573 -2.4019
 2279SOL     OW 7886   3.474   5.201   0.525 -0.0470  0.4009  0.1824
 2279SOL    HW1 7887   3.567   5.223   0.529  0.3849 -1.3821  1.4740
 2279SOL    HW2 7888   3.472   5.108   0.504 -1.6428  0.8522 -2.0169
 2280SOL     OW 7889   1.252   3.643   4.578 -0.0450  0.3724  0.9568
 2280SOL    HW1 7890   1.201   3.610   4.652 -0.2371  1.7698  1.4910
 2280SOL    HW2 7891   1.225   3.590   4.504  0.1970 -1.1066  1.8948
 2281SOL     OW 7892   0.003   2.391   7.795  0.2920 -0.4488 -0.5116
 2281SOL    HW1 7893   0.056   2.387   7.715  2.1179  0.5447  0.5938
 2281SOL    HW2 7894   0.036   2.468   7.842 -1.9945  0.0753  0.3622
 2282SOL     OW 7895   4.585   5.488   1.883  0.0085 -0.2681  0.4300
 2282SOL    HW1 7896   4.614   5.454   1.798  0.7440  0.1743  0.4970
 2282SOL    HW2 7897   4.648   5.556   1.904 -0.7465  0.3038  0.8745
 2283SOL     OW 7898   5.367   0.539   6.463 -0.6183 -0.0297 -0.5251
 2283SOL    HW1 7899   5.394   0.483   6.536  3.5628  1.0196 -0.9762
 2283SOL    HW2 7900   5.366   0.480   6.388 -0.5565 -0.3198 -0.3018
 2284SOL     OW 7901   6.189   7.996   3.209 -0.8491  0.1228  0.0412
 2284SOL    HW1 7902   6.248   7.922   3.193 -0.1543  0.5881  0.4214
 2284SOL    HW2 7903   6.212   8.060   3.141 -0.8525  0.3367  0.2390
 2285SOL     OW 7904   3.935   2.598   5.865  0.6002 -0.2248  0.2247
 2285SOL    HW1 7905   3.856   2.609   5.812  1.0057 -0.2416 -0.3914
 2285SOL    HW2 7906   3.962   2.507   5.849  1.1580  0.0026 -0.1562
 2286SOL     OW 7907   7.562   6.244   7.642  0.3362 -0.0983 -0.6276
 2286SOL    HW1 7908   7.466   6.248   7.650  0.2820  0.1448 -1.3643
 2286SOL    HW2 7909   7.577   6.194   7.562  0.7450  3.2930 -2.8363
 2287SOL     OW 7910   4.963   0.650   3.642 -0.3776 -0.3785  0.2562
 2287SOL    HW1 7911   4.992   0.660   3.733 -1.5038 -0.5822  0.6494
 2287SOL    HW2 7912   4.893   0.715   3.632 -1.1093 -1.2110 -0.0937
 2288SOL     OW 7913   4.555   5.359   5.328 -0.8370 -0.0842 -0.0360
 2288SOL    HW1 7914   4.462   5.354   5.350 -0.6296  0.4409  1.0394
 2288SOL    HW2 7915   4.576   5.452   5.332 -0.7146  0.0401 -2.3371
 2289SOL     OW 7916   2.107   8.266   7.854 -0.0313  0.7046  0.0206
 2289SOL    HW1 7917   2.011   8.263   7.846  0.0193 -0.2024 -0.3328
 2289SOL    HW2 7918   2.125   8.356   7.882 -1.1045  0.3883  1.9265
 2290SOL     OW 7919   4.739   3.610   6.029 -0.3127 -0.1499  0.5068
 2290SOL    HW1 7920   4.753   3.633   5.937 -0.4906 -0.2834  0.4458
 2290SOL    HW2 7921   4.728   3.694   6.074 -1.8852 -0.1315  0.1364
 2291SOL     OW 7922   0.308   1.101   6.453  0.3913 -0.2404 -0.2568
 2291SOL    HW1 7923   0.260   1.101   6.370  0.3464  1.5486 -0.2775
 2291SOL    HW2 7924   0.395   1.070   6.430  0.8432  1.6745 -1.3167
 2292SOL     OW 7925   6.291   2.476   3.425 -0.2416 -0.2303  0.4035
 2292SOL    HW1 7926   6.354   2.404   3.427 -0.9059 -0.8895 -0.8629
 2292SOL    HW2 7927   6.275   2.497   3.517  1.6695 -0.1643  0.7541
 2293SOL     OW 7928   0.364   4.937   0.291 -0.4002 -0.4174 -0.0160
 2293SOL    HW1 7929   0.393   4.992   0.218  0.1987 -2.5545 -1.5095
 2293SOL    HW2 7930   0.273   4.960   0.305 -0.2652  0.6771 -0.8469
 2294SOL     OW 7931   4.147   4.234   7.045  0.4106 -0.1473  0.4842
 2294SOL    HW1 7932   4.080   4.184   7.091 -0.2509 -0.2414 -0.5754
 2294SOL    HW2 7933   4.142   4.322   7.083 -0.0124 -0.2647  0.6984
 2295SOL     OW 7934   2.981   4.862   5.052  0.3906  0.1842 -0.3932
 2295SOL    HW1 7935   3.059   4.864   4.996  1.2126 -0.2998  0.6945
 2295SOL    HW2 7936   3.002   4.922   5.123 -0.5292  0.5786 -0.4442
 2296SOL     OW 7937   8.220   6.849   7.878  0.3670  0.6013 -0.1983
 2296SOL    HW1 7938   8.302   6.873   7.922 -0.4928  2.0329  0.6855
 2296SOL    HW2 7939   8.231   6.882   7.789  0.1574  2.2405  0.3494
 2297SOL     OW 7940   6.986   7.913   0.501 -0.0826 -0.1554 -0.1980
 2297SOL    HW1 7941   6.929   7.932   0.575  0.4177 -0.1141  0.1868
 2297SOL    HW2 7942   7.024   7.827   0.521  0.7019  0.2281  0.0131
 2298SOL     OW 7943   6.033   3.855   7.768 -0.0191 -0.2014  0.1538
 2298SOL    HW1 7944   6.007   3.841   7.677  2.0370 -1.6326 -0.2944
 2298SOL    HW2 7945   6.039   3.950   7.778 -0.5689 -0.0204 -1.0893
 2299SOL     OW 7946   0.375   3.455   7.729  0.0090 -0.1152 -0.1185
 2299SOL    HW1 7947   0.283   3.483   7.728  0.6959  2.4394 -0.3121
 2299SOL    HW2 7948   0.424   3.537   7.725  2.3303 -1.3423  1.1892
 2300SOL     OW 7949   2.286   3.164   2.839 -0.1078  0.1678  0.2771
 2300SOL    HW1 7950   2.250   3.248   2.810  0.2940  0.3111  0.1852
 2300SOL    HW2 7951   2.267   3.104   2.766  2.9863  1.0564 -1.4579
 2301SOL     OW 7952   0.579   5.407   7.445 -0.4922 -0.3681  0.0889
 2301SOL    HW1 7953   0.647   5.430   7.381 -1.0613 -2.6851 -1.4770
 2301SOL    HW2 7954   0.627   5.392   7.527  0.3296  2.0541  0.1436
 2302SOL     OW 7955   6.796   1.489   7.417  0.1273  0.2214 -0.2733
 2302SOL    HW1 7956   6.830   1.400   7.429  0.3821  0.0864 -1.8044
 2302SOL    HW2 7957   6.785   1.498   7.323  1.1804  2.2279 -0.2514
 2303SOL     OW 7958   6.546   4.045   0.989  0.2862 -0.0123  0.0030
 2303SOL    HW1 7959   6.545   4.141   0.987  0.3782 -0.0176 -0.6277
 2303SOL    HW2 7960   6.474   4.021   1.047 -0.1590  0.4323 -0.3531
 2304SOL     OW 7961   7.620   4.714   4.749 -0.5897  0.0831  0.1366
 2304SOL    HW1 7962   7.709   4.719   4.784 -0.3142  1.6933 -0.6995
 2304SOL    HW2 7963   7.626   4.647   4.680  0.1050  0.5097 -0.2333
 2305SOL     OW 7964   7.449   6.444   2.888 -0.5151 -0.5994 -0.1724
 2305SOL    HW1 7965   7.387   6.455   2.960 -1.2368 -0.0073 -0.8699
 2305SOL    HW2 7966   7.479   6.532   2.869  0.4027 -0.8552  0.0091
 2306SOL     OW 7967   5.573   4.359   7.936 -0.3849  0.3768  0.3243
 2306SOL    HW1 7968   5.580   4.342   7.842 -1.7853  0.7433  0.1341
 2306SOL    HW2 7969   5.601   4.277   7.977  1.5133  0.6322 -0.3426
 2307SOL     OW 7970   4.204   6.189   0.273 -0.1188  0.0295  0.1136
 2307SOL    HW1 7971   4.293   6.202   0.304  0.2105  0.5628 -1.0001
 2307SOL    HW2 7972   4.150   6.245   0.330  0.4076  0.6475  0.0101
 2308SOL     OW 7973   6.198   1.674   3.498 -0.2446  0.3368 -0.2592
 2308SOL    HW1 7974   6.134   1.737   3.467  1.4013  2.1724 -0.1362
 2308SOL    HW2 7975   6.281   1.703   3.459  0.6656 -1.4551  0.2274
 2309SOL     OW 7976   4.770   0.221   5.900  0.3060  0.1413  0.3340
 2309SOL    HW1 7977   4.779   0.259   5.813  0.1651  0.0940  0.2984
 2309SOL    HW2 7978   4.823   0.277   5.956  1.2918 -0.4669  0.0363
 2310SOL     OW 7979   4.594   5.095   0.234  0.0646  0.4848 -0.0563
 2310SOL    HW1 7980   4.687   5.075   0.244 -0.0906 -0.1536  0.1637
 2310SOL    HW2 7981   4.592   5.182   0.196  0.7459  0.9321  0.8900
 2311SOL     OW 7982   0.742   3.397   2.171 -0.3125  0.4273 -0.1366
 2311SOL    HW1 7983   0.748   3.430   2.260  0.4536 -3.5304  1.4715
 2311SOL    HW2 7984   0.665   3.341   2.171  0.7487 -1.1310 -1.3496
 2312SOL     OW 7985   0.515   5.390   4.212 -0.2927 -0.6329  0.5888
 2312SOL    HW1 7986   0.450   5.319   4.214 -1.7768  0.4199 -2.8641
 2312SOL    HW2 7987   0.472   5.460   4.162  2.4865  1.2574  0.6556
 2313SOL     OW 7988   2.564   8.071   4.221 -0.3523  0.3164 -0.3139
 2313SOL    HW1 7989   2.625   8.011   4.178 -1.6744 -0.9218 -0.5007
 2313SOL    HW2 7990   2.478   8.031   4.210 -0.8966  0.5047  2.5050
 2314SOL     OW 7991   1.711   5.668   6.551  0.2233  0.2582 -0.3391
 2314SOL    HW1 7992   1.743   5.692   6.464  1.9237  1.5676  0.5895
 2314SOL    HW2 7993   1.782   5.618   6.590  0.2733  1.3029  0.9701
 2315SOL     OW 7994   7.020   7.423   3.871 -0.0365 -0.9821  0.7022
 2315SOL    HW1 7995   6.947   7.442   3.812 -0.0445  0.2622  1.0863
 2315SOL    HW2 7996   7.091   7.478   3.839 -0.0620 -0.2343  1.8778
 2316SOL     OW 7997   3.493   7.054   1.426  0.3207 -0.0774  0.8883
 2316SOL    HW1 7998   3.406   7.040   1.389 -0.4025 -0.1318  2.5150
 2316SOL    HW2 7999   3.529   6.966   1.436 -0.0314 -0.1546  1.5335
 2317SOL     OW 8000   0.730   4.913   7.691  0.1421 -0.3646  0.4664
 2317SOL    HW1 8001   0.761   4.826   7.719  1.2870  0.0232  0.4512
 2317SOL    HW2 8002   0.808   4.956   7.657  0.1297  1.5177  2.5901
 2318SOL     OW 8003   6.076   5.565   4.574  0.1317  1.0864 -0.2473
 2318SOL    HW1 8004   6.105   5.477   4.600  0.7814  1.4156  0.1868
 2318SOL    HW2 8005   5.981   5.558   4.566 -0.3019  1.2295  3.3952
 2319SOL     OW 8006   0.336   3.001   0.929  0.3390 -0.0795  0.1850
 2319SOL    HW1 8007   0.292   3.027   0.847  0.9615 -1.3594 -0.5837
 2319SOL    HW2 8008   0.284   3.043   0.998 -1.9921 -1.3504 -0.6914
 2320SOL     OW 8009   4.296   3.992   7.676 -0.1550 -0.3220 -0.3063
 2320SOL    HW1 8010   4.239   4.008   7.601  1.1954 -1.2798 -1.5916
 2320SOL    HW2 8011   4.372   4.048   7.661 -0.1893  0.0441  0.7670
 2321SOL     OW 8012   6.744   0.832   6.276 -0.0680 -0.1295  0.1018
 2321SOL    HW1 8013   6.677   0.770   6.303  1.5010 -1.8831  0.2354
 2321SOL    HW2 8014   6.734   0.839   6.181 -0.5197 -0.2554  0.1388
 2322SOL     OW 8015   7.320   0.257   5.291  0.3161 -0.2750  0.5044
 2322SOL    HW1 8016   7.293   0.206   5.367  1.9853 -1.2258  0.4956
 2322SOL    HW2 8017   7.380   0.199   5.243 -0.6024  0.3225 -1.4980
 2323SOL     OW 8018   3.754   0.107   6.680 -0.2320  0.0050 -0.0121
 2323SOL    HW1 8019   3.771   0.074   6.768  0.1230 -1.0558 -0.4651
 2323SOL    HW2 8020   3.828   0.163   6.660 -1.2490  1.8375  1.0932
 2324SOL     OW 8021   2.609   7.608   1.751  0.2798  0.0364  0.2532
 2324SOL    HW1 8022   2.585   7.598   1.659  2.0391  0.2082 -0.2656
 2324SOL    HW2 8023   2.630   7.519   1.780 -0.1625 -0.0019  0.4571
 2325SOL     OW 8024   4.502   1.289   7.090 -0.5122  0.5081  0.1447
 2325SOL    HW1 8025   4.524   1.200   7.061  1.1144  0.5797  1.0337
 2325SOL    HW2 8026   4.417   1.280   7.132 -0.5679 -0.5474 -0.1479
 2326SOL     OW 8027   1.802   3.922   4.792  0.1251  0.0952 -0.3285
 2326SOL    HW1 8028   1.779   3.829   4.794  1.2938 -0.2077 -0.2613
 2326SOL    HW2 8029   1.873   3.930   4.856  0.2030  0.9824 -0.5189
 2327SOL     OW 8030   2.689   2.067   1.338 -0.3093  0.0291  0.1292
 2327SOL    HW1 8031   2.692   1.978   1.374 -2.2512 -0.8984 -1.7079
 2327SOL    HW2 8032   2.606   2.103   1.371  0.4280  1.1720  0.8029
 2328SOL     OW 8033   7.050   5.816   6.966 -0.3687 -0.3191  0.1667
 2328SOL    HW1 8034   7.023   5.817   7.058  1.6421 -1.5263  0.8243
 2328SOL    HW2 8035   7.061   5.908   6.943  1.4455 -0.0332  1.9192
 2329SOL     OW 8036   1.383   6.455   1.325 -0.1770  0.2992 -0.1825
 2329SOL    HW1 8037   1.291   6.437   1.303 -0.0382 -1.6624  0.6273
 2329SOL    HW2 8038   1.430   6.377   1.294  0.6862 -0.3709  2.5233
 2330SOL     OW 8039   3.461   8.063   2.989  0.0328 -0.0568 -0.0423
 2330SOL    HW1 8040   3.478   7.982   3.037 -0.6395  0.7815  1.7322
 2330SOL    HW2 8041   3.366   8.067   2.983 -0.1117  1.7044  2.0781
 2331SOL     OW 8042   0.385   5.473   4.726  0.3242 -0.3415  0.4996
 2331SOL    HW1 8043   0.452   5.461   4.792  0.1939  0.5192  0.8024
 2331SOL    HW2 8044   0.354   5.384   4.706  0.5826 -0.6348  1.3604
 2332SOL     OW 8045   1.855   3.801   0.573 -0.2227 -0.5027  0.2441
 2332SOL    HW1 8046   1.765   3.819   0.545  0.2728  0.3637 -0.8673
 2332SOL    HW2 8047   1.870   3.710   0.547 -0.0919 -0.0047 -1.4980
 2333SOL     OW 8048   7.475   0.795   7.871  0.2606 -0.0294 -0.2766
 2333SOL    HW1 8049   7.452   0.702   7.868  1.5470 -0.3602 -0.4617
 2333SOL    HW2 8050   7.563   0.797   7.910  1.7233  0.7935 -3.3213
 2334SOL     OW 8051   8.045   4.046   3.905 -0.0165  0.0350 -0.3260
 2334SOL    HW1 8052   8.118   4.083   3.955  1.9001 -0.7893 -2.3090
 2334SOL    HW2 8053   8.087   3.986   3.843 -2.5216 -1.4545 -0.7447
 2335SOL     OW 8054   7.585   5.917   5.542 -0.3522  0.1415 -0.5738
 2335SOL    HW1 8055   7.666   5.887   5.500 -1.1855 -0.9067 -1.4774
 2335SOL    HW2 8056   7.518   5.906   5.475 -1.3863  0.2756  0.4248
 2336SOL     OW 8057   5.242   8.031   3.864 -0.1726 -0.5227  0.0692
 2336SOL    HW1 8058   5.190   7.987   3.796  1.1483 -3.2901  0.7162
 2336SOL    HW2 8059   5.327   8.045   3.823  0.1018 -0.5890  0.6175
 2337SOL     OW 8060   8.159   5.543   7.930 -0.3987  0.4184 -0.8218
 2337SOL    HW1 8061   8.207   5.461   7.919 -2.0993 -0.6309 -0.7799
 2337SOL    HW2 8062   8.162   5.560   8.024  0.6129  0.8558 -0.9138
 2338SOL     OW 8063   3.941   4.323   7.237 -0.0942  0.2104  0.1602
 2338SOL    HW1 8064   3.901   4.320   7.151  0.2039  0.1255  0.0221
 2338SOL    HW2 8065   3.981   4.410   7.242 -0.4047  0.3438  0.3478
 2339SOL     OW 8066   0.860   5.970   6.969  0.5122 -0.6279 -0.1611
 2339SOL    HW1 8067   0.797   6.024   7.016  1.6983  0.6849 -0.0044
 2339SOL    HW2 8068   0.807   5.904   6.925 -0.7640 -1.0581  1.8733
 2340SOL     OW 8069   4.736   0.614   3.494  0.3097  0.1443  0.0425
 2340SOL    HW1 8070   4.804   0.567   3.542 -1.4775 -1.6772  0.9228
 2340SOL    HW2 8071   4.726   0.565   3.412 -1.7613 -1.3812  1.0876
 2341SOL     OW 8072   0.959   1.885   4.662  0.3668  0.0839  0.0796
 2341SOL    HW1 8073   0.883   1.939   4.641 -2.1681 -2.3236  2.2377
 2341SOL    HW2 8074   0.939   1.848   4.748  3.6336 -1.3793  0.3521
 2342SOL     OW 8075   2.307   0.707   5.647 -0.1546  0.4616 -0.4174
 2342SOL    HW1 8076   2.315   0.798   5.621 -0.2429 -0.0089 -2.2156
 2342SOL    HW2 8077   2.394   0.669   5.634 -0.4099  0.0095 -0.8323
 2343SOL     OW 8078   4.117   1.599   6.657  0.2128 -0.0576 -0.4402
 2343SOL    HW1 8079   4.027   1.611   6.628 -0.3174 -1.1176  0.6773
 2343SOL    HW2 8080   4.153   1.533   6.599 -0.0476 -0.3485 -0.2741
 2344SOL     OW 8081   6.383   1.103   6.983 -0.4910  1.0024 -0.6801
 2344SOL    HW1 8082   6.434   1.071   7.058 -2.1193 -0.3968 -0.0853
 2344SOL    HW2 8083   6.446   1.106   6.911  0.8156  1.0379  0.4093
 2345SOL     OW 8084   6.288   1.278   2.628 -0.3688 -0.6249  1.0944
 2345SOL    HW1 8085   6.211   1.319   2.668  1.2614  2.0632  1.7499
 2345SOL    HW2 8086   6.291   1.314   2.539 -0.4857 -1.6351  0.6672
 2346SOL     OW 8087   3.203   4.407   3.927  0.6419 -0.2757  0.3314
 2346SOL    HW1 8088   3.142   4.412   4.001  1.7533 -0.0775  1.2496
 2346SOL    HW2 8089   3.261   4.483   3.938  0.4197  0.1433 -1.1271
 2347SOL     OW 8090   5.111   7.846   4.598 -0.3528 -0.2592 -0.2568
 2347SOL    HW1 8091   5.164   7.838   4.519  0.9978  0.0390  0.5821
 2347SOL    HW2 8092   5.065   7.930   4.589  3.2618  2.1153  1.1902
 2348SOL     OW 8093   2.118   7.346   2.844  0.0050  0.1758  0.4255
 2348SOL    HW1 8094   2.076   7.269   2.807  1.8528 -0.7131  0.0930
 2348SOL    HW2 8095   2.046   7.406   2.863 -1.2467 -0.4723 -1.9333
 2349SOL     OW 8096   4.445   5.638   4.635  0.3643 -0.1759  0.0422
 2349SOL    HW1 8097   4.444   5.733   4.650  0.6368  0.3768 -2.8379
 2349SOL    HW2 8098   4.504   5.626   4.561 -0.6239 -2.4613 -0.4563
 2350SOL     OW 8099   1.534   4.975   6.683  0.0439  0.0384 -0.1417
 2350SOL    HW1 8100   1.542   4.996   6.776 -1.3148  0.7154 -0.1607
 2350SOL    HW2 8101   1.525   5.060   6.639  1.7036 -0.1894 -1.0450
 2351SOL     OW 8102   4.588   5.997   8.186  0.0191 -0.2446 -0.4467
 2351SOL    HW1 8103   4.681   6.013   8.199 -0.1730  0.6761 -0.1960
 2351SOL    HW2 8104   4.547   6.083   8.192 -1.1790 -0.8918  2.2041
 2352SOL     OW 8105   4.332   5.224   4.638  0.3529  0.3161 -0.0975
 2352SOL    HW1 8106   4.345   5.278   4.716  0.0233 -0.2202  0.3391
 2352SOL    HW2 8107   4.405   5.161   4.642 -2.7053 -3.6294  3.1331
 2353SOL     OW 8108   6.818   5.236   6.099 -0.2881 -0.2877  0.1805
 2353SOL    HW1 8109   6.892   5.279   6.056  1.0014 -3.5330 -1.1675
 2353SOL    HW2 8110   6.750   5.233   6.032 -0.9931  0.9715  0.8006
 2354SOL     OW 8111   5.726   0.839   5.930  0.0262  0.2859  0.0485
 2354SOL    HW1 8112   5.680   0.757   5.915 -0.6753  0.2653  2.1051
 2354SOL    HW2 8113   5.663   0.894   5.976  0.9753  1.4538  0.0068
 2355SOL     OW 8114   6.895   2.046   1.465 -0.2525  0.4100  0.3843
 2355SOL    HW1 8115   6.864   2.111   1.401 -0.5516  2.9632  2.9283
 2355SOL    HW2 8116   6.989   2.038   1.447 -0.2154  1.5491  0.0019
 2356SOL     OW 8117   6.570   1.638   2.076 -0.7696  0.3516  0.0408
 2356SOL    HW1 8118   6.483   1.634   2.116 -0.4302  1.8320  0.9933
 2356SOL    HW2 8119   6.553   1.628   1.982 -2.1936  2.2143  0.0316
 2357SOL     OW 8120   6.970   4.504   2.579 -0.1850 -0.1650 -0.3307
 2357SOL    HW1 8121   7.060   4.495   2.611 -0.4233 -0.5793  0.2563
 2357SOL    HW2 8122   6.929   4.566   2.641  0.6402  2.9402 -2.6393
 2358SOL     OW 8123   6.042   6.901   2.841  0.1513 -0.5272  0.0210
 2358SOL    HW1 8124   6.010   6.884   2.929  1.0982 -0.5315  0.3826
 2358SOL    HW2 8125   6.079   6.818   2.812  1.7540 -0.0205  0.4726
 2359SOL     OW 8126   0.143   0.634   7.255 -0.1378  0.0438 -0.5582
 2359SOL    HW1 8127   0.204   0.701   7.227 -0.0232  0.5395  0.8003
 2359SOL    HW2 8128   0.122   0.585   7.175  0.3676  1.1989 -1.4206
 2360SOL     OW 8129   6.533   6.313   2.345  0.1124  0.1342 -0.6491
 2360SOL    HW1 8130   6.621   6.275   2.355 -0.1541  0.0916  2.4973
 2360SOL    HW2 8131   6.546   6.407   2.356 -0.3519 -0.0098  1.6580
 2361SOL     OW 8132   7.384   6.635   7.745 -0.2694  0.2899 -1.4290
 2361SOL    HW1 8133   7.402   6.727   7.760 -0.3687 -0.0979  1.8090
 2361SOL    HW2 8134   7.470   6.594   7.736  0.0347  0.2064  1.2163
 2362SOL     OW 8135   6.466   1.764   6.964  1.0478 -0.3596 -0.4078
 2362SOL    HW1 8136   6.394   1.754   7.027  1.7713 -1.3098  0.3098
 2362SOL    HW2 8137   6.447   1.846   6.919  0.4569  0.3345  1.0166
 2363SOL     OW 8138   3.819   7.035   2.052 -0.0419  0.6499 -0.7436
 2363SOL    HW1 8139   3.848   6.945   2.069 -0.5946  0.8452  1.4989
 2363SOL    HW2 8140   3.894   7.076   2.009  1.3986 -0.0612  0.9651
 2364SOL     OW 8141   2.268   0.076   7.536  0.8422  0.5128 -0.3739
 2364SOL    HW1 8142   2.355   0.050   7.565 -0.0437 -0.5452  1.4867
 2364SOL    HW2 8143   2.263   0.169   7.555  1.0826  0.2874  0.8626
 2365SOL     OW 8144   6.684   3.269   6.398 -0.1148  0.5995 -0.2012
 2365SOL    HW1 8145   6.724   3.182   6.397  2.1930  1.5876 -1.8499
 2365SOL    HW2 8146   6.696   3.300   6.488  1.0926  0.0875 -0.1734
 2366SOL     OW 8147   0.281   3.954   1.577 -0.0103  0.1243 -0.0246
 2366SOL    HW1 8148   0.271   3.928   1.668 -2.1769 -1.2091 -0.5672
 2366SOL    HW2 8149   0.203   3.921   1.533  0.8656  0.8730 -2.3569
 2367SOL     OW 8150   1.141   6.629   7.212  0.0666 -0.1237 -0.2350
 2367SOL    HW1 8151   1.219   6.645   7.159 -0.0274 -0.2789 -0.4217
 2367SOL    HW2 8152   1.071   6.678   7.167  0.0045 -0.1870 -0.2081
 2368SOL     OW 8153   0.830   6.205   2.774 -0.1882 -0.6091 -0.0338
 2368SOL    HW1 8154   0.813   6.157   2.693  0.9193 -0.0043 -0.6611
 2368SOL    HW2 8155   0.795   6.293   2.758  0.1895 -0.4377  0.0687
 2369SOL     OW 8156   2.098   2.806   2.265  0.2055 -0.4039 -0.3208
 2369SOL    HW1 8157   2.038   2.743   2.305 -0.3868  0.7362  0.6608
 2369SOL    HW2 8158   2.045   2.851   2.199  0.9771 -1.7625 -1.9448
 2370SOL     OW 8159   3.466   5.274   5.982  0.4463  0.1831 -0.3649
 2370SOL    HW1 8160   3.433   5.184   5.971  0.4599  0.2919 -1.4711
 2370SOL    HW2 8161   3.501   5.276   6.071  0.1644 -0.8192 -0.2130
 2371SOL     OW 8162   5.588   5.985   8.281  0.1594  0.1540 -0.6593
 2371SOL    HW1 8163   5.523   5.917   8.300  1.3558 -0.8239  0.0981
 2371SOL    HW2 8164   5.595   5.985   8.186 -1.8214  1.1546 -0.8611
 2372SOL     OW 8165   3.354   6.393   8.138  0.3849 -0.2271 -0.2941
 2372SOL    HW1 8166   3.382   6.454   8.206  1.0171  1.3513 -1.8867
 2372SOL    HW2 8167   3.336   6.312   8.185  0.6023  0.8358  1.7669
 2373SOL     OW 8168   7.642   3.087   7.755  0.0089 -0.1474 -0.2181
 2373SOL    HW1 8169   7.562   3.035   7.762  0.4255 -0.9841 -1.3897
 2373SOL    HW2 8170   7.683   3.059   7.673  1.9396 -0.3651  0.7435
 2374SOL     OW 8171   0.124   0.609   7.814  0.2987  0.0474  0.1611
 2374SOL    HW1 8172   0.064   0.539   7.787  1.0024 -0.5918  0.1974
 2374SOL    HW2 8173   0.085   0.645   7.893 -1.2408  1.2265 -1.0639
 2375SOL     OW 8174   0.592   5.801   4.070 -0.0337 -0.8000  0.5145
 2375SOL    HW1 8175   0.680   5.790   4.034  0.0073 -0.7660  0.6049
 2375SOL    HW2 8176   0.604   5.801   4.165 -0.0363 -0.0518  0.5236
 2376SOL     OW 8177   5.901   4.079   0.446  0.2067  0.2649 -0.1588
 2376SOL    HW1 8178   5.866   4.051   0.530  0.5857 -3.1392 -0.9942
 2376SOL    HW2 8179   5.993   4.098   0.462  0.1150  0.3073  0.3125
 2377SOL     OW 8180   5.650   4.342   0.716  0.1481 -0.1596 -0.4443
 2377SOL    HW1 8181   5.676   4.251   0.729 -0.0591 -0.3400 -1.2225
 2377SOL    HW2 8182   5.571   4.337   0.662  0.7672  0.5046 -1.4564
 2378SOL     OW 8183   2.713   1.471   5.972 -0.0483  0.0944 -0.2169
 2378SOL    HW1 8184   2.659   1.526   6.029  0.6235  0.2179  0.3113
 2378SOL    HW2 8185   2.674   1.384   5.979 -2.0776  0.7317 -2.2594
 2379SOL     OW 8186   4.864   0.856   5.585 -0.0678 -0.0681  0.4255
 2379SOL    HW1 8187   4.838   0.894   5.501 -1.7353  3.6310  2.3545
 2379SOL    HW2 8188   4.947   0.898   5.606 -0.0250 -0.3910  0.9239
 2380SOL     OW 8189   2.208   8.060   4.372 -0.4064 -0.2809 -0.2305
 2380SOL    HW1 8190   2.164   8.073   4.456 -0.3493 -1.1574 -0.0505
 2380SOL    HW2 8191   2.259   8.140   4.358  1.2820 -0.9435  1.6164
 2381SOL     OW 8192   2.166   1.511   7.500  0.3674 -0.2401 -1.1846
 2381SOL    HW1 8193   2.252   1.533   7.463 -0.4848  0.1424 -3.0669
 2381SOL    HW2 8194   2.158   1.417   7.488  1.7373 -0.8517  1.8380
 2382SOL     OW 8195   5.170   6.977   3.192  0.0748 -0.3708  0.1375
 2382SOL    HW1 8196   5.183   7.036   3.117  1.3460 -0.5530  0.1910
 2382SOL    HW2 8197   5.094   6.924   3.168 -0.7581  0.9074 -0.1498
 2383SOL     OW 8198   6.804   1.760   4.898 -0.0509  0.6113  0.0928
 2383SOL    HW1 8199   6.720   1.798   4.925  0.5274  1.2689  1.0645
 2383SOL    HW2 8200   6.789   1.666   4.898 -0.5149  0.6663  1.2680
 2384SOL     OW 8201   3.718   4.903   8.146  0.1509  0.3346  0.2083
 2384SOL    HW1 8202   3.693   4.967   8.213  0.1916  1.5685 -0.9141
 2384SOL    HW2 8203   3.708   4.818   8.189 -3.2163  0.8561  0.7499
 2385SOL     OW 8204   4.269   2.774   1.493 -0.1336  0.5022  0.2216
 2385SOL    HW1 8205   4.335   2.735   1.550 -1.2515 -3.9327 -1.0731
 2385SOL    HW2 8206   4.317   2.800   1.415  0.4425 -0.3038  0.2941
 2386SOL     OW 8207   1.901   4.589   4.898 -0.4954  0.0419  0.2779
 2386SOL    HW1 8208   1.838   4.659   4.883  0.6912  0.8575 -1.1816
 2386SOL    HW2 8209   1.953   4.586   4.817  1.5083 -0.3913  1.5209
 2387SOL     OW 8210   1.382   2.172   5.268 -0.5034  0.2350 -0.2441
 2387SOL    HW1 8211   1.358   2.214   5.351 -0.5789  0.4119 -0.3534
 2387SOL    HW2 8212   1.323   2.212   5.203  0.2028  0.8197 -0.5513
 2388SOL     OW 8213   4.722   6.859   4.671  0.4641 -0.4899  0.0016
 2388SOL    HW1 8214   4.794   6.894   4.619 -0.6034 -0.8491 -1.7911
 2388SOL    HW2 8215   4.705   6.773   4.634 -1.8806  0.1881 -0.7137
 2389SOL     OW 8216   7.133   6.752   5.885 -0.1550  0.2029  0.2200
 2389SOL    HW1 8217   7.047   6.722   5.913 -1.2211  0.5181 -2.4626
 2389SOL    HW2 8218   7.127   6.847   5.885 -0.2188  0.2178 -1.0198
 2390SOL     OW 8219   4.230   6.179   4.140 -0.2272 -0.5897 -0.7055
 2390SOL    HW1 8220   4.170   6.253   4.127  0.6573  0.0760 -1.1142
 2390SOL    HW2 8221   4.218   6.125   4.062 -2.4163 -2.0387  0.5349
 2391SOL     OW 8222   1.544   5.981   7.457  0.0761 -0.5097  0.3996
 2391SOL    HW1 8223   1.451   5.999   7.442  0.0514 -1.2384 -0.3620
 2391SOL    HW2 8224   1.589   6.023   7.384  0.1601 -1.9091 -0.3932
 2392SOL     OW 8225   1.130   5.568   0.554 -0.1951 -0.1776 -0.7814
 2392SOL    HW1 8226   1.101   5.477   0.555  0.5765 -0.4261  0.1796
 2392SOL    HW2 8227   1.223   5.563   0.529 -0.4077  0.4400 -1.7495
 2393SOL     OW 8228   5.619   7.147   4.198  1.1954  0.0849 -0.4607
 2393SOL    HW1 8229   5.612   7.112   4.286  1.3153  1.5777  0.1753
 2393SOL    HW2 8230   5.713   7.155   4.183  1.1650  1.2713 -0.1025
 2394SOL     OW 8231   0.786   3.354   4.216 -0.7359 -0.1977 -1.0876
 2394SOL    HW1 8232   0.732   3.410   4.161 -0.1033  1.5955  0.0462
 2394SOL    HW2 8233   0.774   3.387   4.305  0.9830 -0.7532 -0.5981
 2395SOL     OW 8234   6.304   5.567   5.310 -0.3942 -0.5244  0.3775
 2395SOL    HW1 8235   6.338   5.563   5.400 -0.1667 -2.1984  0.2422
 2395SOL    HW2 8236   6.372   5.613   5.261  0.0286 -0.6503  0.8359
 2396SOL     OW 8237   1.018   1.164   5.693 -0.1176 -0.6918  0.1744
 2396SOL    HW1 8238   0.977   1.222   5.628 -2.2980 -0.8193  1.3207
 2396SOL    HW2 8239   1.074   1.106   5.642 -1.1644 -0.3022 -1.4979
 2397SOL     OW 8240   1.709   6.189   3.448  0.6328  0.0849 -0.0724
 2397SOL    HW1 8241   1.737   6.252   3.514  0.0598 -0.3209  0.5667
 2397SOL    HW2 8242   1.670   6.243   3.379  0.0462  0.4260  0.5146
 2398SOL     OW 8243   5.465   1.930   0.246  0.1741 -0.0272  0.1492
 2398SOL    HW1 8244   5.451   1.988   0.321  0.8775  0.1828  0.1232
 2398SOL    HW2 8245   5.544   1.880   0.268 -0.2629 -0.7858  0.0512
 2399SOL     OW 8246   7.903   6.439   3.957  0.2275 -0.1769  0.2410
 2399SOL    HW1 8247   7.951   6.359   3.977  1.7079 -0.3738 -3.2738
 2399SOL    HW2 8248   7.833   6.412   3.898 -0.8084  0.8306  0.9681
 2400SOL     OW 8249   6.642   0.323   4.779  0.1039  0.5439  0.2947
 2400SOL    HW1 8250   6.624   0.230   4.764 -0.2387  0.5281  0.7986
 2400SOL    HW2 8251   6.625   0.336   4.873 -0.7797  1.3289  0.0344
 2401SOL     OW 8252   1.841   5.429   7.407 -0.2356  0.4490  0.4575
 2401SOL    HW1 8253   1.882   5.382   7.479 -1.2504  0.3900  1.0090
 2401SOL    HW2 8254   1.764   5.470   7.446 -0.7031  0.5578 -0.5613
 2402SOL     OW 8255   1.048   1.231   3.243  0.6339 -0.4594 -0.6469
 2402SOL    HW1 8256   1.139   1.205   3.262  0.2362 -1.0237  0.5782
 2402SOL    HW2 8257   1.038   1.216   3.149  2.3586  1.3452 -1.2005
 2403SOL     OW 8258   2.957   2.762   2.069 -0.0071  0.0802 -0.3913
 2403SOL    HW1 8259   2.959   2.668   2.052 -1.2297  0.2157 -1.4031
 2403SOL    HW2 8260   2.869   2.778   2.103  0.4290  0.7671  0.4513
 2404SOL     OW 8261   5.025   2.040   7.694  0.0077  0.1004 -0.0494
 2404SOL    HW1 8262   5.073   2.040   7.611  0.7109  2.4275  0.2720
 2404SOL    HW2 8263   4.957   2.107   7.683  1.1935  1.7301  1.7431
 2405SOL     OW 8264   2.387   6.741   5.638  0.7740  0.1354  0.3515
 2405SOL    HW1 8265   2.477   6.719   5.663  0.4601  0.1014  1.5105
 2405SOL    HW2 8266   2.334   6.668   5.671  0.3042  0.2439 -0.1578
 2406SOL     OW 8267   7.840   6.371   6.837  0.0747 -0.3822  0.5113
 2406SOL    HW1 8268   7.808   6.454   6.801  1.4295 -0.1326 -0.2033
 2406SOL    HW2 8269   7.802   6.304   6.780 -0.2429 -0.1887  0.4937
 2407SOL     OW 8270   6.496   7.156   2.341 -0.4491  0.1502 -0.5732
 2407SOL    HW1 8271   6.408   7.185   2.365  0.3077  1.1322  1.1831
 2407SOL    HW2 8272   6.551   7.234   2.353  1.3021 -1.3318  2.2639
 2408SOL     OW 8273   5.559   6.147   0.262  0.0494 -0.1010  0.0578
 2408SOL    HW1 8274   5.566   6.081   0.194 -0.0202  0.1726 -0.2186
 2408SOL    HW2 8275   5.466   6.156   0.279  0.0873 -0.4522  0.4742
 2409SOL     OW 8276   6.504   6.950   4.484 -0.1394  0.3994 -0.3733
 2409SOL    HW1 8277   6.544   7.031   4.515  1.8028 -0.4609 -0.4966
 2409SOL    HW2 8278   6.472   6.907   4.563 -0.3494  0.8619 -0.2034
 2410SOL     OW 8279   1.475   5.059   3.672 -0.1289  0.9898  0.1145
 2410SOL    HW1 8280   1.480   5.080   3.579  0.9251  0.2381 -0.0104
 2410SOL    HW2 8281   1.436   4.972   3.676  0.0102  0.9371  0.3677
 2411SOL     OW 8282   6.631   5.962   6.423  0.1037  0.1770  0.3133
 2411SOL    HW1 8283   6.636   5.934   6.515  1.0440 -0.2443  0.1453
 2411SOL    HW2 8284   6.627   5.880   6.373  0.6415  0.3731 -0.0652
 2412SOL     OW 8285   5.363   3.100   8.183 -0.4532 -0.3147  0.3361
 2412SOL    HW1 8286   5.420   3.177   8.180 -1.8775  0.8388 -3.1146
 2412SOL    HW2 8287   5.390   3.048   8.107 -1.1192 -2.0013  1.2090
 2413SOL     OW 8288   6.019   3.824   2.341  0.6896  0.4598 -0.0051
 2413SOL    HW1 8289   6.053   3.739   2.368 -1.4684 -0.0455  1.4051
 2413SOL    HW2 8290   6.077   3.887   2.384  0.8934 -0.3257  0.9094
 2414SOL     OW 8291   7.535   4.092   2.140  0.5546 -0.3314 -0.4121
 2414SOL    HW1 8292   7.559   4.019   2.197 -0.3353 -0.1542  0.2252
 2414SOL    HW2 8293   7.496   4.050   2.063 -0.8998 -0.5456  0.3986
 2415SOL     OW 8294   3.347   8.165   0.626  0.2563  0.2261  0.0369
 2415SOL    HW1 8295   3.421   8.212   0.586  0.3208  0.7256  0.7284
 2415SOL    HW2 8296   3.388   8.098   0.680  0.1603 -0.8478 -1.1741
 2416SOL     OW 8297   6.747   2.181   3.759  0.3783 -0.5385 -0.2467
 2416SOL    HW1 8298   6.738   2.130   3.678  0.3245  0.6693 -1.0348
 2416SOL    HW2 8299   6.739   2.272   3.730  0.9696 -0.0575  1.0462
 2417SOL     OW 8300   5.444   5.442   6.163 -0.5070  0.0639 -0.1639
 2417SOL    HW1 8301   5.508   5.409   6.226 -1.3771 -1.0963  0.1320
 2417SOL    HW2 8302   5.441   5.376   6.094 -1.3227  0.1457 -0.2193
 2418SOL     OW 8303   2.564   5.879   7.221 -0.2339  0.4009  0.0396
 2418SOL    HW1 8304   2.509   5.956   7.206 -0.6676  0.1832  0.5108
 2418SOL    HW2 8305   2.650   5.904   7.186 -1.2086 -0.1506 -3.0552
 2419SOL     OW 8306   2.281   7.175   7.541 -0.4974  0.1773 -0.0905
 2419SOL    HW1 8307   2.244   7.131   7.617 -0.4192 -0.7817 -0.5878
 2419SOL    HW2 8308   2.227   7.145   7.467 -1.5472  2.2728 -0.2441
 2420SOL     OW 8309   6.473   2.136   1.705 -0.1157 -0.4652  0.2294
 2420SOL    HW1 8310   6.448   2.155   1.795  0.3577 -0.3346  0.3350
 2420SOL    HW2 8311   6.530   2.059   1.712 -1.3524 -1.4417 -0.1126
 2421SOL     OW 8312   5.461   5.686   1.876 -0.0109 -0.1335  0.2760
 2421SOL    HW1 8313   5.432   5.602   1.841 -0.9343  0.2027  0.2043
 2421SOL    HW2 8314   5.551   5.670   1.905  1.4810 -0.0917 -3.6257
 2422SOL     OW 8315   4.680   3.481   3.428 -0.3907 -0.1328 -0.0636
 2422SOL    HW1 8316   4.602   3.524   3.393 -1.2920 -2.7296 -1.5136
 2422SOL    HW2 8317   4.752   3.542   3.409 -1.6909  1.1124 -1.2007
 2423SOL     OW 8318   4.228   1.953   2.038 -0.3576 -0.2515  0.5402
 2423SOL    HW1 8319   4.134   1.934   2.042 -0.3612 -0.1020  1.1813
 2423SOL    HW2 8320   4.246   2.002   2.118  0.4136 -0.9457  0.8012
 2424SOL     OW 8321   5.567   4.097   3.746 -0.0080  0.7179 -0.2072
 2424SOL    HW1 8322   5.585   4.132   3.834 -0.9333  0.8148 -0.0484
 2424SOL    HW2 8323   5.603   4.163   3.687 -0.5897  1.3301  0.1035
 2425SOL     OW 8324   3.818   0.221   4.833 -0.6676 -0.0060 -0.2821
 2425SOL    HW1 8325   3.851   0.305   4.863 -2.7542  0.7517  0.0352
 2425SOL    HW2 8326   3.830   0.222   4.738  0.3624  0.1513 -0.1566
 2426SOL     OW 8327   3.806   2.426   3.390  0.8589  0.5074 -0.2325
 2426SOL    HW1 8328   3.864   2.480   3.336 -0.0534  1.8132  0.0319
 2426SOL    HW2 8329   3.749   2.382   3.327  0.7087  0.9457 -0.4092
 2427SOL     OW 8330   5.507   1.817   6.696 -0.4219  0.1635  0.5035
 2427SOL    HW1 8331   5.589   1.852   6.661 -0.7717  1.1929  0.6830
 2427SOL    HW2 8332   5.465   1.892   6.738 -1.1516 -0.5034  0.9863
 2428SOL     OW 8333   5.054   8.206   5.906 -0.1459 -0.3405 -0.0040
 2428SOL    HW1 8334   5.114   8.133   5.920  0.2008  0.0872  0.7592
 2428SOL    HW2 8335   5.109   8.277   5.874  0.2949  0.9227  3.1951
 2429SOL     OW 8336   0.527   3.852   1.513 -0.3250  0.6079 -0.1260
 2429SOL    HW1 8337   0.588   3.884   1.580 -1.7966 -0.5853  1.9121
 2429SOL    HW2 8338   0.441   3.875   1.547 -1.1969 -1.5232 -0.7709
 2430SOL     OW 8339   5.476   0.035   7.457  0.4630 -0.1223  0.0659
 2430SOL    HW1 8340   5.393   0.070   7.490 -0.0099  1.1612 -2.2191
 2430SOL    HW2 8341   5.449  -0.036   7.399  0.9428  0.2508 -0.6251
 2431SOL     OW 8342   6.172   0.693   3.796  0.5225 -0.0442  0.2324
 2431SOL    HW1 8343   6.137   0.728   3.714 -2.5112  0.4083  1.5805
 2431SOL    HW2 8344   6.194   0.602   3.776 -2.1534 -0.6017 -0.6973
 2432SOL     OW 8345   1.908   3.419   5.472 -0.0494 -0.0332 -0.8452
 2432SOL    HW1 8346   1.960   3.465   5.538 -0.6126  1.7180 -1.5702
 2432SOL    HW2 8347   1.884   3.336   5.514 -0.9495  1.2857  1.4291
 2433SOL     OW 8348   0.807   1.286   7.951 -0.9761 -0.0729  0.2410
 2433SOL    HW1 8349   0.888   1.336   7.944 -0.7395 -0.5614 -0.6887
 2433SOL    HW2 8350   0.741   1.351   7.977 -0.1078  0.1259  2.0918
 2434SOL     OW 8351   1.966   2.336   4.696 -0.2197  0.5334 -0.1037
 2434SOL    HW1 8352   1.918   2.418   4.699  1.5620  1.6428 -0.0052
 2434SOL    HW2 8353   2.007   2.335   4.610 -1.2412 -0.9076 -0.6043
 2435SOL     OW 8354   6.924   6.429   5.718  0.1839  0.7825  0.2459
 2435SOL    HW1 8355   7.012   6.435   5.681  0.3428 -1.8039  0.0347
 2435SOL    HW2 8356   6.866   6.440   5.643  0.3894  0.0534 -0.0220
 2436SOL     OW 8357   1.822   4.207   6.024  0.0027  0.8989 -0.5953
 2436SOL    HW1 8358   1.849   4.124   6.063 -0.4976 -0.0388 -2.1682
 2436SOL    HW2 8359   1.883   4.221   5.952 -1.2003  0.7882 -1.6755
 2437SOL     OW 8360   7.171   6.560   5.134  0.1680 -0.2871 -0.0491
 2437SOL    HW1 8361   7.215   6.487   5.090  1.1589 -0.0565  0.5105
 2437SOL    HW2 8362   7.188   6.545   5.227  0.6882  0.8347  0.0516
 2438SOL     OW 8363   5.521   7.836   6.690  0.5239 -0.7643 -0.4216
 2438SOL    HW1 8364   5.509   7.872   6.602  0.5289  2.7575  0.8664
 2438SOL    HW2 8365   5.598   7.883   6.724 -0.7030 -0.4469  2.1516
 2439SOL     OW 8366   5.231   4.633   2.728  0.1448 -0.3492 -0.2577
 2439SOL    HW1 8367   5.168   4.699   2.758  0.0818 -0.9291  0.9259
 2439SOL    HW2 8368   5.269   4.598   2.808  2.3074  0.2867 -0.9515
 2440SOL     OW 8369   7.211   6.425   0.716 -0.6804  0.3374  0.8592
 2440SOL    HW1 8370   7.135   6.481   0.734 -0.3212  1.4606 -0.8798
 2440SOL    HW2 8371   7.285   6.473   0.753 -0.2869  1.4140 -1.1622
 2441SOL     OW 8372   4.146   4.968   2.669 -0.5816  0.3955 -0.6978
 2441SOL    HW1 8373   4.099   4.930   2.743 -0.5194  0.1018 -0.8109
 2441SOL    HW2 8374   4.191   5.044   2.706  0.1622 -0.2612 -0.2465
 2442SOL     OW 8375   6.387   2.525   3.820 -0.3837  0.1862 -0.1398
 2442SOL    HW1 8376   6.395   2.597   3.758 -3.3783 -0.4261 -1.4006
 2442SOL    HW2 8377   6.320   2.554   3.882 -0.5950 -0.9292  0.1699
 2443SOL     OW 8378   0.391   5.156   4.254 -0.5067  0.1811 -0.3811
 2443SOL    HW1 8379   0.364   5.064   4.259 -0.1047  0.0782 -0.0022
 2443SOL    HW2 8380   0.311   5.203   4.231 -0.8665 -0.1933  0.0635
 2444SOL     OW 8381   7.609   0.002   4.926 -0.3372 -0.7046  0.5121
 2444SOL    HW1 8382   7.590  -0.092   4.934 -2.0260 -0.4809 -0.3204
 2444SOL    HW2 8383   7.560   0.042   4.998  0.0855 -0.4298  0.6466
 2445SOL     OW 8384   0.244   1.729   0.436  0.0498 -0.0077 -0.4243
 2445SOL    HW1 8385   0.304   1.803   0.442  0.4323 -0.2918 -0.6952
 2445SOL    HW2 8386   0.239   1.695   0.525 -0.3014  0.4784 -0.2566
 2446SOL     OW 8387   5.259   5.677   3.839 -0.3464  0.0519  0.2307
 2446SOL    HW1 8388   5.327   5.611   3.826  0.0282  0.4670  0.0688
 2446SOL    HW2 8389   5.282   5.748   3.780 -0.2859  0.6810  0.9851
 2447SOL     OW 8390   1.651   4.079   4.959  0.3509 -0.0752 -0.1309
 2447SOL    HW1 8391   1.711   4.055   4.888 -1.5824 -1.9887 -1.2298
 2447SOL    HW2 8392   1.679   4.025   5.033  0.5667 -0.2707 -0.3502
 2448SOL     OW 8393   5.357   0.187   6.080  0.2102 -0.1704  0.9507
 2448SOL    HW1 8394   5.353   0.108   6.134 -2.1037 -1.6861 -1.1810
 2448SOL    HW2 8395   5.418   0.164   6.009 -2.3721 -1.2007 -1.1035
 2449SOL     OW 8396   0.674   1.122   7.094  0.1290  0.2942  0.5385
 2449SOL    HW1 8397   0.588   1.084   7.079 -0.9014  2.0535  1.6972
 2449SOL    HW2 8398   0.657   1.203   7.141  2.2591  1.9326 -1.2845
 2450SOL     OW 8399   3.473   0.084   2.107 -0.0540 -0.4158 -0.3803
 2450SOL    HW1 8400   3.395   0.034   2.083 -0.7383  0.5261 -0.2293
 2450SOL    HW2 8401   3.443   0.141   2.178  0.6723  0.2295 -0.5754
 2451SOL     OW 8402   2.311   7.628   4.593  0.2725  0.0678 -0.0880
 2451SOL    HW1 8403   2.349   7.710   4.560  2.6035 -1.3267 -1.0897
 2451SOL    HW2 8404   2.369   7.600   4.663  1.0164 -1.9603 -1.4284
 2452SOL     OW 8405   4.117   3.615   6.423 -0.4090 -0.1334 -0.3135
 2452SOL    HW1 8406   4.043   3.555   6.420 -0.8730  0.3903  0.3374
 2452SOL    HW2 8407   4.086   3.689   6.475  0.3865  0.3501 -0.5021
 2453SOL     OW 8408   6.276   6.768   1.806  0.1349  0.1994 -0.3529
 2453SOL    HW1 8409   6.285   6.826   1.730  1.4693 -0.6649 -0.8778
 2453SOL    HW2 8410   6.360   6.724   1.813 -0.3472 -0.5525  0.9701
 2454SOL     OW 8411   5.753   3.377   2.924  0.2217  0.0994 -0.4251
 2454SOL    HW1 8412   5.749   3.403   3.016 -0.0638  0.1629 -0.4539
 2454SOL    HW2 8413   5.834   3.416   2.892 -0.1890  0.9509 -0.4600
 2455SOL     OW 8414   5.033   6.248   0.419 -0.1451  0.6879  0.0541
 2455SOL    HW1 8415   5.014   6.211   0.505  0.1429 -0.0815 -0.2117
 2455SOL    HW2 8416   5.126   6.234   0.406 -0.5981 -1.4114 -1.4011
 2456SOL     OW 8417   0.678   4.893   2.160 -0.4755  0.2016  0.2406
 2456SOL    HW1 8418   0.631   4.964   2.204 -0.3981 -0.1734  0.9392
 2456SOL    HW2 8419   0.747   4.868   2.222  1.5669  1.6654 -1.3204
 2457SOL     OW 8420   7.965   7.506   2.232  0.4321 -0.7380 -0.3678
 2457SOL    HW1 8421   7.917   7.565   2.290 -3.0825  0.5469 -4.1108
 2457SOL    HW2 8422   8.032   7.560   2.191 -1.3033  0.2530 -2.0894
 2458SOL     OW 8423   4.477   5.469   6.911 -0.2999 -0.0356  0.2072
 2458SOL    HW1 8424   4.455   5.376   6.912  1.3541 -0.4628 -0.2059
 2458SOL    HW2 8425   4.572   5.471   6.901 -0.3311  1.7031 -0.0399
 2459SOL     OW 8426   6.131   4.114   5.376 -0.0974  0.1891  0.1711
 2459SOL    HW1 8427   6.201   4.074   5.428 -1.2284 -1.4882  0.4622
 2459SOL    HW2 8428   6.168   4.198   5.347  1.7274 -0.2914  0.9736
 2460SOL     OW 8429   1.937   4.220   0.881  0.1460 -0.8711 -1.0480
 2460SOL    HW1 8430   1.989   4.295   0.851  0.1075 -0.2718  0.2940
 2460SOL    HW2 8431   2.001   4.149   0.889  1.1601  0.1949  1.8561
 2461SOL     OW 8432   8.065   5.495   7.542  0.2969 -0.0345  0.3057
 2461SOL    HW1 8433   8.025   5.487   7.629 -2.6557  0.4076 -0.9163
 2461SOL    HW2 8434   8.056   5.587   7.520 -1.5940 -0.5960 -1.5621
 2462SOL     OW 8435   6.346   7.085   6.949 -0.6255 -0.7059 -0.2616
 2462SOL    HW1 8436   6.391   7.000   6.958 -0.3127 -0.5095  0.0665
 2462SOL    HW2 8437   6.293   7.092   7.028 -0.5677 -0.5500 -0.2370
 2463SOL     OW 8438   4.816   8.219   7.885 -0.6497  0.4053  0.3616
 2463SOL    HW1 8439   4.861   8.237   7.968  0.0436  0.4414 -0.0135
 2463SOL    HW2 8440   4.869   8.151   7.843 -2.6703 -1.9030  1.3087
 2464SOL     OW 8441   4.245   3.096   6.800 -0.3922  0.1401  0.7543
 2464SOL    HW1 8442   4.322   3.117   6.748 -1.5367 -1.9423 -2.0849
 2464SOL    HW2 8443   4.171   3.130   6.748 -1.6180 -2.3728  0.6941
 2465SOL     OW 8444   7.472   4.953   4.774 -0.2520  0.1644  0.2611
 2465SOL    HW1 8445   7.530   4.877   4.778  0.8150  0.9937  1.5559
 2465SOL    HW2 8446   7.399   4.931   4.831  0.7829  0.6405  1.8423
 2466SOL     OW 8447   6.277   1.598   4.123 -0.0245  0.4966  0.0873
 2466SOL    HW1 8448   6.346   1.644   4.076  0.1150 -0.1910 -0.3942
 2466SOL    HW2 8449   6.280   1.634   4.212  0.3893  1.0709 -0.1595
 2467SOL     OW 8450   5.874   5.532   6.766  0.1894  0.1992 -0.0591
 2467SOL    HW1 8451   5.842   5.447   6.797 -1.5859  1.2155  1.0906
 2467SOL    HW2 8452   5.807   5.561   6.704  1.7935 -0.0743 -2.0385
 2468SOL     OW 8453   5.938   6.578   0.506  0.3392 -0.2874 -0.4099
 2468SOL    HW1 8454   6.002   6.634   0.461  0.8822 -0.0843  0.5716
 2468SOL    HW2 8455   5.990   6.532   0.573 -0.6217  0.2474  0.7344
 2469SOL     OW 8456   8.266   5.458   0.189 -0.1909  0.3973 -0.3660
 2469SOL    HW1 8457   8.331   5.487   0.253  0.5125  0.9640 -1.3192
 2469SOL    HW2 8458   8.296   5.371   0.161 -1.0112 -0.2683  0.7402
 2470SOL     OW 8459   5.787   4.760   5.568  0.0043 -0.3531 -0.4172
 2470SOL    HW1 8460   5.881   4.757   5.582 -0.0213  0.6831  0.0520
 2470SOL    HW2 8461   5.757   4.672   5.590  0.6974 -0.3326  0.7204
 2471SOL     OW 8462   1.721   0.175   0.121  0.3891 -0.1590 -0.1088
 2471SOL    HW1 8463   1.628   0.156   0.135  0.1390  0.7199 -0.5198
 2471SOL    HW2 8464   1.727   0.198   0.028  0.9837 -0.0190 -0.0388
 2472SOL     OW 8465   2.736   2.510   6.887  0.1828 -0.2621  0.5294
 2472SOL    HW1 8466   2.762   2.576   6.951 -0.4461 -0.3338  0.8663
 2472SOL    HW2 8467   2.797   2.438   6.900 -0.3551 -0.5467  1.4995
 2473SOL     OW 8468   1.530   7.740   4.110 -0.2266  0.3071  0.1954
 2473SOL    HW1 8469   1.551   7.826   4.073  0.6257  1.5985  3.3400
 2473SOL    HW2 8470   1.585   7.679   4.061  0.9441  1.8848 -0.5600
 2474SOL     OW 8471   1.261   3.564   7.264 -0.2170 -0.1560 -0.7555
 2474SOL    HW1 8472   1.255   3.614   7.345 -0.7213 -1.3429 -0.0414
 2474SOL    HW2 8473   1.191   3.599   7.208 -0.6266 -0.1345 -0.2294
 2475SOL     OW 8474   6.858   8.195   3.380 -0.1428 -0.8644  0.3108
 2475SOL    HW1 8475   6.791   8.247   3.423 -0.4706 -1.0468  0.0215
 2475SOL    HW2 8476   6.812   8.118   3.348  0.3215 -1.2879  0.6537
 2476SOL     OW 8477   4.376   0.740   7.410 -0.7894  0.3634 -0.3103
 2476SOL    HW1 8478   4.344   0.730   7.500 -1.6588 -0.6788 -0.7107
 2476SOL    HW2 8479   4.303   0.710   7.356 -0.1117  0.5700 -1.3599
 2477SOL     OW 8480   3.874   5.368   3.532  0.1232 -0.2680  0.2454
 2477SOL    HW1 8481   3.892   5.416   3.451  0.1578 -0.2031  0.2908
 2477SOL    HW2 8482   3.779   5.364   3.536  0.0800  0.8634  0.8513
 2478SOL     OW 8483   3.696   1.503   6.401  0.1955 -0.0122  0.4676
 2478SOL    HW1 8484   3.677   1.430   6.459  4.6259 -0.8321  1.2718
 2478SOL    HW2 8485   3.787   1.527   6.422 -0.3578  4.4422 -1.1685
 2479SOL     OW 8486   1.079   4.864   1.944 -0.4987 -0.4059 -0.2232
 2479SOL    HW1 8487   1.039   4.935   1.995 -2.3760 -0.2735 -1.7802
 2479SOL    HW2 8488   1.011   4.836   1.883  0.7364 -2.4716 -0.7622
 2480SOL     OW 8489   2.752   7.497   8.024 -0.2880 -0.0266  0.3749
 2480SOL    HW1 8490   2.711   7.471   7.942  0.3900 -2.9739  0.8278
 2480SOL    HW2 8491   2.717   7.435   8.089  1.9929 -0.2498  1.4944
 2481SOL     OW 8492   6.554   3.888   5.800 -0.6056 -0.6064 -0.3225
 2481SOL    HW1 8493   6.631   3.944   5.796 -0.7892  0.3768  4.2158
 2481SOL    HW2 8494   6.515   3.893   5.713  3.6159 -0.0874 -2.4324
 2482SOL     OW 8495   7.310   0.794   1.514  0.6178 -0.4056  0.0425
 2482SOL    HW1 8496   7.388   0.835   1.550  1.7392  0.4360 -3.0121
 2482SOL    HW2 8497   7.247   0.865   1.503  0.5753 -0.4984 -0.3445
 2483SOL     OW 8498   1.802   4.196   1.150 -0.3144  0.1497 -0.2950
 2483SOL    HW1 8499   1.821   4.194   1.056 -0.5552  0.6459 -0.3528
 2483SOL    HW2 8500   1.887   4.178   1.191 -0.6387 -2.6178 -0.6352
 2484SOL     OW 8501   0.233   7.983   7.261 -0.5371 -0.3483  0.0995
 2484SOL    HW1 8502   0.153   7.979   7.208 -0.5803  1.7178 -0.0744
 2484SOL    HW2 8503   0.252   8.076   7.269  1.8645 -0.7736  0.1663
 2485SOL     OW 8504   0.786   3.722   4.455  0.3515 -0.7178  0.4310
 2485SOL    HW1 8505   0.834   3.717   4.372  0.8263 -2.0018  0.7662
 2485SOL    HW2 8506   0.800   3.637   4.496 -1.3472 -0.7358  1.0289
 2486SOL     OW 8507   8.129   3.179   0.865  0.0873 -0.3866  0.5314
 2486SOL    HW1 8508   8.056   3.151   0.810  0.3893  0.0067 -0.0882
 2486SOL    HW2 8509   8.146   3.105   0.923 -0.2281 -0.8209  0.0754
 2487SOL     OW 8510   2.950   6.950   0.997  0.0250  0.2036 -0.4368
 2487SOL    HW1 8511   2.947   7.024   0.936 -0.6236 -0.3552 -1.0925
 2487SOL    HW2 8512   2.871   6.959   1.050 -0.6461 -0.6369 -1.2659
 2488SOL     OW 8513   6.092   2.263   6.231  0.7594 -1.0847 -0.2678
 2488SOL    HW1 8514   6.058   2.236   6.316 -1.4211  2.0570  0.0267
 2488SOL    HW2 8515   6.024   2.239   6.168  0.0919  0.8630 -0.3678
 2489SOL     OW 8516   3.437   3.677   2.526 -0.1811 -0.1321 -0.3228
 2489SOL    HW1 8517   3.515   3.623   2.539 -0.8354 -0.5886  2.0149
 2489SOL    HW2 8518   3.367   3.630   2.570 -1.0275  2.0205  0.7528
 2490SOL     OW 8519   0.367   3.667   5.525 -0.3825  0.0261  0.2930
 2490SOL    HW1 8520   0.380   3.760   5.544  0.5277 -0.0384  0.0323
 2490SOL    HW2 8521   0.444   3.624   5.563  0.3488 -0.3649 -1.5257
 2491SOL     OW 8522   1.438   3.739   5.355 -0.3397 -0.3591  0.6986
 2491SOL    HW1 8523   1.522   3.727   5.398  1.7855 -1.0333 -3.1367
 2491SOL    HW2 8524   1.376   3.689   5.408  2.2042 -2.1567  2.2173
 2492SOL     OW 8525   5.415   7.030   2.370 -0.2494  0.2990 -0.5985
 2492SOL    HW1 8526   5.441   7.107   2.319  1.8634 -1.2220 -2.0045
 2492SOL    HW2 8527   5.489   7.015   2.430 -1.1411 -0.0056  0.4573
 2493SOL     OW 8528   3.305   3.395   0.764 -0.2711  0.6520 -0.4429
 2493SOL    HW1 8529   3.248   3.397   0.687 -0.2658 -3.0613 -0.7236
 2493SOL    HW2 8530   3.391   3.374   0.730 -0.0923 -0.1851  0.4818
 2494SOL     OW 8531   7.488   5.045   6.383  0.5665 -0.1173  0.1742
 2494SOL    HW1 8532   7.512   4.996   6.304 -0.5615  1.9233 -1.5513
 2494SOL    HW2 8533   7.393   5.056   6.377  0.4960  0.3057  1.6982
 2495SOL     OW 8534   2.442   4.582   0.835  0.0808  0.2074  0.4450
 2495SOL    HW1 8535   2.467   4.583   0.927  0.9703  0.0905  0.2096
 2495SOL    HW2 8536   2.360   4.633   0.832  1.0490  1.8947  1.0209
 2496SOL     OW 8537   7.325   5.781   5.514 -0.6424  0.1620  0.5773
 2496SOL    HW1 8538   7.230   5.772   5.521 -0.6449 -0.8320 -0.5167
 2496SOL    HW2 8539   7.339   5.834   5.436 -0.2839 -0.1803  0.4066
 2497SOL     OW 8540   7.026   6.366   8.117  0.4101 -0.1073  0.5745
 2497SOL    HW1 8541   7.000   6.453   8.087 -0.7217 -1.1085 -1.5979
 2497SOL    HW2 8542   7.099   6.342   8.060 -0.4220 -1.2307 -0.0593
 2498SOL     OW 8543   1.747   1.540   4.156 -0.2253  0.1609  0.0313
 2498SOL    HW1 8544   1.670   1.559   4.210  0.2636 -1.1418  1.2408
 2498SOL    HW2 8545   1.815   1.515   4.219  1.8514  3.1419 -0.8097
 2499SOL     OW 8546   0.364   3.844   6.708 -0.3314 -0.0457  0.1968
 2499SOL    HW1 8547   0.425   3.784   6.664 -0.5543  0.1407 -0.3744
 2499SOL    HW2 8548   0.412   3.874   6.785  0.9066  1.2415 -1.0033
 2500SOL     OW 8549   3.187   6.236   6.659  0.8042  0.3860 -0.3897
 2500SOL    HW1 8550   3.256   6.250   6.595 -0.2323  2.5431 -1.1417
 2500SOL    HW2 8551   3.117   6.297   6.633 -0.6780 -0.4603  1.3372
 2501SOL     OW 8552   0.753   1.888   3.235 -0.0675 -0.3999 -0.5919
 2501SOL    HW1 8553   0.721   1.883   3.326 -1.0592 -0.4120 -0.9277
 2501SOL    HW2 8554   0.743   1.981   3.212  0.6854 -0.2963 -0.5210
 2502SOL     OW 8555   8.185   4.762   7.386  0.2209  0.0625  0.2799
 2502SOL    HW1 8556   8.224   4.678   7.410 -0.4411  0.1423  1.7393
 2502SOL    HW2 8557   8.256   4.825   7.393  0.3979 -0.1653  0.5346
 2503SOL     OW 8558   0.675   6.433   7.937 -0.0443 -0.1817 -0.2218
 2503SOL    HW1 8559   0.646   6.443   8.027 -0.8244 -1.0094 -0.3658
 2503SOL    HW2 8560   0.652   6.516   7.895  1.0353  0.5133  0.5103
 2504SOL     OW 8561   3.456   6.269   2.028 -0.0072  0.0769  0.0912
 2504SOL    HW1 8562   3.477   6.357   2.061 -0.8951  0.4788 -0.3872
 2504SOL    HW2 8563   3.369   6.278   1.989  0.5427 -0.6307 -1.3772
 2505SOL     OW 8564   4.752   0.521   1.672 -0.3254 -0.5734 -0.1574
 2505SOL    HW1 8565   4.691   0.468   1.621 -1.9841  0.8160  0.2657
 2505SOL    HW2 8566   4.819   0.549   1.609 -0.5417 -1.5201 -0.8159
 2506SOL     OW 8567   0.589   6.682   7.542 -0.2848 -0.0341 -0.7900
 2506SOL    HW1 8568   0.514   6.656   7.488 -0.5968  1.7833 -1.3013
 2506SOL    HW2 8569   0.630   6.599   7.567 -2.3264 -1.0762 -0.6656
 2507SOL     OW 8570   1.466   3.162   1.425  0.3845  0.6442 -0.1179
 2507SOL    HW1 8571   1.492   3.082   1.379 -1.3274  0.5985 -1.0800
 2507SOL    HW2 8572   1.434   3.132   1.510  1.2230  0.4768  0.1446
 2508SOL     OW 8573   3.899   2.714   2.464  0.4733  0.7730  0.0220
 2508SOL    HW1 8574   3.823   2.760   2.431  0.2511  0.3840 -0.0100
 2508SOL    HW2 8575   3.907   2.636   2.409  1.0395  0.9356 -0.1369
 2509SOL     OW 8576   5.997   3.582   4.473  0.4664  0.0747  0.2553
 2509SOL    HW1 8577   5.903   3.602   4.473  0.4523  0.0118  0.1336
 2509SOL    HW2 8578   6.038   3.657   4.430  0.3804 -0.2947 -0.4893
 2510SOL     OW 8579   5.504   5.817   0.464 -0.2541  0.4056 -0.0954
 2510SOL    HW1 8580   5.528   5.724   0.462 -1.0372  0.1850  0.2941
 2510SOL    HW2 8581   5.585   5.862   0.487  0.0163 -0.2254  0.2387
 2511SOL     OW 8582   1.725   2.576   4.470  0.2432 -0.3886 -0.1599
 2511SOL    HW1 8583   1.739   2.641   4.401 -0.3416 -0.3660 -0.2545
 2511SOL    HW2 8584   1.804   2.582   4.524  1.3555 -1.3667 -1.5923
 2512SOL     OW 8585   7.380   2.600   0.694  0.5631  0.0945 -0.1535
 2512SOL    HW1 8586   7.401   2.520   0.646  0.6579  0.5054 -0.8139
 2512SOL    HW2 8587   7.409   2.583   0.783  0.7542 -0.5394 -0.3338
 2513SOL     OW 8588   2.553   4.234   7.549  0.3788  0.9991  0.1132
 2513SOL    HW1 8589   2.509   4.153   7.574  0.3139  0.2313 -2.2960
 2513SOL    HW2 8590   2.623   4.206   7.490 -0.1937  2.7234 -1.4801
 2514SOL     OW 8591   6.582   3.261   1.868 -0.1137 -0.4399  0.9721
 2514SOL    HW1 8592   6.615   3.236   1.782 -1.8175 -1.3332  0.5363
 2514SOL    HW2 8593   6.623   3.199   1.928  2.2843  1.1233  1.0885
 2515SOL     OW 8594   1.392   6.272   2.211 -0.2335 -0.1482  0.0331
 2515SOL    HW1 8595   1.322   6.208   2.221  0.5160 -1.0147 -0.0493
 2515SOL    HW2 8596   1.357   6.338   2.151 -0.3643 -1.5256 -1.4711
 2516SOL     OW 8597   5.029   3.341   6.190 -0.2894 -0.2231  0.0353
 2516SOL    HW1 8598   5.015   3.425   6.147  1.1833 -0.6255 -1.3329
 2516SOL    HW2 8599   5.071   3.363   6.273 -0.3436  0.4094 -0.1003
 2517SOL     OW 8600   6.732   5.037   6.251 -0.1151  0.3501 -0.4316
 2517SOL    HW1 8601   6.817   4.994   6.265 -0.3931 -0.2828 -0.6404
 2517SOL    HW2 8602   6.753   5.118   6.205  0.3234 -0.1160 -1.0638
 2518SOL     OW 8603   4.106   3.496   5.046 -0.3023  0.4037  0.3049
 2518SOL    HW1 8604   4.097   3.584   5.083 -0.4655  0.7343 -0.4902
 2518SOL    HW2 8605   4.201   3.482   5.041 -0.2651  0.7431 -0.0271
 2519SOL     OW 8606   7.653   3.741   6.420  0.0804 -0.2179  0.1797
 2519SOL    HW1 8607   7.633   3.736   6.327  2.2707  0.5077 -0.4031
 2519SOL    HW2 8608   7.636   3.833   6.443  1.9347  0.2557 -0.1798
 2520SOL     OW 8609   3.187   4.767   5.627 -0.6870  0.0294 -0.4211
 2520SOL    HW1 8610   3.187   4.862   5.612 -0.8925  0.0609 -0.2363
 2520SOL    HW2 8611   3.094   4.744   5.628 -0.9354  0.5042  3.6365
 2521SOL     OW 8612   3.931   6.179   4.302 -0.2070 -0.0905  0.2615
 2521SOL    HW1 8613   3.939   6.233   4.380  0.6478  0.9347 -0.5218
 2521SOL    HW2 8614   3.987   6.103   4.319 -0.6365 -0.2605  0.9492
 2522SOL     OW 8615   5.179   8.134   2.835 -0.3911  0.4263  0.2288
 2522SOL    HW1 8616   5.142   8.072   2.772 -0.3712  0.8909 -0.2558
 2522SOL    HW2 8617   5.139   8.218   2.812  0.6780  0.8722 -0.0922
 2523SOL     OW 8618   5.523   3.213   0.202  0.4688 -0.4436  0.3800
 2523SOL    HW1 8619   5.534   3.221   0.296  1.5491  0.6584  0.1798
 2523SOL    HW2 8620   5.611   3.225   0.166  0.6875 -4.0099 -0.6324
 2524SOL     OW 8621   7.060   8.066   2.729 -0.1678  0.2212  0.4549
 2524SOL    HW1 8622   7.056   8.010   2.806  0.0087 -0.1793  0.1754
 2524SOL    HW2 8623   7.079   8.153   2.764  0.1731 -0.0046  0.8438
 2525SOL     OW 8624   7.786   0.863   4.078 -0.0567  0.2293  0.4093
 2525SOL    HW1 8625   7.764   0.771   4.091  1.2213  0.1154  2.1891
 2525SOL    HW2 8626   7.725   0.911   4.135 -0.4487  0.4639 -0.1996
 2526SOL     OW 8627   7.207   4.319   5.106 -0.6202 -0.2139  0.3898
 2526SOL    HW1 8628   7.189   4.301   5.013 -1.0225 -0.2508  0.4712
 2526SOL    HW2 8629   7.203   4.233   5.148  2.2969 -0.6057  0.0237
 2527SOL     OW 8630   6.542   5.260   4.759  0.1048  0.5010  0.3767
 2527SOL    HW1 8631   6.534   5.353   4.735 -0.8851  0.2106 -0.4860
 2527SOL    HW2 8632   6.633   5.251   4.788 -0.0778  1.9838  1.5773
 2528SOL     OW 8633   0.397   2.320   4.107  0.4674  0.4830  0.5254
 2528SOL    HW1 8634   0.430   2.398   4.062  2.1961 -0.2259  0.4622
 2528SOL    HW2 8635   0.310   2.305   4.071  0.6321  1.6474 -0.3877
 2529SOL     OW 8636   3.132   3.083   7.029 -0.2174 -0.1054  0.5022
 2529SOL    HW1 8637   3.071   3.124   6.968  1.3039  1.4689 -0.0303
 2529SOL    HW2 8638   3.077   3.025   7.082 -2.1477  1.1468 -0.0267
 2530SOL     OW 8639   4.089   7.554   4.391  0.6538 -0.4536  0.5139
 2530SOL    HW1 8640   4.021   7.553   4.323 -0.5547  1.4845  1.5666
 2530SOL    HW2 8641   4.155   7.615   4.358  1.3025 -1.3951  0.0336
 2531SOL     OW 8642   5.081   0.381   6.625 -0.2637  0.1077 -0.3830
 2531SOL    HW1 8643   5.159   0.329   6.607  0.9513  2.2533 -1.8647
 2531SOL    HW2 8644   5.097   0.419   6.711  1.2872  1.9684 -1.4106
 2532SOL     OW 8645   2.493   1.274   3.393 -0.2385  0.0434 -0.0528
 2532SOL    HW1 8646   2.512   1.184   3.367  2.5138  0.6341 -0.4138
 2532SOL    HW2 8647   2.447   1.312   3.318  1.5839 -0.1697 -1.3438
 2533SOL     OW 8648   6.759   1.669   7.622 -0.4997  0.7849 -0.4130
 2533SOL    HW1 8649   6.752   1.606   7.550 -0.6539  1.9886 -1.4691
 2533SOL    HW2 8650   6.850   1.660   7.652 -0.7077 -0.4237 -0.0717
 2534SOL     OW 8651   2.308   1.386   2.133 -0.6582 -0.3888  0.5658
 2534SOL    HW1 8652   2.351   1.466   2.103 -1.5497  0.1421  0.6373
 2534SOL    HW2 8653   2.361   1.356   2.207 -0.3707  0.1945  0.6020
 2535SOL     OW 8654   7.440   0.331   8.244  0.0249 -0.2667 -0.2437
 2535SOL    HW1 8655   7.357   0.376   8.258  1.8785  2.7999  2.0561
 2535SOL    HW2 8656   7.468   0.357   8.157  0.6435  2.5994  0.7130
 2536SOL     OW 8657   7.302   2.792   3.112  0.2993  0.4352 -0.8524
 2536SOL    HW1 8658   7.233   2.831   3.166 -3.3291  0.0317 -4.7300
 2536SOL    HW2 8659   7.300   2.699   3.134  1.1504  0.7018  0.4855
 2537SOL     OW 8660   3.155   4.297   2.346  0.2408 -0.3255  0.1518
 2537SOL    HW1 8661   3.247   4.318   2.328  0.5408 -0.0376  1.8683
 2537SOL    HW2 8662   3.157   4.244   2.425 -0.9171 -2.5890 -1.2320
 2538SOL     OW 8663   2.097   2.287   7.361  0.0812  0.1416 -0.0092
 2538SOL    HW1 8664   2.110   2.202   7.319 -0.4889  0.0347  0.0263
 2538SOL    HW2 8665   2.096   2.268   7.455 -3.5517 -0.3927  0.0026
 2539SOL     OW 8666   0.457   7.601   3.832  0.2017  0.3118  0.1037
 2539SOL    HW1 8667   0.518   7.612   3.905  3.1653  0.6109 -2.2322
 2539SOL    HW2 8668   0.390   7.542   3.866  1.2092  0.7375  3.1447
 2540SOL     OW 8669   2.368   1.324   5.804 -0.1133  0.3471  0.8887
 2540SOL    HW1 8670   2.398   1.414   5.820 -0.9805  0.7852  0.1877
 2540SOL    HW2 8671   2.360   1.319   5.708  0.0625 -0.5255  0.9144
 2541SOL     OW 8672   5.101   1.672   5.982 -0.4275 -0.5241 -0.1459
 2541SOL    HW1 8673   5.095   1.703   6.072 -0.8900 -1.0573  0.0110
 2541SOL    HW2 8674   5.038   1.601   5.976 -1.9727  0.8727 -1.4878
 2542SOL     OW 8675   0.662   2.066   2.371 -0.4808  0.7389  0.1748
 2542SOL    HW1 8676   0.682   2.085   2.280 -0.6039  2.6139  0.4994
 2542SOL    HW2 8677   0.747   2.062   2.414 -0.4873  1.5900  0.2778
 2543SOL     OW 8678   5.115   5.202   2.566  0.0694 -0.2418  0.6006
 2543SOL    HW1 8679   5.080   5.261   2.633 -1.1893 -0.5392  0.2424
 2543SOL    HW2 8680   5.110   5.253   2.485 -2.1537 -1.1680  0.0738
 2544SOL     OW 8681   4.001   8.139   1.260 -0.0006  0.7159 -0.2525
 2544SOL    HW1 8682   3.936   8.069   1.251  0.3587  0.2201  0.8391
 2544SOL    HW2 8683   4.027   8.159   1.170 -0.6117 -0.0884 -0.6207
 2545SOL     OW 8684   6.765   7.438   8.018  0.7016 -0.1437  0.1486
 2545SOL    HW1 8685   6.701   7.488   8.068 -0.9861 -0.1976 -1.7973
 2545SOL    HW2 8686   6.816   7.504   7.970  0.5836 -0.1764 -0.0227
 2546SOL     OW 8687   5.686   5.214   5.729 -0.2515 -0.1032  0.3469
 2546SOL    HW1 8688   5.775   5.241   5.747 -1.2212  2.8158  1.3291
 2546SOL    HW2 8689   5.672   5.138   5.785  1.7563 -1.0068 -0.2957
 2547SOL     OW 8690   4.456   4.272   4.352  0.6557  0.2328  0.8849
 2547SOL    HW1 8691   4.374   4.305   4.388  0.2526 -1.7963  1.9278
 2547SOL    HW2 8692   4.469   4.322   4.271 -2.6230 -0.7646 -0.3837
 2548SOL     OW 8693   1.752   7.256   2.703 -0.1027 -0.5240  0.2789
 2548SOL    HW1 8694   1.671   7.240   2.656  0.1872  0.5183 -0.6147
 2548SOL    HW2 8695   1.773   7.173   2.745 -2.6656 -0.3035  2.1863
 2549SOL     OW 8696   3.852   3.798   8.250 -0.5747 -0.8223  0.1924
 2549SOL    HW1 8697   3.851   3.703   8.262  1.1618 -0.6573  2.2312
 2549SOL    HW2 8698   3.859   3.810   8.156 -1.5870 -2.6813 -0.1749
 2550SOL     OW 8699   2.863   7.727   4.654 -0.0568 -0.2700  0.3655
 2550SOL    HW1 8700   2.829   7.767   4.734 -1.2889 -1.6255  0.5358
 2550SOL    HW2 8701   2.804   7.655   4.635  0.4065 -0.1977 -1.5960
 2551SOL     OW 8702   7.612   1.268   0.645  0.1316  0.0790 -0.2797
 2551SOL    HW1 8703   7.640   1.264   0.553  0.0295  0.9661 -0.3641
 2551SOL    HW2 8704   7.561   1.350   0.650  0.1023  0.0132  0.5581
 2552SOL     OW 8705   7.336   1.811   1.744  0.5161  0.1566  0.1642
 2552SOL    HW1 8706   7.254   1.814   1.695  1.0981 -2.4380 -1.1003
 2552SOL    HW2 8707   7.315   1.763   1.824  0.9301 -1.2673 -0.5506
 2553SOL     OW 8708   2.841   6.838   8.177  0.4415  0.1498 -0.1954
 2553SOL    HW1 8709   2.765   6.814   8.230  0.4969  0.7301  0.1532
 2553SOL    HW2 8710   2.914   6.793   8.219  0.6668  1.4687  0.9076
 2554SOL     OW 8711   6.014   6.072   0.513 -0.3023  0.7308 -0.0210
 2554SOL    HW1 8712   6.012   6.160   0.476  0.6408  0.7082 -0.1309
 2554SOL    HW2 8713   6.054   6.018   0.445 -0.4754  0.2947  0.2182
 2555SOL     OW 8714   0.835   2.530   3.620  0.3576  0.1656  0.5675
 2555SOL    HW1 8715   0.897   2.568   3.558 -0.1357  0.3731  0.2009
 2555SOL    HW2 8716   0.823   2.597   3.687 -2.9305  2.0973 -1.6612
 2556SOL     OW 8717   5.157   6.894   2.840  0.3019 -0.0378  0.2639
 2556SOL    HW1 8718   5.195   6.843   2.768  0.7744  0.2207  0.3247
 2556SOL    HW2 8719   5.064   6.902   2.817  0.0884 -1.3943  0.5311
 2557SOL     OW 8720   5.029   7.773   5.347  0.0968  0.0312 -0.0004
 2557SOL    HW1 8721   4.982   7.713   5.288 -1.8202  1.9716 -0.5598
 2557SOL    HW2 8722   5.090   7.716   5.394 -1.1100 -2.2410 -0.9917
 2558SOL     OW 8723   6.238   3.891   2.095  0.2520 -0.5902 -0.4024
 2558SOL    HW1 8724   6.248   3.969   2.040 -0.6315 -0.3087 -0.1843
 2558SOL    HW2 8725   6.212   3.822   2.035 -0.7483 -0.2747 -0.3555
 2559SOL     OW 8726   7.644   0.583   3.757  0.3148 -0.1420 -0.0872
 2559SOL    HW1 8727   7.671   0.631   3.835  2.3470 -0.5976 -0.4489
 2559SOL    HW2 8728   7.652   0.491   3.782  1.0470 -0.2950 -0.8209
 2560SOL     OW 8729   5.753   3.894   0.172 -0.1834 -0.0897  0.0285
 2560SOL    HW1 8730   5.674   3.914   0.123 -0.6687 -1.8778  0.0081
 2560SOL    HW2 8731   5.727   3.903   0.264 -0.5090 -0.9284  0.0287
 2561SOL     OW 8732   5.317   7.046   0.032 -0.3228  0.3176  0.4606
 2561SOL    HW1 8733   5.327   7.028   0.126  1.9870  0.3778  0.2880
 2561SOL    HW2 8734   5.257   6.978   0.001 -1.9256  0.8964  2.1237
 2562SOL     OW 8735   7.421   4.943   8.244 -0.2614 -0.2961  0.3858
 2562SOL    HW1 8736   7.376   5.025   8.266 -1.6276 -1.1712  0.9689
 2562SOL    HW2 8737   7.403   4.931   8.151  1.0919  0.7199 -0.0497
 2563SOL     OW 8738   2.480   7.993   7.845 -0.0669 -0.6278 -0.0597
 2563SOL    HW1 8739   2.512   7.911   7.882  3.5819  0.3189 -0.7168
 2563SOL    HW2 8740   2.489   7.982   7.750  0.0862  0.3955 -0.1787
 2564SOL     OW 8741   1.258   0.292   8.075 -0.2853  0.1938  0.3650
 2564SOL    HW1 8742   1.204   0.222   8.111  1.0331 -1.6742 -1.0951
 2564SOL    HW2 8743   1.345   0.254   8.067  0.6088  2.1811 -0.0244
 2565SOL     OW 8744   3.016   1.739   0.238  0.0698 -0.8615 -0.3504
 2565SOL    HW1 8745   2.930   1.754   0.276  0.0235 -1.0691 -0.3703
 2565SOL    HW2 8746   3.068   1.702   0.309  0.5570  0.5563  0.0637
 2566SOL     OW 8747   4.505   7.637   0.242 -0.0943 -0.3714  0.7199
 2566SOL    HW1 8748   4.599   7.638   0.259 -0.1446  0.1263  0.9776
 2566SOL    HW2 8749   4.465   7.632   0.329 -0.3356  1.5227  0.7606
 2567SOL     OW 8750   6.736   3.045   0.497 -0.3320  0.3283 -0.0036
 2567SOL    HW1 8751   6.706   3.081   0.414 -1.5628 -3.5486 -1.4436
 2567SOL    HW2 8752   6.667   3.067   0.559  0.2887  2.6978 -0.0648
 2568SOL     OW 8753   6.078   2.473   2.891 -0.4104  0.3407  0.4971
 2568SOL    HW1 8754   6.137   2.525   2.836 -0.1793 -1.5692 -1.1740
 2568SOL    HW2 8755   6.116   2.478   2.979  2.3432 -0.8541 -0.5183
 2569SOL     OW 8756   0.373   1.575   1.396  0.0711  0.3897  0.1797
 2569SOL    HW1 8757   0.456   1.551   1.437  0.0808  0.2165  0.0581
 2569SOL    HW2 8758   0.385   1.556   1.303  0.2332  1.2798  0.0087
 2570SOL     OW 8759   1.513   7.800   6.273  0.2161 -0.4459 -1.0392
 2570SOL    HW1 8760   1.471   7.733   6.327 -0.3191  0.3355 -0.4599
 2570SOL    HW2 8761   1.602   7.768   6.259  0.6608 -0.2783  1.0697
 2571SOL     OW 8762   6.718   2.144   3.024  0.3475  0.0743  0.0487
 2571SOL    HW1 8763   6.699   2.227   2.981 -0.2194  1.0794  2.0729
 2571SOL    HW2 8764   6.803   2.157   3.065  0.0465 -0.1464  0.7675
 2572SOL     OW 8765   0.832   4.475   2.260  0.6741 -0.5688  0.2582
 2572SOL    HW1 8766   0.904   4.453   2.201  0.4210  1.6059 -0.9724
 2572SOL    HW2 8767   0.874   4.490   2.345  1.8796  1.4215 -0.5969
 2573SOL     OW 8768   5.538   2.510   3.673 -0.2074 -0.1469  0.0303
 2573SOL    HW1 8769   5.487   2.587   3.694  1.1682  0.7002  0.4054
 2573SOL    HW2 8770   5.488   2.466   3.604 -0.6627  1.4761 -0.7300
 2574SOL     OW 8771   5.383   2.684   6.828  0.2059 -0.0980 -0.3390
 2574SOL    HW1 8772   5.389   2.704   6.735  2.2028 -2.8584 -0.9030
 2574SOL    HW2 8773   5.311   2.621   6.835  0.7788 -0.7502 -0.2117
 2575SOL     OW 8774   6.221   8.060   1.375 -0.1023  0.2315 -0.2633
 2575SOL    HW1 8775   6.258   8.127   1.317 -0.1056 -0.2564 -0.8468
 2575SOL    HW2 8776   6.293   7.997   1.387 -1.0186 -1.3293 -2.3431
 2576SOL     OW 8777   2.922   7.432   3.609  0.3486 -0.3801  0.0275
 2576SOL    HW1 8778   2.916   7.527   3.612  1.4703 -0.2878 -0.1668
 2576SOL    HW2 8779   2.835   7.403   3.581  0.1941  0.6222 -0.5830
 2577SOL     OW 8780   8.244   0.743   6.814  0.2641  0.0439 -0.1971
 2577SOL    HW1 8781   8.164   0.709   6.775 -2.0270  1.7773  2.5442
 2577SOL    HW2 8782   8.235   0.838   6.809  1.1927  0.3046  1.8936
 2578SOL     OW 8783   1.896   0.729   4.136 -0.7026  0.2387 -0.1829
 2578SOL    HW1 8784   1.898   0.653   4.194  0.9382  0.6579  0.3418
 2578SOL    HW2 8785   1.807   0.730   4.101 -1.2269 -0.9685  1.0604
 2579SOL     OW 8786   4.859   3.705   5.264 -0.1439 -0.2607 -0.1099
 2579SOL    HW1 8787   4.889   3.647   5.334 -0.0042  0.4026  0.3793
 2579SOL    HW2 8788   4.938   3.730   5.218  0.2867  2.3620  1.8394
 2580SOL     OW 8789   7.004   5.393   7.002  0.6788 -0.4504  0.0016
 2580SOL    HW1 8790   6.994   5.441   7.084 -1.1472 -1.6300  0.5164
 2580SOL    HW2 8791   7.056   5.451   6.947 -1.0065  1.9160  0.7577
 2581SOL     OW 8792   2.911   6.167   2.032 -0.5260  0.6476  0.2509
 2581SOL    HW1 8793   2.827   6.125   2.014  0.2174 -0.2217 -1.3637
 2581SOL    HW2 8794   2.926   6.224   1.957  0.4323  0.6375  0.4263
 2582SOL     OW 8795   4.939   7.530   7.881 -0.0776 -0.0947 -0.5253
 2582SOL    HW1 8796   5.009   7.595   7.885  0.4090 -0.6637  1.1232
 2582SOL    HW2 8797   4.905   7.527   7.970 -0.7292 -1.4093 -0.7978
 2583SOL     OW 8798   0.384   2.153   3.307  0.4323 -0.2937  0.5852
 2583SOL    HW1 8799   0.367   2.243   3.282 -0.7690 -0.9174 -1.0091
 2583SOL    HW2 8800   0.473   2.135   3.275  0.0142 -0.1828 -0.6995
 2584SOL     OW 8801   0.773   6.213   2.098 -0.0191  0.0087 -0.4222
 2584SOL    HW1 8802   0.720   6.229   2.021  1.5625 -0.1920 -1.6113
 2584SOL    HW2 8803   0.755   6.288   2.155 -1.5498 -0.0732 -0.7572
 2585SOL     OW 8804   5.733   2.266   4.212 -0.2962 -0.0251 -0.8686
 2585SOL    HW1 8805   5.643   2.298   4.219 -0.0087  0.7459 -0.6385
 2585SOL    HW2 8806   5.724   2.170   4.218 -1.0475  0.0674 -0.2615
 2586SOL     OW 8807   5.627   4.008   7.552  0.4774 -0.7690 -0.2130
 2586SOL    HW1 8808   5.625   3.946   7.624 -1.2751 -1.1759 -0.5706
 2586SOL    HW2 8809   5.618   3.954   7.473 -0.0928 -0.1585 -0.5785
 2587SOL     OW 8810   4.698   2.888   3.392 -0.5500 -0.5801  0.2502
 2587SOL    HW1 8811   4.738   2.955   3.447 -0.4012  0.7100 -1.3253
 2587SOL    HW2 8812   4.725   2.805   3.431  1.4435  0.2612  0.8094
 2588SOL     OW 8813   6.397   7.468   1.026  0.3154  0.6164 -0.4159
 2588SOL    HW1 8814   6.389   7.547   1.080  0.1256 -0.9595  1.9897
 2588SOL    HW2 8815   6.487   7.470   0.993  1.7235 -0.1215  3.0120
 2589SOL     OW 8816   0.501   2.769   1.918  0.3399  0.7574 -0.0989
 2589SOL    HW1 8817   0.509   2.695   1.858  0.5624 -0.2545  1.1449
 2589SOL    HW2 8818   0.410   2.767   1.948  0.3138  1.0674 -0.1494
 2590SOL     OW 8819   2.313   4.179   6.290 -0.2925 -0.0805  0.0323
 2590SOL    HW1 8820   2.276   4.260   6.325 -0.5262 -0.4405  0.6246
 2590SOL    HW2 8821   2.247   4.112   6.309 -0.8270 -0.1482 -1.8684
 2591SOL     OW 8822   0.110   2.848   2.858 -0.0532 -0.2017 -0.3542
 2591SOL    HW1 8823   0.126   2.902   2.781 -0.7352 -0.9688 -1.0514
 2591SOL    HW2 8824   0.036   2.793   2.834  0.1432 -0.9173  0.6081
 2592SOL     OW 8825   6.133   3.631   6.776 -0.6246  0.4955 -0.6358
 2592SOL    HW1 8826   6.214   3.622   6.725 -0.9735 -1.1590 -0.9555
 2592SOL    HW2 8827   6.071   3.573   6.732 -1.6715  0.9139  0.2469
 2593SOL     OW 8828   7.121   3.853   2.318  0.3243 -0.2120  0.2448
 2593SOL    HW1 8829   7.060   3.780   2.312 -1.9117  1.6141 -1.5210
 2593SOL    HW2 8830   7.168   3.853   2.235  0.1285  0.4370  0.1202
 2594SOL     OW 8831   0.804   3.487   2.432 -0.5561  0.5329  0.2377
 2594SOL    HW1 8832   0.848   3.489   2.517 -1.3470  0.3730  0.6660
 2594SOL    HW2 8833   0.712   3.471   2.454 -0.6244 -0.4858 -0.7028
 2595SOL     OW 8834   5.268   0.618   0.975  0.7689 -0.0020 -0.2435
 2595SOL    HW1 8835   5.264   0.522   0.978 -1.1016  0.0712  0.6118
 2595SOL    HW2 8836   5.355   0.636   0.939  0.5554 -2.0209 -1.9573
 2596SOL     OW 8837   0.893   3.334   0.026  0.0965  0.1478  0.2323
 2596SOL    HW1 8838   0.848   3.265  -0.022  2.2174 -1.1610 -0.0218
 2596SOL    HW2 8839   0.932   3.290   0.101  0.1794  1.3997  0.9585
 2597SOL     OW 8840   0.050   6.484   7.155  0.2836 -0.8897  0.0764
 2597SOL    HW1 8841   0.068   6.435   7.075 -0.6942 -1.2441  0.0606
 2597SOL    HW2 8842  -0.039   6.461   7.178 -0.6268  1.6626 -0.5084
 2598SOL     OW 8843   2.316   3.184   4.441  0.0826 -0.2821  0.3545
 2598SOL    HW1 8844   2.332   3.096   4.475 -0.7206 -0.0259  1.4629
 2598SOL    HW2 8845   2.380   3.195   4.371 -1.2433 -2.5446 -1.3100
 2599SOL     OW 8846   6.724   4.581   6.153  0.4826  0.1048 -0.1994
 2599SOL    HW1 8847   6.766   4.666   6.157 -0.7885  0.8647 -2.0464
 2599SOL    HW2 8848   6.763   4.537   6.078  0.0071 -0.3151 -0.2119
 2600SOL     OW 8849   2.741   6.826   5.929  0.8731 -0.1192 -0.0620
 2600SOL    HW1 8850   2.781   6.888   5.869  0.7416  0.4672  0.4456
 2600SOL    HW2 8851   2.774   6.852   6.016 -0.0679 -0.0418  0.2848
 2601SOL     OW 8852   2.845   5.135   5.486 -0.3856  0.2016 -0.0374
 2601SOL    HW1 8853   2.819   5.090   5.566 -2.2049  0.2263 -0.5698
 2601SOL    HW2 8854   2.812   5.080   5.415 -0.6420  1.2016 -0.7261
 2602SOL     OW 8855   2.232   4.199   0.694  0.5265  0.2650 -0.6317
 2602SOL    HW1 8856   2.318   4.210   0.735  0.7636 -0.3272 -0.9510
 2602SOL    HW2 8857   2.252   4.180   0.602  0.0329  0.6435 -0.8202
 2603SOL     OW 8858   7.623   6.757   0.107  0.1532 -0.1067 -0.1324
 2603SOL    HW1 8859   7.581   6.814   0.172 -0.3389  0.0200 -0.5576
 2603SOL    HW2 8860   7.665   6.688   0.160 -0.0036  0.1496  0.3344
 2604SOL     OW 8861   5.189   4.924   6.483 -0.3975  0.3421  0.0591
 2604SOL    HW1 8862   5.185   5.009   6.438  1.2851  0.2269 -0.3991
 2604SOL    HW2 8863   5.104   4.884   6.467 -1.0023  1.6837 -0.2358
 2605SOL     OW 8864   4.471   2.669   3.637 -0.2570 -0.2843 -0.5128
 2605SOL    HW1 8865   4.482   2.596   3.576 -0.1969  1.6948 -3.0521
 2605SOL    HW2 8866   4.413   2.730   3.592 -3.0672 -0.1329  2.9081
 2606SOL     OW 8867   6.936   2.120   6.826  0.1449  0.2472  0.2051
 2606SOL    HW1 8868   6.896   2.092   6.908 -0.9067  1.0048 -0.0329
 2606SOL    HW2 8869   6.955   2.038   6.780  0.4341 -0.1685  1.0565
 2607SOL     OW 8870   0.994   0.616   5.983 -0.2047  0.3872 -0.5886
 2607SOL    HW1 8871   0.987   0.600   6.077 -0.8202 -1.9536 -0.9774
 2607SOL    HW2 8872   1.049   0.694   5.976 -0.7505  1.0446  1.7205
 2608SOL     OW 8873   0.273   5.996   7.847 -0.4566 -0.1069 -0.3544
 2608SOL    HW1 8874   0.316   5.920   7.886  1.6901 -0.2257 -2.7187
 2608SOL    HW2 8875   0.189   6.001   7.892  1.1796 -1.0437  3.1644
 2609SOL     OW 8876   6.594   1.365   7.713 -0.1716  0.2936 -0.4785
 2609SOL    HW1 8877   6.686   1.365   7.689  0.0540 -0.0773  0.3715
 2609SOL    HW2 8878   6.551   1.414   7.642  0.6470  0.3384 -0.9555
 2610SOL     OW 8879   3.636   3.710   6.004  0.0893 -0.2557 -0.3411
 2610SOL    HW1 8880   3.711   3.769   6.002  0.8327 -1.1846 -0.4011
 2610SOL    HW2 8881   3.614   3.703   6.097 -1.0466  1.3740 -0.4440
 2611SOL     OW 8882   3.157   3.855   5.406  0.0662 -0.4401 -0.3321
 2611SOL    HW1 8883   3.137   3.922   5.472  0.2118 -1.0973  0.4016
 2611SOL    HW2 8884   3.077   3.802   5.401  0.2756 -0.7699 -0.2160
 2612SOL     OW 8885   1.683   5.735   5.468 -0.1119  0.0478  0.1382
 2612SOL    HW1 8886   1.684   5.647   5.429 -0.0826  0.1938 -0.1891
 2612SOL    HW2 8887   1.720   5.722   5.556 -0.3107 -0.3036  0.1715
 2613SOL     OW 8888   1.691   0.231   6.803 -0.7820 -0.1618  0.1518
 2613SOL    HW1 8889   1.651   0.219   6.717 -1.4549  0.7209  0.3342
 2613SOL    HW2 8890   1.649   0.308   6.839  1.8032  1.5017 -0.0719
 2614SOL     OW 8891   4.082   7.863   2.791 -0.5527 -0.8581  0.1196
 2614SOL    HW1 8892   3.997   7.901   2.768 -0.6680  0.9877  3.1162
 2614SOL    HW2 8893   4.145   7.912   2.738 -1.0918  0.2710  0.4954
 2615SOL     OW 8894   1.898   3.553   0.455  0.1295 -0.8136 -0.1218
 2615SOL    HW1 8895   1.956   3.489   0.497  1.4710  0.6282  0.3278
 2615SOL    HW2 8896   1.812   3.511   0.453  0.7791 -2.2549  0.9694
 2616SOL     OW 8897   1.113   2.460   4.216 -0.0576  0.2637  0.0050
 2616SOL    HW1 8898   1.128   2.551   4.242 -1.7880  0.5132  0.2451
 2616SOL    HW2 8899   1.019   2.455   4.202 -0.0015 -1.5434  0.1430
 2617SOL     OW 8900   6.688   6.433   0.657  0.1979  0.3908 -0.3378
 2617SOL    HW1 8901   6.659   6.364   0.717  3.0615  0.6397  1.5668
 2617SOL    HW2 8902   6.759   6.393   0.607 -1.6375  0.4424 -3.1761
 2618SOL     OW 8903   3.547   3.728   4.421 -0.5985  0.1790  0.4963
 2618SOL    HW1 8904   3.529   3.678   4.342 -0.6405  1.2059 -0.1609
 2618SOL    HW2 8905   3.507   3.814   4.405  1.7265  1.3410  0.4730
 2619SOL     OW 8906   5.091   7.427   2.048 -0.0224 -0.3370 -0.5325
 2619SOL    HW1 8907   5.180   7.429   2.085 -1.2785  0.4791  2.8474
 2619SOL    HW2 8908   5.090   7.348   1.994  1.5026 -3.2069  3.1505
 2620SOL     OW 8909   3.392   0.804   4.315  0.4211  0.0787  0.4673
 2620SOL    HW1 8910   3.460   0.789   4.249  0.5655  0.1015  0.6099
 2620SOL    HW2 8911   3.353   0.718   4.328  1.2613 -0.1875  1.2958
 2621SOL     OW 8912   6.521   7.926   4.993  0.1370 -0.0196  0.5593
 2621SOL    HW1 8913   6.529   7.846   5.046  1.0410 -0.0824  0.3399
 2621SOL    HW2 8914   6.435   7.960   5.015  0.9336  0.6173  3.0308
 2622SOL     OW 8915   7.028   5.817   3.045 -0.1768 -0.3192 -0.1582
 2622SOL    HW1 8916   6.951   5.847   2.997  0.9719  0.9553 -1.2782
 2622SOL    HW2 8917   7.096   5.807   2.979  0.8790 -0.5409  0.9163
 2623SOL     OW 8918   3.448   1.187   4.617  0.3632  0.1125  0.7082
 2623SOL    HW1 8919   3.430   1.207   4.526  0.6832 -0.0495  0.6063
 2623SOL    HW2 8920   3.490   1.101   4.615  0.1749  0.0113  1.0267
 2624SOL     OW 8921   0.029   8.157   1.498  0.3455  0.4868 -0.6534
 2624SOL    HW1 8922  -0.002   8.179   1.586 -0.9379 -0.6558 -0.7770
 2624SOL    HW2 8923   0.119   8.130   1.510 -0.3943 -1.6357  0.6906
 2625SOL     OW 8924   0.931   8.263   2.109 -0.2646 -0.0289 -1.2433
 2625SOL    HW1 8925   0.837   8.281   2.102 -0.5086 -0.8095 -0.2640
 2625SOL    HW2 8926   0.971   8.350   2.113 -1.3659  0.5283  2.8638
 2626SOL     OW 8927   1.566   1.581   4.379  0.1149  0.6473 -0.0474
 2626SOL    HW1 8928   1.635   1.578   4.446 -0.2097  0.5956  0.2873
 2626SOL    HW2 8929   1.484   1.584   4.429 -0.1212  0.8427 -0.4426
 2627SOL     OW 8930   7.406   4.890   3.250  0.0872  0.0560  0.1984
 2627SOL    HW1 8931   7.460   4.844   3.185  0.5975  1.0612 -0.1298
 2627SOL    HW2 8932   7.466   4.907   3.323  0.5476  1.9750 -0.5394
 2628SOL     OW 8933   2.114   1.773   0.176 -0.1150  0.1171  0.7020
 2628SOL    HW1 8934   2.105   1.849   0.119 -1.6779  1.0497  2.1313
 2628SOL    HW2 8935   2.069   1.703   0.129  0.9281  0.1408 -0.4024
 2629SOL     OW 8936   5.507   8.235   0.859  0.3746  0.4860  0.8527
 2629SOL    HW1 8937   5.546   8.192   0.935 -0.7405 -0.2426  1.0303
 2629SOL    HW2 8938   5.449   8.169   0.821 -0.8359  1.5835  0.7203
 2630SOL     OW 8939   6.940   2.737   7.168 -0.4401  0.4585 -0.3929
 2630SOL    HW1 8940   7.019   2.766   7.122 -0.1668 -0.3806 -0.4709
 2630SOL    HW2 8941   6.869   2.753   7.105 -0.3608  1.3174 -0.2832
 2631SOL     OW 8942   7.769   1.807   5.473  0.7342  0.0703  0.2159
 2631SOL    HW1 8943   7.733   1.759   5.398  0.8789  0.5521 -0.1664
 2631SOL    HW2 8944   7.801   1.889   5.436  1.2215  0.1191  0.7343
 2632SOL     OW 8945   1.194   0.058   3.773  0.0869 -0.1298  0.0746
 2632SOL    HW1 8946   1.178   0.014   3.689 -0.2286  0.7492 -0.3334
 2632SOL    HW2 8947   1.277   0.103   3.761  0.3936 -0.5759  0.4834
 2633SOL     OW 8948   6.008   8.105   5.085  0.4168 -0.6256  0.1273
 2633SOL    HW1 8949   5.946   8.077   5.018  0.6561  1.2221 -0.9350
 2633SOL    HW2 8950   5.960   8.096   5.168 -1.5154  1.2352 -0.6990
 2634SOL     OW 8951   0.864   2.462   0.058  0.3918 -0.2672  0.3120
 2634SOL    HW1 8952   0.940   2.407   0.040 -0.3188 -1.5658  1.1189
 2634SOL    HW2 8953   0.830   2.484  -0.028  0.7860 -0.9740 -0.0386
 2635SOL     OW 8954   7.849   8.202   7.597  0.0848 -0.4691 -0.3540
 2635SOL    HW1 8955   7.808   8.272   7.648  0.5746 -0.9807  0.7781
 2635SOL    HW2 8956   7.783   8.133   7.592  0.5768 -1.0735  1.0065
 2636SOL     OW 8957   5.281   0.930   2.576 -0.6550 -0.3610 -0.5429
 2636SOL    HW1 8958   5.196   0.898   2.606 -0.9174  0.0587 -0.8311
 2636SOL    HW2 8959   5.326   0.958   2.656 -0.6138 -0.9833 -0.3422
 2637SOL     OW 8960   2.582   0.619   0.817  0.6431  0.3844  0.4012
 2637SOL    HW1 8961   2.670   0.581   0.812  0.4257 -0.0285 -0.6763
 2637SOL    HW2 8962   2.555   0.628   0.725 -0.8691 -0.5051  0.7352
 2638SOL     OW 8963   6.224   5.029   1.233  0.1355  0.2022 -0.2312
 2638SOL    HW1 8964   6.155   5.024   1.167 -1.4891  0.6944  1.3457
 2638SOL    HW2 8965   6.206   4.955   1.292  0.4298  0.8373  0.6728
 2639SOL     OW 8966   7.070   8.032   8.106 -0.4131  0.2520  0.3346
 2639SOL    HW1 8967   7.140   7.992   8.056 -1.5782 -2.0824  0.4505
 2639SOL    HW2 8968   7.074   8.125   8.082  0.9652 -0.2667 -1.7426
 2640SOL     OW 8969   3.896   4.531   4.973  0.2109  0.3583 -0.3927
 2640SOL    HW1 8970   3.848   4.531   5.056  0.5537 -0.7651 -0.1797
 2640SOL    HW2 8971   3.934   4.443   4.967  0.6169  0.5926 -1.4964
 2641SOL     OW 8972   5.928   6.110   2.283  0.4734  0.4787 -0.4178
 2641SOL    HW1 8973   5.972   6.059   2.215  2.1246  0.7202  0.4231
 2641SOL    HW2 8974   5.842   6.068   2.292  0.5511 -0.0902 -2.0203
 2642SOL     OW 8975   6.287   5.827   1.032 -0.0997  0.7307 -0.3436
 2642SOL    HW1 8976   6.352   5.756   1.037 -0.1556  0.7454  0.7293
 2642SOL    HW2 8977   6.337   5.907   1.048 -0.4126  0.7140  0.8217
 2643SOL     OW 8978   0.280   7.046   0.419 -0.4005 -0.0661 -0.3897
 2643SOL    HW1 8979   0.331   7.052   0.500  0.6134  1.1040 -1.0883
 2643SOL    HW2 8980   0.190   7.066   0.446 -0.1102  0.1079  0.4784
 2644SOL     OW 8981   4.195   7.461   3.591  0.2890  0.4089  0.0276
 2644SOL    HW1 8982   4.107   7.437   3.617  0.3672  0.8926  0.7704
 2644SOL    HW2 8983   4.188   7.552   3.560  0.4140  0.2343 -0.5412
 2645SOL     OW 8984   2.370   1.351   8.188  0.2572  0.1260  0.1411
 2645SOL    HW1 8985   2.409   1.291   8.123  0.4476  1.4212 -0.9945
 2645SOL    HW2 8986   2.403   1.319   8.272  1.0589 -0.8400 -0.5037
 2646SOL     OW 8987   6.462   2.345   3.999  0.0097  0.3567  0.4861
 2646SOL    HW1 8988   6.450   2.415   3.934 -2.4425  0.3699  0.8694
 2646SOL    HW2 8989   6.523   2.382   4.062  0.3441  1.3602 -0.3860
 2647SOL     OW 8990   1.053   7.100   4.796 -0.2537  0.2027  0.0587
 2647SOL    HW1 8991   1.062   7.025   4.855  3.0916  0.1192 -0.3443
 2647SOL    HW2 8992   1.097   7.172   4.842  0.8600  0.5922 -1.5416
 2648SOL     OW 8993   0.913   2.094   0.807 -0.1937  0.8042 -0.0941
 2648SOL    HW1 8994   0.931   2.001   0.791  1.2884  1.2502 -1.2607
 2648SOL    HW2 8995   0.942   2.109   0.897  1.6925  0.5917 -0.6264
 2649SOL     OW 8996   2.023   1.978   1.348 -0.5091 -0.0117  0.4851
 2649SOL    HW1 8997   2.025   1.933   1.263 -0.0870  1.4576 -0.3080
 2649SOL    HW2 8998   1.973   1.919   1.404 -2.1492 -0.3095 -1.1840
 2650SOL     OW 8999   6.789   4.562   4.493 -0.5634  0.1448 -0.2166
 2650SOL    HW1 9000   6.804   4.577   4.400  1.8783 -0.5648 -0.0027
 2650SOL    HW2 9001   6.769   4.649   4.528 -0.8021  0.5333 -1.2976
 2651SOL     OW 9002   5.974   0.516   0.495  0.1851  0.2988  0.4308
 2651SOL    HW1 9003   6.011   0.435   0.462 -0.3922  0.0721  0.3243
 2651SOL    HW2 9004   5.987   0.579   0.424 -1.7321 -0.3733 -0.6078
 2652SOL     OW 9005   5.045   8.072   4.047  0.3890  0.5966  0.5835
 2652SOL    HW1 9006   5.103   8.059   3.973  0.8947 -0.3539  1.1245
 2652SOL    HW2 9007   5.103   8.080   4.122 -0.1044 -2.5940  1.4844
 2653SOL     OW 9008   5.243   7.929   1.531 -0.5597 -0.0003  0.2424
 2653SOL    HW1 9009   5.273   7.985   1.602 -0.4494  0.5765 -0.2471
 2653SOL    HW2 9010   5.187   7.864   1.573 -0.4319  0.2849  0.8619
 2654SOL     OW 9011   3.700   3.078   5.455  0.9659 -0.0835  0.2736
 2654SOL    HW1 9012   3.790   3.093   5.423  1.5790 -0.2047  1.8572
 2654SOL    HW2 9013   3.661   3.020   5.389  2.3832 -0.8461  0.0637
 2655SOL     OW 9014   0.139   1.723   5.739  0.5062  0.7177 -0.4838
 2655SOL    HW1 9015   0.122   1.741   5.831 -0.3176  3.4433 -1.0839
 2655SOL    HW2 9016   0.224   1.678   5.739  0.1175 -0.1467  1.6145
 2656SOL     OW 9017   7.006   7.232   5.155 -0.0200  0.3373  0.1372
 2656SOL    HW1 9018   6.930   7.211   5.101  0.3040 -0.5118 -0.0039
 2656SOL    HW2 9019   7.003   7.168   5.226 -0.0787  1.0294  0.7679
 2657SOL     OW 9020   5.127   2.494   5.113 -0.0193 -0.4238 -0.6038
 2657SOL    HW1 9021   5.158   2.584   5.101  0.5586 -0.6719 -0.9796
 2657SOL    HW2 9022   5.056   2.484   5.049 -0.7137  0.0498  0.0649
 2658SOL     OW 9023   0.160   3.307   6.996 -0.4046  0.3882 -0.0114
 2658SOL    HW1 9024   0.136   3.225   6.953  1.3927 -0.5151  0.6238
 2658SOL    HW2 9025   0.183   3.282   7.086  1.0418  1.4160 -0.0465
 2659SOL     OW 9026   1.106   2.656   4.952 -0.4499 -0.0035  0.0630
 2659SOL    HW1 9027   1.116   2.569   4.913 -0.1361  0.6109 -1.2718
 2659SOL    HW2 9028   1.159   2.713   4.897 -0.0712  0.9261  1.3532
 2660SOL     OW 9029   4.065   7.384   4.739  0.2690 -0.0241 -0.6831
 2660SOL    HW1 9030   4.034   7.472   4.759 -0.2086  0.0755 -1.8088
 2660SOL    HW2 9031   4.159   7.395   4.724  0.3353  0.1721 -0.1446
 2661SOL     OW 9032   7.803   3.671   1.088  0.4722 -0.2080 -0.0436
 2661SOL    HW1 9033   7.805   3.581   1.056 -1.1344 -0.7880  1.3417
 2661SOL    HW2 9034   7.773   3.722   1.013  0.0158 -1.0366 -0.4433
 2662SOL     OW 9035   5.844   1.618   0.134 -0.0996  0.2831  0.3761
 2662SOL    HW1 9036   5.926   1.591   0.174 -0.6137 -0.4915  0.9264
 2662SOL    HW2 9037   5.813   1.541   0.088 -0.3165  0.6987 -0.1878
 2663SOL     OW 9038   7.249   6.304   7.954 -0.0788  0.6493  0.4466
 2663SOL    HW1 9039   7.263   6.210   7.968 -2.4046 -0.3460 -2.7686
 2663SOL    HW2 9040   7.336   6.338   7.934  0.8014 -0.8388  1.5252
 2664SOL     OW 9041   7.160   6.326   0.456 -0.7379 -0.4052 -0.1296
 2664SOL    HW1 9042   7.175   6.346   0.548  1.2983 -0.6003 -0.3755
 2664SOL    HW2 9043   7.238   6.279   0.428 -2.4274 -2.6837 -1.3350
 2665SOL     OW 9044   1.451   5.337   7.825  0.4067  0.3468  0.0818
 2665SOL    HW1 9045   1.371   5.382   7.798  0.7564  1.4232  0.7556
 2665SOL    HW2 9046   1.499   5.403   7.877  1.2839 -0.5778  0.4776
 2666SOL     OW 9047   7.834   3.146   4.505  0.3236  0.4774  0.0625
 2666SOL    HW1 9048   7.809   3.204   4.433  2.8055  1.2738 -0.2567
 2666SOL    HW2 9049   7.795   3.061   4.483 -0.1227  1.0506 -1.4794
 2667SOL     OW 9050   1.239   1.941   5.462  0.6388  0.8941  0.6070
 2667SOL    HW1 9051   1.224   1.911   5.551 -0.9438  0.7106  0.3141
 2667SOL    HW2 9052   1.190   2.022   5.455 -0.9243 -0.0795 -0.6268
 2668SOL     OW 9053   7.409   1.853   7.056 -0.3232 -0.6079  0.4802
 2668SOL    HW1 9054   7.316   1.840   7.038 -0.4449 -1.2242  1.4754
 2668SOL    HW2 9055   7.411   1.884   7.147  0.3780  0.4763  0.1109
 2669SOL     OW 9056   1.364   5.947   3.620 -0.1542 -0.4747 -0.8856
 2669SOL    HW1 9057   1.278   5.989   3.609 -0.0471 -0.4514 -1.6460
 2669SOL    HW2 9058   1.416   6.012   3.667 -0.6489 -0.6196 -0.1168
 2670SOL     OW 9059   5.756   2.084   5.111 -0.0199 -0.1084  0.0575
 2670SOL    HW1 9060   5.723   1.998   5.085 -0.7263  0.2890 -0.3956
 2670SOL    HW2 9061   5.790   2.122   5.030  1.2181 -0.3478  0.4390
 2671SOL     OW 9062   3.791   6.844   0.146 -0.3795  0.4942 -0.4813
 2671SOL    HW1 9063   3.759   6.759   0.116 -0.2004 -0.6787  2.2667
 2671SOL    HW2 9064   3.715   6.903   0.139 -1.5826 -0.8175  0.7537
 2672SOL     OW 9065   3.909   0.585   6.989 -0.6901 -0.2223 -0.2392
 2672SOL    HW1 9066   3.863   0.667   6.974 -0.7195 -0.1126  0.4039
 2672SOL    HW2 9067   4.000   0.603   6.964 -1.2565 -0.9471 -3.2273
 2673SOL     OW 9068   1.750   2.077   0.113 -0.0893  0.6818 -0.0398
 2673SOL    HW1 9069   1.663   2.102   0.082 -0.2579  1.2875  0.8677
 2673SOL    HW2 9070   1.747   1.981   0.120 -1.5792  0.8245  2.4001
 2674SOL     OW 9071   3.947   6.833   8.214 -0.0748  0.0589  0.3046
 2674SOL    HW1 9072   3.917   6.843   8.305  0.1097  1.1561  0.2609
 2674SOL    HW2 9073   3.880   6.778   8.173 -0.7901  0.5317  0.8127
 2675SOL     OW 9074   3.567   4.915   7.146  0.4176 -0.4154 -0.3003
 2675SOL    HW1 9075   3.574   4.966   7.227  0.8952 -0.9578  0.0014
 2675SOL    HW2 9076   3.631   4.846   7.155 -1.7930 -2.5226  0.3259
 2676SOL     OW 9077   3.548   7.537   2.872  0.1070 -0.1003  0.7099
 2676SOL    HW1 9078   3.540   7.446   2.844 -0.4714 -0.6498  2.5255
 2676SOL    HW2 9079   3.574   7.584   2.793  0.0199 -1.7663 -0.3621
 2677SOL     OW 9080   1.398   4.837   3.283 -0.4273 -0.7776 -0.3111
 2677SOL    HW1 9081   1.409   4.923   3.243 -1.1670  0.0145  1.1089
 2677SOL    HW2 9082   1.488   4.805   3.295 -0.1490 -0.2532 -0.9347
 2678SOL     OW 9083   7.905   6.824   0.790  0.6718  0.2211 -0.7202
 2678SOL    HW1 9084   7.976   6.764   0.812  0.1459  0.4010  1.7338
 2678SOL    HW2 9085   7.828   6.788   0.833  0.7545  3.6053  2.9054
 2679SOL     OW 9086   4.617   6.353   2.272  0.3068  0.4211  0.2831
 2679SOL    HW1 9087   4.609   6.448   2.279  3.1208  0.6721  1.4300
 2679SOL    HW2 9088   4.572   6.319   2.350  0.0906  0.8801  0.3595
 2680SOL     OW 9089   1.098   7.411   2.494 -0.5621  0.0634  0.7694
 2680SOL    HW1 9090   1.047   7.480   2.453  0.0380 -0.1350 -0.3430
 2680SOL    HW2 9091   1.059   7.330   2.463  1.0227 -0.1053 -0.9540
 2681SOL     OW 9092   7.775   2.517   2.518  0.4165  0.9980 -0.4992
 2681SOL    HW1 9093   7.710   2.571   2.563 -0.2931  0.6865 -1.1328
 2681SOL    HW2 9094   7.731   2.434   2.502  1.0252  0.7295 -0.8092
 2682SOL     OW 9095   5.186   1.433   2.317  0.2074 -0.2614  0.0140
 2682SOL    HW1 9096   5.187   1.459   2.226 -0.7528  1.5317  0.4689
 2682SOL    HW2 9097   5.228   1.347   2.318  1.2820  0.1898 -1.9227
 2683SOL     OW 9098   5.409   4.713   1.104 -0.0983 -0.3109  0.1225
 2683SOL    HW1 9099   5.493   4.758   1.110 -0.0094 -0.6140  3.4349
 2683SOL    HW2 9100   5.344   4.783   1.111 -0.0131 -0.3174  1.2299
 2684SOL     OW 9101   6.434   1.672   2.595  0.0801  0.1190 -0.2443
 2684SOL    HW1 9102   6.346   1.652   2.561 -0.4697  1.6484  0.2161
 2684SOL    HW2 9103   6.426   1.760   2.631  1.3541 -0.4055  1.4345
 2685SOL     OW 9104   0.562   2.493   0.770 -0.0950  0.2794  0.6607
 2685SOL    HW1 9105   0.625   2.421   0.770 -1.0228 -0.5846 -1.0306
 2685SOL    HW2 9106   0.597   2.555   0.706 -0.5195  0.1947  0.3442
 2686SOL     OW 9107   3.604   0.120   1.760  0.0429  0.1235 -0.0024
 2686SOL    HW1 9108   3.513   0.091   1.761  0.0218 -0.1612 -2.7368
 2686SOL    HW2 9109   3.649   0.058   1.817 -1.1522 -0.9821 -0.2003
 2687SOL     OW 9110   0.115   7.685   8.257  0.3923 -0.3990 -0.0994
 2687SOL    HW1 9111   0.158   7.744   8.195  1.2727  2.2955  2.8218
 2687SOL    HW2 9112   0.021   7.702   8.246  0.6252  1.7290  0.7103
 2688SOL     OW 9113   1.176   2.407   6.760 -0.0052 -0.2771  0.4074
 2688SOL    HW1 9114   1.244   2.462   6.798  0.5727 -1.0988  0.5853
 2688SOL    HW2 9115   1.217   2.367   6.683 -0.3218 -0.6752  0.4418
 2689SOL     OW 9116   8.196   7.875   6.847 -0.2305 -0.0109  0.0793
 2689SOL    HW1 9117   8.248   7.857   6.768  1.1566 -0.2435  0.9988
 2689SOL    HW2 9118   8.209   7.968   6.863  1.5407 -0.4186  1.3643
 2690SOL     OW 9119   6.256   7.644   1.746  0.1018  0.1552  0.2109
 2690SOL    HW1 9120   6.196   7.627   1.673 -0.2213 -2.6537  0.9770
 2690SOL    HW2 9121   6.343   7.629   1.710  0.0697  0.4612  0.0020
 2691SOL     OW 9122   5.521   3.915   0.791  0.0692 -0.0513 -0.5004
 2691SOL    HW1 9123   5.523   3.826   0.755  0.2460 -0.2147 -0.0854
 2691SOL    HW2 9124   5.577   3.911   0.869  1.0172  0.6866 -1.1061
 2692SOL     OW 9125   1.405   3.231   6.038  0.0197 -0.0083 -0.0918
 2692SOL    HW1 9126   1.405   3.253   6.131 -0.1461 -0.6100  0.0557
 2692SOL    HW2 9127   1.313   3.234   6.013 -0.0118 -0.5434 -0.0600
 2693SOL     OW 9128   5.058   5.266   0.438  0.5242  0.3497  0.1966
 2693SOL    HW1 9129   5.115   5.317   0.381  0.1054  1.0182  0.3688
 2693SOL    HW2 9130   5.111   5.191   0.465  0.9660  0.4073 -0.4845
 2694SOL     OW 9131   1.282   2.995   7.735 -0.0594 -0.3968 -0.1210
 2694SOL    HW1 9132   1.300   3.031   7.822  1.8880 -0.2495 -0.5347
 2694SOL    HW2 9133   1.276   3.072   7.678  0.6559 -0.5511 -0.4224
 2695SOL     OW 9134   4.208   0.568   6.947  0.0175  0.0692 -0.6408
 2695SOL    HW1 9135   4.264   0.492   6.964  0.5223  0.6365  0.3368
 2695SOL    HW2 9136   4.235   0.599   6.860  0.7305 -0.0888 -0.4839
 2696SOL     OW 9137   2.484   2.573   5.681  0.3189 -0.4540 -0.4607
 2696SOL    HW1 9138   2.406   2.610   5.721  0.2128 -1.3311  0.1672
 2696SOL    HW2 9139   2.485   2.610   5.593 -0.4238  0.0968 -0.2547
 2697SOL     OW 9140   1.883   3.296   0.942 -0.3422  0.3914 -0.4948
 2697SOL    HW1 9141   1.862   3.217   0.991 -2.6405  1.0401 -0.3244
 2697SOL    HW2 9142   1.814   3.358   0.965 -0.4186  1.3848 -3.0434
 2698SOL     OW 9143   7.087   4.346   6.093  0.2802 -0.2990  0.1150
 2698SOL    HW1 9144   7.058   4.384   6.176  1.8770  1.2509  0.0181
 2698SOL    HW2 9145   7.012   4.358   6.034 -0.0536  0.6967  0.7140
 2699SOL     OW 9146   1.988   2.592   4.565 -0.1507  0.1025  0.1253
 2699SOL    HW1 9147   2.029   2.604   4.479  1.7630 -1.4555  0.7688
 2699SOL    HW2 9148   2.013   2.670   4.614 -0.0102  0.3078 -0.2663
 2700SOL     OW 9149   6.248   3.967   0.827  0.0850 -0.8671 -0.1319
 2700SOL    HW1 9150   6.157   3.952   0.852 -0.2698  0.1515 -0.7435
 2700SOL    HW2 9151   6.277   4.038   0.883  0.2653 -0.6796 -0.4609
 2701SOL     OW 9152   6.204   3.537   4.688  1.0684  0.2884 -0.2070
 2701SOL    HW1 9153   6.132   3.533   4.625  0.4585 -0.8161  0.5316
 2701SOL    HW2 9154   6.236   3.447   4.694  3.3683  0.9328 -1.4369
 2702SOL     OW 9155   1.980   6.416   2.870  0.2511 -0.2157  0.2653
 2702SOL    HW1 9156   1.899   6.444   2.827  0.2095  0.7577  0.9420
 2702SOL    HW2 9157   2.020   6.354   2.809 -0.5432 -0.0024 -0.4897
 2703SOL     OW 9158   1.182   3.416   7.931 -0.2913 -0.4127 -0.3663
 2703SOL    HW1 9159   1.278   3.409   7.937 -0.2887 -1.6488 -1.4918
 2703SOL    HW2 9160   1.168   3.500   7.888  0.1257  1.2327  2.3912
 2704SOL     OW 9161   4.505   7.532   8.259 -0.6070 -0.2483  0.2766
 2704SOL    HW1 9162   4.507   7.575   8.344  2.2615  1.8530 -0.7351
 2704SOL    HW2 9163   4.515   7.603   8.195 -1.3965 -1.8888 -1.7999
 2705SOL     OW 9164   3.648   7.121   0.362  0.3415 -0.1011  0.1998
 2705SOL    HW1 9165   3.660   7.179   0.287 -0.2376  0.5760  0.6188
 2705SOL    HW2 9166   3.560   7.140   0.394  0.5540 -0.4226  1.0098
 2706SOL     OW 9167   1.193   2.738   3.239  0.1632  0.5064  0.3400
 2706SOL    HW1 9168   1.108   2.715   3.202  1.1730 -0.9612 -1.2201
 2706SOL    HW2 9169   1.220   2.816   3.191  0.5793 -0.2310 -0.6634
 2707SOL     OW 9170   3.052   7.881   5.096  0.1419  0.2969 -0.4230
 2707SOL    HW1 9171   3.037   7.839   5.181 -1.8162  2.0252  0.1924
 2707SOL    HW2 9172   3.030   7.813   5.031 -0.6618 -0.3501  0.4943
 2708SOL     OW 9173   1.569   5.571   7.990 -0.0774  0.2046  0.4122
 2708SOL    HW1 9174   1.500   5.609   7.936  0.8844  0.0359 -0.9858
 2708SOL    HW2 9175   1.633   5.641   8.002  1.2057 -0.5853 -1.3200
 2709SOL     OW 9176   3.727   5.283   0.609 -0.2341  0.1498  0.0685
 2709SOL    HW1 9177   3.704   5.207   0.663 -0.1669  0.0722 -0.0119
 2709SOL    HW2 9178   3.816   5.265   0.579 -0.7188 -0.4099 -1.0944
 2710SOL     OW 9179   0.789   2.641   0.552  0.6886 -0.3064 -0.4482
 2710SOL    HW1 9180   0.835   2.603   0.626  1.0922  1.0996  0.0603
 2710SOL    HW2 9181   0.746   2.719   0.588 -0.9783 -0.8329 -1.2074
 2711SOL     OW 9182   5.212   0.073   1.776 -0.4032  0.3581 -0.6657
 2711SOL    HW1 9183   5.133   0.021   1.790 -0.1461  0.3868  1.0994
 2711SOL    HW2 9184   5.284   0.018   1.808 -0.0796  1.5925  0.8554
 2712SOL     OW 9185   5.546   5.538   6.566 -0.1719 -0.8197 -0.6590
 2712SOL    HW1 9186   5.492   5.532   6.646  1.3905 -1.9020  0.3749
 2712SOL    HW2 9187   5.537   5.451   6.526  2.8116 -2.0349  0.9741
 2713SOL     OW 9188   7.331   3.383   7.902  0.1114 -0.0630 -0.3220
 2713SOL    HW1 9189   7.275   3.306   7.890  0.5416 -0.6053  0.9993
 2713SOL    HW2 9190   7.273   3.457   7.885 -0.4431 -0.6497 -1.1161
 2714SOL     OW 9191   7.439   1.862   3.134  0.4088  0.1802 -0.1765
 2714SOL    HW1 9192   7.409   1.947   3.167  1.0047  0.0535  0.7276
 2714SOL    HW2 9193   7.370   1.834   3.074  0.2656  1.3636 -0.5897
 2715SOL     OW 9194   5.635   8.161   1.593 -0.1666 -0.9496 -0.2974
 2715SOL    HW1 9195   5.652   8.240   1.644 -0.5263 -2.6128  2.6678
 2715SOL    HW2 9196   5.711   8.152   1.535  0.3105  1.0360 -0.0297
 2716SOL     OW 9197   0.320   2.671   0.758 -0.0763 -0.4184 -0.3924
 2716SOL    HW1 9198   0.296   2.725   0.834  0.4698 -0.2484 -0.3378
 2716SOL    HW2 9199   0.299   2.726   0.683  0.3072 -0.1934 -0.3400
 2717SOL     OW 9200   2.776   6.483   7.428  0.0537 -1.1148  0.0306
 2717SOL    HW1 9201   2.855   6.467   7.375 -1.5762 -2.9954 -2.0252
 2717SOL    HW2 9202   2.749   6.572   7.404  0.3607 -1.2727 -0.9556
 2718SOL     OW 9203   3.001   7.936   2.099  0.1121 -0.4038  0.2221
 2718SOL    HW1 9204   2.990   7.982   2.016  0.8892  0.0994  0.3899
 2718SOL    HW2 9205   2.914   7.901   2.119 -0.9043  2.2129  0.7937
 2719SOL     OW 9206   7.771   1.623   3.433 -0.0420  0.0786  0.7853
 2719SOL    HW1 9207   7.795   1.531   3.421 -1.0351 -0.0996  0.0523
 2719SOL    HW2 9208   7.831   1.671   3.376 -1.5011 -0.3816 -1.2337
 2720SOL     OW 9209   2.563   1.916   4.240 -0.2109  0.4279 -0.2867
 2720SOL    HW1 9210   2.558   1.976   4.314 -0.9633  0.6949 -0.5457
 2720SOL    HW2 9211   2.561   1.973   4.163 -2.9989  0.0266 -0.6093
 2721SOL     OW 9212   1.110   4.470   6.769  0.1039 -0.1497  0.0993
 2721SOL    HW1 9213   1.185   4.414   6.750  0.1988 -0.2242  0.6741
 2721SOL    HW2 9214   1.035   4.421   6.735  0.4071  0.4191 -1.4707
 2722SOL     OW 9215   1.452   0.698   0.596  0.0982 -0.0115 -0.1995
 2722SOL    HW1 9216   1.437   0.765   0.662  1.9199  0.4841 -0.2521
 2722SOL    HW2 9217   1.454   0.616   0.646 -2.0994 -0.0839 -0.1328
 2723SOL     OW 9218   7.657   4.417   3.870  0.2385 -0.3403 -0.4152
 2723SOL    HW1 9219   7.643   4.341   3.815  2.9477 -0.7043 -0.7075
 2723SOL    HW2 9220   7.746   4.446   3.851  0.4121  1.0114  1.9695
 2724SOL     OW 9221   7.489   8.081   4.090  0.1905 -0.1373  0.3826
 2724SOL    HW1 9222   7.491   8.172   4.060  1.3110 -0.6574 -1.2413
 2724SOL    HW2 9223   7.401   8.069   4.126  0.4489  1.9411  1.8653
 2725SOL     OW 9224   3.486   5.277   4.400  0.1097 -0.5294 -0.1837
 2725SOL    HW1 9225   3.458   5.202   4.349 -0.8709  0.1573 -0.6868
 2725SOL    HW2 9226   3.576   5.256   4.427  0.3069 -1.3108 -1.3820
 2726SOL     OW 9227   3.195   3.180   5.929 -0.2555  0.0654  0.9854
 2726SOL    HW1 9228   3.275   3.211   5.971 -0.8108 -0.3132  2.4000
 2726SOL    HW2 9229   3.146   3.260   5.909  0.8653  0.3632 -0.8066
 2727SOL     OW 9230   1.809   5.407   4.872  0.2727 -0.5883 -0.1825
 2727SOL    HW1 9231   1.835   5.323   4.836 -2.1958 -1.8026  0.6189
 2727SOL    HW2 9232   1.781   5.458   4.795 -1.3590 -1.7703 -0.4398
 2728SOL     OW 9233   4.837   5.752   0.986  0.1413  0.1214  0.1148
 2728SOL    HW1 9234   4.777   5.768   0.914 -0.7658 -0.4972  0.7026
 2728SOL    HW2 9235   4.780   5.737   1.062  0.9887 -1.2875  0.5260
 2729SOL     OW 9236   4.724   5.534   3.530  0.1322 -0.3440 -0.2267
 2729SOL    HW1 9237   4.695   5.578   3.610  0.5643  0.2192 -0.3712
 2729SOL    HW2 9238   4.778   5.461   3.561 -0.2179 -0.5071  0.0052
 2730SOL     OW 9239   8.130   0.160   7.725  0.4952 -0.2096  0.6021
 2730SOL    HW1 9240   8.097   0.122   7.643 -0.4818 -2.1115  1.7986
 2730SOL    HW2 9241   8.071   0.233   7.742 -1.1598 -1.5833  1.0389
 2731SOL     OW 9242   8.117   0.781   3.830  0.1535 -0.0786  0.0709
 2731SOL    HW1 9243   8.210   0.763   3.815  0.4426  1.1386  0.3758
 2731SOL    HW2 9244   8.082   0.697   3.860  1.3482 -0.3181  0.8740
 2732SOL     OW 9245   4.006   3.624   5.942 -0.5353  0.3051 -0.6827
 2732SOL    HW1 9246   4.023   3.616   5.848  1.9664 -0.2407 -0.2392
 2732SOL    HW2 9247   4.079   3.677   5.975 -1.8312  1.2233  0.8521
 2733SOL     OW 9248   0.905   6.894   4.978 -0.1375  0.2699 -0.0205
 2733SOL    HW1 9249   0.955   6.817   4.952 -0.0194  0.5837 -0.7268
 2733SOL    HW2 9250   0.946   6.922   5.060  0.6344  0.3218 -0.4131
 2734SOL     OW 9251   0.958   6.559   0.636  0.5738  1.0673  0.1514
 2734SOL    HW1 9252   1.047   6.524   0.630  1.1749  2.5434 -0.0622
 2734SOL    HW2 9253   0.925   6.526   0.720  1.8247  1.5527  0.8625
 2735SOL     OW 9254   7.524   6.408   0.359  0.2952 -0.2716  0.2421
 2735SOL    HW1 9255   7.542   6.438   0.269 -0.3488 -0.7893 -0.0671
 2735SOL    HW2 9256   7.517   6.489   0.409  0.6156  0.0287 -0.1819
 2736SOL     OW 9257   0.325   6.962   3.038 -0.3372  0.1558  0.0714
 2736SOL    HW1 9258   0.288   7.034   3.088 -1.5000 -0.3902  0.0272
 2736SOL    HW2 9259   0.297   6.979   2.948 -0.7287 -0.4131  0.0823
 2737SOL     OW 9260   2.359   1.043   2.103 -0.3879  0.3252  0.3874
 2737SOL    HW1 9261   2.409   1.034   2.184  0.2376  0.1318 -0.0120
 2737SOL    HW2 9262   2.311   1.125   2.112  0.0528  0.5404  0.7510
 2738SOL     OW 9263   3.901   5.412   3.039  0.5914 -0.3680 -0.2044
 2738SOL    HW1 9264   3.961   5.408   2.965  1.0518 -1.4260  0.1956
 2738SOL    HW2 9265   3.814   5.405   2.999  0.6339  2.0708 -0.8591
 2739SOL     OW 9266   4.107   0.262   8.034  0.4886 -0.4294  0.3093
 2739SOL    HW1 9267   4.044   0.211   7.984  0.1239  1.4767 -1.3005
 2739SOL    HW2 9268   4.055   0.335   8.070  1.5338  0.5173 -0.0572
 2740SOL     OW 9269   7.902   1.353   7.780  0.3212 -0.2226  0.3880
 2740SOL    HW1 9270   7.917   1.314   7.866 -0.9562  0.4229  0.9326
 2740SOL    HW2 9271   7.905   1.447   7.796 -2.8937 -0.0140  0.3819
 2741SOL     OW 9272   3.921   7.484   3.642 -0.0002  0.1863 -0.4458
 2741SOL    HW1 9273   3.835   7.454   3.671 -0.6899  1.6637 -0.8504
 2741SOL    HW2 9274   3.917   7.579   3.652  1.0708  0.4035 -1.8240
 2742SOL     OW 9275   1.259   4.365   7.695  0.4905  0.5647  0.0187
 2742SOL    HW1 9276   1.259   4.269   7.698  2.2495  0.3010 -3.1934
 2742SOL    HW2 9277   1.316   4.392   7.767  0.0735 -0.7651  0.8819
 2743SOL     OW 9278   3.167   0.342   6.666 -0.1677 -0.6280 -0.5355
 2743SOL    HW1 9279   3.135   0.432   6.657 -1.3375 -1.0098 -0.3778
 2743SOL    HW2 9280   3.257   0.352   6.695 -0.9395  0.5109  1.7753
 2744SOL     OW 9281   0.024   5.709   3.568 -0.2109  0.8826 -0.3528
 2744SOL    HW1 9282  -0.035   5.773   3.528  0.3858  1.3070 -0.5674
 2744SOL    HW2 9283   0.103   5.759   3.588 -0.0144  0.3700  0.1507
 2745SOL     OW 9284   5.590   1.721   4.262  0.3275  0.4697  0.2982
 2745SOL    HW1 9285   5.541   1.646   4.229  0.0703  1.1539 -0.9157
 2745SOL    HW2 9286   5.554   1.736   4.350  0.3959 -0.8169  0.5561
 2746SOL     OW 9287   7.742   3.071   5.681  0.1697  0.5129 -0.2237
 2746SOL    HW1 9288   7.817   3.073   5.621 -0.9223  0.1371 -1.6734
 2746SOL    HW2 9289   7.773   3.114   5.760  2.1695 -0.3656 -0.4661
 2747SOL     OW 9290   2.353   4.579   6.421 -0.0208  0.1571  0.7128
 2747SOL    HW1 9291   2.298   4.652   6.450 -0.8765 -0.6033  1.0373
 2747SOL    HW2 9292   2.305   4.541   6.348  0.4452 -0.0718  0.5197
 2748SOL     OW 9293   2.227   4.346   1.104 -0.1459 -0.3608 -0.0572
 2748SOL    HW1 9294   2.163   4.389   1.046  0.9424  1.3620 -0.0322
 2748SOL    HW2 9295   2.188   4.260   1.122 -1.2725 -0.3343 -2.0524
 2749SOL     OW 9296   3.225   4.064   0.294 -0.2142 -0.1160 -0.6462
 2749SOL    HW1 9297   3.207   4.054   0.387  0.3070 -2.4904 -0.7525
 2749SOL    HW2 9298   3.245   3.976   0.263 -1.0399  0.4994 -3.1716
 2750SOL     OW 9299   6.292   2.761   7.538  0.0527 -0.3642 -0.1726
 2750SOL    HW1 9300   6.324   2.806   7.616 -1.1344 -0.6084  0.4828
 2750SOL    HW2 9301   6.291   2.829   7.470  0.7862 -0.0668  0.1042
 2751SOL     OW 9302   8.010   2.539   6.067  0.0443 -0.0974  0.5051
 2751SOL    HW1 9303   7.959   2.550   5.987 -0.8764 -0.4940  1.0241
 2751SOL    HW2 9304   8.061   2.460   6.052 -0.5799 -0.5130  0.5328
 2752SOL     OW 9305   0.592   6.833   7.157 -0.0668 -0.1536  0.1566
 2752SOL    HW1 9306   0.652   6.784   7.215  0.8782 -0.0070 -0.6740
 2752SOL    HW2 9307   0.508   6.790   7.168  0.2553 -0.5828  1.0972
 2753SOL     OW 9308   5.904   7.839   5.376  0.2345  0.0837 -0.6480
 2753SOL    HW1 9309   5.908   7.789   5.295 -2.7713  0.0216 -0.8992
 2753SOL    HW2 9310   5.869   7.924   5.350 -1.5527 -0.2097  0.5929
 2754SOL     OW 9311   0.506   6.466   2.191 -0.0418 -0.1352  0.1592
 2754SOL    HW1 9312   0.564   6.501   2.123 -1.4588  2.4155  0.1635
 2754SOL    HW2 9313   0.461   6.393   2.148  0.7202 -0.0152 -0.8953
 2755SOL     OW 9314   6.337   1.107   5.571 -0.3753  0.2853  0.4382
 2755SOL    HW1 9315   6.254   1.060   5.575  0.5747 -1.4677  1.0163
 2755SOL    HW2 9316   6.323   1.188   5.619 -1.5295 -0.3502  1.2029
 2756SOL     OW 9317   3.357   4.923   2.331  0.4667 -0.0947 -0.3849
 2756SOL    HW1 9318   3.437   4.909   2.382  0.5144 -2.7693 -1.0807
 2756SOL    HW2 9319   3.286   4.901   2.392  0.3090  0.5435 -0.3237
 2757SOL     OW 9320   2.600   1.452   3.580 -0.1046  0.3878 -0.2691
 2757SOL    HW1 9321   2.678   1.415   3.622 -0.4485 -0.6194 -0.4928
 2757SOL    HW2 9322   2.579   1.390   3.509 -2.5312 -0.7522  1.3043
 2758SOL     OW 9323   6.556   0.944   3.943 -0.0547 -0.0151  0.4938
 2758SOL    HW1 9324   6.580   0.874   3.883  0.6994 -0.6191  1.4670
 2758SOL    HW2 9325   6.569   1.024   3.892  2.6965 -0.3843  0.4750
 2759SOL     OW 9326   5.124   6.066   7.046 -0.5399 -0.3894 -0.4078
 2759SOL    HW1 9327   5.175   6.005   7.099 -2.1420 -0.0390  1.6296
 2759SOL    HW2 9328   5.081   6.010   6.981 -2.8046 -1.7472  2.0630
 2760SOL     OW 9329   5.166   3.786   6.189  0.2548 -0.4803  0.1861
 2760SOL    HW1 9330   5.121   3.830   6.116  2.3248 -0.6606 -1.3147
 2760SOL    HW2 9331   5.107   3.716   6.216 -0.7005 -0.2300 -1.1545
 2761SOL     OW 9332   7.944   4.440   8.173 -0.0574  0.4291  0.3286
 2761SOL    HW1 9333   8.002   4.460   8.100  1.6098 -2.6150  0.6614
 2761SOL    HW2 9334   7.894   4.364   8.144 -1.3365  0.8136  1.4080
 2762SOL     OW 9335   1.900   6.717   7.049  0.0264 -0.2979  0.4130
 2762SOL    HW1 9336   1.896   6.718   6.954  0.7856  1.7761  0.3642
 2762SOL    HW2 9337   1.809   6.714   7.077 -0.2046 -0.6957 -0.3503
 2763SOL     OW 9338   1.506   2.043   4.519  0.6639 -0.2005  0.2792
 2763SOL    HW1 9339   1.491   1.990   4.440  1.3308 -0.1615  0.1194
 2763SOL    HW2 9340   1.478   1.987   4.591 -0.6206  0.0204 -0.0172
 2764SOL     OW 9341   1.199   3.195   1.991 -0.0357  0.2384  0.2128
 2764SOL    HW1 9342   1.215   3.283   1.955 -1.6890  0.1650 -0.7772
 2764SOL    HW2 9343   1.108   3.176   1.970  0.0753 -1.4336  1.0699
 2765SOL     OW 9344   2.901   1.564   3.858  0.0888  0.8929 -0.3864
 2765SOL    HW1 9345   2.963   1.624   3.899  0.4117  0.1309  0.2628
 2765SOL    HW2 9346   2.850   1.528   3.931 -2.3684  2.8222 -1.0274
 2766SOL     OW 9347   5.377   5.479   4.269 -0.3329  0.3708 -0.3316
 2766SOL    HW1 9348   5.370   5.385   4.250  0.9775  0.1823  0.0144
 2766SOL    HW2 9349   5.297   5.517   4.232  0.0987 -0.5752 -2.4142
 2767SOL     OW 9350   4.554   5.486   1.170 -0.6331  0.5652 -0.3930
 2767SOL    HW1 9351   4.644   5.519   1.173 -0.3519 -0.2044  1.2120
 2767SOL    HW2 9352   4.543   5.453   1.081  1.4526 -1.3074 -0.0616
 2768SOL     OW 9353   6.184   7.672   7.348 -0.2596  0.0216  0.8276
 2768SOL    HW1 9354   6.168   7.589   7.303  2.2320 -0.1232  0.1059
 2768SOL    HW2 9355   6.096   7.708   7.362 -1.2757 -1.1560 -1.8041
 2769SOL     OW 9356   2.151   5.759   7.180 -0.2390 -0.5926 -0.2502
 2769SOL    HW1 9357   2.182   5.800   7.260 -1.9103  0.3182 -0.0254
 2769SOL    HW2 9358   2.214   5.688   7.163  0.0367 -0.9401  1.9644
 2770SOL     OW 9359   0.265   5.642   7.341  0.0090 -0.1767 -0.0285
 2770SOL    HW1 9360   0.229   5.719   7.385  1.3033  0.4066  0.0589
 2770SOL    HW2 9361   0.271   5.576   7.409 -1.2305 -0.4077 -0.1326
 2771SOL     OW 9362   6.971   2.580   1.269 -0.8884  0.0518 -0.2308
 2771SOL    HW1 9363   7.057   2.556   1.235 -0.2598  2.2585 -0.3275
 2771SOL    HW2 9364   6.961   2.527   1.348  1.4171  1.1215  0.8676
 2772SOL     OW 9365   6.689   5.655   8.274  0.7483 -0.5028 -0.0279
 2772SOL    HW1 9366   6.736   5.591   8.328  0.8634 -0.6719 -0.3278
 2772SOL    HW2 9367   6.758   5.712   8.239  0.5150  0.9195  1.6815
 2773SOL     OW 9368   7.156   0.804   8.215 -0.2791  0.3656  0.0185
 2773SOL    HW1 9369   7.116   0.862   8.280 -0.4047  1.0797 -0.6857
 2773SOL    HW2 9370   7.191   0.863   8.148  0.9323 -0.3040  0.0409
 2774SOL     OW 9371   4.278   1.521   3.955 -0.4691  0.1809  0.5337
 2774SOL    HW1 9372   4.222   1.505   3.880 -1.4552 -0.2022  1.3221
 2774SOL    HW2 9373   4.252   1.454   4.019  0.7781  0.1017  0.9825
 2775SOL     OW 9374   5.356   8.173   3.514 -0.5139 -0.0616  0.2237
 2775SOL    HW1 9375   5.415   8.155   3.441  0.2134  2.4337  0.1175
 2775SOL    HW2 9376   5.410   8.163   3.592 -0.0724  1.6198  0.1579
 2776SOL     OW 9377   4.135   2.805   2.600 -0.1906  0.3970  0.5498
 2776SOL    HW1 9378   4.105   2.790   2.689 -0.4192 -0.4565  0.3435
 2776SOL    HW2 9379   4.057   2.791   2.546 -0.1995  1.4895  0.2518
 2777SOL     OW 9380   4.527   0.449   4.014 -0.3339  0.1710  0.2602
 2777SOL    HW1 9381   4.568   0.531   3.985  0.6838 -0.7768 -1.0608
 2777SOL    HW2 9382   4.496   0.469   4.103  0.2463  1.8618  0.1306
 2778SOL     OW 9383   1.996   0.023   3.711 -0.3997 -0.3067 -0.2198
 2778SOL    HW1 9384   1.934  -0.041   3.745  0.5898 -1.7469 -1.0007
 2778SOL    HW2 9385   1.982   0.023   3.617  0.0758  0.1339 -0.2972
 2779SOL     OW 9386   3.269   3.519   3.446  0.1535  0.0074 -0.5331
 2779SOL    HW1 9387   3.259   3.569   3.365 -0.8670  0.6670 -0.0192
 2779SOL    HW2 9388   3.182   3.520   3.486  0.1074 -2.1327 -0.4607
 2780SOL     OW 9389   5.648   7.638   2.813  0.3111  0.6841  0.2247
 2780SOL    HW1 9390   5.657   7.583   2.735  0.2957 -1.4984  1.6844
 2780SOL    HW2 9391   5.575   7.599   2.862 -0.5267  2.7682  0.7776
 2781SOL     OW 9392   1.355   0.890   2.872  0.2386 -0.7559  0.1370
 2781SOL    HW1 9393   1.281   0.868   2.814  0.6631 -0.4922 -0.5237
 2781SOL    HW2 9394   1.366   0.984   2.860  1.4753 -0.9930 -0.7449
 2782SOL     OW 9395   4.748   7.561   4.906 -0.5910  0.4887 -0.1827
 2782SOL    HW1 9396   4.810   7.624   4.869  1.0319 -0.3258  1.0531
 2782SOL    HW2 9397   4.674   7.614   4.935 -0.3355  1.5269 -1.3382
 2783SOL     OW 9398   8.147   4.303   2.906  0.4416  0.0515 -0.0126
 2783SOL    HW1 9399   8.149   4.271   2.996 -0.2910  3.6319  1.4047
 2783SOL    HW2 9400   8.066   4.267   2.870 -1.4023  1.7234  2.1604
 2784SOL     OW 9401   2.554   7.331   2.114 -0.3811 -0.1921  0.4548
 2784SOL    HW1 9402   2.569   7.237   2.119 -0.2118 -0.2100 -0.2427
 2784SOL    HW2 9403   2.493   7.342   2.041  0.1757  0.2890  0.0449
 2785SOL     OW 9404   4.899   4.237   0.171 -0.4150 -0.4376 -0.1298
 2785SOL    HW1 9405   4.806   4.212   0.172 -0.4197 -0.5085 -1.0285
 2785SOL    HW2 9406   4.904   4.315   0.225 -1.3181  0.5650 -1.4161
 2786SOL     OW 9407   7.362   1.996   1.491  0.0565 -0.3574  0.1471
 2786SOL    HW1 9408   7.357   1.913   1.539  2.6780 -0.1065  0.9977
 2786SOL    HW2 9409   7.360   1.970   1.399 -2.8056 -1.0193  0.3215
 2787SOL     OW 9410   5.991   7.500   1.749  0.1718 -0.1082  0.3670
 2787SOL    HW1 9411   5.972   7.411   1.719  1.7059 -0.4225  0.2367
 2787SOL    HW2 9412   6.071   7.491   1.801  1.6247  1.4893 -1.4402
 2788SOL     OW 9413   2.612   2.751   4.033 -0.6104 -0.7453 -0.7612
 2788SOL    HW1 9414   2.625   2.843   4.056 -0.8242 -0.3276 -2.2429
 2788SOL    HW2 9415   2.696   2.709   4.054 -0.8852 -0.4867  1.0374
 2789SOL     OW 9416   0.900   3.248   1.981  0.5060 -0.0183 -0.3940
 2789SOL    HW1 9417   0.936   3.169   2.020 -1.2266 -0.5929  0.1422
 2789SOL    HW2 9418   0.854   3.292   2.053 -0.2619  0.4269 -1.1276
 2790SOL     OW 9419   3.575   3.667   1.805  0.1389  0.1749  0.0749
 2790SOL    HW1 9420   3.516   3.681   1.879 -1.0616  0.4942 -0.9127
 2790SOL    HW2 9421   3.612   3.753   1.786  1.1794 -0.0703  0.8616
 2791SOL     OW 9422   5.050   4.403   2.851  0.1763  0.0531  0.0495
 2791SOL    HW1 9423   5.073   4.327   2.904  2.0898 -0.8698 -1.9651
 2791SOL    HW2 9424   5.082   4.478   2.902  2.4676 -0.8404  0.0305
 2792SOL     OW 9425   0.726   7.842   2.085  0.3650 -0.6368  0.1316
 2792SOL    HW1 9426   0.684   7.768   2.041 -1.1513  0.3059 -0.0666
 2792SOL    HW2 9427   0.723   7.819   2.178 -1.8603 -0.0343  0.2669
 2793SOL     OW 9428   4.558   8.225   1.180 -0.4260  0.0925  0.2159
 2793SOL    HW1 9429   4.465   8.244   1.191 -0.3404  0.9870 -0.4658
 2793SOL    HW2 9430   4.595   8.240   1.267 -0.4512  2.7743 -0.1477
 2794SOL     OW 9431   5.308   5.888   1.745 -0.1138 -0.2929  0.1654
 2794SOL    HW1 9432   5.328   5.887   1.651  0.0607 -0.2497  0.2003
 2794SOL    HW2 9433   5.367   5.822   1.781 -1.6225 -1.8143 -0.0335
 2795SOL     OW 9434   6.742   2.570   7.798  0.3261 -0.1427  0.6109
 2795SOL    HW1 9435   6.728   2.598   7.889 -0.4308  0.9275  0.1816
 2795SOL    HW2 9436   6.736   2.475   7.801 -1.9158 -0.0423  1.3496
 2796SOL     OW 9437   7.644   0.976   0.050  0.0197  0.0365  0.1506
 2796SOL    HW1 9438   7.578   0.968   0.119 -0.8288 -0.0947 -0.6547
 2796SOL    HW2 9439   7.595   1.007  -0.026  0.9467  0.2104 -0.3855
 2797SOL     OW 9440   1.083   3.010   2.595  0.1247  0.3668 -0.6202
 2797SOL    HW1 9441   1.048   3.004   2.506  1.1530  0.2056 -1.0305
 2797SOL    HW2 9442   1.043   3.089   2.631 -1.5121 -0.4080 -0.6530
 2798SOL     OW 9443   2.184   4.904   5.836 -0.7811  0.1543 -0.1742
 2798SOL    HW1 9444   2.091   4.928   5.831 -0.6415  0.6868 -0.2636
 2798SOL    HW2 9445   2.201   4.854   5.757 -0.8367  0.6037 -0.4696
 2799SOL     OW 9446   4.078   4.393   0.882  0.7610 -0.3466 -0.4803
 2799SOL    HW1 9447   4.032   4.376   0.964  0.9456  1.4825  0.0372
 2799SOL    HW2 9448   4.134   4.468   0.900  1.2997 -0.3026 -2.1056
 2800SOL     OW 9449   5.160   4.383   6.533  0.0748 -0.3582  0.5873
 2800SOL    HW1 9450   5.120   4.395   6.447 -0.0571 -1.8566  0.4202
 2800SOL    HW2 9451   5.243   4.339   6.515  1.3087  1.6420  1.0274
 2801SOL     OW 9452   2.175   1.983   4.283 -0.1005  0.4878  0.1629
 2801SOL    HW1 9453   2.199   2.069   4.249 -0.6106 -0.1456 -2.0270
 2801SOL    HW2 9454   2.234   1.968   4.357  1.4706  1.8094 -0.7549
 2802SOL     OW 9455   6.385   1.418   0.325 -0.0402 -0.1502 -0.2546
 2802SOL    HW1 9456   6.318   1.484   0.307  0.3673 -0.0939 -1.7087
 2802SOL    HW2 9457   6.362   1.345   0.269 -0.4525 -1.2608  1.2969
 2803SOL     OW 9458   1.878   5.572   1.397 -0.1430  0.0798 -0.0473
 2803SOL    HW1 9459   1.783   5.564   1.400 -0.2549  0.6770 -1.2780
 2803SOL    HW2 9460   1.910   5.484   1.418 -1.0133 -0.5649 -1.3035
 2804SOL     OW 9461   5.901   5.234   5.238  0.4822  0.3892 -0.6785
 2804SOL    HW1 9462   5.841   5.200   5.304  0.2923  1.3924 -0.3143
 2804SOL    HW2 9463   5.845   5.282   5.177  0.8406  0.7872 -0.6984
 2805SOL     OW 9464   1.970   3.534   5.709 -0.6460  0.3045 -0.1187
 2805SOL    HW1 9465   1.992   3.501   5.796  0.3655  0.3182 -0.3658
 2805SOL    HW2 9466   2.037   3.599   5.689  0.7666 -1.5926 -2.0217
 2806SOL     OW 9467   7.269   3.593   2.879  0.0163 -0.3315  0.0025
 2806SOL    HW1 9468   7.197   3.642   2.840  0.5901  2.6772  2.4153
 2806SOL    HW2 9469   7.241   3.574   2.968  0.8657 -2.2776 -0.0770
 2807SOL     OW 9470   3.467   3.458   4.995 -0.0841 -0.3654  0.1126
 2807SOL    HW1 9471   3.431   3.370   4.998 -0.5774 -0.3170 -2.3143
 2807SOL    HW2 9472   3.408   3.506   4.937  1.5147  0.8855 -0.5542
 2808SOL     OW 9473   6.203   4.132   4.153  0.6912 -0.5933  0.1678
 2808SOL    HW1 9474   6.240   4.145   4.240 -0.4567 -1.4951  0.8147
 2808SOL    HW2 9475   6.273   4.159   4.093  1.6863 -0.4517  1.3542
 2809SOL     OW 9476   1.683   4.522   5.227 -0.2816  0.0431  0.5054
 2809SOL    HW1 9477   1.644   4.512   5.314  0.6403  1.4318  1.1006
 2809SOL    HW2 9478   1.761   4.575   5.241 -0.0694  0.2291 -1.1695
 2810SOL     OW 9479   3.738   6.374   4.291 -0.4598  0.3865  0.2636
 2810SOL    HW1 9480   3.670   6.314   4.320 -0.0755  0.5141  1.4666
 2810SOL    HW2 9481   3.815   6.319   4.279 -0.1865  0.5728  1.0836
 2811SOL     OW 9482   0.007   0.494   1.657 -0.5895 -0.0771 -0.1895
 2811SOL    HW1 9483  -0.074   0.477   1.608  0.0437  1.6974 -1.9904
 2811SOL    HW2 9484   0.072   0.436   1.617 -0.4003  0.3182 -0.4553
 2812SOL     OW 9485   7.071   4.792   4.721 -0.7555 -0.1490  0.1482
 2812SOL    HW1 9486   7.109   4.847   4.790 -0.4011 -0.6667  0.3683
 2812SOL    HW2 9487   7.067   4.704   4.759 -0.2235 -0.5128 -0.6014
 2813SOL     OW 9488   1.431   1.680   2.566 -0.0696  0.5335  0.7674
 2813SOL    HW1 9489   1.457   1.745   2.632 -2.4536  1.7185  0.6317
 2813SOL    HW2 9490   1.426   1.730   2.484  1.2112 -0.5718 -0.0369
 2814SOL     OW 9491   5.557   3.358   8.175 -0.3801  0.4630 -0.1644
 2814SOL    HW1 9492   5.475   3.402   8.153 -0.6855  0.2885  0.6037
 2814SOL    HW2 9493   5.582   3.393   8.260 -1.0225 -1.3464  0.8234
 2815SOL     OW 9494   8.023   1.589   7.626 -0.4962  0.1111  0.0643
 2815SOL    HW1 9495   7.999   1.657   7.689  0.3903 -0.3735  0.9397
 2815SOL    HW2 9496   8.115   1.605   7.607 -0.8269  0.4834 -1.4307
 2816SOL     OW 9497   6.556   1.186   2.136 -0.5815  0.0957 -0.1828
 2816SOL    HW1 9498   6.534   1.192   2.229 -1.5814 -0.1165 -0.3947
 2816SOL    HW2 9499   6.543   1.093   2.115 -1.8340  0.4077 -0.8741
 2817SOL     OW 9500   4.932   4.836   6.519  0.0508 -0.0432 -0.0707
 2817SOL    HW1 9501   4.868   4.857   6.450 -1.4889  1.4660  1.6767
 2817SOL    HW2 9502   4.886   4.774   6.575 -0.3433  1.7890  1.7434
 2818SOL     OW 9503   6.403   2.676   6.781 -0.0964  0.7117  0.4430
 2818SOL    HW1 9504   6.440   2.729   6.852  0.5181  0.1284  0.5616
 2818SOL    HW2 9505   6.406   2.586   6.813  0.5777  0.3896 -0.4741
 2819SOL     OW 9506   6.304   2.315   5.678 -0.0613  0.2375  0.0867
 2819SOL    HW1 9507   6.290   2.309   5.772 -1.6294  1.2114 -0.0559
 2819SOL    HW2 9508   6.326   2.407   5.663  0.2501  0.0709 -0.4985
 2820SOL     OW 9509   2.839   6.052   5.990 -0.0800 -0.4118  0.6699
 2820SOL    HW1 9510   2.931   6.037   5.971 -0.2321  0.5428 -1.0802
 2820SOL    HW2 9511   2.795   5.972   5.961  0.2108 -1.0215  1.8620
 2821SOL     OW 9512   2.294   5.845   5.754 -0.6477 -0.3836  0.2450
 2821SOL    HW1 9513   2.287   5.893   5.671  0.6747  0.8874  0.8146
 2821SOL    HW2 9514   2.206   5.814   5.771 -1.2589  0.6042 -0.9117
 2822SOL     OW 9515   7.384   2.069   4.067  0.0366  0.4235  0.4321
 2822SOL    HW1 9516   7.416   2.114   4.145 -0.5507 -0.8140  1.4299
 2822SOL    HW2 9517   7.461   2.058   4.011  0.2371  2.4332  0.2400
 2823SOL     OW 9518   0.785   5.243   5.033 -0.3167 -0.1294  0.1447
 2823SOL    HW1 9519   0.807   5.286   5.116  1.0387 -1.3264  0.4500
 2823SOL    HW2 9520   0.694   5.215   5.044  0.4000 -1.9730  2.0573
 2824SOL     OW 9521   2.908   3.409   0.133  0.0778 -0.1059  0.6870
 2824SOL    HW1 9522   2.832   3.466   0.147 -0.8603 -1.6729  2.4952
 2824SOL    HW2 9523   2.923   3.412   0.039 -0.2163  2.7161  0.6452
 2825SOL     OW 9524   2.464   0.965   5.373 -0.1273 -0.7845  0.8420
 2825SOL    HW1 9525   2.461   1.060   5.357 -0.5676 -1.1050 -1.2737
 2825SOL    HW2 9526   2.394   0.949   5.436 -0.1357  0.2771  1.1176
 2826SOL     OW 9527   2.693   3.088   4.117 -0.5919  0.4476 -0.6191
 2826SOL    HW1 9528   2.728   3.146   4.049 -0.1534 -0.9643 -1.6479
 2826SOL    HW2 9529   2.770   3.039   4.148 -1.0659 -0.0884 -0.2722
 2827SOL     OW 9530   3.725   8.030   3.254 -0.4051  0.0129 -0.5334
 2827SOL    HW1 9531   3.677   8.085   3.316 -0.6197  0.5171 -1.1334
 2827SOL    HW2 9532   3.793   7.988   3.307  1.0914  2.4156 -0.3894
 2828SOL     OW 9533   0.019   2.118   7.296  0.0283  0.0940 -0.1439
 2828SOL    HW1 9534  -0.064   2.100   7.251  0.0443  1.3447 -0.7360
 2828SOL    HW2 9535   0.065   2.035   7.296 -1.8110 -1.0084  1.5124
 2829SOL     OW 9536   8.167   5.154   6.550  0.0847 -0.0207  0.0119
 2829SOL    HW1 9537   8.259   5.180   6.564 -0.0587  0.3639  0.2587
 2829SOL    HW2 9538   8.118   5.235   6.563 -0.2247 -0.0481 -0.9184
 2830SOL     OW 9539   6.332   4.107   1.920  0.0125  0.3379  0.1194
 2830SOL    HW1 9540   6.363   4.105   1.830 -0.8463 -0.5695 -0.1710
 2830SOL    HW2 9541   6.398   4.157   1.967  1.8074 -1.3340 -0.5102
 2831SOL     OW 9542   2.982   6.940   0.134 -0.1818 -0.4643 -0.0723
 2831SOL    HW1 9543   3.048   7.009   0.141  1.1095 -1.5440 -1.3550
 2831SOL    HW2 9544   2.972   6.908   0.224  1.4573 -0.6525  0.0739
 2832SOL     OW 9545   2.094   8.063   3.248 -0.2746 -0.0646 -0.1746
 2832SOL    HW1 9546   2.047   7.997   3.299 -0.0742 -0.7406 -0.8570
 2832SOL    HW2 9547   2.169   8.087   3.304 -0.7504  0.1384  0.3917
 2833SOL     OW 9548   4.885   3.276   2.059  0.1735 -0.3971 -0.2988
 2833SOL    HW1 9549   4.948   3.262   1.989  1.3982  1.2834  0.4030
 2833SOL    HW2 9550   4.842   3.359   2.036  0.0101 -0.2464  0.5193
 2834SOL     OW 9551   1.150   5.531   7.128  0.1556 -0.3389  0.2068
 2834SOL    HW1 9552   1.056   5.548   7.123  0.3627  0.7580 -0.1701
 2834SOL    HW2 9553   1.165   5.463   7.062 -0.4335 -0.8113  0.5552
 2835SOL     OW 9554   5.768   3.942   4.634 -0.0660 -0.8496 -0.2390
 2835SOL    HW1 9555   5.693   3.976   4.585 -0.1006 -0.8449 -0.1830
 2835SOL    HW2 9556   5.809   4.020   4.672 -0.0357 -0.8528 -0.2644
 2836SOL     OW 9557   6.689   7.643   3.272 -0.1975 -0.7149 -0.2561
 2836SOL    HW1 9558   6.628   7.572   3.290  0.0848 -0.8097  0.3624
 2836SOL    HW2 9559   6.771   7.615   3.314  0.0910 -0.3094 -0.5412
 2837SOL     OW 9560   2.168   2.271   3.172  0.0979 -0.5285  0.2041
 2837SOL    HW1 9561   2.187   2.363   3.190 -0.3942 -0.5010  0.6038
 2837SOL    HW2 9562   2.225   2.223   3.232  0.8679 -0.5043 -0.4939
 2838SOL     OW 9563   5.849   0.629   1.537  0.0219 -0.4714 -0.2041
 2838SOL    HW1 9564   5.870   0.714   1.497 -1.5533  0.3450  0.6297
 2838SOL    HW2 9565   5.765   0.643   1.581 -0.0748 -2.3654  0.2908
 2839SOL     OW 9566   7.032   3.384   2.876 -0.4716 -0.8712  0.5525
 2839SOL    HW1 9567   6.967   3.339   2.930 -0.9312  1.3729  2.0143
 2839SOL    HW2 9568   7.001   3.474   2.871  0.6829 -0.5337 -1.7757
 2840SOL     OW 9569   6.906   3.247   0.664  0.2912  0.2477 -0.1978
 2840SOL    HW1 9570   6.873   3.202   0.587  0.7166 -0.9052  0.2678
 2840SOL    HW2 9571   6.879   3.192   0.738  0.6416  0.8676  0.4081
 2841SOL     OW 9572   1.410   5.982   0.599  0.4019  0.0696 -0.0201
 2841SOL    HW1 9573   1.324   6.005   0.634  0.4053 -0.0248  0.0516
 2841SOL    HW2 9574   1.442   5.914   0.658  0.9513  0.8003  0.5474
 2842SOL     OW 9575   8.078   4.916   5.243  0.1712  0.1739  0.4108
 2842SOL    HW1 9576   8.137   4.850   5.206 -0.6480 -0.3915  0.0677
 2842SOL    HW2 9577   8.066   4.890   5.334  0.7841  0.5394  0.6000
 2843SOL     OW 9578   4.061   0.202   1.985  0.1502  0.5893  0.2655
 2843SOL    HW1 9579   4.095   0.288   1.959  0.2618  0.3933 -0.2333
 2843SOL    HW2 9580   3.968   0.219   2.004 -0.2369  0.5132 -1.4175
 2844SOL     OW 9581   7.197   6.251   3.296 -0.1457  0.2003 -0.1417
 2844SOL    HW1 9582   7.181   6.160   3.270 -1.4186  0.0065  1.1763
 2844SOL    HW2 9583   7.110   6.291   3.298  0.3439  1.3130 -0.1570
 2845SOL     OW 9584   7.913   2.785   2.592  0.1200 -0.5802  0.0496
 2845SOL    HW1 9585   7.881   2.726   2.660 -0.3229 -0.5058 -0.0958
 2845SOL    HW2 9586   7.836   2.833   2.563  0.4200 -0.1554 -0.0595
 2846SOL     OW 9587   3.838   1.581   1.619 -0.0666 -0.0692 -0.4510
 2846SOL    HW1 9588   3.876   1.656   1.573 -1.9365  1.1036 -0.1904
 2846SOL    HW2 9589   3.868   1.589   1.709 -1.4807  1.2950 -0.0686
 2847SOL     OW 9590   6.408   1.724   6.114 -0.2415  0.2136  0.2867
 2847SOL    HW1 9591   6.409   1.797   6.175 -1.1286 -0.0134  0.5945
 2847SOL    HW2 9592   6.493   1.727   6.071 -0.5266  1.8405 -0.2113
 2848SOL     OW 9593   4.280   1.218   1.371 -0.4417  0.2919 -0.0522
 2848SOL    HW1 9594   4.360   1.237   1.321 -0.4275  1.3009  0.3340
 2848SOL    HW2 9595   4.304   1.143   1.426 -0.1279 -0.1504 -0.7726
 2849SOL     OW 9596   3.889   4.058   1.147  0.0392 -0.1714  0.1471
 2849SOL    HW1 9597   3.898   3.977   1.098  0.5131  0.0035 -0.0649
 2849SOL    HW2 9598   3.795   4.068   1.161 -0.1991  0.2832 -1.5956
 2850SOL     OW 9599   6.334   7.767   0.205  0.2737 -0.2997 -0.1112
 2850SOL    HW1 9600   6.394   7.841   0.213  0.5028 -0.3753 -1.0204
 2850SOL    HW2 9601   6.307   7.749   0.295  1.7257 -0.3660  0.3418
 2851SOL     OW 9602   4.412   0.998   4.675  0.2990 -0.2436  0.0317
 2851SOL    HW1 9603   4.321   0.994   4.703  0.1311 -1.5436 -0.6078
 2851SOL    HW2 9604   4.433   1.092   4.673 -1.6473  0.2212 -1.7536
 2852SOL     OW 9605   6.507   4.859   0.383 -0.2927  0.2132  0.0473
 2852SOL    HW1 9606   6.523   4.766   0.370  0.0927  0.0025  1.7465
 2852SOL    HW2 9607   6.593   4.895   0.406 -0.5169  0.9006 -0.1714
 2853SOL     OW 9608   8.201   8.014   7.607  0.0196  0.5263  0.6204
 2853SOL    HW1 9609   8.129   7.971   7.654 -0.1104  0.9474  0.8166
 2853SOL    HW2 9610   8.158   8.061   7.536 -0.0721  1.8376  1.4953
 2854SOL     OW 9611   6.015   6.394   6.958  0.3028 -0.0730  0.1547
 2854SOL    HW1 9612   6.047   6.334   6.891 -0.8804 -1.1833  0.5501
 2854SOL    HW2 9613   6.078   6.386   7.030  1.3466  0.8178 -0.6217
 2855SOL     OW 9614   7.219   1.822   2.989  0.3646  0.0146  0.5709
 2855SOL    HW1 9615   7.151   1.852   3.049  0.5139  1.0126  0.2625
 2855SOL    HW2 9616   7.171   1.781   2.917 -0.1798  3.3561 -1.1530
 2856SOL     OW 9617   5.398   1.538   5.078 -0.0158  0.6530 -0.0852
 2856SOL    HW1 9618   5.425   1.487   5.155 -1.1897  2.6323  1.7314
 2856SOL    HW2 9619   5.442   1.495   5.005 -1.1614 -3.1494  1.2327
 2857SOL     OW 9620   6.012   4.042   2.628  0.5374 -0.0932 -0.7307
 2857SOL    HW1 9621   6.050   4.096   2.697 -0.6795  0.8466 -0.7646
 2857SOL    HW2 9622   6.012   4.097   2.550 -1.5593  0.2702 -0.5479
 2858SOL     OW 9623   5.565   4.700   7.492 -0.3381  0.3156  0.0268
 2858SOL    HW1 9624   5.586   4.775   7.437 -0.0750  0.9348  0.9399
 2858SOL    HW2 9625   5.480   4.722   7.530 -0.2403  0.1797  0.3269
 2859SOL     OW 9626   7.912   5.257   6.070  0.2833  0.2648 -0.9369
 2859SOL    HW1 9627   7.920   5.352   6.076  0.0706  0.3225 -1.5365
 2859SOL    HW2 9628   7.832   5.237   6.119  0.2762  0.4070 -0.8894
 2860SOL     OW 9629   5.467   3.071   7.630  0.0737  0.7643  0.2587
 2860SOL    HW1 9630   5.552   3.051   7.669  0.1986 -1.2764 -0.9453
 2860SOL    HW2 9631   5.419   2.988   7.632 -1.2257  1.4561 -0.7082
 2861SOL     OW 9632   2.553   2.511   6.674  0.2698 -0.0528  0.5034
 2861SOL    HW1 9633   2.625   2.457   6.643  0.1063  0.8250 -1.6726
 2861SOL    HW2 9634   2.509   2.539   6.593 -0.1312  2.6113  1.5457
 2862SOL     OW 9635   2.328   2.372   1.740 -0.2409 -0.0408 -0.3943
 2862SOL    HW1 9636   2.277   2.294   1.763 -1.1975  0.7949  0.4436
 2862SOL    HW2 9637   2.419   2.342   1.737 -0.6436 -1.2984 -0.6356
 2863SOL     OW 9638   7.769   5.510   6.480  0.6484  0.3074  0.0747
 2863SOL    HW1 9639   7.708   5.442   6.507 -0.3933  0.5588 -1.4605
 2863SOL    HW2 9640   7.802   5.548   6.562 -1.3857  0.2574  0.9805
 2864SOL     OW 9641   3.681   3.639   6.805  0.1713  0.2210  0.2298
 2864SOL    HW1 9642   3.720   3.574   6.863  0.7327  0.4648  0.1375
 2864SOL    HW2 9643   3.752   3.663   6.745 -0.3795  0.0231 -0.5125
 2865SOL     OW 9644   5.958   4.092   0.182  0.0702 -0.2682 -0.1492
 2865SOL    HW1 9645   5.884   4.042   0.146 -2.3070  1.5361  1.8429
 2865SOL    HW2 9646   5.965   4.062   0.272  0.0740  1.3105  0.4145
 2866SOL     OW 9647   7.241   3.923   2.080 -0.8371 -0.0990 -0.0243
 2866SOL    HW1 9648   7.169   3.974   2.044 -1.0638  1.6849  2.6306
 2866SOL    HW2 9649   7.319   3.955   2.034 -1.1886  1.5301  0.4536
 2867SOL     OW 9650   0.623   3.571   6.929 -0.1643  0.2899 -0.3319
 2867SOL    HW1 9651   0.660   3.652   6.964 -1.6904  1.5605 -1.4792
 2867SOL    HW2 9652   0.542   3.559   6.979 -0.1214 -0.3481 -0.4091
 2868SOL     OW 9653   4.141   2.989   3.122  1.0442 -0.0516 -0.1895
 2868SOL    HW1 9654   4.220   2.947   3.088  1.2303 -0.1422  0.3364
 2868SOL    HW2 9655   4.174   3.065   3.169  0.7780  0.1752 -0.3699
 2869SOL     OW 9656   1.751   6.646   0.946  0.3866 -0.0049  0.3685
 2869SOL    HW1 9657   1.715   6.577   0.891 -0.6546  0.6304  0.2380
 2869SOL    HW2 9658   1.688   6.718   0.940 -0.0451 -0.0950  2.7719
 2870SOL     OW 9659   6.870   1.325   0.677 -0.3952 -0.4409  0.5223
 2870SOL    HW1 9660   6.898   1.266   0.607 -1.5337  0.0482 -0.3876
 2870SOL    HW2 9661   6.789   1.365   0.643 -0.1956  0.8765  1.5291
 2871SOL     OW 9662   7.581   4.442   8.086 -0.0845  0.3808 -0.0691
 2871SOL    HW1 9663   7.506   4.490   8.049 -1.1670 -1.0341  0.2151
 2871SOL    HW2 9664   7.575   4.457   8.180 -0.1382  0.0787 -0.0254
 2872SOL     OW 9665   6.799   1.390   1.050 -0.1594  0.0256 -0.1389
 2872SOL    HW1 9666   6.704   1.383   1.058 -0.0718  0.1621  1.1703
 2872SOL    HW2 9667   6.813   1.471   1.002 -0.6982  0.1275 -0.1243
 2873SOL     OW 9668   4.548   2.631   0.846  0.2033  0.2309  0.1576
 2873SOL    HW1 9669   4.609   2.583   0.790  1.0311 -0.1053  1.3105
 2873SOL    HW2 9670   4.588   2.718   0.855 -0.0596  0.3656  0.0223
 2874SOL     OW 9671   1.431   1.334   7.515  0.3465  0.3645  0.1158
 2874SOL    HW1 9672   1.395   1.423   7.513  0.9952  0.7932  2.9069
 2874SOL    HW2 9673   1.525   1.346   7.527  0.4428 -0.6703  0.5101
 2875SOL     OW 9674   0.233   5.348   4.144  0.5379  0.0530 -0.0597
 2875SOL    HW1 9675   0.171   5.368   4.214  0.4223  0.2511 -0.2149
 2875SOL    HW2 9676   0.205   5.404   4.071  1.8209  1.2913  0.3596
 2876SOL     OW 9677   0.398   0.532   8.011 -0.2981  1.0077  0.1775
 2876SOL    HW1 9678   0.486   0.544   8.048 -0.5910 -0.2596  1.3469
 2876SOL    HW2 9679   0.363   0.621   8.005  0.2557  1.3693  1.7608
 2877SOL     OW 9680   5.713   6.256   6.657 -0.1521 -0.0363  0.2969
 2877SOL    HW1 9681   5.695   6.257   6.751  0.7888 -2.4388  0.5770
 2877SOL    HW2 9682   5.781   6.322   6.644 -0.3452  0.3636  1.2761
 2878SOL     OW 9683   6.240   0.569   7.411 -0.2642  0.2273 -0.6926
 2878SOL    HW1 9684   6.279   0.603   7.492 -1.2588 -1.6244  0.6486
 2878SOL    HW2 9685   6.296   0.496   7.385 -1.2497 -0.7207 -0.2644
 2879SOL     OW 9686   2.543   6.212   5.190 -0.4144  0.6321 -0.1296
 2879SOL    HW1 9687   2.621   6.163   5.217 -0.4902  0.4219 -0.2917
 2879SOL    HW2 9688   2.576   6.286   5.140 -0.3861 -0.3500 -1.6192
 2880SOL     OW 9689   6.207   6.643   5.145  0.7397  0.5183 -0.4103
 2880SOL    HW1 9690   6.120   6.683   5.149  0.3874 -0.3066  1.5597
 2880SOL    HW2 9691   6.194   6.561   5.099  0.2396 -0.0855  0.7773
 2881SOL     OW 9692   4.171   3.292   2.293 -0.1448  0.0936  0.2922
 2881SOL    HW1 9693   4.195   3.350   2.365 -1.8835 -3.1572  3.8890
 2881SOL    HW2 9694   4.247   3.236   2.281 -0.0126  0.3510 -0.0577
 2882SOL     OW 9695   3.524   1.203   1.768 -0.3463  0.2414  0.6374
 2882SOL    HW1 9696   3.482   1.277   1.723  0.1691  0.9964  1.3777
 2882SOL    HW2 9697   3.561   1.240   1.848  0.3644 -0.7190  0.7808
 2883SOL     OW 9698   4.401   1.920   0.340 -0.0723  0.1804  0.3446
 2883SOL    HW1 9699   4.360   1.852   0.393  0.4260 -0.5306 -0.1516
 2883SOL    HW2 9700   4.439   1.981   0.404 -0.3008 -0.1481  0.8012
 2884SOL     OW 9701   4.873   8.274   4.890  0.0642 -0.1538 -0.0702
 2884SOL    HW1 9702   4.949   8.216   4.896 -0.7491 -1.2813 -0.3450
 2884SOL    HW2 9703   4.883   8.319   4.807 -0.5687 -1.7890 -1.0777
 2885SOL     OW 9704   0.032   5.626   3.067 -0.0407  0.1152 -0.3950
 2885SOL    HW1 9705  -0.056   5.608   3.101 -0.4852  0.0688 -1.5257
 2885SOL    HW2 9706   0.078   5.667   3.140 -0.3059 -1.8064  0.9456
 2886SOL     OW 9707   4.124   5.248   7.605  0.0559 -0.0202 -0.1213
 2886SOL    HW1 9708   4.067   5.211   7.538  0.4807 -2.3948  0.7496
 2886SOL    HW2 9709   4.117   5.188   7.679  1.0793  1.4789  1.2866
 2887SOL     OW 9710   1.144   8.083   7.569 -0.0561  0.7454  0.0751
 2887SOL    HW1 9711   1.222   8.125   7.533  0.2789  1.2773  1.3386
 2887SOL    HW2 9712   1.111   8.146   7.634 -0.4195 -0.2930  0.9296
 2888SOL     OW 9713   5.572   3.850   7.345  0.8253  0.4864  0.0898
 2888SOL    HW1 9714   5.580   3.755   7.346  1.1100  0.5159  1.0228
 2888SOL    HW2 9715   5.611   3.876   7.261 -0.5167 -0.3076 -0.8278
 2889SOL     OW 9716   8.134   2.060   4.550 -0.0367 -0.2974 -0.1974
 2889SOL    HW1 9717   8.073   2.022   4.612 -2.1231  1.8738 -0.7726
 2889SOL    HW2 9718   8.218   2.021   4.572 -0.5843  0.4330  4.1081
 2890SOL     OW 9719   5.640   5.837   5.064  0.1530 -0.2949 -0.2077
 2890SOL    HW1 9720   5.676   5.918   5.100 -0.3473  0.8945 -2.2306
 2890SOL    HW2 9721   5.717   5.786   5.039  0.4768 -0.6111  1.3015
 2891SOL     OW 9722   7.571   3.912   1.299  0.6411 -0.3069 -0.4959
 2891SOL    HW1 9723   7.477   3.900   1.283 -0.0333  2.8358  0.3772
 2891SOL    HW2 9724   7.608   3.926   1.212  0.3196 -1.5276 -0.8453
 2892SOL     OW 9725   0.194   6.948   7.969 -0.3400  0.3828 -0.2690
 2892SOL    HW1 9726   0.168   7.034   7.936  1.0256  0.6915 -0.5701
 2892SOL    HW2 9727   0.202   6.961   8.064  1.4561  1.0503 -0.4739
 2893SOL     OW 9728   5.171   4.534   8.146 -0.4059  0.0576  0.6497
 2893SOL    HW1 9729   5.231   4.608   8.158 -0.0895 -0.2316  0.8647
 2893SOL    HW2 9730   5.228   4.459   8.131 -0.7414  0.1714 -1.4973
 2894SOL     OW 9731   2.015   1.530   6.362 -0.0935 -0.2345  0.2969
 2894SOL    HW1 9732   2.034   1.472   6.289 -0.5902  0.7971 -0.6724
 2894SOL    HW2 9733   2.008   1.471   6.438 -0.1668 -1.3822 -0.5781
 2895SOL     OW 9734   0.598   3.661   2.641 -0.0558  0.2834 -0.4585
 2895SOL    HW1 9735   0.599   3.570   2.611 -1.3835  0.6063 -1.5956
 2895SOL    HW2 9736   0.655   3.707   2.579 -0.3403  0.4249 -0.6167
 2896SOL     OW 9737   0.192   1.883   2.305  0.3630 -0.5607  0.4383
 2896SOL    HW1 9738   0.144   1.857   2.226 -0.9316  2.5444  0.0513
 2896SOL    HW2 9739   0.195   1.804   2.358 -1.9142 -1.8611 -1.1895
 2897SOL     OW 9740   3.532   4.727   2.687 -0.3993  0.1375  0.9655
 2897SOL    HW1 9741   3.454   4.688   2.725 -0.2938 -0.8773  0.1709
 2897SOL    HW2 9742   3.599   4.659   2.694  0.2983  0.8316  1.2260
 2898SOL     OW 9743   0.981   4.760   7.103  0.1973 -0.1604 -0.4302
 2898SOL    HW1 9744   0.988   4.666   7.085 -3.2896 -0.0944 -3.4131
 2898SOL    HW2 9745   0.954   4.765   7.195 -4.0121 -2.6001 -1.2572
 2899SOL     OW 9746   3.894   3.427   6.468 -0.2343 -0.0511  0.1262
 2899SOL    HW1 9747   3.808   3.467   6.456 -0.9170 -1.1965  0.9736
 2899SOL    HW2 9748   3.903   3.367   6.394  0.4863  1.0865 -0.7536
 2900SOL     OW 9749   0.293   2.047   5.294 -0.3440  0.7663  0.0412
 2900SOL    HW1 9750   0.294   1.952   5.304  0.3648  0.5342 -1.7889
 2900SOL    HW2 9751   0.224   2.077   5.353 -0.5986 -0.8761  0.6326
 2901SOL     OW 9752   4.415   6.502   0.389  0.1820 -0.4391  0.2292
 2901SOL    HW1 9753   4.333   6.546   0.415  0.1585 -0.5573  0.3534
 2901SOL    HW2 9754   4.481   6.572   0.391 -0.0586 -0.1724 -0.6051
 2902SOL     OW 9755   3.636   3.396   1.864  0.3136  0.4212  0.3379
 2902SOL    HW1 9756   3.636   3.386   1.960  1.0282 -1.4728  0.1811
 2902SOL    HW2 9757   3.609   3.487   1.850 -1.8809  0.1676  2.2620
 2903SOL     OW 9758   1.126   3.066   3.226  0.3965 -0.4103 -0.0587
 2903SOL    HW1 9759   1.147   3.135   3.162  1.8490  0.0616  0.8766
 2903SOL    HW2 9760   1.090   3.113   3.301  1.1594 -0.6724  0.4871
 2904SOL     OW 9761   3.307   7.156   4.569  0.0655 -0.4974  0.2706
 2904SOL    HW1 9762   3.226   7.191   4.532 -0.7839 -2.1503  0.4578
 2904SOL    HW2 9763   3.370   7.163   4.497 -0.4525  0.0777 -0.1417
 2905SOL     OW 9764   3.432   2.357   3.767  0.2936 -0.4963  0.3337
 2905SOL    HW1 9765   3.484   2.358   3.687 -0.4953  2.1702 -0.2434
 2905SOL    HW2 9766   3.494   2.333   3.836  1.5120 -0.6290 -0.7786
 2906SOL     OW 9767   5.200   2.769   0.772  0.2285 -0.6529  0.6664
 2906SOL    HW1 9768   5.236   2.822   0.700 -0.3108 -0.9788  0.1460
 2906SOL    HW2 9769   5.147   2.831   0.822 -0.9492 -0.8128 -0.3254
 2907SOL     OW 9770   3.364   6.522   0.130 -0.2681  0.3238 -0.1585
 2907SOL    HW1 9771   3.347   6.476   0.212  2.1330  0.5161  0.5349
 2907SOL    HW2 9772   3.356   6.615   0.152 -0.2007  0.3625 -0.2949
 2908SOL     OW 9773   2.382   5.389   3.070 -0.0065 -0.2143 -0.1661
 2908SOL    HW1 9774   2.395   5.484   3.076  0.0412 -0.2852  1.3827
 2908SOL    HW2 9775   2.362   5.373   2.978 -0.8839  1.4076 -0.2933
 2909SOL     OW 9776   2.137   7.916   3.858  0.0583 -0.1502  0.5236
 2909SOL    HW1 9777   2.165   7.885   3.944  0.9859 -2.9075 -0.6798
 2909SOL    HW2 9778   2.200   7.879   3.797 -2.1772 -0.6660 -1.6275
 2910SOL     OW 9779   0.191   5.900   3.600  0.2178 -0.0978  0.2327
 2910SOL    HW1 9780   0.147   5.971   3.553  0.9658  0.8007  0.8593
 2910SOL    HW2 9781   0.285   5.920   3.590  0.4257 -0.8876  0.5815
 2911SOL     OW 9782   5.326   5.372   2.082 -0.2079 -0.0543  0.3574
 2911SOL    HW1 9783   5.381   5.302   2.047  0.7447 -0.0900  1.8141
 2911SOL    HW2 9784   5.386   5.424   2.136 -0.6569  2.5077 -1.4351
 2912SOL     OW 9785   4.172   2.003   4.184  0.3502  0.2118 -0.4268
 2912SOL    HW1 9786   4.207   1.931   4.132  1.2507 -0.8932  1.5967
 2912SOL    HW2 9787   4.212   2.081   4.147 -0.2029 -0.3498 -2.3157
 2913SOL     OW 9788   7.830   4.541   0.130  0.4766  0.3994  0.0264
 2913SOL    HW1 9789   7.879   4.500   0.058 -0.3492 -1.3760  0.4284
 2913SOL    HW2 9790   7.739   4.517   0.114  0.3029 -0.2811  1.8094
 2914SOL     OW 9791   6.761   3.810   5.035 -0.1778  0.3711 -0.2507
 2914SOL    HW1 9792   6.684   3.805   5.092 -0.5050  0.7213 -0.6561
 2914SOL    HW2 9793   6.727   3.838   4.951  0.2914 -0.2687 -0.6582
 2915SOL     OW 9794   4.902   1.826   1.635 -0.1829 -0.2007 -0.4591
 2915SOL    HW1 9795   4.888   1.774   1.557  1.0698 -0.1574 -0.7378
 2915SOL    HW2 9796   4.996   1.843   1.636 -0.2116  0.0159  0.9185
 2916SOL     OW 9797   8.205   8.202   7.845  0.3277 -0.1009 -0.8814
 2916SOL    HW1 9798   8.167   8.286   7.819  1.0755  0.1379 -1.2348
 2916SOL    HW2 9799   8.228   8.160   7.763 -0.9715 -1.1125 -0.7546
 2917SOL     OW 9800   2.880   5.291   5.852  0.0845  0.0528  0.2977
 2917SOL    HW1 9801   2.921   5.247   5.927 -1.1253 -0.7176  0.5460
 2917SOL    HW2 9802   2.794   5.250   5.845 -0.2886  0.9691 -0.7738
 2918SOL     OW 9803   1.882   0.068   8.033  0.0491  0.0874  0.6114
 2918SOL    HW1 9804   1.963   0.112   8.058  0.0149  1.0523 -0.9142
 2918SOL    HW2 9805   1.812   0.120   8.073  0.0173  1.3998 -1.0575
 2919SOL     OW 9806   5.956   0.822   4.064  0.4421 -0.1743 -0.4550
 2919SOL    HW1 9807   5.986   0.731   4.066 -1.2317 -0.7385  1.9944
 2919SOL    HW2 9808   6.036   0.873   4.078  1.0995 -1.3514  0.2556
 2920SOL     OW 9809   4.007   1.941   3.494 -0.1797 -0.5502 -0.2337
 2920SOL    HW1 9810   4.040   1.940   3.404 -0.0983 -1.1898 -0.2049
 2920SOL    HW2 9811   3.994   2.033   3.514 -0.7574 -0.4294 -1.1073
 2921SOL     OW 9812   5.558   1.483   5.664 -0.4336 -0.3742 -0.0371
 2921SOL    HW1 9813   5.528   1.407   5.615 -2.0775 -0.2208  0.6774
 2921SOL    HW2 9814   5.647   1.461   5.690  0.2182 -0.7929 -2.3728
 2922SOL     OW 9815   0.209   2.311   7.194 -0.1975 -0.2970  0.2370
 2922SOL    HW1 9816   0.139   2.366   7.160  0.4480 -0.3127 -1.1711
 2922SOL    HW2 9817   0.164   2.239   7.238 -1.0566 -0.3452 -0.6997
 2923SOL     OW 9818   4.431   4.492   3.588  0.0244 -0.5856  0.4480
 2923SOL    HW1 9819   4.525   4.476   3.580  0.1031  0.2597 -0.7418
 2923SOL    HW2 9820   4.393   4.406   3.604  0.8181 -1.2635 -1.0935
 2924SOL     OW 9821   2.611   7.203   6.218  0.6081  0.0911 -0.1092
 2924SOL    HW1 9822   2.593   7.120   6.262  0.1940 -0.6285 -1.5620
 2924SOL    HW2 9823   2.703   7.199   6.194  0.7377  0.3119  0.3611
 2925SOL     OW 9824   1.180   2.502   0.167  0.2855  0.4955  0.1986
 2925SOL    HW1 9825   1.192   2.422   0.218 -0.0570  1.0684  1.2211
 2925SOL    HW2 9826   1.096   2.537   0.196 -0.6428  0.0933 -1.8542
 2926SOL     OW 9827   6.576   6.181   5.218  0.3106  0.1634 -0.2752
 2926SOL    HW1 9828   6.625   6.204   5.139  0.1678 -2.1853 -1.1088
 2926SOL    HW2 9829   6.543   6.093   5.201 -1.3690  0.3639  1.6433
 2927SOL     OW 9830   7.546   4.406   4.126  0.4510  0.3965 -0.0251
 2927SOL    HW1 9831   7.590   4.414   4.041  0.6860 -0.4393  0.0077
 2927SOL    HW2 9832   7.564   4.489   4.170  0.8014  0.6188 -0.5711
 2928SOL     OW 9833   6.059   6.817   1.970  0.0134 -0.4456 -0.0119
 2928SOL    HW1 9834   6.135   6.816   1.912 -0.3814  0.0655 -0.5524
 2928SOL    HW2 9835   6.069   6.739   2.024  0.7069 -0.6045 -0.3589
 2929SOL     OW 9836   2.546   0.064   7.313 -0.3510 -0.0647 -0.2519
 2929SOL    HW1 9837   2.483  -0.004   7.338 -0.5364  0.2328  0.0905
 2929SOL    HW2 9838   2.492   0.138   7.286 -0.1475 -0.1995 -1.0311
 2930SOL     OW 9839   6.010   4.145   4.675  0.1924 -0.9578  0.4882
 2930SOL    HW1 9840   5.950   4.188   4.615 -1.0261 -2.9646  0.2159
 2930SOL    HW2 9841   6.027   4.211   4.743  0.9223  1.0389 -1.5081
 2931SOL     OW 9842   0.235   6.412   7.594 -0.0931 -0.2989  0.6184
 2931SOL    HW1 9843   0.162   6.463   7.561 -0.8591 -0.6532  1.7078
 2931SOL    HW2 9844   0.285   6.387   7.516 -1.0470  0.0614 -0.1192
 2932SOL     OW 9845   3.880   4.012   6.688  0.2557 -0.0968  0.2864
 2932SOL    HW1 9846   3.964   4.045   6.720  0.2576  0.2128 -0.0247
 2932SOL    HW2 9847   3.850   4.079   6.627 -0.2290 -0.1951  0.4111
 2933SOL     OW 9848   4.210   5.120   5.219  0.0061  0.4744 -0.2851
 2933SOL    HW1 9849   4.149   5.046   5.218 -0.6558  1.0103 -0.3509
 2933SOL    HW2 9850   4.164   5.189   5.170  0.6602  0.8904 -0.3189
 2934SOL     OW 9851   0.433   0.197   0.641  0.3095  0.0160  0.3472
 2934SOL    HW1 9852   0.339   0.183   0.629 -0.0788  1.8626  0.9049
 2934SOL    HW2 9853   0.467   0.212   0.553 -0.3748  1.6674  0.3196
 2935SOL     OW 9854   0.708   5.731   2.546 -0.2060 -0.5661 -0.6151
 2935SOL    HW1 9855   0.655   5.766   2.618  0.3084 -1.4047  0.1858
 2935SOL    HW2 9856   0.663   5.651   2.520 -2.1542  1.2625 -3.3649
 2936SOL     OW 9857   1.322   2.325   5.482  0.2719 -0.0080 -0.5600
 2936SOL    HW1 9858   1.356   2.414   5.493 -0.6372  0.1899  1.0338
 2936SOL    HW2 9859   1.339   2.282   5.566  1.2914 -1.5895 -1.5086
 2937SOL     OW 9860   4.539   0.840   8.250  0.1163  0.0344 -0.2372
 2937SOL    HW1 9861   4.578   0.753   8.256 -1.0582 -0.4832  0.0771
 2937SOL    HW2 9862   4.520   0.865   8.340  0.7617  0.7834 -0.2923
 2938SOL     OW 9863   2.308   8.187   7.308 -0.1530 -0.0168 -0.0318
 2938SOL    HW1 9864   2.251   8.212   7.381 -1.6990 -0.1441 -1.1235
 2938SOL    HW2 9865   2.327   8.094   7.322  1.1268  0.4109  1.1817
 2939SOL     OW 9866   6.745   7.727   1.100 -0.1002 -0.1209  0.1427
 2939SOL    HW1 9867   6.757   7.641   1.141  1.2329  0.5760  1.2680
 2939SOL    HW2 9868   6.834   7.754   1.076 -0.7154 -0.0706 -2.4080
 2940SOL     OW 9869   2.728   7.645   6.878 -0.2946 -0.4327  0.6076
 2940SOL    HW1 9870   2.677   7.656   6.958 -1.0208  0.4193  0.0464
 2940SOL    HW2 9871   2.685   7.702   6.814  0.9942 -0.1763 -0.0646
 2941SOL     OW 9872   3.741   7.626   3.039 -0.0004 -0.9562  0.1094
 2941SOL    HW1 9873   3.784   7.579   3.110  0.5245 -0.8744 -0.1536
 2941SOL    HW2 9874   3.675   7.565   3.006  0.5624 -1.4428 -0.1236
 2942SOL     OW 9875   5.447   3.191   5.904 -0.1260 -0.0395 -0.1734
 2942SOL    HW1 9876   5.493   3.218   5.824 -4.0149 -0.2307 -2.7696
 2942SOL    HW2 9877   5.440   3.271   5.956  1.4510  0.3639 -0.5263
 2943SOL     OW 9878   0.767   7.905   2.479 -0.4199 -0.4793 -0.5299
 2943SOL    HW1 9879   0.819   7.949   2.412 -0.4331 -0.3940 -0.4842
 2943SOL    HW2 9880   0.681   7.946   2.473 -0.2006  0.0888  0.0777
 2944SOL     OW 9881   0.070   4.373   8.117  0.6592 -0.2342 -0.6187
 2944SOL    HW1 9882   0.082   4.446   8.176  1.1677 -0.9219  0.1525
 2944SOL    HW2 9883   0.145   4.316   8.134 -0.4522 -1.6312 -0.1635
 2945SOL     OW 9884   1.312   4.004   5.323  0.0862  0.6414  0.1286
 2945SOL    HW1 9885   1.276   4.033   5.407  0.9730 -0.7555  1.0340
 2945SOL    HW2 9886   1.376   3.936   5.346 -0.3081 -0.4410 -1.7212
 2946SOL     OW 9887   2.888   1.704   4.467  0.3854 -0.1639  0.2965
 2946SOL    HW1 9888   2.867   1.614   4.493  1.1821 -0.1538  1.0086
 2946SOL    HW2 9889   2.844   1.715   4.382 -0.7871 -0.7911  0.7936
 2947SOL     OW 9890   6.867   0.987   2.765  0.2699 -0.3250 -0.0377
 2947SOL    HW1 9891   6.932   0.946   2.707 -0.5192 -0.3837 -0.8980
 2947SOL    HW2 9892   6.796   0.924   2.770  0.3976 -0.3963  1.1669
 2948SOL     OW 9893   4.188   5.808   3.613  0.0955  0.7537 -0.0716
 2948SOL    HW1 9894   4.234   5.730   3.644 -1.0556 -0.1554 -0.5550
 2948SOL    HW2 9895   4.225   5.827   3.527 -0.0128  0.3932 -0.1972
 2949SOL     OW 9896   1.084   5.151   6.547 -0.0041 -0.1405  0.1383
 2949SOL    HW1 9897   1.158   5.121   6.600  1.3042 -1.0555 -2.0853
 2949SOL    HW2 9898   1.021   5.079   6.550  0.7010 -0.8065 -0.6881
 2950SOL     OW 9899   6.338   3.720   0.239  0.0890 -0.2798  0.5600
 2950SOL    HW1 9900   6.336   3.668   0.320  1.3173  1.1926  1.5953
 2950SOL    HW2 9901   6.431   3.731   0.220 -0.1661 -1.2671 -1.5623
 2951SOL     OW 9902   7.650   5.862   1.371 -0.0367 -0.5670  0.2657
 2951SOL    HW1 9903   7.645   5.882   1.464  0.7167  0.0533  0.1851
 2951SOL    HW2 9904   7.729   5.808   1.362 -0.4843 -1.2083  0.0753
 2952SOL     OW 9905   6.352   6.029   5.002 -0.1377  0.2955 -0.5061
 2952SOL    HW1 9906   6.428   5.999   5.052 -0.7940 -0.8919 -0.1913
 2952SOL    HW2 9907   6.283   6.037   5.067 -0.7722 -0.4186 -1.0827
 2953SOL     OW 9908   6.544   6.056   3.315 -0.2792  0.4413  0.1793
 2953SOL    HW1 9909   6.625   6.107   3.322 -0.0402 -0.1589  3.0476
 2953SOL    HW2 9910   6.501   6.089   3.236  3.1250  0.2002 -1.9809
 2954SOL     OW 9911   5.153   3.669   5.246  0.1970  0.2238  0.1010
 2954SOL    HW1 9912   5.136   3.576   5.228 -0.3456  0.3533 -0.0995
 2954SOL    HW2 9913   5.196   3.670   5.331  0.4992 -0.2357 -0.0460
 2955SOL     OW 9914   6.045   6.778   1.521  0.2856 -0.6626  0.2080
 2955SOL    HW1 9915   6.060   6.714   1.451  0.7323  1.6133 -1.8904
 2955SOL    HW2 9916   6.132   6.800   1.553  0.1410 -0.9048  0.7920
 2956SOL     OW 9917   5.350   3.887   1.833  0.3089  0.4477  0.3470
 2956SOL    HW1 9918   5.308   3.808   1.868 -0.1806  0.0436 -1.0690
 2956SOL    HW2 9919   5.336   3.882   1.739 -1.3428  3.1530  0.3364
 2957SOL     OW 9920   2.231   2.734   8.124 -0.4376 -0.2026  0.4403
 2957SOL    HW1 9921   2.320   2.747   8.091 -0.2453 -0.4813  0.8460
 2957SOL    HW2 9922   2.175   2.780   8.061 -0.0333 -0.2918  0.0088
 2958SOL     OW 9923   0.101   6.365   6.928 -0.0535  0.0106 -0.5305
 2958SOL    HW1 9924   0.156   6.321   6.863  1.1411  1.6903 -0.7114
 2958SOL    HW2 9925   0.011   6.345   6.901  0.3976 -2.4681 -0.4526
 2959SOL     OW 9926   4.800   6.875   0.461 -0.1591  0.2377  0.2865
 2959SOL    HW1 9927   4.878   6.831   0.495 -0.2427  0.3389  0.6121
 2959SOL    HW2 9928   4.727   6.831   0.504 -0.3846 -0.9935 -1.2787
 2960SOL     OW 9929   1.803   8.098   4.409  0.6881  0.1445  0.4545
 2960SOL    HW1 9930   1.765   8.136   4.330 -0.1719  0.1892  0.8779
 2960SOL    HW2 9931   1.811   8.171   4.470  1.1362  0.0655  0.4957
 2961SOL     OW 9932   4.243   7.032   4.438  0.3255 -0.4974  0.0119
 2961SOL    HW1 9933   4.273   7.025   4.529 -1.2429  0.2701  0.6291
 2961SOL    HW2 9934   4.239   7.126   4.420  1.8145 -0.6371 -1.3197
 2962SOL     OW 9935   7.127   6.077   0.247 -0.1370 -0.0035  0.1995
 2962SOL    HW1 9936   7.211   6.087   0.292 -0.0162  0.5028 -0.1255
 2962SOL    HW2 9937   7.129   6.143   0.178 -0.7013 -0.1580  0.0282
 2963SOL     OW 9938   2.709   2.753   3.342  0.1515 -0.3633  0.2993
 2963SOL    HW1 9939   2.669   2.764   3.256  1.2606 -0.4873 -0.2452
 2963SOL    HW2 9940   2.636   2.763   3.403 -0.6373 -0.1780 -0.6408
 2964SOL     OW 9941   5.200   8.063   5.577 -0.0828 -0.3297 -0.1841
 2964SOL    HW1 9942   5.117   8.110   5.566  0.0921  0.1476  0.4432
 2964SOL    HW2 9943   5.174   7.973   5.599 -0.4753  0.0636  1.0979
 2965SOL     OW 9944   3.894   5.535   2.418  0.6884 -0.0052  0.2861
 2965SOL    HW1 9945   3.926   5.506   2.332  1.8188 -0.1361  0.7354
 2965SOL    HW2 9946   3.807   5.571   2.400  0.8402 -0.1789 -0.8890
 2966SOL     OW 9947   0.282   8.107   1.179  0.2412  0.2144  0.2608
 2966SOL    HW1 9948   0.191   8.094   1.205  0.3443 -0.8304  0.1281
 2966SOL    HW2 9949   0.286   8.198   1.152 -0.6257  0.4377  0.8365
 2967SOL     OW 9950   2.996   5.094   5.211 -0.0261 -0.1802 -0.4641
 2967SOL    HW1 9951   3.024   5.172   5.164  4.4100 -1.7351 -0.8719
 2967SOL    HW2 9952   2.977   5.124   5.300  2.0949  1.3884 -0.4728
 2968SOL     OW 9953   1.727   3.018   3.863  0.6845 -0.1326 -0.7317
 2968SOL    HW1 9954   1.761   3.061   3.785  0.2959  2.0855  0.2403
 2968SOL    HW2 9955   1.663   3.079   3.898  0.9094 -1.0090  1.3664
 2969SOL     OW 9956   3.729   2.897   7.982 -0.1498 -0.0572 -0.5807
 2969SOL    HW1 9957   3.772   2.886   7.897  1.3208  0.8889  0.0007
 2969SOL    HW2 9958   3.678   2.977   7.973  1.3727  0.9939 -0.0624
 2970SOL     OW 9959   2.457   6.994   5.615 -0.5137  0.6273  0.3972
 2970SOL    HW1 9960   2.418   6.908   5.600 -0.1735  0.5462 -0.0598
 2970SOL    HW2 9961   2.512   6.983   5.692  2.3923 -0.5720 -1.6609
 2971SOL     OW 9962   0.054   6.310   2.175 -0.1748 -0.3442 -0.0804
 2971SOL    HW1 9963  -0.019   6.283   2.119  2.2827 -2.8320 -2.3695
 2971SOL    HW2 9964   0.059   6.405   2.163 -0.6205 -0.6080 -3.1021
 2972SOL     OW 9965   4.296   5.788   2.849 -0.4089  0.0553  0.3954
 2972SOL    HW1 9966   4.202   5.781   2.864 -0.3515 -2.5357 -0.1002
 2972SOL    HW2 9967   4.304   5.812   2.757 -0.6032 -1.4758 -0.0409
 2973SOL     OW 9968   5.149   0.856   1.074  0.3667 -0.6470  0.2132
 2973SOL    HW1 9969   5.071   0.850   1.019 -0.5002  0.3427  1.2743
 2973SOL    HW2 9970   5.194   0.773   1.060  0.6416 -0.1343 -2.5838
 2974SOL     OW 9971   3.940   2.966   1.366 -0.2561 -0.1169  0.2837
 2974SOL    HW1 9972   3.850   2.983   1.340 -0.8552 -0.7162  1.8612
 2974SOL    HW2 9973   3.934   2.932   1.455  1.6624  1.7250  1.2251
 2975SOL     OW 9974   6.038   5.267   4.969  0.1163 -0.4350  0.7550
 2975SOL    HW1 9975   6.004   5.214   5.041  0.5671 -0.5398  0.8940
 2975SOL    HW2 9976   5.997   5.353   4.981 -0.7103 -0.7791  0.4591
 2976SOL     OW 9977   3.226   8.155   1.585 -0.5690  0.3453 -0.1178
 2976SOL    HW1 9978   3.279   8.154   1.665 -0.6165 -1.9737 -0.0447
 2976SOL    HW2 9979   3.222   8.247   1.560  1.3974  0.8677  1.2554
 2977SOL     OW 9980   7.747   7.266   4.040  0.2776 -0.4925 -0.3885
 2977SOL    HW1 9981   7.732   7.185   3.991 -0.0993 -1.7825  1.7024
 2977SOL    HW2 9982   7.716   7.336   3.982  2.0902 -1.6411 -2.9135
 2978SOL     OW 9983   3.709   0.986   1.775 -0.0306 -0.1621  0.0165
 2978SOL    HW1 9984   3.766   0.993   1.851  1.0163 -0.7065 -0.6953
 2978SOL    HW2 9985   3.647   1.059   1.785 -1.0710 -1.2568  2.3020
 2979SOL     OW 9986   4.322   7.655   4.257  0.2713 -0.0341  0.3196
 2979SOL    HW1 9987   4.302   7.588   4.191  2.1763 -0.8459  0.4785
 2979SOL    HW2 9988   4.418   7.658   4.259  0.2770  0.1952  2.8330
 2980SOL     OW 9989   3.415   0.126   7.593  0.1023  0.4468 -0.2757
 2980SOL    HW1 9990   3.321   0.123   7.608 -0.0393  0.9268 -1.0183
 2980SOL    HW2 9991   3.424   0.153   7.501  0.9345 -1.4382 -0.8046
 2981SOL     OW 9992   4.078   6.366   0.431 -0.8513  0.0015  0.2276
 2981SOL    HW1 9993   4.107   6.359   0.522  1.7420  0.6838 -0.4451
 2981SOL    HW2 9994   4.015   6.438   0.431 -0.2998  0.5154  1.3901
 2982SOL     OW 9995   3.768   6.785   3.307  0.5210  0.8009 -0.0458
 2982SOL    HW1 9996   3.776   6.856   3.372 -0.8393  2.1762 -1.2903
 2982SOL    HW2 9997   3.681   6.748   3.322  0.6950  0.2883 -0.2737
 2983SOL     OW 9998   2.197   3.197   5.273  0.0192 -0.2248 -0.1661
 2983SOL    HW1 9999   2.229   3.128   5.215  1.3352  0.4903 -0.3313
 2983SOL    HW210000   2.217   3.278   5.226 -1.1423  0.3037  0.2061
 2984SOL     OW10001   6.700   6.985   5.147  0.0292  0.1267 -0.0898
 2984SOL    HW110002   6.688   7.076   5.122 -0.7468 -0.3297 -1.4744
 2984SOL    HW210003   6.637   6.971   5.218 -0.3858  0.4721 -0.3868
 2985SOL     OW10004   7.414   2.465   5.729 -0.0035 -0.2289 -0.1210
 2985SOL    HW110005   7.448   2.467   5.640 -1.0831  0.6024 -0.5334
 2985SOL    HW210006   7.340   2.404   5.725 -1.3084  1.3020 -0.2966
 2986SOL     OW10007   7.862   3.185   5.890  0.4846  0.2287  0.1986
 2986SOL    HW110008   7.878   3.257   5.951 -1.3933 -0.9384  2.2464
 2986SOL    HW210009   7.920   3.115   5.920 -0.7757 -0.5067  1.0060
 2987SOL     OW10010   7.340   1.294   1.854  0.5691 -0.5318 -0.2002
 2987SOL    HW110011   7.404   1.292   1.926  0.3628  0.3214  0.0141
 2987SOL    HW210012   7.256   1.302   1.898  0.5149  1.0865 -0.5473
 2988SOL     OW10013   7.267   2.147   0.128  0.4671  0.2291  0.4166
 2988SOL    HW110014   7.271   2.171   0.036 -0.5558  1.6017  0.7060
 2988SOL    HW210015   7.327   2.207   0.172  0.3619  0.0980  0.7493
 2989SOL     OW10016   4.484   2.871   5.195 -0.1760 -0.0657 -0.1690
 2989SOL    HW110017   4.389   2.872   5.183 -0.4288  2.3345  1.2175
 2989SOL    HW210018   4.513   2.955   5.158  1.2343 -0.2380  0.4795
 2990SOL     OW10019   8.257   3.981   7.578 -0.2300  0.4625 -0.4256
 2990SOL    HW110020   8.312   3.904   7.598 -1.7039 -0.1043  1.8116
 2990SOL    HW210021   8.309   4.056   7.608  0.1941  0.1079 -0.2621
 2991SOL     OW10022   5.889   3.950   8.125  0.0906 -0.4533  0.3738
 2991SOL    HW110023   5.923   3.873   8.079 -0.6560 -1.5790  1.6351
 2991SOL    HW210024   5.950   3.963   8.197  0.4157  0.3842 -0.0387
 2992SOL     OW10025   0.394   1.208   5.058 -0.1534 -0.0312  0.0327
 2992SOL    HW110026   0.330   1.166   5.114  0.5864 -0.1339  0.8172
 2992SOL    HW210027   0.471   1.151   5.062 -0.4023 -0.5833 -1.8863
 2993SOL     OW10028   3.312   4.112   7.117 -0.3936 -0.2913  0.0546
 2993SOL    HW110029   3.347   4.114   7.028  1.8253 -0.7007  0.8494
 2993SOL    HW210030   3.217   4.104   7.105 -0.3702  1.6747 -2.2623
 2994SOL     OW10031   0.754   5.450   7.655  0.1080  0.5193 -0.2809
 2994SOL    HW110032   0.809   5.375   7.633 -0.9591 -1.7471  3.7494
 2994SOL    HW210033   0.808   5.503   7.715 -0.7694  0.2230  0.8170
 2995SOL     OW10034   5.447   5.366   7.001 -0.1044  0.0463  0.4625
 2995SOL    HW110035   5.460   5.275   7.029  2.5356  0.2859  0.2738
 2995SOL    HW210036   5.517   5.381   6.937 -2.5632  1.2016 -2.1595
 2996SOL     OW10037   2.308   2.172   3.383  0.2885  0.5910  0.5998
 2996SOL    HW110038   2.301   2.090   3.432  0.8170  0.7662  0.9739
 2996SOL    HW210039   2.401   2.194   3.386  0.1372  1.2535  0.5803
 2997SOL     OW10040   0.602   4.695   4.153  0.1060 -0.4815 -0.5432
 2997SOL    HW110041   0.584   4.755   4.080  0.1458 -0.1017 -0.2466
 2997SOL    HW210042   0.574   4.609   4.121 -1.0044 -0.1256 -0.5772
 2998SOL     OW10043   1.632   1.503   4.689 -0.2920 -0.2455 -0.3617
 2998SOL    HW110044   1.540   1.527   4.692 -0.3441 -0.3093 -1.3545
 2998SOL    HW210045   1.631   1.407   4.692 -0.2212 -0.2364  0.1971
 2999SOL     OW10046   3.882   6.337   4.573  0.1647  0.6053 -0.7318
 2999SOL    HW110047   3.893   6.412   4.516  0.3312  0.5184 -0.8169
 2999SOL    HW210048   3.968   6.325   4.614  0.2823  0.1477 -1.1090
 3000SOL     OW10049   6.638   0.649   2.698 -0.0209 -0.4918  0.1962
 3000SOL    HW110050   6.588   0.727   2.723 -2.4799 -1.4869 -1.2561
 3000SOL    HW210051   6.572   0.587   2.666  2.0041 -2.5986 -0.1655
 3001SOL     OW10052   1.517   1.984   5.466 -0.3015 -0.2075  0.3162
 3001SOL    HW110053   1.433   2.002   5.424 -0.1235 -0.8073 -0.3011
 3001SOL    HW210054   1.542   1.897   5.434  1.2067  0.5279 -0.5625
 3002SOL     OW10055   4.859   5.268   5.010  0.0007  0.0414  0.3576
 3002SOL    HW110056   4.834   5.217   5.086 -1.0844 -1.8215 -1.1515
 3002SOL    HW210057   4.947   5.238   4.988  1.4051  2.4156  2.2655
 3003SOL     OW10058   0.126   4.380   2.907  0.2920  0.2168  0.6643
 3003SOL    HW110059   0.143   4.286   2.913 -0.8424 -0.0141  0.3494
 3003SOL    HW210060   0.033   4.390   2.926 -0.0146  1.0770 -1.0537
 3004SOL     OW10061   0.294   0.084   1.077 -0.2626 -0.5638  0.2741
 3004SOL    HW110062   0.217   0.133   1.047  0.3745  1.2366  1.3838
 3004SOL    HW210063   0.352   0.151   1.113  1.3819 -1.9992  0.4266
 3005SOL     OW10064   2.802   5.870   4.641 -0.1241 -0.5727 -0.2567
 3005SOL    HW110065   2.878   5.812   4.647  1.4830  1.4385 -0.0802
 3005SOL    HW210066   2.782   5.893   4.731  0.7063  0.8602 -0.3989
 3006SOL     OW10067   6.404   1.787   1.704  0.0001  0.7624  0.1003
 3006SOL    HW110068   6.422   1.721   1.770  1.3094  0.4063 -0.5747
 3006SOL    HW210069   6.385   1.738   1.624 -0.4215  1.1961 -0.0774
 3007SOL     OW10070   3.851   2.205   5.089 -0.1584  0.9531 -0.4730
 3007SOL    HW110071   3.906   2.279   5.062 -1.3859  1.2161 -2.4665
 3007SOL    HW210072   3.859   2.142   5.018 -2.9187  1.2934 -1.1961
 3008SOL     OW10073   3.478   1.867   4.543 -0.4504 -0.1074 -0.4079
 3008SOL    HW110074   3.434   1.940   4.501 -1.2961 -0.9748 -1.0743
 3008SOL    HW210075   3.435   1.859   4.628 -0.5303  0.0101 -0.4372
 3009SOL     OW10076   1.796   8.048   5.789  0.6705 -0.0697 -0.1107
 3009SOL    HW110077   1.852   8.125   5.780 -0.1250  0.5263 -0.0186
 3009SOL    HW210078   1.793   8.009   5.701 -0.3217  0.9896 -0.5639
 3010SOL     OW10079   3.665   5.689   7.650  0.3560 -0.1182 -0.1145
 3010SOL    HW110080   3.639   5.736   7.730 -0.8617 -0.7201 -0.1312
 3010SOL    HW210081   3.650   5.752   7.580  1.0369  0.2745  0.0848
 3011SOL     OW10082   0.402   7.589   2.991 -0.2690 -0.2866 -0.5697
 3011SOL    HW110083   0.363   7.558   2.909 -0.3876  0.5619 -0.8362
 3011SOL    HW210084   0.338   7.564   3.058 -0.5050 -0.3561 -0.8180
 3012SOL     OW10085   7.333   3.471   6.701 -0.5790 -0.4430  0.4977
 3012SOL    HW110086   7.388   3.448   6.776  0.5051 -0.0648 -0.1781
 3012SOL    HW210087   7.380   3.540   6.656 -1.3400 -0.5000 -0.4193
 3013SOL     OW10088   6.658   1.912   1.877 -0.3859 -0.0312  0.2163
 3013SOL    HW110089   6.728   1.925   1.942 -0.4855 -2.1477  0.8127
 3013SOL    HW210090   6.577   1.932   1.924 -0.3705 -0.3871  0.3988
 3014SOL     OW10091   7.545   7.461   0.829  0.0940 -0.0082  0.1228
 3014SOL    HW110092   7.599   7.399   0.877  0.2654  0.3527  0.4031
 3014SOL    HW210093   7.512   7.522   0.895  1.1789  1.1170 -0.3239
 3015SOL     OW10094   1.171   0.505   3.272  0.4191 -0.1581  0.6022
 3015SOL    HW110095   1.156   0.552   3.354  1.6470 -0.2187  0.8795
 3015SOL    HW210096   1.213   0.423   3.298  0.2181 -0.4753 -0.0422
 3016SOL     OW10097   3.804   3.006   4.110  0.4582 -0.6632 -0.5813
 3016SOL    HW110098   3.772   2.916   4.109 -2.1085  0.1302  1.0117
 3016SOL    HW210099   3.855   3.013   4.190 -0.5722 -0.3590  0.0656
 3017SOL     OW10100   7.077   5.308   5.774  0.5564  0.2924  0.3208
 3017SOL    HW110101   7.135   5.353   5.712 -0.6926  1.3503 -0.1227
 3017SOL    HW210102   7.040   5.236   5.724  0.3695  0.5048  0.1494
 3018SOL     OW10103   2.963   0.530   4.813  0.2154 -0.3394  0.4116
 3018SOL    HW110104   3.005   0.522   4.727  1.2668  0.4802  0.8373
 3018SOL    HW210105   3.019   0.479   4.872  0.6530  0.7797  0.9851
 3019SOL     OW10106   0.248   3.480   2.866 -0.0539  0.1192 -0.7047
 3019SOL    HW110107   0.306   3.556   2.866 -0.0742  0.1369 -0.4947
 3019SOL    HW210108   0.165   3.513   2.832  0.3589 -0.1482 -2.0074
 3020SOL     OW10109   0.306   3.897   1.837 -0.9159 -0.6241 -0.2255
 3020SOL    HW110110   0.359   3.824   1.868  1.0740  1.5463  1.8600
 3020SOL    HW210111   0.225   3.890   1.888  0.2681 -0.0463  1.8660
 3021SOL     OW10112   3.810   3.928   3.962 -0.6252  0.6829  0.5930
 3021SOL    HW110113   3.833   4.010   4.006  0.1699  1.3480 -0.9702
 3021SOL    HW210114   3.745   3.954   3.897  1.3816  0.6056 -1.5851
 3022SOL     OW10115   7.818   4.721   3.827  0.0364  0.1966  0.1044
 3022SOL    HW110116   7.859   4.635   3.829  1.5742  0.8724 -0.3558
 3022SOL    HW210117   7.799   4.741   3.918 -0.2930 -0.6177  0.2126
 3023SOL     OW10118   6.731   0.611   2.147 -0.1848 -0.3915  0.2778
 3023SOL    HW110119   6.708   0.672   2.218 -1.8502  0.2376 -0.7369
 3023SOL    HW210120   6.812   0.569   2.177  0.2618  1.3002  1.6486
 3024SOL     OW10121   6.734   0.894   7.011 -0.6646 -0.0931  0.0136
 3024SOL    HW110122   6.781   0.831   7.066 -1.4995  0.2034  1.1183
 3024SOL    HW210123   6.664   0.926   7.067 -1.8567 -0.1212 -1.3858
 3025SOL     OW10124   3.807   1.877   7.992  0.4507  0.1726  0.1390
 3025SOL    HW110125   3.802   1.972   7.978 -1.2368 -0.1346 -1.9662
 3025SOL    HW210126   3.736   1.859   8.055 -1.7400 -0.0064 -2.2049
 3026SOL     OW10127   5.782   0.069   5.270 -0.1563 -0.3161 -0.0037
 3026SOL    HW110128   5.869   0.105   5.260  0.9412 -1.9168  2.5454
 3026SOL    HW210129   5.738   0.129   5.331 -0.8939  0.5116 -1.3169
 3027SOL     OW10130   7.363   4.361   3.891 -0.1009  0.1483 -0.1736
 3027SOL    HW110131   7.401   4.377   3.977 -1.0536  1.3054  0.0453
 3027SOL    HW210132   7.437   4.366   3.831  0.3793  0.5185  0.4437
 3028SOL     OW10133   0.779   3.895   0.337  0.2218  0.3141  0.0355
 3028SOL    HW110134   0.737   3.867   0.419  0.5059  1.8557  0.7340
 3028SOL    HW210135   0.870   3.866   0.347  0.1426  0.0542  0.0302
 3029SOL     OW10136   5.025   4.500   3.990  0.1453  0.7776 -0.7571
 3029SOL    HW110137   5.107   4.538   4.021  0.5570 -0.3815 -0.3646
 3029SOL    HW210138   5.052   4.428   3.932 -0.5083 -1.0712  1.1155
 3030SOL     OW10139   0.981   3.244   2.661 -0.3997  0.0827  0.2613
 3030SOL    HW110140   1.005   3.254   2.569  1.4442  0.2636  0.7288
 3030SOL    HW210141   0.957   3.332   2.689 -0.6803  0.0806  0.0328
 3031SOL     OW10142   3.703   0.351   1.852 -0.6137  0.2290 -0.0637
 3031SOL    HW110143   3.736   0.324   1.938  3.5253  0.2083 -1.4291
 3031SOL    HW210144   3.669   0.270   1.812 -3.5202  0.4108  1.7383
 3032SOL     OW10145   4.607   7.978   2.661  0.3637  0.4652 -0.4353
 3032SOL    HW110146   4.677   7.927   2.702 -0.4069  0.0598  0.4190
 3032SOL    HW210147   4.526   7.939   2.694 -0.2661  1.3656 -0.8547
 3033SOL     OW10148   7.251   1.061   5.147  0.0212  0.4695 -0.4858
 3033SOL    HW110149   7.234   0.972   5.116 -0.8306  1.9170 -4.8197
 3033SOL    HW210150   7.345   1.064   5.161 -0.0394 -1.2849  0.5572
 3034SOL     OW10151   6.935   7.886   0.062  0.2403 -0.4911 -0.1730
 3034SOL    HW110152   6.974   7.924  -0.016  1.1850  0.0251  0.5299
 3034SOL    HW210153   6.938   7.791   0.047  2.5945 -0.5293  0.2088
 3035SOL     OW10154   3.790   0.059   1.213 -0.1780 -0.2696  0.5483
 3035SOL    HW110155   3.836   0.134   1.176 -1.5017  0.9426  1.2831
 3035SOL    HW210156   3.855   0.017   1.270  0.7453 -0.0470 -0.2953
 3036SOL     OW10157   7.140   0.026   2.817  0.3921 -0.4400 -0.1538
 3036SOL    HW110158   7.225   0.027   2.862 -0.5029 -2.5183  1.8066
 3036SOL    HW210159   7.095   0.103   2.850  1.1987  0.2055 -0.5403
 3037SOL     OW10160   0.617   2.896   4.367 -0.1450  0.0404 -0.3386
 3037SOL    HW110161   0.619   2.865   4.458 -0.5164  0.9282 -0.0127
 3037SOL    HW210162   0.526   2.883   4.340 -0.2877  0.7426 -0.2220
 3038SOL     OW10163   7.700   0.755   7.365  0.3424 -0.1270  0.0744
 3038SOL    HW110164   7.744   0.703   7.431  0.2281 -1.2642 -0.7169
 3038SOL    HW210165   7.743   0.841   7.368 -0.6052  0.3466  2.5884
 3039SOL     OW10166   3.784   3.526   5.794  0.2800  0.0932 -0.7625
 3039SOL    HW110167   3.829   3.479   5.865 -0.4349  0.8201  0.2122
 3039SOL    HW210168   3.727   3.588   5.840 -0.2613  0.5294 -1.9918
 3040SOL     OW10169   6.855   1.253   3.630 -0.4621 -0.1327  0.0366
 3040SOL    HW110170   6.883   1.279   3.542  0.1945 -0.2300  0.2117
 3040SOL    HW210171   6.906   1.174   3.649 -0.4489  0.0014  0.5861
 3041SOL     OW10172   6.946   0.853   6.837  0.6243  0.1488 -0.5569
 3041SOL    HW110173   6.860   0.873   6.875  0.5400 -1.3637  0.1149
 3041SOL    HW210174   7.008   0.865   6.909  0.9683  1.0693 -0.9951
 3042SOL     OW10175   2.547   6.240   6.946 -0.7380  0.0384 -0.0092
 3042SOL    HW110176   2.544   6.204   6.858 -1.2177 -1.0741  0.4456
 3042SOL    HW210177   2.527   6.166   7.003  0.3414  0.5634  1.0901
 3043SOL     OW10178   0.163   4.403   0.793 -0.1849  0.4398 -0.3738
 3043SOL    HW110179   0.216   4.409   0.713 -1.0700  2.6942 -0.8492
 3043SOL    HW210180   0.227   4.410   0.864  0.5785 -1.2810 -0.8407
 3044SOL     OW10181   4.737   2.443   6.594 -0.2012  0.5019 -0.1352
 3044SOL    HW110182   4.798   2.513   6.618 -0.8835  0.4134  2.1732
 3044SOL    HW210183   4.674   2.484   6.535 -0.6729  1.9354  1.2844
 3045SOL     OW10184   6.109   3.262   2.380 -0.4796  0.3989 -0.1912
 3045SOL    HW110185   6.056   3.230   2.452 -0.2323  1.7596  0.6434
 3045SOL    HW210186   6.052   3.324   2.334 -0.0623  0.8723 -0.0842
 3046SOL     OW10187   7.881   5.678   1.290 -0.2435  0.1760  0.3572
 3046SOL    HW110188   7.976   5.675   1.299 -0.3640  1.4060  3.3593
 3046SOL    HW210189   7.857   5.592   1.255  1.8514 -0.7426  1.0274
 3047SOL     OW10190   2.397   7.119   4.342 -0.5188  0.8343 -0.4307
 3047SOL    HW110191   2.381   7.160   4.257 -0.8907 -1.5862 -1.6250
 3047SOL    HW210192   2.483   7.077   4.332 -1.4465 -1.2012 -0.4109
 3048SOL     OW10193   6.775   7.674   1.535 -0.9848  0.3065  0.7553
 3048SOL    HW110194   6.824   7.653   1.614  0.7300 -1.9260 -0.7735
 3048SOL    HW210195   6.809   7.759   1.507 -1.3704  0.9618  2.1787
 3049SOL     OW10196   3.558   8.114   3.989  0.6208  0.3602 -0.5432
 3049SOL    HW110197   3.476   8.108   3.940 -0.6667 -0.2404  1.5540
 3049SOL    HW210198   3.552   8.198   4.035  1.1354  0.2717 -0.3106
 3050SOL     OW10199   5.713   5.996   0.487 -0.6727  0.2349  0.3435
 3050SOL    HW110200   5.801   5.978   0.520 -0.8190  0.2346  0.7388
 3050SOL    HW210201   5.723   6.001   0.392 -0.5925 -1.7608  0.2129
 3051SOL     OW10202   6.173   1.269   5.066 -0.6662  0.1247  0.1181
 3051SOL    HW110203   6.209   1.316   5.141  0.1835  0.5952 -0.5533
 3051SOL    HW210204   6.173   1.177   5.093 -0.9290  0.3468  0.8992
 3052SOL     OW10205   4.623   6.200   3.726 -0.5866  0.2924  0.0617
 3052SOL    HW110206   4.575   6.165   3.651  0.7532 -1.3052 -0.0975
 3052SOL    HW210207   4.575   6.168   3.803 -2.0776  2.0942 -0.0303
 3053SOL     OW10208   5.093   1.251   3.490 -0.1838  0.4902  0.6941
 3053SOL    HW110209   5.011   1.202   3.496  0.1129 -0.2517 -0.8271
 3053SOL    HW210210   5.072   1.326   3.434  0.6644 -0.9493 -1.7007
 3054SOL     OW10211   2.764   3.417   4.993 -0.2526 -0.0812  0.5322
 3054SOL    HW110212   2.835   3.404   5.055  0.1441 -3.6771 -0.4113
 3054SOL    HW210213   2.693   3.362   5.026 -0.3304 -1.3990 -1.5817
 3055SOL     OW10214   4.922   1.411   5.594 -0.1507  0.4636  0.2254
 3055SOL    HW110215   4.998   1.367   5.557  0.0651  0.4358  0.7033
 3055SOL    HW210216   4.950   1.441   5.680 -0.8683 -0.0824  0.6582
 3056SOL     OW10217   5.942   4.497   0.581  0.0529 -0.4329  0.1939
 3056SOL    HW110218   5.962   4.445   0.658 -0.2732  0.6199  1.0118
 3056SOL    HW210219   5.888   4.439   0.527  2.3400 -2.0821 -0.4705
 3057SOL     OW10220   3.790   1.132   6.971 -0.0797  0.4687  0.3560
 3057SOL    HW110221   3.796   1.062   6.906  1.7006  1.1510 -0.2665
 3057SOL    HW210222   3.880   1.149   6.997 -0.4000  2.8755  0.0934
 3058SOL     OW10223   5.269   1.587   2.111  0.2629  0.3427  0.1549
 3058SOL    HW110224   5.195   1.648   2.107  0.1707  0.3664  1.5364
 3058SOL    HW210225   5.321   1.608   2.034 -0.8384  0.7589 -0.5032
 3059SOL     OW10226   1.295   5.994   4.195 -0.1268  0.4500  0.1017
 3059SOL    HW110227   1.211   6.018   4.236 -1.1045 -1.4831 -0.6429
 3059SOL    HW210228   1.322   6.073   4.147 -2.4777  0.5756 -1.1552
 3060SOL     OW10229   2.529   6.767   1.584  0.5410 -0.0586  0.5339
 3060SOL    HW110230   2.481   6.850   1.577 -0.2980 -0.6445 -1.5284
 3060SOL    HW210231   2.617   6.792   1.610  0.0953  1.4153  0.7285
 3061SOL     OW10232   5.411   3.613   1.303  0.1721 -0.5693 -0.2999
 3061SOL    HW110233   5.439   3.685   1.247  0.2457  0.4419  0.9991
 3061SOL    HW210234   5.329   3.643   1.341  1.7130  0.2317  2.6704
 3062SOL     OW10235   6.197   0.215   7.891  0.2129  0.4124 -0.3962
 3062SOL    HW110236   6.208   0.130   7.934  2.5550  0.8504 -0.0128
 3062SOL    HW210237   6.161   0.194   7.805 -3.8395 -0.5446  1.2775
 3063SOL     OW10238   2.219   1.943   6.885  0.4436  0.3720 -0.2838
 3063SOL    HW110239   2.136   1.914   6.924  0.2716  0.2350 -0.7368
 3063SOL    HW210240   2.262   1.862   6.858  0.3645  0.4829 -0.7563
 3064SOL     OW10241   7.494   0.797   3.211  0.4675 -0.3604  0.0281
 3064SOL    HW110242   7.426   0.729   3.212  2.6786 -2.6855  0.9414
 3064SOL    HW210243   7.475   0.850   3.288 -0.8555 -0.3726 -0.2625
 3065SOL     OW10244   4.238   6.556   3.220 -0.0797  0.1511  0.3081
 3065SOL    HW110245   4.234   6.562   3.124 -0.0651 -0.9520  0.2183
 3065SOL    HW210246   4.163   6.502   3.243 -0.3829  0.8436  0.9786
 3066SOL     OW10247   3.623   2.309   2.588 -0.3628  0.6630  0.3577
 3066SOL    HW110248   3.561   2.236   2.585 -0.4744  0.4779  3.8511
 3066SOL    HW210249   3.573   2.383   2.555 -1.2779 -0.1662 -0.2075
 3067SOL     OW10250   7.307   5.813   1.593 -0.2494  0.1337  0.4029
 3067SOL    HW110251   7.372   5.744   1.578  0.9882  1.2658  0.3196
 3067SOL    HW210252   7.311   5.830   1.687  1.5558  2.0065  0.0580
 3068SOL     OW10253   2.933   4.441   6.506 -0.1047  0.1345  0.0772
 3068SOL    HW110254   2.855   4.434   6.451 -0.7499 -0.8164  1.0624
 3068SOL    HW210255   2.930   4.362   6.561  1.3710  0.2557  0.3682
 3069SOL     OW10256   5.841   8.065   4.420 -0.3996  1.0409 -0.0595
 3069SOL    HW110257   5.769   8.002   4.429 -0.6447  1.0142 -1.7999
 3069SOL    HW210258   5.799   8.145   4.389  0.1107  1.5722  0.6053
 3070SOL     OW10259   6.663   1.709   7.135 -0.6937 -0.1283  0.5250
 3070SOL    HW110260   6.591   1.728   7.076 -1.4326 -1.4759  0.9674
 3070SOL    HW210261   6.711   1.637   7.094  0.3821  0.7044  0.2686
 3071SOL     OW10262   4.444   0.001   7.210  0.5550 -0.3931 -0.2750
 3071SOL    HW110263   4.509   0.064   7.240  1.7901 -1.7783  0.1192
 3071SOL    HW210264   4.442  -0.066   7.278 -0.7239 -0.7927 -0.6704
 3072SOL     OW10265   7.564   4.163   5.268 -0.6558 -0.3309 -0.3348
 3072SOL    HW110266   7.590   4.197   5.354  2.4980 -0.0053 -1.2610
 3072SOL    HW210267   7.599   4.074   5.266 -0.9120 -0.4187 -1.1963
 3073SOL     OW10268   6.768   3.935   2.304 -0.1804  0.1121  0.1011
 3073SOL    HW110269   6.853   3.890   2.301 -0.0679  0.1282  1.9349
 3073SOL    HW210270   6.789   4.027   2.288  0.2960  0.2558  1.4511
 3074SOL     OW10271   5.348   0.821   1.898 -0.0799  0.5276 -0.9723
 3074SOL    HW110272   5.333   0.738   1.944 -1.4414  1.1208 -0.3068
 3074SOL    HW210273   5.278   0.825   1.833  1.0374  0.3352 -2.2435
 3075SOL     OW10274   4.809   2.154   1.679  0.3419 -0.0093  0.0540
 3075SOL    HW110275   4.837   2.239   1.646  0.4103 -0.2416 -0.5147
 3075SOL    HW210276   4.872   2.133   1.748  0.7081  0.1245 -0.2346
 3076SOL     OW10277   0.314   4.272   7.083 -0.0366 -0.0321  0.0029
 3076SOL    HW110278   0.339   4.346   7.028  0.7061 -0.6219 -0.4651
 3076SOL    HW210279   0.222   4.288   7.104  0.4074  1.6231  0.8700
 3077SOL     OW10280   5.538   0.800   6.207  0.1571 -0.4327  0.6445
 3077SOL    HW110281   5.481   0.764   6.275  0.3510  0.1882  1.1506
 3077SOL    HW210282   5.580   0.724   6.167  0.5101 -0.7685  1.6385
 3078SOL     OW10283   3.312   7.987   5.497 -0.7691  0.1063 -0.1293
 3078SOL    HW110284   3.281   7.990   5.587  0.1347  1.5476  0.1720
 3078SOL    HW210285   3.236   8.012   5.444 -1.0451  0.1967  0.3076
 3079SOL     OW10286   2.807   0.822   0.436  0.6002 -0.1140  0.0359
 3079SOL    HW110287   2.832   0.876   0.361  1.9268  0.0491  0.5562
 3079SOL    HW210288   2.729   0.865   0.472 -1.5464 -1.5303 -2.5957
 3080SOL     OW10289   1.110   2.401   4.832  0.0232 -0.4589  0.5852
 3080SOL    HW110290   1.105   2.459   4.757 -0.3102  0.0381  0.9811
 3080SOL    HW210291   1.114   2.313   4.795  0.6246 -0.1798 -0.0246
 3081SOL     OW10292   4.839   7.845   1.796 -0.4856 -0.9214  0.0610
 3081SOL    HW110293   4.744   7.856   1.798 -0.6793 -2.4845  1.5749
 3081SOL    HW210294   4.861   7.807   1.881  1.4226 -1.1995 -0.5062
 3082SOL     OW10295   4.895   1.805   7.768 -0.0296 -0.0580  0.1710
 3082SOL    HW110296   4.807   1.822   7.734  0.0755  0.5539  0.1959
 3082SOL    HW210297   4.946   1.881   7.741  0.4487 -0.3259  0.3175
 3083SOL     OW10298   7.813   5.641   4.582  0.1586  0.6145  0.6576
 3083SOL    HW110299   7.731   5.683   4.556 -0.0736 -0.9661 -1.4661
 3083SOL    HW210300   7.787   5.551   4.605  1.2978 -0.0543 -0.5278
 3084SOL     OW10301   7.850   3.473   7.480 -0.1255 -0.0735 -0.2813
 3084SOL    HW110302   7.800   3.540   7.528 -0.7060  0.9027 -2.1445
 3084SOL    HW210303   7.826   3.391   7.523 -1.8461  0.5833  0.1166
 3085SOL     OW10304   4.288   5.884   4.231 -0.1419 -0.0795  0.3461
 3085SOL    HW110305   4.376   5.879   4.267 -0.7762 -0.9890  1.8639
 3085SOL    HW210306   4.276   5.977   4.210  2.2670 -0.2920 -2.9550
 3086SOL     OW10307   3.207   5.054   3.995  0.2509 -0.3754 -0.1680
 3086SOL    HW110308   3.218   4.968   3.954  0.4634 -0.3372 -0.1887
 3086SOL    HW210309   3.278   5.107   3.959  2.1603 -1.0926  2.3041
 3087SOL     OW10310   8.225   0.475   7.407 -0.4974  0.0095 -0.3143
 3087SOL    HW110311   8.266   0.514   7.330 -0.6944 -0.1789 -0.5157
 3087SOL    HW210312   8.287   0.409   7.437 -1.2510 -1.2781 -1.4590
 3088SOL     OW10313   3.794   2.236   5.718  0.2322 -0.0387 -0.1695
 3088SOL    HW110314   3.769   2.321   5.683  1.8683  1.4750  2.0975
 3088SOL    HW210315   3.737   2.222   5.794 -0.0190 -0.9969 -0.5119
 3089SOL     OW10316   4.810   6.007   3.217 -0.5292 -0.0640 -0.3598
 3089SOL    HW110317   4.801   5.996   3.311 -0.9595 -0.6624 -0.4673
 3089SOL    HW210318   4.872   5.939   3.190  0.2327  0.6237 -0.4005
 3090SOL     OW10319   6.654   0.267   5.594  0.9239  0.1272 -0.3465
 3090SOL    HW110320   6.587   0.199   5.600  0.2150  0.7294 -1.1186
 3090SOL    HW210321   6.634   0.314   5.513  0.5649  2.0878  0.7931
 3091SOL     OW10322   5.689   0.339   5.411  0.3368 -0.2481 -0.3989
 3091SOL    HW110323   5.615   0.385   5.373  1.2665  2.2785  0.5841
 3091SOL    HW210324   5.667   0.330   5.504  0.7950 -0.3993 -0.2987
 3092SOL     OW10325   1.933   3.207   2.937 -0.3525  0.0200  0.1931
 3092SOL    HW110326   1.942   3.183   3.029  0.8544 -0.7593 -0.0944
 3092SOL    HW210327   1.980   3.138   2.890 -0.2688  0.8232 -0.9534
 3093SOL     OW10328   6.315   2.285   0.580  0.1632  0.6002  0.4717
 3093SOL    HW110329   6.253   2.334   0.526 -0.5844  0.8893  1.5654
 3093SOL    HW210330   6.346   2.214   0.522  0.1026  1.4417 -0.6252
 3094SOL     OW10331   4.143   3.721   0.268 -0.1046  0.4901  0.5124
 3094SOL    HW110332   4.076   3.759   0.212  0.9618  0.9698 -0.4688
 3094SOL    HW210333   4.212   3.788   0.273  0.6339 -0.2720  0.8972
 3095SOL     OW10334   0.548   1.239   3.048  0.4194 -0.8295  0.3271
 3095SOL    HW110335   0.488   1.309   3.074  1.8671 -0.3123  2.6245
 3095SOL    HW210336   0.633   1.281   3.040  0.9309 -1.9533 -0.4853
 3096SOL     OW10337   1.444   6.648   1.100 -0.4317  0.3510  0.7700
 3096SOL    HW110338   1.385   6.652   1.175  0.1268 -0.1930  1.2531
 3096SOL    HW210339   1.448   6.555   1.078  0.1746  0.3901  0.6920
 3097SOL     OW10340   4.234   2.683   5.477 -0.2659 -0.3318  0.0381
 3097SOL    HW110341   4.251   2.731   5.396  0.5224  1.4982  1.2096
 3097SOL    HW210342   4.224   2.592   5.450 -0.2337  0.2510 -2.1203
 3098SOL     OW10343   3.327   0.963   0.823  0.0339  0.2610  0.6848
 3098SOL    HW110344   3.243   0.925   0.800  0.5788 -1.2221  1.0015
 3098SOL    HW210345   3.392   0.903   0.786  0.9623  1.2333  0.6612
 3099SOL     OW10346   2.817   7.623   3.861 -0.1316  0.5644 -0.7442
 3099SOL    HW110347   2.786   7.552   3.805 -3.8479  0.0895  1.6071
 3099SOL    HW210348   2.873   7.579   3.926 -1.0027  0.0140 -0.3404
 3100SOL     OW10349   4.549   1.602   7.323  0.6494 -0.4211 -0.3360
 3100SOL    HW110350   4.535   1.508   7.312  0.5850 -0.5056  0.4059
 3100SOL    HW210351   4.627   1.621   7.271  1.6200 -1.2000  0.7784
 3101SOL     OW10352   2.747   1.211   6.291  0.2022  0.2474  0.2077
 3101SOL    HW110353   2.819   1.148   6.296 -0.3440 -0.5798 -1.5010
 3101SOL    HW210354   2.780   1.280   6.235 -0.5536 -0.5114 -1.2235
 3102SOL     OW10355   1.574   2.621   0.998 -0.4610  0.5565  0.5366
 3102SOL    HW110356   1.579   2.554   1.067  3.2323 -0.0256 -0.0901
 3102SOL    HW210357   1.558   2.571   0.918  0.5481  0.5572  0.3138
 3103SOL     OW10358   4.630   5.155   5.799  0.6982 -0.0712  0.0761
 3103SOL    HW110359   4.649   5.166   5.706  0.7654  0.0523  0.1050
 3103SOL    HW210360   4.571   5.227   5.820  2.0590  0.9513  0.5376
 3104SOL     OW10361   1.718   2.373   5.425 -0.4469 -0.6745  0.6467
 3104SOL    HW110362   1.714   2.307   5.357  2.9619 -0.1081 -0.3036
 3104SOL    HW210363   1.778   2.337   5.491  0.8550  1.0510  0.4920
 3105SOL     OW10364   7.495   0.777   6.716  0.3053 -0.0597 -0.1992
 3105SOL    HW110365   7.432   0.812   6.779 -0.6140 -0.6848 -0.7491
 3105SOL    HW210366   7.581   0.804   6.750 -0.2475  0.7250  0.6082
 3106SOL     OW10367   3.839   5.798   2.238  0.5734  0.3958 -0.7002
 3106SOL    HW110368   3.789   5.814   2.157  0.7029 -0.2167 -0.9089
 3106SOL    HW210369   3.773   5.802   2.307 -0.2541 -2.6450 -1.1621
 3107SOL     OW10370   0.148   5.767   0.941 -0.1855 -0.3999 -0.1641
 3107SOL    HW110371   0.236   5.776   0.906 -0.0203 -0.6735  0.1686
 3107SOL    HW210372   0.101   5.844   0.909  0.7888  0.9482  1.4444
 3108SOL     OW10373   8.224   4.165   1.142  0.1041 -0.3434 -0.0997
 3108SOL    HW110374   8.154   4.230   1.137 -1.0867 -1.5694 -0.0454
 3108SOL    HW210375   8.260   4.162   1.053 -0.3028 -0.1184 -0.2732
 3109SOL     OW10376   6.979   7.218   2.488  0.0578  0.1169 -0.4280
 3109SOL    HW110377   7.064   7.228   2.530  0.0576  2.0547 -0.8056
 3109SOL    HW210378   6.917   7.211   2.561  0.6800 -4.4023 -0.0448
 3110SOL     OW10379   5.816   5.907   1.954 -0.4565 -0.3401  0.2201
 3110SOL    HW110380   5.897   5.934   1.996  0.4616 -0.7204 -1.2393
 3110SOL    HW210381   5.763   5.986   1.951 -0.7182 -0.3680  2.3522
 3111SOL     OW10382   8.030   3.701   5.249  0.4566  0.2401  0.1843
 3111SOL    HW110383   8.093   3.737   5.187  0.9749 -0.6141  0.2030
 3111SOL    HW210384   8.072   3.623   5.284  0.0558  0.5501  1.4155
 3112SOL     OW10385   0.420   5.892   6.886 -0.4879  0.4470 -0.3955
 3112SOL    HW110386   0.361   5.952   6.932  0.0227  0.1554  0.6816
 3112SOL    HW210387   0.363   5.843   6.827 -1.5836 -0.7387  1.5274
 3113SOL     OW10388   5.913   0.137   8.173 -0.1228 -0.3061 -0.5882
 3113SOL    HW110389   5.858   0.117   8.097  0.7472 -2.0430 -0.8076
 3113SOL    HW210390   5.969   0.060   8.183  2.3506  1.3830 -0.4282
 3114SOL     OW10391   3.856   1.692   5.596  0.1161  0.2850  0.4301
 3114SOL    HW110392   3.836   1.630   5.667  0.2667  0.5055  0.6626
 3114SOL    HW210393   3.773   1.701   5.549 -0.3543  1.1896  1.3917
 3115SOL     OW10394   0.419   0.113   2.129  0.5323 -0.2890  0.4977
 3115SOL    HW110395   0.405   0.167   2.206 -0.3526  1.6358 -0.9367
 3115SOL    HW210396   0.413   0.174   2.055 -0.3537 -2.3237 -1.2110
 3116SOL     OW10397   3.442   0.515   5.125  0.4866  0.3397 -0.4357
 3116SOL    HW110398   3.456   0.430   5.083 -0.8634 -0.9869  1.6026
 3116SOL    HW210399   3.414   0.572   5.054  1.4352 -0.8783 -1.8708
 3117SOL     OW10400   0.133   3.676   3.639 -0.2361 -0.8374 -0.5170
 3117SOL    HW110401   0.218   3.638   3.664  0.4666 -1.2694 -3.2502
 3117SOL    HW210402   0.127   3.661   3.545 -1.4672  2.8863 -1.1830
 3118SOL     OW10403   7.379   4.164   7.782 -0.3522 -0.1252 -0.0299
 3118SOL    HW110404   7.388   4.225   7.856  0.6598 -0.4585  0.1394
 3118SOL    HW210405   7.357   4.080   7.823 -1.0398 -0.0391 -0.2108
 3119SOL     OW10406   1.395   1.923   7.525 -0.0464  0.0740 -0.0776
 3119SOL    HW110407   1.486   1.924   7.496  0.5422  0.1254  1.6866
 3119SOL    HW210408   1.373   1.829   7.532  0.5465  0.0268  1.4415
 3120SOL     OW10409   1.575   1.373   2.150 -0.3398 -0.2768 -0.0289
 3120SOL    HW110410   1.549   1.465   2.142  0.0036 -0.3078 -2.0663
 3120SOL    HW210411   1.532   1.330   2.076 -0.6317 -1.8088  1.0005
 3121SOL     OW10412   3.925   0.195   0.474  0.2013  0.2206 -0.5307
 3121SOL    HW110413   3.978   0.166   0.549 -1.0894 -0.1964  0.2568
 3121SOL    HW210414   3.947   0.288   0.464  1.7405 -0.1509 -0.8178
 3122SOL     OW10415   2.802   5.880   4.940 -0.2506 -0.2723 -0.8023
 3122SOL    HW110416   2.851   5.799   4.956  0.0618  0.0640 -0.0094
 3122SOL    HW210417   2.763   5.902   5.025  2.4470  2.2278 -0.0242
 3123SOL     OW10418   3.869   6.911   0.945 -0.3321 -0.4406 -0.1978
 3123SOL    HW110419   3.956   6.926   0.907 -0.4817 -0.9708 -0.7442
 3123SOL    HW210420   3.886   6.853   1.019  0.0576  1.1640  1.0526
 3124SOL     OW10421   0.513   4.515   3.978 -0.5915  0.4202 -0.7015
 3124SOL    HW110422   0.456   4.524   3.902 -0.3480  1.2341 -0.7968
 3124SOL    HW210423   0.485   4.433   4.019 -2.0064  0.9264 -0.5971
 3125SOL     OW10424   0.675   1.721   2.180  0.3438 -0.0744  0.4271
 3125SOL    HW110425   0.604   1.662   2.204  0.3251  0.1056  0.8244
 3125SOL    HW210426   0.635   1.784   2.119  0.3685 -0.4787 -0.0095
 3126SOL     OW10427   6.742   1.688   1.142  0.3957 -0.2570 -0.0411
 3126SOL    HW110428   6.680   1.756   1.170  0.2642  0.0031 -0.9314
 3126SOL    HW210429   6.693   1.635   1.080  1.2052  0.2490 -1.1421
 3127SOL     OW10430   3.691   0.608   8.001  0.4057  0.4514  0.1584
 3127SOL    HW110431   3.670   0.690   8.047 -0.4565 -0.5601  1.6319
 3127SOL    HW210432   3.612   0.555   8.008  0.7863 -0.3606 -1.2039
 3128SOL     OW10433   2.456   7.920   7.551  0.3732 -0.4774 -0.3700
 3128SOL    HW110434   2.526   7.855   7.554 -0.1309 -1.0081  0.1188
 3128SOL    HW210435   2.443   7.938   7.458  0.0219 -1.6242 -0.5588
 3129SOL     OW10436   5.720   0.442   7.591 -0.2031 -0.0599 -0.1463
 3129SOL    HW110437   5.813   0.463   7.589 -0.3918  0.7743 -0.4706
 3129SOL    HW210438   5.688   0.467   7.504 -1.1327  1.5664  0.6186
 3130SOL     OW10439   1.627   5.561   6.865  0.1240  0.4925 -0.0033
 3130SOL    HW110440   1.671   5.644   6.849 -0.2225  0.5645 -0.6072
 3130SOL    HW210441   1.698   5.499   6.879  0.4150  0.7137 -0.4564
 3131SOL     OW10442   4.022   6.724   5.355  0.0388 -0.1396  0.3761
 3131SOL    HW110443   3.932   6.752   5.372  0.2876  0.2520  1.1159
 3131SOL    HW210444   4.053   6.784   5.288 -0.2115 -0.1930  0.2123
 3132SOL     OW10445   3.773   5.167   4.617 -0.4153 -0.1418  0.4898
 3132SOL    HW110446   3.848   5.168   4.675 -1.6099  1.3118  2.1411
 3132SOL    HW210447   3.783   5.246   4.563 -1.8566  1.4042  2.3497
 3133SOL     OW10448   2.336   0.827   3.779 -0.3760  0.2076 -0.1132
 3133SOL    HW110449   2.262   0.874   3.817  0.1320  0.6681  0.3028
 3133SOL    HW210450   2.413   0.873   3.810  0.0623  1.2573 -2.5045
 3134SOL     OW10451   1.342   3.990   8.256  0.3649  0.1719 -0.2151
 3134SOL    HW110452   1.370   3.989   8.348 -0.4980 -1.1961  0.0537
 3134SOL    HW210453   1.370   3.906   8.221 -2.8412 -1.1162 -0.0531
 3135SOL     OW10454   5.966   5.671   5.678 -0.0516 -0.3967  0.1960
 3135SOL    HW110455   5.970   5.718   5.595 -0.7325 -1.1197 -0.2663
 3135SOL    HW210456   5.880   5.628   5.677 -0.6477  0.6593  1.8855
 3136SOL     OW10457   3.145   2.744   2.344 -0.2931  0.2082 -0.6673
 3136SOL    HW110458   3.178   2.669   2.294 -0.0820  0.2638 -0.6128
 3136SOL    HW210459   3.053   2.724   2.360 -0.0283 -0.4515  0.0963
 3137SOL     OW10460   1.678   7.852   5.155 -0.2814  0.2870 -0.2433
 3137SOL    HW110461   1.626   7.782   5.116 -1.0275  0.7719 -0.1310
 3137SOL    HW210462   1.728   7.809   5.225 -1.4719  0.0415  0.4842
 3138SOL     OW10463   5.461   5.354   0.117  0.0657  0.1914  0.2029
 3138SOL    HW110464   5.553   5.375   0.099  0.2162 -1.2091 -0.8213
 3138SOL    HW210465   5.464   5.282   0.179 -0.4096  1.6388  1.9798
 3139SOL     OW10466   6.229   1.391   1.382 -0.8098 -0.0684  0.0083
 3139SOL    HW110467   6.292   1.341   1.434  0.0827  0.8516 -0.1542
 3139SOL    HW210468   6.204   1.331   1.311  0.2386 -0.2856 -0.1878
 3140SOL     OW10469   2.333   6.628   1.304 -0.0138  0.0296 -0.2400
 3140SOL    HW110470   2.368   6.713   1.277 -1.3198  0.5327 -0.4179
 3140SOL    HW210471   2.239   6.644   1.317  0.1145 -0.7703  2.2053
 3141SOL     OW10472   7.092   5.304   2.456  0.3618 -0.7682  0.2273
 3141SOL    HW110473   7.087   5.394   2.424  1.9078 -1.6439 -2.8731
 3141SOL    HW210474   7.001   5.273   2.454  0.0948 -0.0279 -1.3236
 3142SOL     OW10475   0.071   0.167   4.659  0.0784  0.9118 -0.2692
 3142SOL    HW110476   0.138   0.167   4.727 -0.1308  2.4038 -0.0336
 3142SOL    HW210477   0.028   0.251   4.668 -0.2835  0.9380 -1.9397
 3143SOL     OW10478   5.152   0.213   7.001 -0.2012 -0.1362  0.0948
 3143SOL    HW110479   5.066   0.254   7.003  0.1245  0.5260  2.1585
 3143SOL    HW210480   5.207   0.274   6.951 -0.2028  1.0271  1.4465
 3144SOL     OW10481   1.287   3.070   4.119  0.7318 -0.1645  0.1671
 3144SOL    HW110482   1.205   3.113   4.093  0.6756 -0.4106 -0.0720
 3144SOL    HW210483   1.343   3.142   4.149  1.3146  0.3465 -1.9642
 3145SOL     OW10484   6.789   5.266   2.516  0.3400  0.2007 -0.4672
 3145SOL    HW110485   6.788   5.192   2.577 -1.4110  0.2716 -0.3454
 3145SOL    HW210486   6.714   5.250   2.458 -0.3609  2.0819 -0.1624
 3146SOL     OW10487   8.150   6.387   0.219 -0.5360 -0.2455  0.3782
 3146SOL    HW110488   8.141   6.390   0.315 -0.2834 -0.2893  0.4055
 3146SOL    HW210489   8.192   6.471   0.197  0.9462 -0.9266  0.4868
 3147SOL     OW10490   3.591   6.147   4.052 -0.5542 -0.9389  0.4595
 3147SOL    HW110491   3.672   6.198   4.054  0.0028 -1.8285  1.1670
 3147SOL    HW210492   3.614   6.068   4.003 -0.8115 -1.4870  1.2084
 3148SOL     OW10493   1.430   5.585   3.385 -0.5214  0.8256 -0.1302
 3148SOL    HW110494   1.427   5.599   3.290  1.5527  2.3251 -0.0275
 3148SOL    HW210495   1.379   5.505   3.398 -1.3151  0.8749 -2.4314
 3149SOL     OW10496   4.147   5.034   3.092  0.2270  0.8116 -0.0001
 3149SOL    HW110497   4.218   4.998   3.040 -0.4383  0.1004 -0.4293
 3149SOL    HW210498   4.189   5.066   3.172  1.0833  0.8220 -0.4511
 3150SOL     OW10499   3.477   1.012   2.907 -0.8117  0.5328  0.2848
 3150SOL    HW110500   3.459   1.106   2.917  0.9285  1.0421 -0.9577
 3150SOL    HW210501   3.558   1.008   2.857 -1.9454 -1.6588 -1.5465
 3151SOL     OW10502   7.845   1.431   4.149 -0.3086 -0.3046  0.1195
 3151SOL    HW110503   7.907   1.364   4.177 -0.7922 -1.0205 -0.4823
 3151SOL    HW210504   7.886   1.471   4.073  0.3518  0.6660  0.9489
 3152SOL     OW10505   5.214   1.337   4.136  0.3909 -0.1830  0.0620
 3152SOL    HW110506   5.220   1.417   4.084  1.1776  1.2632  2.2512
 3152SOL    HW210507   5.129   1.342   4.178  1.0776  0.3338  1.4341
 3153SOL     OW10508   8.056   2.836   1.479 -0.3443  0.0836  0.0730
 3153SOL    HW110509   8.042   2.800   1.567  2.9908 -0.3555  0.5720
 3153SOL    HW210510   8.017   2.924   1.482 -0.1948  0.1200  2.0609
 3154SOL     OW10511   1.500   2.982   4.985  0.0012  0.6770  0.1733
 3154SOL    HW110512   1.499   2.886   4.982 -0.7264  0.7044 -0.7000
 3154SOL    HW210513   1.408   3.006   5.000  0.0687  1.2522 -0.3142
 3155SOL     OW10514   6.483   0.282   0.589 -0.1198 -0.1575 -0.1530
 3155SOL    HW110515   6.538   0.356   0.563 -0.0271 -0.8542 -2.1394
 3155SOL    HW210516   6.446   0.308   0.673  1.6072  1.2049  0.2541
 3156SOL     OW10517   6.740   2.076   7.719 -0.0704 -0.0053 -0.1557
 3156SOL    HW110518   6.790   2.021   7.658  0.5825  0.3577  0.0526
 3156SOL    HW210519   6.715   2.016   7.789  0.1216 -0.1750 -0.2305
 3157SOL     OW10520   6.525   0.950   8.097 -0.3091 -0.5270  0.0000
 3157SOL    HW110521   6.457   1.016   8.085 -0.5626 -0.7564  0.1479
 3157SOL    HW210522   6.583   0.987   8.164 -0.1737 -0.2426 -0.2732
 3158SOL     OW10523   2.572   3.338   4.385 -0.3728 -0.2180  0.1626
 3158SOL    HW110524   2.583   3.329   4.479  1.2376 -1.5670 -0.1091
 3158SOL    HW210525   2.649   3.296   4.347  0.3680  2.5470 -1.7387
 3159SOL     OW10526   4.200   3.610   1.290 -0.5405  0.1660 -0.1957
 3159SOL    HW110527   4.231   3.522   1.309  0.6579  0.9573  1.8222
 3159SOL    HW210528   4.189   3.612   1.195  2.1768 -1.3029 -0.6145
 3160SOL     OW10529   2.310   2.305   4.062  0.5554 -0.1000 -0.0292
 3160SOL    HW110530   2.249   2.349   4.121 -0.9610 -1.2018 -0.7130
 3160SOL    HW210531   2.347   2.234   4.114  0.8555  0.2250  0.2120
 3161SOL     OW10532   1.727   4.312   2.739  0.2458  0.4190 -0.2154
 3161SOL    HW110533   1.689   4.226   2.760 -0.9590  0.9185 -0.2472
 3161SOL    HW210534   1.739   4.353   2.825 -1.8892  1.3023 -0.2650
 3162SOL     OW10535   5.238   6.859   6.105  0.2821 -0.2404  0.6871
 3162SOL    HW110536   5.151   6.874   6.142 -0.7198  0.2895 -1.6783
 3162SOL    HW210537   5.226   6.788   6.043  1.8245 -0.9424  1.1397
 3163SOL     OW10538   6.832   1.054   4.217 -0.5762 -0.0386 -0.1036
 3163SOL    HW110539   6.919   1.091   4.233 -0.3736 -0.0378 -1.1278
 3163SOL    HW210540   6.798   1.103   4.142 -1.1906 -0.4810 -0.1233
 3164SOL     OW10541   7.577   6.087   7.425  0.1596  0.6970 -0.1695
 3164SOL    HW110542   7.639   6.115   7.357 -0.7261 -0.2889 -1.4138
 3164SOL    HW210543   7.502   6.052   7.377 -0.8372  0.7003  1.3215
 3165SOL     OW10544   0.482   8.003   6.892  0.0858 -0.1128  0.6558
 3165SOL    HW110545   0.514   8.092   6.877  0.1811 -0.1380  0.7123
 3165SOL    HW210546   0.515   7.980   6.979 -2.4983  0.9418  2.0057
 3166SOL     OW10547   6.370   0.776   6.342  0.8189 -0.2930 -0.0111
 3166SOL    HW110548   6.413   0.859   6.322 -0.3570 -0.1350 -2.2768
 3166SOL    HW210549   6.380   0.765   6.436  1.7450  1.9879  0.2140
 3167SOL     OW10550   2.087   4.376   4.769 -0.1174 -0.1185  0.3450
 3167SOL    HW110551   2.044   4.364   4.854 -0.3741  0.2335  0.2680
 3167SOL    HW210552   2.128   4.462   4.775 -1.2865  0.5146 -0.3682
 3168SOL     OW10553   2.600   1.301   6.499  0.1448  0.0257  0.2465
 3168SOL    HW110554   2.633   1.245   6.429 -0.4763 -2.1715  1.6165
 3168SOL    HW210555   2.550   1.369   6.454  3.0292  1.0765 -1.6257
 3169SOL     OW10556   4.184   3.466   6.189  0.1659  0.4728 -0.4068
 3169SOL    HW110557   4.270   3.501   6.165  2.2742 -0.7228  4.2811
 3169SOL    HW210558   4.152   3.525   6.257  0.9267 -2.8707  3.2115
 3170SOL     OW10559   0.485   2.064   8.266 -0.5108 -0.1101  0.2501
 3170SOL    HW110560   0.399   2.091   8.234  0.3872  1.6987 -0.7732
 3170SOL    HW210561   0.542   2.139   8.251  1.4480 -1.5190  0.1420
 3171SOL     OW10562   6.131   2.576   3.667  0.2702  0.3191  0.0999
 3171SOL    HW110563   6.036   2.578   3.679  0.3472  0.0078  0.7797
 3171SOL    HW210564   6.155   2.668   3.652 -0.5546  0.0754 -3.6510
 3172SOL     OW10565   4.756   3.054   7.877 -0.0878 -1.0330 -0.0819
 3172SOL    HW110566   4.779   3.010   7.959 -0.8225  1.2695  1.4757
 3172SOL    HW210567   4.838   3.092   7.847 -0.3241  0.9043  1.4694
 3173SOL     OW10568   5.328   4.188   2.075 -0.4366 -0.0383  0.6286
 3173SOL    HW110569   5.357   4.108   2.118  0.0957  1.3554  3.0852
 3173SOL    HW210570   5.253   4.162   2.022 -0.3708 -2.0930  1.4667
 3174SOL     OW10571   4.542   3.726   0.646 -0.3190  0.0037  0.0085
 3174SOL    HW110572   4.528   3.635   0.670  1.1337 -0.2163  0.1013
 3174SOL    HW210573   4.613   3.756   0.703 -0.0895  0.8844 -0.7055
 3175SOL     OW10574   7.268   4.865   2.826  0.1800  0.1051 -0.9036
 3175SOL    HW110575   7.343   4.898   2.875 -0.8356  0.4741  0.4494
 3175SOL    HW210576   7.245   4.783   2.870 -1.0536  0.6920 -0.4108
 3176SOL     OW10577   3.160   0.769   5.647  0.2116  0.3461  0.2703
 3176SOL    HW110578   3.072   0.775   5.684 -0.3451  1.7485 -1.1357
 3176SOL    HW210579   3.159   0.686   5.598  1.0055 -1.6029  3.2813
 3177SOL     OW10580   5.116   8.061   3.384 -0.2115  0.0007 -0.3007
 3177SOL    HW110581   5.195   8.103   3.417 -0.7463 -1.0247  2.5771
 3177SOL    HW210582   5.063   8.132   3.349  0.6853  1.1030  0.5253
 3178SOL     OW10583   2.400   2.489   7.432 -0.1177  0.3056 -0.5664
 3178SOL    HW110584   2.360   2.505   7.346  0.5470  1.5475 -0.6601
 3178SOL    HW210585   2.488   2.524   7.424  0.3333 -0.6011  0.2774
 3179SOL     OW10586   5.008   0.585   1.399 -0.4694 -0.4477 -0.2863
 3179SOL    HW110587   5.103   0.591   1.388 -0.6300 -0.1001 -1.5168
 3179SOL    HW210588   4.995   0.499   1.441  0.4983  0.2688  1.6047
 3180SOL     OW10589   6.275   7.620   7.770 -0.0018  0.0454  0.8997
 3180SOL    HW110590   6.317   7.648   7.851 -0.5606  1.3266  0.7709
 3180SOL    HW210591   6.247   7.530   7.787  3.5396 -1.2505  0.6734
 3181SOL     OW10592   5.127   0.075   6.645  0.1396 -0.3323  0.1880
 3181SOL    HW110593   5.081   0.032   6.718  2.4118 -1.3955  1.0930
 3181SOL    HW210594   5.062   0.135   6.608 -1.7527 -1.2905  1.7550
 3182SOL     OW10595   3.080   2.447   0.209 -0.4552  0.4520 -0.5681
 3182SOL    HW110596   3.126   2.445   0.125 -1.2590 -0.9054 -1.0200
 3182SOL    HW210597   3.118   2.520   0.256  0.6798  0.6522 -1.7467
 3183SOL     OW10598   6.171   5.304   5.290 -0.2964 -0.4402 -0.0872
 3183SOL    HW110599   6.173   5.400   5.289  0.3520 -0.4531 -0.3559
 3183SOL    HW210600   6.086   5.282   5.251 -0.2591  0.0211 -0.4363
 3184SOL     OW10601   6.820   1.732   6.162  0.1323 -0.0572 -0.5115
 3184SOL    HW110602   6.903   1.759   6.123  0.2133 -1.0552 -1.0639
 3184SOL    HW210603   6.753   1.772   6.106  0.2495 -0.2949 -0.8253
 3185SOL     OW10604   1.591   7.482   2.361  0.1639  0.1375  0.3725
 3185SOL    HW110605   1.647   7.434   2.300  0.6073 -0.3784  1.1804
 3185SOL    HW210606   1.646   7.552   2.395 -0.2678  0.8057 -0.2620
 3186SOL     OW10607   5.038   7.445   0.532  0.7305 -0.2201  0.5356
 3186SOL    HW110608   5.088   7.465   0.611  0.2548 -2.4880  1.4728
 3186SOL    HW210609   4.958   7.496   0.541  0.1492 -1.3405  2.1498
 3187SOL     OW10610   7.118   5.959   1.000  0.9319 -0.2134  0.1517
 3187SOL    HW110611   7.114   5.925   1.089  0.3259  1.7785  0.9319
 3187SOL    HW210612   7.176   6.035   1.005  0.9852 -0.1382 -1.1822
 3188SOL     OW10613   3.235   5.124   0.246 -0.3922  0.0145  0.4330
 3188SOL    HW110614   3.275   5.041   0.220 -0.4336  0.4972 -1.3233
 3188SOL    HW210615   3.265   5.139   0.336  0.7492 -1.1970  0.2753
 3189SOL     OW10616   3.648   0.523   4.546 -1.6232  0.4776 -0.3033
 3189SOL    HW110617   3.613   0.435   4.555 -2.0512  0.7305  0.5863
 3189SOL    HW210618   3.670   0.531   4.453  0.2413 -1.2365 -0.0633
 3190SOL     OW10619   3.499   7.225   6.765 -0.5492  0.2074 -0.1565
 3190SOL    HW110620   3.496   7.190   6.676  0.6670 -0.0100 -0.1245
 3190SOL    HW210621   3.470   7.316   6.756 -2.0824 -0.2731 -0.4950
 3191SOL     OW10622   2.041   0.806   6.321  0.1618 -0.3871 -0.1064
 3191SOL    HW110623   1.947   0.821   6.330  0.1348 -1.0699  0.9626
 3191SOL    HW210624   2.081   0.891   6.341 -0.2264  0.0129 -0.9676
 3192SOL     OW10625   5.691   0.064   1.340  0.5568  0.6039  0.1402
 3192SOL    HW110626   5.731   0.105   1.263  0.3240  1.4167  0.4371
 3192SOL    HW210627   5.648   0.137   1.386  0.4850  0.0871  0.9066
 3193SOL     OW10628   1.177   3.535   2.548 -0.8021  0.1292 -0.1411
 3193SOL    HW110629   1.104   3.594   2.567 -2.2108 -0.2688 -3.6353
 3193SOL    HW210630   1.252   3.593   2.534 -1.2379  0.7853  0.1730
 3194SOL     OW10631   6.159   6.542   3.965 -0.1591 -0.6353  0.0911
 3194SOL    HW110632   6.176   6.607   3.897  2.7072 -1.3020  0.0114
 3194SOL    HW210633   6.214   6.570   4.038 -0.5007 -1.8147  0.8265
 3195SOL     OW10634   5.417   6.511   7.325 -0.3207 -0.4403 -0.2169
 3195SOL    HW110635   5.509   6.529   7.306 -0.3434  1.6434  1.2374
 3195SOL    HW210636   5.418   6.442   7.391  0.2808  0.2308  0.4922
 3196SOL     OW10637   4.885   1.539   2.442  0.0505 -0.0444 -0.3570
 3196SOL    HW110638   4.824   1.572   2.377 -0.3557  0.1992  0.1377
 3196SOL    HW210639   4.959   1.507   2.392 -0.7802 -0.9949 -1.0151
 3197SOL     OW10640   7.519   2.621   1.824  0.1387 -0.4467  0.4757
 3197SOL    HW110641   7.432   2.661   1.830  1.3064  2.7580 -1.6025
 3197SOL    HW210642   7.511   2.554   1.757 -1.1404 -1.6061  1.7360
 3198SOL     OW10643   5.614   3.497   4.495  0.4679 -0.5737 -0.2641
 3198SOL    HW110644   5.537   3.527   4.543  0.3082 -0.4964 -0.5627
 3198SOL    HW210645   5.621   3.557   4.421  2.9875  1.7579  1.7133
 3199SOL     OW10646   7.015   0.735   1.874 -0.3452 -0.0556  0.0945
 3199SOL    HW110647   6.940   0.704   1.823 -0.0894  1.7415 -1.4856
 3199SOL    HW210648   7.091   0.720   1.818  0.5528 -1.9449  1.7211
 3200SOL     OW10649   1.573   2.439   1.190 -0.0381  1.0514 -0.1532
 3200SOL    HW110650   1.584   2.505   1.258 -1.0488  0.5881  0.4833
 3200SOL    HW210651   1.497   2.388   1.218 -0.4978  0.8606 -1.6340
 3201SOL     OW10652   1.326   8.031   5.508 -0.2471 -0.3759  0.1092
 3201SOL    HW110653   1.399   7.985   5.467 -1.0594 -0.1945 -1.5939
 3201SOL    HW210654   1.254   8.023   5.446 -0.7439  2.2330  0.2404
 3202SOL     OW10655   4.359   7.170   4.135  0.2529 -0.2154  0.2098
 3202SOL    HW110656   4.275   7.130   4.110  0.3476  0.9031 -2.2073
 3202SOL    HW210657   4.423   7.100   4.124  0.1684 -0.0008 -2.2135
 3203SOL     OW10658   1.971   7.726   5.697 -0.2889  0.0624  0.4415
 3203SOL    HW110659   1.932   7.654   5.648  0.1448 -1.5566  2.3631
 3203SOL    HW210660   1.932   7.805   5.658  1.2475 -0.9192 -3.5888
 3204SOL     OW10661   2.375   5.681   7.574 -0.1142  0.0217 -0.0732
 3204SOL    HW110662   2.383   5.601   7.627 -1.0107 -0.0452 -0.0180
 3204SOL    HW210663   2.442   5.673   7.507  0.5669 -0.2344  0.6257
 3205SOL     OW10664   5.529   5.705   1.269  0.0460  0.7650 -0.5697
 3205SOL    HW110665   5.525   5.777   1.206 -2.1135  0.4614 -0.8736
 3205SOL    HW210666   5.503   5.745   1.352 -1.5396  0.3197 -0.8148
 3206SOL     OW10667   5.367   1.782   2.928  0.0110 -0.4381 -0.2613
 3206SOL    HW110668   5.393   1.822   2.845  0.7815 -0.1692  0.1007
 3206SOL    HW210669   5.344   1.856   2.985  0.9572 -0.5218  0.2493
 3207SOL     OW10670   7.075   5.676   1.476 -0.4242  0.6210 -0.0845
 3207SOL    HW110671   7.140   5.695   1.544  1.5242 -1.8194 -1.1243
 3207SOL    HW210672   7.004   5.631   1.522  0.1147  0.4468  0.5859
 3208SOL     OW10673   0.930   7.401   2.153 -0.1957 -0.1227  0.1419
 3208SOL    HW110674   0.919   7.437   2.241  0.2104 -1.2050  0.6690
 3208SOL    HW210675   0.989   7.326   2.166 -1.0544 -1.0028 -0.8699
 3209SOL     OW10676   8.050   7.297   2.476 -0.4636 -0.0556 -0.1654
 3209SOL    HW110677   8.016   7.297   2.387  1.5060 -0.3421 -0.9724
 3209SOL    HW210678   8.065   7.205   2.496  1.1797  0.1280 -0.4206
 3210SOL     OW10679   4.334   4.906   7.184  0.3477  0.3151  0.2994
 3210SOL    HW110680   4.318   4.948   7.269  1.6310  1.8478 -0.1733
 3210SOL    HW210681   4.427   4.885   7.184  0.3769  0.3872 -0.7432
 3211SOL     OW10682   7.414   1.330   4.406 -0.0683  0.4546 -0.0642
 3211SOL    HW110683   7.337   1.373   4.369  0.2982  0.2672 -1.0684
 3211SOL    HW210684   7.380   1.277   4.478 -0.9413  0.0319 -0.7720
 3212SOL     OW10685   1.797   3.192   0.529 -0.1715 -0.2730 -0.4035
 3212SOL    HW110686   1.834   3.109   0.558  3.2476  0.8490 -1.0787
 3212SOL    HW210687   1.843   3.258   0.580 -2.9777  1.2809  0.3001
 3213SOL     OW10688   0.974   3.948   7.990  0.4309  0.3650 -0.5349
 3213SOL    HW110689   0.949   3.856   7.997 -0.5900  0.6631 -0.0241
 3213SOL    HW210690   1.004   3.972   8.078 -1.7560  1.1659  0.0673
 3214SOL     OW10691   1.966   7.976   6.372 -0.1148  0.0914 -0.1092
 3214SOL    HW110692   1.935   8.048   6.316 -0.7487 -1.1653 -1.4491
 3214SOL    HW210693   1.929   7.897   6.332 -1.0296 -0.8479  2.4174
 3215SOL     OW10694   8.213   3.191   4.012 -0.3501  0.1211 -0.3398
 3215SOL    HW110695   8.298   3.154   4.036  0.5067  2.1761 -0.0037
 3215SOL    HW210696   8.218   3.201   3.917  0.2494  1.2584 -0.2024
 3216SOL     OW10697   8.273   2.176   2.047  0.2986  0.1145 -0.5312
 3216SOL    HW110698   8.363   2.197   2.071  0.4285  0.8495 -1.6154
 3216SOL    HW210699   8.225   2.179   2.131  1.3560 -0.8190  0.1270
 3217SOL     OW10700   1.680   8.004   7.844  0.2867  0.0301 -0.2573
 3217SOL    HW110701   1.708   8.093   7.820  0.3878  0.3882  1.1323
 3217SOL    HW210702   1.752   7.948   7.816  0.8152  0.5403  0.0580
 3218SOL     OW10703   3.252   3.947   3.083  0.1414 -0.4361  0.4228
 3218SOL    HW110704   3.249   4.042   3.082  1.0611 -0.3797 -1.7370
 3218SOL    HW210705   3.164   3.919   3.059  0.3888 -0.0577 -1.0082
 3219SOL     OW10706   4.129   1.610   7.234  0.2491  0.2242  0.2420
 3219SOL    HW110707   4.042   1.584   7.204 -0.1292  1.4443  0.2173
 3219SOL    HW210708   4.142   1.697   7.196  0.8124  0.7326  1.5476
 3220SOL     OW10709   1.915   1.854   2.616 -0.0932  0.0758 -0.0902
 3220SOL    HW110710   1.832   1.860   2.568 -0.8961 -1.9849  0.8843
 3220SOL    HW210711   1.975   1.910   2.568 -1.9872  1.4928 -0.9478
 3221SOL     OW10712   0.575   3.442   7.263 -0.6489 -0.3250  0.4384
 3221SOL    HW110713   0.501   3.463   7.206 -0.3617 -1.5654 -0.4293
 3221SOL    HW210714   0.630   3.521   7.261 -0.6337 -0.3442 -1.0379
 3222SOL     OW10715   7.053   2.238   0.757  0.2034  0.0542  0.0199
 3222SOL    HW110716   7.032   2.244   0.664 -0.4941 -0.0785  0.1630
 3222SOL    HW210717   7.067   2.329   0.784 -1.5174  0.2962  0.2043
 3223SOL     OW10718   2.908   3.491   8.157  0.2303  0.2156  0.5922
 3223SOL    HW110719   2.822   3.530   8.140  0.2686  0.5691  1.1891
 3223SOL    HW210720   2.970   3.551   8.114  0.2103  0.2000  0.5411
 3224SOL     OW10721   7.652   4.330   7.084  0.6032 -0.4342  0.0055
 3224SOL    HW110722   7.603   4.255   7.118  0.0126 -0.3563 -0.6343
 3224SOL    HW210723   7.605   4.407   7.118  0.4518 -0.3610 -0.3549
 3225SOL     OW10724   4.711   6.799   3.644 -0.4733  0.1046  0.7219
 3225SOL    HW110725   4.641   6.739   3.620  1.5924 -1.4618 -2.0452
 3225SOL    HW210726   4.712   6.865   3.575  0.5842  0.2726  0.8755
 3226SOL     OW10727   5.984   4.137   0.899  0.5778  0.5895  0.0118
 3226SOL    HW110728   6.037   4.161   0.975  1.2078 -0.0694 -0.2045
 3226SOL    HW210729   5.975   4.042   0.906  2.8700  0.1246 -2.1051
 3227SOL     OW10730   6.654   7.794   0.808  0.1184 -0.4756 -1.1733
 3227SOL    HW110731   6.678   7.770   0.897 -0.8361 -0.8888 -1.0160
 3227SOL    HW210732   6.719   7.860   0.783  0.2311 -0.1410 -0.0696
 3228SOL     OW10733   0.767   4.574   3.839 -0.1699 -0.8885  0.5322
 3228SOL    HW110734   0.744   4.481   3.842  1.5064 -1.3789 -0.4917
 3228SOL    HW210735   0.798   4.593   3.928  1.5928 -1.9496  0.2102
 3229SOL     OW10736   7.283   8.196   3.528  0.5965 -0.0400 -0.4199
 3229SOL    HW110737   7.350   8.263   3.518  0.6387 -0.2313 -1.5248
 3229SOL    HW210738   7.331   8.118   3.556  0.6486  0.1695  0.0891
 3230SOL     OW10739   2.837   0.072   7.792  0.2085  0.1538 -0.2069
 3230SOL    HW110740   2.896   0.035   7.725  2.6663  0.5132  1.6135
 3230SOL    HW210741   2.838   0.006   7.862 -1.3677  0.3220 -0.0104
 3231SOL     OW10742   0.839   2.572   7.293 -0.1517  0.2528  0.0626
 3231SOL    HW110743   0.774   2.502   7.299  0.8936 -0.8259 -0.8596
 3231SOL    HW210744   0.877   2.563   7.206  1.1134  0.9780  0.5183
 3232SOL     OW10745   8.125   4.269   0.005 -0.0408  0.4346  0.1295
 3232SOL    HW110746   8.191   4.299  -0.058 -1.3213  0.3493 -1.3155
 3232SOL    HW210747   8.047   4.320  -0.017 -1.0443 -0.9342  0.4342
 3233SOL     OW10748   5.427   5.682   3.170 -0.4693 -0.0707 -0.1659
 3233SOL    HW110749   5.493   5.720   3.228 -0.3987 -1.4310  0.7053
 3233SOL    HW210750   5.343   5.713   3.205 -0.3468  1.0486 -0.8179
 3234SOL     OW10751   1.846   7.009   1.269 -0.2578  0.5549  0.5011
 3234SOL    HW110752   1.826   7.102   1.255 -2.5319  0.3984  2.1096
 3234SOL    HW210753   1.776   6.963   1.222 -0.0815 -0.2888  1.0514
 3235SOL     OW10754   3.548   5.912   6.893  0.0966 -0.2458  0.2771
 3235SOL    HW110755   3.616   5.881   6.832 -0.6229  0.1356 -0.7348
 3235SOL    HW210756   3.588   5.902   6.979  2.2883  1.9164 -0.3505
 3236SOL     OW10757   6.106   3.664   1.321  0.4217 -0.2151 -0.6930
 3236SOL    HW110758   6.079   3.641   1.410  1.2100  0.6084 -0.2311
 3236SOL    HW210759   6.159   3.590   1.291  1.2864  0.0898  0.0417
 3237SOL     OW10760   3.218   4.875   4.907  0.4212  0.1456 -0.2517
 3237SOL    HW110761   3.278   4.881   4.982 -0.0895  1.1580  0.0892
 3237SOL    HW210762   3.245   4.795   4.862  1.0417 -0.2315  0.7482
 3238SOL     OW10763   3.526   3.341   1.527 -0.1221  0.3848 -0.8658
 3238SOL    HW110764   3.552   3.253   1.500 -2.4280 -0.5422 -0.2255
 3238SOL    HW210765   3.596   3.369   1.587 -0.2372 -1.7958  0.3950
 3239SOL     OW10766   1.579   6.439   5.711 -0.4514  0.6220  0.8038
 3239SOL    HW110767   1.546   6.505   5.650  0.6016 -0.7305 -1.3396
 3239SOL    HW210768   1.567   6.356   5.665  0.7254 -0.4281  2.3131
 3240SOL     OW10769   7.127   2.875   3.322  0.2148 -0.2143 -0.6444
 3240SOL    HW110770   7.158   2.960   3.355  0.2884 -0.4438 -0.1251
 3240SOL    HW210771   7.049   2.856   3.373  1.3394 -1.4288  0.6905
 3241SOL     OW10772   6.381   0.314   4.016  0.4204 -0.1945 -0.5471
 3241SOL    HW110773   6.323   0.238   4.016 -0.9878  0.7660 -3.3071
 3241SOL    HW210774   6.344   0.373   4.082  0.1226 -0.8824 -0.0859
 3242SOL     OW10775   2.742   6.369   1.471  0.7338  0.3778  0.1635
 3242SOL    HW110776   2.703   6.290   1.507  2.8527 -0.8655 -0.1072
 3242SOL    HW210777   2.681   6.397   1.403 -1.6809  0.9028  2.3914
 3243SOL     OW10778   6.815   5.820   3.214 -0.1240 -0.1032  0.4098
 3243SOL    HW110779   6.787   5.908   3.190  1.0096 -0.2970 -1.9529
 3243SOL    HW210780   6.907   5.816   3.187 -0.6314 -2.5434 -1.3718
 3244SOL     OW10781   0.556   5.764   0.005  0.1017 -0.4774 -0.6935
 3244SOL    HW110782   0.608   5.686  -0.016 -1.5840 -1.7469 -0.3654
 3244SOL    HW210783   0.603   5.835  -0.038  1.0187 -1.8519 -2.1141
 3245SOL     OW10784   1.077   0.596   0.337  0.2165  0.1312 -0.0297
 3245SOL    HW110785   1.078   0.507   0.303  0.9190  0.4253 -0.8110
 3245SOL    HW210786   1.169   0.617   0.352  0.1709  1.1399 -1.0095
 3246SOL     OW10787   0.801   7.028   2.234  0.1787 -0.3559 -0.0840
 3246SOL    HW110788   0.885   7.026   2.188  0.0660 -1.5094 -0.2904
 3246SOL    HW210789   0.822   7.002   2.324 -0.2185 -3.0683 -0.6874
 3247SOL     OW10790   6.121   8.262   2.555  0.2843  0.2233 -0.2024
 3247SOL    HW110791   6.033   8.226   2.565 -0.4971  2.0383 -0.2214
 3247SOL    HW210792   6.179   8.189   2.576 -1.1725 -1.5218 -1.9157
 3248SOL     OW10793   4.802   2.204   6.017  0.1220 -0.5131 -0.3951
 3248SOL    HW110794   4.776   2.283   5.969 -1.2390 -0.5269  0.2651
 3248SOL    HW210795   4.868   2.163   5.961  1.0610  1.2154 -0.6333
 3249SOL     OW10796   7.244   1.418   1.583  0.3449 -0.3956  0.3599
 3249SOL    HW110797   7.263   1.326   1.602  0.2722 -0.2300  1.2765
 3249SOL    HW210798   7.289   1.467   1.651  0.0364  0.2246  0.1280
 3250SOL     OW10799   2.692   7.393   3.450  0.1756 -0.0922  0.2069
 3250SOL    HW110800   2.703   7.332   3.376  0.7118  1.2408 -0.8461
 3250SOL    HW210801   2.705   7.480   3.412  0.1187  0.6581  1.8206
 3251SOL     OW10802   0.586   0.735   2.763  0.3695  0.6193  0.9987
 3251SOL    HW110803   0.579   0.731   2.667  0.3734 -3.6856  0.9624
 3251SOL    HW210804   0.680   0.725   2.780  0.2116 -0.3099  1.3958
 3252SOL     OW10805   7.874   6.309   2.891 -0.1236 -0.2789 -0.5459
 3252SOL    HW110806   7.873   6.380   2.956 -1.5135  0.8805 -1.7572
 3252SOL    HW210807   7.790   6.316   2.847  0.2672 -1.8604 -1.6251
 3253SOL     OW10808   0.165   0.857   1.107 -0.5975 -0.2999 -0.4332
 3253SOL    HW110809   0.210   0.926   1.156  1.3009 -1.2698 -0.6805
 3253SOL    HW210810   0.163   0.889   1.017  0.0000 -0.4106 -0.4932
 3254SOL     OW10811   3.690   2.571   5.783 -0.1413  0.2353  0.6702
 3254SOL    HW110812   3.672   2.662   5.808 -2.2067 -0.2189  0.9850
 3254SOL    HW210813   3.671   2.568   5.689 -1.9265 -0.2466  1.0057
 3255SOL     OW10814   6.700   3.034   2.974  0.2765 -0.5511  0.2095
 3255SOL    HW110815   6.721   2.953   3.021  1.0026 -1.2049 -1.1839
 3255SOL    HW210816   6.666   3.004   2.890  4.2251  0.4486 -1.9918
 3256SOL     OW10817   4.654   6.303   2.621 -0.2640  0.0910  0.0643
 3256SOL    HW110818   4.699   6.383   2.645 -0.6913  0.5629 -0.6469
 3256SOL    HW210819   4.700   6.233   2.667  0.7970  0.6250 -0.1700
 3257SOL     OW10820   7.150   2.126   5.334 -0.3609  0.4224 -0.3406
 3257SOL    HW110821   7.163   2.199   5.395  0.8592  1.2223 -1.4961
 3257SOL    HW210822   7.055   2.114   5.330 -0.5144  1.0783  0.8511
 3258SOL     OW10823   4.760   7.449   0.214  0.2249 -0.0784 -0.0623
 3258SOL    HW110824   4.700   7.403   0.156  0.8270  0.6026 -1.2571
 3258SOL    HW210825   4.836   7.391   0.220 -0.2160 -0.5820  0.8261
 3259SOL     OW10826   5.241   4.858   0.826  0.0395 -0.6391  0.3696
 3259SOL    HW110827   5.201   4.856   0.738  0.4580  1.2716  0.0904
 3259SOL    HW210828   5.280   4.771   0.836  0.9410 -0.5508 -1.7932
 3260SOL     OW10829   3.746   1.863   4.142 -0.0827 -0.1676 -0.3499
 3260SOL    HW110830   3.684   1.928   4.177  1.6340  1.9852 -1.0904
 3260SOL    HW210831   3.824   1.914   4.121  2.3749 -2.8938  1.4933
 3261SOL     OW10832   1.453   3.856   6.391  0.1713  0.2517 -0.0770
 3261SOL    HW110833   1.536   3.856   6.438  0.5812 -0.0186 -0.7719
 3261SOL    HW210834   1.432   3.948   6.378 -0.2015  0.3344  1.0581
 3262SOL     OW10835   2.827   5.614   1.959  0.3934  0.3579 -0.2987
 3262SOL    HW110836   2.879   5.560   2.019 -1.3139 -0.3431  0.6193
 3262SOL    HW210837   2.794   5.685   2.014 -1.6527 -0.5969 -0.2213
 3263SOL     OW10838   2.644   7.389   3.831 -0.1974  0.2950 -0.6028
 3263SOL    HW110839   2.652   7.361   3.923  0.7547  0.5600 -0.5943
 3263SOL    HW210840   2.638   7.307   3.782 -4.8264  0.0865 -0.0507
 3264SOL     OW10841   7.537   7.850   2.394  0.5078 -0.6691 -0.4040
 3264SOL    HW110842   7.475   7.923   2.386  1.1946  0.1658  1.3971
 3264SOL    HW210843   7.619   7.885   2.358 -0.1686 -2.0858 -3.6968
 3265SOL     OW10844   6.141   6.972   7.358 -0.0411 -0.5558 -0.1039
 3265SOL    HW110845   6.220   6.959   7.410 -1.3253  1.9822  2.8895
 3265SOL    HW210846   6.082   6.902   7.386 -0.1416 -0.1704  0.7006
 3266SOL     OW10847   2.631   4.896   1.119 -0.1997  0.3158 -0.0019
 3266SOL    HW110848   2.699   4.929   1.179  0.6026 -0.0226 -0.7012
 3266SOL    HW210849   2.657   4.930   1.033 -0.9212  0.1680 -0.2835
 3267SOL     OW10850   1.325   7.359   4.059  0.0419  0.0262  0.3290
 3267SOL    HW110851   1.328   7.410   4.139  0.3477 -0.4602  0.6340
 3267SOL    HW210852   1.243   7.384   4.017  0.9789  2.0791 -0.4092
 3268SOL     OW10853   6.010   3.877   0.929  0.1054  0.8163 -0.2980
 3268SOL    HW110854   6.027   3.889   1.023  2.4179  0.6669 -0.6410
 3268SOL    HW210855   5.989   3.784   0.920 -1.4233  1.0825  0.2000
 3269SOL     OW10856   3.605   2.902   1.792 -0.0082 -0.1274 -0.0208
 3269SOL    HW110857   3.639   2.992   1.791 -1.1251  0.3136 -1.4874
 3269SOL    HW210858   3.534   2.904   1.855  1.0617 -0.4431  1.2352
 3270SOL     OW10859   1.807   3.002   1.518 -0.0503  0.3782  0.0791
 3270SOL    HW110860   1.803   3.067   1.588 -0.6842  0.5843 -0.1486
 3270SOL    HW210861   1.901   2.990   1.502  0.1478 -0.4867  1.7184
 3271SOL     OW10862   5.996   3.301   7.652  0.7497  0.4835  0.9818
 3271SOL    HW110863   6.052   3.272   7.580  2.5835 -0.0496  2.5275
 3271SOL    HW210864   5.930   3.355   7.611  1.6029  0.0250 -1.1225
 3272SOL     OW10865   6.139   2.020   7.292 -0.1350 -0.0585 -0.2842
 3272SOL    HW110866   6.154   2.114   7.305  1.6221 -0.3450  0.0165
 3272SOL    HW210867   6.128   1.986   7.381  0.1794 -0.2683 -0.3237
 3273SOL     OW10868   4.823   3.438   6.448 -0.1254  0.5983 -0.1657
 3273SOL    HW110869   4.785   3.455   6.534 -0.4343  1.2060 -0.4193
 3273SOL    HW210870   4.775   3.362   6.415  2.4602 -2.0756  1.7243
 3274SOL     OW10871   8.172   3.788   3.776 -0.2010 -0.1970  0.1055
 3274SOL    HW110872   8.129   3.762   3.857 -0.4236 -0.3619 -0.0624
 3274SOL    HW210873   8.251   3.734   3.773 -0.7354 -0.9884 -0.3139
 3275SOL     OW10874   1.856   6.492   5.920  0.0886  0.0148  0.2834
 3275SOL    HW110875   1.947   6.506   5.895  0.4428 -1.6013  0.5577
 3275SOL    HW210876   1.861   6.436   5.998 -1.1462 -0.4661  0.0385
 3276SOL     OW10877   0.560   4.474   0.988 -0.2964  0.4090 -0.5173
 3276SOL    HW110878   0.536   4.383   0.971 -3.0847  1.0312 -0.4897
 3276SOL    HW210879   0.584   4.509   0.902  4.1967 -1.0708 -0.0941
 3277SOL     OW10880   7.735   3.798   2.710  0.7072  0.0374 -0.0369
 3277SOL    HW110881   7.642   3.781   2.730  1.1561 -0.3872  1.9349
 3277SOL    HW210882   7.738   3.892   2.690 -0.2008 -0.0219 -0.5213
 3278SOL     OW10883   0.326   0.318   2.865 -0.4374 -0.0682  0.1528
 3278SOL    HW110884   0.283   0.358   2.789 -0.5206 -0.1758  0.1428
 3278SOL    HW210885   0.415   0.301   2.835 -0.5426 -0.3563 -0.0123
 3279SOL     OW10886   0.944   7.360   5.309 -0.3095  0.0211 -0.0189
 3279SOL    HW110887   0.895   7.319   5.380 -0.5849  2.3357  1.1986
 3279SOL    HW210888   1.036   7.347   5.333 -0.3458 -1.1295 -0.4268
 3280SOL     OW10889   2.096   5.855   4.715 -0.8050 -0.0788 -0.4274
 3280SOL    HW110890   2.157   5.903   4.660 -0.8994  0.2632 -0.2448
 3280SOL    HW210891   2.014   5.853   4.665 -1.2412  1.2677  0.1680
 3281SOL     OW10892   0.633   7.047   4.343  0.5760  0.2710 -0.2299
 3281SOL    HW110893   0.543   7.020   4.357  1.5355 -3.2461  0.0840
 3281SOL    HW210894   0.673   7.045   4.430  1.3700  0.0430 -0.5887
 3282SOL     OW10895   0.176   5.963   3.100 -0.1682  0.2105 -0.0956
 3282SOL    HW110896   0.261   5.996   3.071 -0.0338 -0.2835 -0.2809
 3282SOL    HW210897   0.198   5.902   3.170 -0.2398 -1.1012 -1.1714
 3283SOL     OW10898   1.824   0.716   1.000  0.6845 -0.6689  0.0054
 3283SOL    HW110899   1.855   0.767   1.075  1.0515 -2.3301  1.0318
 3283SOL    HW210900   1.885   0.643   0.994  0.2087 -0.9845 -1.4630
 3284SOL     OW10901   5.412   5.255   4.822  0.5614  0.0048 -0.1249
 3284SOL    HW110902   5.450   5.317   4.761  0.5178  0.9785  0.8160
 3284SOL    HW210903   5.398   5.176   4.770 -0.9202  1.2813 -1.7704
 3285SOL     OW10904   7.833   1.186   2.983  0.6877  0.7540 -0.4207
 3285SOL    HW110905   7.825   1.113   2.921  0.9485  0.7836 -0.4934
 3285SOL    HW210906   7.765   1.170   3.048  1.4146 -0.1539  0.1593
 3286SOL     OW10907   1.839   1.406   5.561 -0.6308  0.3051  0.2836
 3286SOL    HW110908   1.790   1.479   5.599 -0.5364 -0.2715  1.5567
 3286SOL    HW210909   1.845   1.342   5.631  3.5727  1.0840  0.9237
 3287SOL     OW10910   0.085   3.239   5.442 -0.1923  0.1315  0.3491
 3287SOL    HW110911   0.064   3.188   5.520  2.3418  0.5386  1.4203
 3287SOL    HW210912   0.136   3.313   5.475  3.1494 -0.9821 -1.7930
 3288SOL     OW10913   7.308   7.015   6.203 -0.4023  0.2416  0.2378
 3288SOL    HW110914   7.371   6.985   6.137 -0.0241  2.0412 -0.2945
 3288SOL    HW210915   7.229   7.037   6.152  0.0949  2.2213  0.2333
 3289SOL     OW10916   2.959   4.311   0.876  0.5461 -0.2358 -0.4361
 3289SOL    HW110917   3.050   4.335   0.891  0.3998  1.2107 -1.6137
 3289SOL    HW210918   2.931   4.271   0.958  2.1217 -0.3524  0.0766
 3290SOL     OW10919   6.629   1.954   1.443 -0.2876 -0.6319 -0.2515
 3290SOL    HW110920   6.631   1.861   1.466  0.2361 -0.6012 -0.1542
 3290SOL    HW210921   6.718   1.985   1.460 -0.5064 -0.0676 -0.1135
 3291SOL     OW10922   0.969   7.185   1.367 -0.2477  0.8378  0.4191
 3291SOL    HW110923   0.956   7.147   1.280 -2.1803 -1.3113  1.5037
 3291SOL    HW210924   1.059   7.163   1.390 -0.1189  0.2951 -0.5462
 3292SOL     OW10925   4.711   5.393   7.166  0.5151  0.0216  0.1865
 3292SOL    HW110926   4.706   5.439   7.250  3.0172 -0.8405  0.9091
 3292SOL    HW210927   4.626   5.349   7.157 -0.0181  0.5916  1.9798
 3293SOL     OW10928   6.530   3.332   5.187 -0.1165 -0.2760  0.1429
 3293SOL    HW110929   6.538   3.307   5.279  2.5099  4.1073  1.4043
 3293SOL    HW210930   6.604   3.288   5.144  0.7984  0.4166  0.9665
 3294SOL     OW10931   5.422   4.930   6.588  0.3712 -0.5082 -0.0240
 3294SOL    HW110932   5.330   4.933   6.560 -0.3528  0.1310  2.2071
 3294SOL    HW210933   5.434   4.839   6.618  0.7783 -0.8602 -1.2282
 3295SOL     OW10934   4.564   7.833   5.478  0.7806  0.2577  0.2000
 3295SOL    HW110935   4.594   7.780   5.552  1.0742  0.8167  0.4905
 3295SOL    HW210936   4.619   7.912   5.482  0.8154  0.2812 -0.6300
 3296SOL     OW10937   3.248   8.081   6.283 -0.1688 -0.3549  0.5912
 3296SOL    HW110938   3.197   8.083   6.363  0.9716  1.2159  1.3374
 3296SOL    HW210939   3.331   8.121   6.306  0.5003 -0.6093 -1.1825
 3297SOL     OW10940   1.683   4.777   3.668 -0.6037 -0.8867 -0.0259
 3297SOL    HW110941   1.728   4.749   3.588 -1.1909  0.9051 -1.0360
 3297SOL    HW210942   1.600   4.813   3.637  0.0429  1.8259  1.1200
 3298SOL     OW10943   4.269   0.217   2.973 -0.8672 -0.4661  0.1148
 3298SOL    HW110944   4.299   0.189   3.059  2.6650 -0.4552 -0.9779
 3298SOL    HW210945   4.222   0.299   2.990  0.8924  0.2495  1.9399
 3299SOL     OW10946   5.919   0.725   1.913 -0.4660  0.5175  0.2959
 3299SOL    HW110947   5.976   0.714   1.989  0.8629 -0.8503 -0.8239
 3299SOL    HW210948   5.834   0.693   1.942  0.2990 -1.0683  0.9234
 3300SOL     OW10949   6.551   5.535   0.365  0.3472  0.2160  0.1612
 3300SOL    HW110950   6.576   5.622   0.397 -1.3405  0.9808 -0.4391
 3300SOL    HW210951   6.588   5.530   0.277 -1.3573  1.2804 -0.6696
 3301SOL     OW10952   4.741   2.734   7.697  0.6707  0.2271 -0.1785
 3301SOL    HW110953   4.678   2.801   7.722  0.3067 -0.7819  1.8149
 3301SOL    HW210954   4.687   2.659   7.671  1.0592 -0.0911 -0.0775
 3302SOL     OW10955   3.740   5.714   6.432  0.4123 -0.1110 -0.4138
 3302SOL    HW110956   3.798   5.646   6.467  1.5535  0.5334 -0.9878
 3302SOL    HW210957   3.796   5.765   6.373 -0.3151  1.5233  0.2458
 3303SOL     OW10958   1.189   0.074   5.376  0.3752 -0.3185  0.6422
 3303SOL    HW110959   1.219   0.165   5.375 -1.9294  0.5260  0.3225
 3303SOL    HW210960   1.158   0.059   5.465 -1.0541 -0.0749  0.2225
 3304SOL     OW10961   4.080   1.874   7.941  0.1056  0.5482 -0.9617
 3304SOL    HW110962   4.100   1.893   8.032  1.5351 -0.3308 -1.0496
 3304SOL    HW210963   3.985   1.872   7.937  0.0190  0.8265  0.4574
 3305SOL     OW10964   8.047   2.369   7.587 -0.1921  1.0017  0.1914
 3305SOL    HW110965   8.062   2.274   7.589 -1.6050  0.7628  1.0089
 3305SOL    HW210966   8.094   2.399   7.509  2.1383 -0.0049  1.1332
 3306SOL     OW10967   3.898   7.910   3.419  0.2434 -0.4340  0.3991
 3306SOL    HW110968   3.979   7.870   3.389  0.1847  0.1225 -0.5305
 3306SOL    HW210969   3.916   7.936   3.509  1.2424  0.0781  0.0581
 3307SOL     OW10970   5.779   1.327   7.284 -0.5274  0.1442 -0.0243
 3307SOL    HW110971   5.857   1.288   7.323 -0.2196 -2.5114 -2.8569
 3307SOL    HW210972   5.808   1.358   7.199 -2.6020 -1.7661 -1.5563
 3308SOL     OW10973   6.050   3.068   3.368 -0.0163  0.0328 -0.2405
 3308SOL    HW110974   5.992   3.031   3.435  0.2250 -0.2446 -0.1794
 3308SOL    HW210975   6.002   3.058   3.286 -0.9124  1.6783  0.0684
 3309SOL     OW10976   3.753   8.259   3.741  0.0425  0.1846  0.3434
 3309SOL    HW110977   3.741   8.267   3.646 -1.0450  0.6001  0.4982
 3309SOL    HW210978   3.827   8.199   3.751  0.1080  0.0589 -0.7675
 3310SOL     OW10979   8.207   0.804   3.371 -0.1194  0.7598  0.0795
 3310SOL    HW110980   8.265   0.840   3.304  0.7640 -0.0056  0.4158
 3310SOL    HW210981   8.252   0.726   3.403 -1.9518 -0.6381 -0.5984
 3311SOL     OW10982   6.733   3.363   6.107 -0.4060 -0.0043 -0.1130
 3311SOL    HW110983   6.727   3.337   6.199  1.8407  0.9858  0.3794
 3311SOL    HW210984   6.643   3.358   6.074 -1.4365  0.6159  2.4197
 3312SOL     OW10985   0.568   0.646   3.787 -0.6633  0.0841  0.2995
 3312SOL    HW110986   0.631   0.696   3.734 -1.4226 -0.2524 -0.9581
 3312SOL    HW210987   0.620   0.612   3.860 -0.0833  2.5383  1.1192
 3313SOL     OW10988   3.641   7.289   1.156  0.7739 -0.1748 -0.7323
 3313SOL    HW110989   3.694   7.363   1.186  0.4770 -0.2177 -0.1012
 3313SOL    HW210990   3.575   7.328   1.099  0.1119  0.1615  0.2366
 3314SOL     OW10991   1.237   7.341   2.716  0.3515 -0.6475  0.1753
 3314SOL    HW110992   1.197   7.368   2.633 -0.8716 -1.4165  0.4749
 3314SOL    HW210993   1.283   7.419   2.747 -1.6540  0.6175  0.2079
 3315SOL     OW10994   3.169   2.328   3.582  1.0952  0.3647  0.6446
 3315SOL    HW110995   3.227   2.346   3.656  1.3666  3.2971 -0.1715
 3315SOL    HW210996   3.082   2.351   3.614  1.5604  4.7973 -0.7078
 3316SOL     OW10997   8.006   5.935   4.990 -0.4163 -0.5977  0.2009
 3316SOL    HW110998   8.015   5.874   4.916 -1.5251  0.2608 -0.6983
 3316SOL    HW210999   7.928   5.905   5.036 -0.2807 -0.5592  0.4551
 3317SOL     OW11000   7.855   7.773   2.279  0.0042  0.0768  0.3010
 3317SOL    HW111001   7.947   7.797   2.293 -0.1604  1.2320 -0.4758
 3317SOL    HW211002   7.808   7.856   2.279 -1.1629 -0.5589  1.4177
 3318SOL     OW11003   4.276   5.569   5.796  0.3232 -0.2770  0.2551
 3318SOL    HW111004   4.221   5.553   5.719  1.1184 -1.6183 -0.0489
 3318SOL    HW211005   4.356   5.608   5.761  0.8772 -1.3150  0.3282
 3319SOL     OW11006   4.929   5.259   0.695 -0.0704  0.3548  0.6046
 3319SOL    HW111007   4.984   5.311   0.635  1.4233  0.4647  1.9861
 3319SOL    HW211008   4.990   5.229   0.763 -1.3083 -1.4995  0.9658
 3320SOL     OW11009   7.937   0.170   1.679  0.0278 -1.0879  0.0010
 3320SOL    HW111010   7.980   0.255   1.693 -2.1737  0.0912 -0.0530
 3320SOL    HW211011   7.960   0.147   1.589  1.2608 -0.9299  0.2578
 3321SOL     OW11012   1.281   2.176   8.054 -0.3995 -0.4456  0.2400
 3321SOL    HW111013   1.333   2.205   7.980 -0.1757  1.2771  1.0288
 3321SOL    HW211014   1.190   2.192   8.028 -0.3899 -0.8401 -0.0510
 3322SOL     OW11015   2.392   6.929   8.029 -0.4796  0.4401 -0.6015
 3322SOL    HW111016   2.338   6.920   7.950  3.0270  0.5022 -3.2645
 3322SOL    HW211017   2.444   6.848   8.032  1.2262  1.4956  0.1231
 3323SOL     OW11018   1.165   3.734   0.007  0.0719  0.3396  0.3373
 3323SOL    HW111019   1.260   3.733  -0.004  0.0697  2.3990 -0.4930
 3323SOL    HW211020   1.131   3.682  -0.065  0.5534  1.2995 -0.6178
 3324SOL     OW11021   3.472   5.326   6.546  0.2117 -0.1278  0.2875
 3324SOL    HW111022   3.464   5.247   6.599  0.6499 -0.9733 -0.8634
 3324SOL    HW211023   3.565   5.346   6.547  0.0760  0.5023  0.7385
 3325SOL     OW11024   2.244   6.272   3.260  0.2185  0.8516 -0.0692
 3325SOL    HW111025   2.157   6.304   3.235  0.4692  0.6653 -1.2482
 3325SOL    HW211026   2.283   6.345   3.308 -0.0524  1.5037 -0.8080
 3326SOL     OW11027   1.148   3.909   4.555 -0.1662  0.2336 -0.0261
 3326SOL    HW111028   1.163   3.819   4.582  0.6376  0.2040 -0.5365
 3326SOL    HW211029   1.225   3.957   4.587 -2.1207  1.4854  3.3532
 3327SOL     OW11030   3.178   4.418   7.869  0.1020 -0.0402 -0.0501
 3327SOL    HW111031   3.179   4.477   7.793  0.5030  0.7109  0.5271
 3327SOL    HW211032   3.181   4.330   7.831  1.3657  0.3421 -0.8896
 3328SOL     OW11033   4.607   5.208   3.312 -0.2418  0.0153 -0.1677
 3328SOL    HW111034   4.547   5.226   3.384  1.0783 -1.2522  1.3076
 3328SOL    HW211035   4.628   5.294   3.276 -1.7885  0.5847  0.1902
 3329SOL     OW11036   3.496   4.672   5.197  0.3912  0.0995  0.8533
 3329SOL    HW111037   3.455   4.590   5.169  0.7682 -0.0149  0.6288
 3329SOL    HW211038   3.429   4.739   5.180  1.2960  0.3458 -2.2914
 3330SOL     OW11039   6.784   0.940   6.001 -0.1835  0.3670  0.2073
 3330SOL    HW111040   6.781   1.012   6.064 -0.3979  1.8086 -1.3793
 3330SOL    HW211041   6.835   0.974   5.928 -0.0014 -1.2296 -0.4597
 3331SOL     OW11042   3.382   1.148   4.366 -0.1820  0.2317 -0.2969
 3331SOL    HW111043   3.351   1.061   4.342 -2.0161  0.9896 -0.8914
 3331SOL    HW211044   3.446   1.170   4.299  1.2619 -1.1297  0.5822
 3332SOL     OW11045   6.027   4.476   6.906 -0.2638  0.0425  0.8782
 3332SOL    HW111046   5.978   4.447   6.828 -0.5861 -1.7988  1.7027
 3332SOL    HW211047   6.039   4.570   6.893  0.2677 -0.3037 -1.7089
 3333SOL     OW11048   1.027   7.988   3.371 -0.4769 -0.0261 -0.2927
 3333SOL    HW111049   1.116   7.951   3.370 -1.3210 -2.2528  0.4107
 3333SOL    HW211050   1.005   7.993   3.464 -1.0141  0.7186 -0.4590
 3334SOL     OW11051   5.427   4.485   4.816 -0.2215  0.0515 -0.3363
 3334SOL    HW111052   5.497   4.548   4.803 -1.6719  1.7147 -0.4596
 3334SOL    HW211053   5.425   4.470   4.911  0.7251 -0.5600 -0.4002
 3335SOL     OW11054   0.286   2.684   2.618 -0.1105  0.3075 -0.1384
 3335SOL    HW111055   0.273   2.649   2.706 -1.7610 -2.2493 -1.2790
 3335SOL    HW211056   0.380   2.671   2.602  0.4107  1.6513  1.5035
 3336SOL     OW11057   6.338   0.225   5.840 -0.1883  0.0686 -0.1506
 3336SOL    HW111058   6.328   0.289   5.910  0.4545  0.0566 -0.0491
 3336SOL    HW211059   6.318   0.273   5.760 -2.2355 -0.2208  0.1165
 3337SOL     OW11060   7.136   0.257   6.208 -0.3980  0.1378  0.0369
 3337SOL    HW111061   7.232   0.255   6.203 -0.3979  0.5042 -0.1019
 3337SOL    HW211062   7.110   0.166   6.194 -0.0992  0.1201 -0.4249
 3338SOL     OW11063   1.217   7.282   7.757 -0.6102 -0.3334 -0.2799
 3338SOL    HW111064   1.255   7.331   7.829  1.2584 -1.6212 -0.3137
 3338SOL    HW211065   1.253   7.323   7.678  0.7379 -1.5140 -0.3154
 3339SOL     OW11066   4.098   5.011   7.742 -0.1676  0.1923  0.1261
 3339SOL    HW111067   4.070   4.938   7.688  0.0690 -1.0187  1.5630
 3339SOL    HW211068   4.189   4.991   7.765 -0.2441  0.6851  0.9307
 3340SOL     OW11069   0.620   3.639   3.384 -0.5301 -0.0075 -0.1911
 3340SOL    HW111070   0.611   3.558   3.334  0.6200  0.3800 -1.0583
 3340SOL    HW211071   0.606   3.613   3.475 -2.1488 -0.8141 -0.6317
 3341SOL     OW11072   5.333   1.425   3.666 -0.0965  0.1183  0.0926
 3341SOL    HW111073   5.367   1.510   3.694 -0.9566  0.8070 -0.8779
 3341SOL    HW211074   5.281   1.445   3.588 -0.1250 -1.3366 -0.2798
 3342SOL     OW11075   2.008   5.123   7.207  0.4182  0.1746  0.5191
 3342SOL    HW111076   1.923   5.133   7.163  2.2709  0.3119 -3.4758
 3342SOL    HW211077   2.044   5.211   7.210  0.2521  0.2125  2.7696
 3343SOL     OW11078   3.108   2.042   3.128  0.0305  0.5580  0.4535
 3343SOL    HW111079   3.197   2.022   3.158  0.8280 -0.5030 -2.2577
 3343SOL    HW211080   3.055   1.970   3.161  0.4665  0.3906  0.8042
 3344SOL     OW11081   6.921   6.394   5.027 -0.3888 -0.3310  0.1010
 3344SOL    HW111082   6.873   6.472   5.053  0.3206  0.2523 -0.3028
 3344SOL    HW211083   7.012   6.422   5.020 -0.0873 -1.2449  0.1615
 3345SOL     OW11084   7.281   6.792   0.004 -0.5293 -0.1265  0.2891
 3345SOL    HW111085   7.285   6.701  -0.025 -1.3364 -0.1660  0.2794
 3345SOL    HW211086   7.303   6.843  -0.074  1.8507 -0.3303  0.7403
 3346SOL     OW11087   1.412   2.573   6.785  0.2250 -0.5817 -0.7051
 3346SOL    HW111088   1.439   2.648   6.838 -0.8717  1.0451 -2.3347
 3346SOL    HW211089   1.486   2.512   6.791  1.7176  1.1645 -0.3084
 3347SOL     OW11090   2.171   2.222   2.291 -0.9127  0.0798  0.6430
 3347SOL    HW111091   2.109   2.277   2.243  0.4075  0.7469 -0.3592
 3347SOL    HW211092   2.214   2.281   2.353 -1.1114 -0.3381  1.1981
 3348SOL     OW11093   2.986   3.753   2.696 -0.1794 -0.1965 -0.0608
 3348SOL    HW111094   2.934   3.692   2.748 -1.6319  0.5704 -0.5541
 3348SOL    HW211095   2.940   3.837   2.706 -0.1280  0.1021 -2.0543
 3349SOL     OW11096   0.568   7.753   2.854  0.3495 -0.4605 -0.3432
 3349SOL    HW111097   0.654   7.722   2.825  0.0974 -1.3183 -0.1991
 3349SOL    HW211098   0.527   7.676   2.894 -0.4344 -0.0243 -0.2920
 3350SOL     OW11099   6.288   7.853   7.040  0.1401  0.2664  0.0308
 3350SOL    HW111100   6.299   7.930   7.095 -1.0225  0.7640 -0.3879
 3350SOL    HW211101   6.334   7.783   7.086 -0.2503  0.8175  1.2941
 3351SOL     OW11102   3.855   1.675   0.511 -0.1001 -0.1535 -0.5526
 3351SOL    HW111103   3.838   1.612   0.581  0.2095 -2.6971 -2.5692
 3351SOL    HW211104   3.789   1.743   0.522  0.3092 -0.1360  2.4779
 3352SOL     OW11105   0.607   0.397   7.282  0.3191 -0.0960  0.5402
 3352SOL    HW111106   0.691   0.356   7.305 -0.8644 -2.1503  1.5636
 3352SOL    HW211107   0.567   0.417   7.366  0.4783  2.5333  0.0482
 3353SOL     OW11108   2.504   4.030   3.923  0.4238  0.3570  0.3160
 3353SOL    HW111109   2.426   3.975   3.917  0.4357  0.4409 -0.8363
 3353SOL    HW211110   2.477   4.114   3.885  1.3065  0.1070 -0.9341
 3354SOL     OW11111   3.108   2.192   4.588  0.9067  0.1889 -0.1507
 3354SOL    HW111112   3.188   2.148   4.614  0.2500 -0.4434  0.8415
 3354SOL    HW211113   3.052   2.189   4.665 -0.7945 -1.0515 -1.3529
 3355SOL     OW11114   7.588   0.009   6.783 -0.3845 -0.2803 -0.5743
 3355SOL    HW111115   7.563  -0.063   6.841 -0.9236 -0.7811 -1.4056
 3355SOL    HW211116   7.541  -0.008   6.702 -0.8131  1.1976 -0.6835
 3356SOL     OW11117   7.217   7.958   1.072  0.4069 -0.0327  0.1045
 3356SOL    HW111118   7.152   7.905   1.118  0.1643  0.1822  0.0044
 3356SOL    HW211119   7.297   7.948   1.125 -0.2757  1.5181  1.4973
 3357SOL     OW11120   6.905   2.835   5.875 -0.0631  0.1416 -0.1121
 3357SOL    HW111121   6.847   2.839   5.952  0.8490 -0.7313  0.6524
 3357SOL    HW211122   6.922   2.927   5.853  0.4621  0.4356  1.3796
 3358SOL     OW11123   0.781   5.387   8.088 -0.5153  0.0023  0.6105
 3358SOL    HW111124   0.700   5.347   8.057 -0.3730 -1.0127  1.5027
 3358SOL    HW211125   0.838   5.313   8.111  0.7139  0.6880 -0.0849
 3359SOL     OW11126   6.137   1.495   1.685  0.2945 -0.0412 -0.1431
 3359SOL    HW111127   6.212   1.548   1.661  1.2479  0.1093  2.7750
 3359SOL    HW211128   6.167   1.405   1.675  0.4605  0.0174 -0.1743
 3360SOL     OW11129   5.216   2.872   8.225  0.2919 -0.0061 -0.3934
 3360SOL    HW111130   5.184   2.863   8.314 -0.9240  1.4506 -0.6457
 3360SOL    HW211131   5.255   2.959   8.222 -2.4198  1.2901 -2.0191
 3361SOL     OW11132   5.875   5.312   2.452 -0.7290  0.2424  0.4015
 3361SOL    HW111133   5.841   5.313   2.363  0.9001 -0.8582 -0.2794
 3361SOL    HW211134   5.943   5.379   2.452  1.7785 -2.1410 -0.3131
 3362SOL     OW11135   4.093   7.483   3.232  0.0477 -0.0160 -0.3398
 3362SOL    HW111136   4.010   7.442   3.257 -0.0975  0.8344  0.6507
 3362SOL    HW211137   4.108   7.454   3.142  0.4352 -3.0166  0.5520
 3363SOL     OW11138   2.058   0.528   4.295  0.3137  0.2503  0.5960
 3363SOL    HW111139   2.031   0.444   4.332  0.5162  0.4075  1.1054
 3363SOL    HW211140   2.026   0.593   4.357 -1.2754  0.6749 -0.5914
 3364SOL     OW11141   4.605   1.197   6.258 -0.3611 -0.0774 -0.1340
 3364SOL    HW111142   4.580   1.163   6.173 -0.1260 -0.5368 -0.0196
 3364SOL    HW211143   4.522   1.206   6.306 -0.5198  0.4267 -0.4967
 3365SOL     OW11144   2.290   2.085   0.633 -0.4111 -0.2417 -0.2193
 3365SOL    HW111145   2.240   2.101   0.553  0.3411 -1.1552 -0.8906
 3365SOL    HW211146   2.356   2.020   0.608 -0.1393 -0.5206  1.1315
 3366SOL     OW11147   8.237   2.322   6.925 -0.2496  0.1433 -0.0922
 3366SOL    HW111148   8.286   2.385   6.979 -1.1995  2.0707 -1.3351
 3366SOL    HW211149   8.156   2.308   6.974  0.9192 -2.1426  1.3901
 3367SOL     OW11150   3.268   0.852   2.407 -0.2010 -0.2217  0.3524
 3367SOL    HW111151   3.343   0.800   2.434  0.9252  0.2211 -1.6896
 3367SOL    HW211152   3.285   0.940   2.441  1.4593  0.4598 -1.9338
 3368SOL     OW11153   3.226   0.128   5.690 -0.0353  0.2008  0.1256
 3368SOL    HW111154   3.228   0.077   5.609  0.7086 -3.2530  2.1137
 3368SOL    HW211155   3.317   0.151   5.707 -0.1350  0.5389  0.2128
 3369SOL     OW11156   0.169   2.156   3.997  0.3255  0.5373  0.0362
 3369SOL    HW111157   0.093   2.097   4.000  0.8601 -0.1147  1.5344
 3369SOL    HW211158   0.233   2.110   3.944 -0.1593  0.9169 -0.9057
 3370SOL     OW11159   0.936   1.278   5.448 -0.0669  0.0186  0.0892
 3370SOL    HW111160   0.955   1.277   5.355 -1.5722 -3.0905 -0.3104
 3370SOL    HW211161   0.897   1.363   5.464  1.1634  1.0095 -1.8718
 3371SOL     OW11162   2.974   8.058   2.386  0.2654 -0.2621  0.2986
 3371SOL    HW111163   2.973   7.967   2.358 -0.5683 -1.1044  2.7869
 3371SOL    HW211164   2.884   8.089   2.370  0.5018  0.0885 -0.3870
 3372SOL     OW11165   6.544   0.062   6.085 -0.2160 -0.1738 -0.0944
 3372SOL    HW111166   6.631   0.027   6.104 -0.2655  0.1680  0.8158
 3372SOL    HW211167   6.499  -0.009   6.040  0.0974 -0.8389  0.6228
 3373SOL     OW11168   2.293   3.035   1.691 -0.0639 -0.2402  0.2836
 3373SOL    HW111169   2.267   3.114   1.739  0.8521  0.1412  0.1616
 3373SOL    HW211170   2.380   3.014   1.724 -0.7229 -1.8727  1.1351
 3374SOL     OW11171   8.212   5.660   2.172 -0.3881  0.1250 -0.8587
 3374SOL    HW111172   8.173   5.578   2.145  1.3769 -1.2275  0.4572
 3374SOL    HW211173   8.158   5.691   2.244 -0.0067 -0.8652 -0.1359
 3375SOL     OW11174   3.141   6.083   6.877  0.4605 -0.1160 -0.0445
 3375SOL    HW111175   3.115   6.150   6.941  1.7796  1.0849 -0.7260
 3375SOL    HW211176   3.158   6.131   6.796  0.9002 -1.3415 -0.7107
 3376SOL     OW11177   2.220   0.069   5.651  0.3052  0.0783 -0.4214
 3376SOL    HW111178   2.303   0.027   5.628  1.1303  0.6131  1.4085
 3376SOL    HW211179   2.230   0.093   5.743 -0.6167  3.1517 -1.0174
 3377SOL     OW11180   6.363   0.896   5.831 -0.1190 -0.0732  0.1749
 3377SOL    HW111181   6.323   0.976   5.796  0.3154 -0.0403 -0.2497
 3377SOL    HW211182   6.378   0.916   5.924 -0.3430  0.2083  0.1542
 3378SOL     OW11183   4.505   5.901   5.268 -0.1158  0.0431 -0.1975
 3378SOL    HW111184   4.424   5.931   5.309 -0.3760 -1.2760  0.3203
 3378SOL    HW211185   4.485   5.897   5.174 -1.0218 -1.2792  0.0257
 3379SOL     OW11186   2.400   5.389   1.138 -0.2934 -0.1826 -0.3230
 3379SOL    HW111187   2.405   5.295   1.152 -1.8406 -0.3167 -0.5180
 3379SOL    HW211188   2.379   5.426   1.224  0.1299 -0.0172 -0.2839
 3380SOL     OW11189   2.386   5.908   4.030  0.1885 -0.1945 -0.4422
 3380SOL    HW111190   2.356   5.857   4.105  2.0053  2.1837  2.0614
 3380SOL    HW211191   2.409   5.842   3.964  0.3326 -2.4965  1.7696
 3381SOL     OW11192   0.995   4.701   6.471  0.1590  0.1206 -0.5208
 3381SOL    HW111193   1.061   4.637   6.444 -1.8169 -2.1574 -0.2637
 3381SOL    HW211194   1.035   4.786   6.452  2.3280 -1.1891 -2.2664
 3382SOL     OW11195   5.617   4.201   0.014 -0.2975 -0.4167 -0.9228
 3382SOL    HW111196   5.560   4.140   0.059  2.0978 -1.3533  1.1005
 3382SOL    HW211197   5.589   4.288   0.045 -2.4546 -0.5653 -2.2976
 3383SOL     OW11198   7.467   2.000   6.555  0.2265 -0.0024  0.3669
 3383SOL    HW111199   7.496   2.010   6.646 -0.1561  1.9155  0.3319
 3383SOL    HW211200   7.394   1.938   6.559 -0.8587  1.2788  1.6509
 3384SOL     OW11201   0.767   2.930   5.259  0.3622 -0.2567  0.3345
 3384SOL    HW111202   0.801   2.947   5.347  1.4888  0.1256 -0.1493
 3384SOL    HW211203   0.842   2.893   5.211 -0.3637 -0.8790 -0.3354
 3385SOL     OW11204   1.564   0.816   2.195 -0.3173 -0.0925 -0.1606
 3385SOL    HW111205   1.609   0.897   2.170 -0.3398 -0.1191 -0.2879
 3385SOL    HW211206   1.624   0.773   2.255  0.6637 -1.0387 -1.7641
 3386SOL     OW11207   6.415   0.410   4.563 -0.2380 -0.4482 -0.6347
 3386SOL    HW111208   6.453   0.410   4.651 -2.2721 -0.6785  0.3143
 3386SOL    HW211209   6.485   0.378   4.506  2.1065  2.3749  0.3844
 3387SOL     OW11210   6.360   3.556   2.432 -0.1032 -0.0520  0.3294
 3387SOL    HW111211   6.383   3.463   2.427 -1.1986 -0.3629  0.8578
 3387SOL    HW211212   6.441   3.601   2.409  1.1651 -1.0885  2.4230
 3388SOL     OW11213   8.250   5.309   7.396 -0.1360 -0.1374 -0.4099
 3388SOL    HW111214   8.227   5.284   7.307 -0.1467 -0.2220 -0.3831
 3388SOL    HW211215   8.183   5.373   7.421  0.2911  0.4438 -0.7273
 3389SOL     OW11216   0.001   3.252   3.576 -0.1275  0.4286  0.5349
 3389SOL    HW111217   0.040   3.166   3.594  0.7098  0.4873 -0.8395
 3389SOL    HW211218  -0.028   3.246   3.485 -0.4996  1.4477  0.5770
 3390SOL     OW11219   2.672   6.617   1.862  0.2780 -0.8380  0.3119
 3390SOL    HW111220   2.689   6.694   1.916  0.2587  0.9403 -2.0782
 3390SOL    HW211221   2.717   6.635   1.779 -1.0472 -2.6833 -0.8966
 3391SOL     OW11222   4.750   6.091   1.795  0.0212  0.2403  0.2419
 3391SOL    HW111223   4.679   6.130   1.846 -1.3457 -0.9045 -0.7293
 3391SOL    HW211224   4.754   6.144   1.715  0.7526  0.7290  0.5889
 3392SOL     OW11225   4.595   3.686   0.161  0.1030 -0.2419 -0.2045
 3392SOL    HW111226   4.659   3.686   0.090  0.7950 -1.8434  0.3638
 3392SOL    HW211227   4.628   3.753   0.222 -0.3055  0.8899 -1.1903
 3393SOL     OW11228   2.663   1.011   7.504  0.1043  0.1921 -0.1904
 3393SOL    HW111229   2.678   0.987   7.413  1.3144  1.9328 -0.5004
 3393SOL    HW211230   2.604   1.086   7.500 -0.2402 -0.0264  0.5005
 3394SOL     OW11231   7.160   3.687   4.213 -0.2529  0.2835  0.7565
 3394SOL    HW111232   7.172   3.601   4.173 -0.2493 -0.3771  2.1074
 3394SOL    HW211233   7.134   3.744   4.141  0.1073 -0.7622 -0.2310
 3395SOL     OW11234   6.484   3.600   2.094  0.2342  0.4930  0.4058
 3395SOL    HW111235   6.456   3.608   2.002 -0.1495 -0.7360  0.4023
 3395SOL    HW211236   6.489   3.691   2.125 -0.0627  0.9077 -0.6969
 3396SOL     OW11237   0.434   5.173   0.619 -0.1722  0.1785  0.2008
 3396SOL    HW111238   0.424   5.229   0.541 -2.1918 -0.3833 -0.0181
 3396SOL    HW211239   0.344   5.151   0.643  0.4716 -0.6316  2.0084
 3397SOL     OW11240   2.063   2.312   7.826 -0.2781  0.3541 -0.2610
 3397SOL    HW111241   1.984   2.344   7.869 -1.4220 -0.8029 -1.4120
 3397SOL    HW211242   2.032   2.275   7.744  1.3055 -1.2807 -0.1826
 3398SOL     OW11243   5.027   7.183   7.974 -0.2396 -0.2742 -0.2138
 3398SOL    HW111244   4.949   7.198   7.921 -0.2440 -2.4984 -0.9383
 3398SOL    HW211245   5.099   7.178   7.911  0.0850 -0.7931  0.1849
 3399SOL     OW11246   1.718   8.068   4.075  0.1479 -0.4599 -0.2973
 3399SOL    HW111247   1.721   8.158   4.109  0.1158 -0.0495 -1.3699
 3399SOL    HW211248   1.801   8.029   4.103  0.3628  0.0452 -0.2331
 3400SOL     OW11249   6.982   4.018   7.674 -0.3672 -0.1379  0.1856
 3400SOL    HW111250   7.000   4.107   7.705  0.5866  0.2234 -1.2885
 3400SOL    HW211251   6.889   4.005   7.690 -0.7714  1.5535 -0.5862
 3401SOL     OW11252   5.904   4.585   4.430 -0.5554  0.0563  0.9454
 3401SOL    HW111253   5.860   4.525   4.491  1.3104 -0.3621  1.9853
 3401SOL    HW211254   5.975   4.622   4.482  1.3629 -0.5951 -1.0839
 3402SOL     OW11255   5.475   7.340   0.423  0.3080 -0.0231  0.0552
 3402SOL    HW111256   5.519   7.423   0.441 -0.8876  0.5187  0.5313
 3402SOL    HW211257   5.401   7.338   0.483  0.6037 -1.6814  0.4086
 3403SOL     OW11258   1.204   2.355   7.654 -0.2400 -0.2611 -0.4086
 3403SOL    HW111259   1.201   2.264   7.683  0.8497 -0.6976 -1.5905
 3403SOL    HW211260   1.132   2.362   7.591 -0.7180 -0.1076  0.1353
 3404SOL     OW11261   5.108   2.214   5.235  0.5837 -0.0202  0.0434
 3404SOL    HW111262   5.140   2.290   5.185  1.5459 -0.3402  0.1522
 3404SOL    HW211263   5.187   2.174   5.270  0.2548 -2.0003 -1.3038
 3405SOL     OW11264   0.905   2.349   2.166  0.1296 -0.4321  0.3314
 3405SOL    HW111265   0.969   2.321   2.231 -0.2872 -1.1753  0.4197
 3405SOL    HW211266   0.940   2.316   2.083  1.1668  1.3374  0.0071
 3406SOL     OW11267   8.047   3.328   4.201 -0.4368 -0.0110  0.0451
 3406SOL    HW111268   8.081   3.276   4.128 -2.2855  0.5165 -1.2686
 3406SOL    HW211269   7.977   3.381   4.162 -1.0745  0.7410  2.0920
 3407SOL     OW11270   5.915   0.798   7.220  0.3862 -0.2833  0.4720
 3407SOL    HW111271   5.934   0.862   7.288  1.3328  1.1219 -1.0547
 3407SOL    HW211272   5.998   0.752   7.206  0.7906  0.8630 -1.1387
 3408SOL     OW11273   6.811   5.863   1.500 -0.1021 -0.0778  0.4825
 3408SOL    HW111274   6.797   5.784   1.448 -1.5333  1.4247 -1.5885
 3408SOL    HW211275   6.760   5.848   1.579  2.1041 -2.4228  1.5977
 3409SOL     OW11276   1.129   6.139   6.939  0.4920 -0.6380  0.0853
 3409SOL    HW111277   1.062   6.199   6.906 -0.7922 -2.3145 -0.4748
 3409SOL    HW211278   1.096   6.110   7.024  1.3818 -0.1578  0.6151
 3410SOL     OW11279   3.136   4.073   2.495  0.1944 -1.0505 -0.1341
 3410SOL    HW111280   3.169   4.051   2.408  0.0170 -1.7143 -0.0349
 3410SOL    HW211281   3.210   4.057   2.553  0.0842 -1.3360 -0.0703
 3411SOL     OW11282   2.241   2.480   7.652 -0.4430 -0.0074  0.1657
 3411SOL    HW111283   2.293   2.476   7.572  0.0482  2.0923  0.3146
 3411SOL    HW211284   2.204   2.392   7.661 -1.8130  0.0920 -3.2086
 3412SOL     OW11285   7.392   7.165   4.330  0.3256  0.3540 -0.2080
 3412SOL    HW111286   7.304   7.128   4.326  0.1849  0.6455  0.1697
 3412SOL    HW211287   7.398   7.222   4.254  0.9614 -1.3366 -1.5028
 3413SOL     OW11288   4.854   6.448   6.939 -0.3574  0.4575 -0.0042
 3413SOL    HW111289   4.812   6.503   6.874  0.1886 -0.5533 -1.2522
 3413SOL    HW211290   4.783   6.418   6.995 -0.7710  1.7043  0.1829
 3414SOL     OW11291   5.394   7.880   2.921  0.0493 -0.7478 -0.2311
 3414SOL    HW111292   5.338   7.889   2.997 -0.5297  0.2312 -0.7625
 3414SOL    HW211293   5.476   7.923   2.945 -0.4114  0.2569 -0.4352
 3415SOL     OW11294   3.939   7.173   1.646  0.8407  0.6033  0.3289
 3415SOL    HW111295   3.942   7.079   1.664  1.1562  0.7569  1.0955
 3415SOL    HW211296   3.855   7.185   1.601 -0.3274  0.2836  2.2810
 3416SOL     OW11297   5.745   5.526   1.329 -0.5298  0.8383 -0.0880
 3416SOL    HW111298   5.656   5.522   1.293 -1.9545 -2.9355  3.1252
 3416SOL    HW211299   5.738   5.584   1.404 -0.4650  0.1154  0.4865
 3417SOL     OW11300   2.907   7.165   1.245 -0.0357  0.0989 -0.1452
 3417SOL    HW111301   2.926   7.075   1.269 -1.5686 -0.1070  0.4660
 3417SOL    HW211302   2.835   7.158   1.182 -1.9171  0.9064  1.7728
 3418SOL     OW11303   7.964   0.667   1.184  0.5014  0.4289 -0.7064
 3418SOL    HW111304   7.930   0.700   1.101  0.1559  0.7472 -0.4407
 3418SOL    HW211305   8.022   0.595   1.159  0.4337  0.5501 -1.2252
 3419SOL     OW11306   5.217   2.201   1.528  0.2263  0.9515  0.1828
 3419SOL    HW111307   5.287   2.142   1.500 -1.3474 -0.7860 -0.3302
 3419SOL    HW211308   5.164   2.213   1.449 -0.6186  1.3781  0.7983
 3420SOL     OW11309   6.619   7.555   8.217 -0.2310 -0.0270  0.2655
 3420SOL    HW111310   6.653   7.514   8.296  0.9779 -0.3822 -0.4127
 3420SOL    HW211311   6.534   7.514   8.202 -0.4608  0.0420  1.3637
 3421SOL     OW11312   2.860   6.215   6.218 -0.1015  0.0683 -0.4122
 3421SOL    HW111313   2.864   6.148   6.287 -0.7028 -0.2159 -0.6505
 3421SOL    HW211314   2.855   6.165   6.137 -1.7996  0.3811 -0.5311
 3422SOL     OW11315   5.278   5.897   0.634 -0.0758  0.5620 -0.2589
 3422SOL    HW111316   5.294   5.880   0.727 -2.1814  0.8565  0.2184
 3422SOL    HW211317   5.365   5.907   0.596  0.9741 -2.2099  1.1421
 3423SOL     OW11318   7.290   4.417   3.515 -0.2533 -0.2068  0.3185
 3423SOL    HW111319   7.242   4.442   3.593 -0.2685  0.3595  0.1296
 3423SOL    HW211320   7.228   4.362   3.466 -0.3694 -0.2619  0.5258
 3424SOL     OW11321   5.896   6.511   1.903 -0.1401 -0.4040 -0.1580
 3424SOL    HW111322   5.963   6.541   1.842 -1.1459  1.7637 -0.3061
 3424SOL    HW211323   5.827   6.474   1.848 -0.0927 -0.4496 -0.1862
 3425SOL     OW11324   3.882   6.682   6.351  0.5177  0.4031 -0.1359
 3425SOL    HW111325   3.962   6.630   6.339 -0.0273 -0.5588  0.3309
 3425SOL    HW211326   3.820   6.623   6.393 -2.2354 -0.6003 -4.8532
 3426SOL     OW11327   4.460   0.889   1.779  0.2581 -0.4616  0.4095
 3426SOL    HW111328   4.413   0.972   1.785 -1.6184 -1.4940  0.4511
 3426SOL    HW211329   4.432   0.851   1.696  3.1972  0.1051 -0.9918
 3427SOL     OW11330   2.683   0.458   4.716  0.3630  0.7649  0.1854
 3427SOL    HW111331   2.691   0.378   4.664 -1.3009  0.6665  0.0176
 3427SOL    HW211332   2.769   0.470   4.756  0.9880 -0.4449 -0.7359
 3428SOL     OW11333   4.242   6.139   7.891  0.5259 -0.4520  0.2145
 3428SOL    HW111334   4.336   6.126   7.884  0.7476  1.2081 -0.3444
 3428SOL    HW211335   4.232   6.204   7.961 -0.1851 -0.3491  0.0282
 3429SOL     OW11336   6.741   2.410   2.904 -0.1990 -0.2675 -0.2018
 3429SOL    HW111337   6.708   2.407   2.815 -1.1756 -2.8334  0.1455
 3429SOL    HW211338   6.663   2.420   2.959  0.1659 -0.8121  0.4369
 3430SOL     OW11339   3.346   4.904   5.174 -0.6359  0.4804 -0.0165
 3430SOL    HW111340   3.283   4.916   5.244 -0.9715 -3.0522  0.5068
 3430SOL    HW211341   3.426   4.946   5.205 -0.5802 -1.5025  2.9043
 3431SOL     OW11342   0.261   3.253   5.938  0.0427  0.5545 -0.4464
 3431SOL    HW111343   0.290   3.288   6.023 -0.1401  1.6080 -0.8070
 3431SOL    HW211344   0.190   3.311   5.911 -0.0361  0.1054 -1.2307
 3432SOL     OW11345   1.632   3.861   4.158 -0.6040 -0.6852  0.3792
 3432SOL    HW111346   1.638   3.826   4.247 -1.2265  0.9235  1.0890
 3432SOL    HW211347   1.546   3.903   4.155  0.3567  1.3402 -0.1818
 3433SOL     OW11348   3.269   6.093   5.141 -0.1229 -0.0519  0.7358
 3433SOL    HW111349   3.264   6.014   5.088  0.5703  0.1955  0.2869
 3433SOL    HW211350   3.323   6.153   5.090 -1.1184  0.9422  0.7909
 3434SOL     OW11351   7.165   3.612   7.852 -0.6649  0.3330 -0.1903
 3434SOL    HW111352   7.131   3.612   7.762 -0.6892 -0.7093 -0.1963
 3434SOL    HW211353   7.144   3.699   7.886 -0.3410  0.8678 -1.3099
 3435SOL     OW11354   3.016   6.696   1.193  0.0874  0.2146 -0.7367
 3435SOL    HW111355   2.991   6.647   1.114  1.8349 -0.0427 -1.1917
 3435SOL    HW211356   3.051   6.778   1.159  1.1128 -0.0159 -0.2722
 3436SOL     OW11357   0.678   4.497   7.928 -0.2271 -0.4804  0.0492
 3436SOL    HW111358   0.645   4.511   8.017  0.1423 -1.9367  0.4407
 3436SOL    HW211359   0.669   4.403   7.914  1.6005 -0.5855 -0.6739
 3437SOL     OW11360   6.782   5.181   5.144 -0.8533  0.4215  0.7162
 3437SOL    HW111361   6.798   5.147   5.232 -1.3555  1.8013  1.3714
 3437SOL    HW211362   6.749   5.269   5.158 -0.7226  0.7578 -0.8773
 3438SOL     OW11363   3.646   0.755   3.832 -0.2094  0.4173 -0.2525
 3438SOL    HW111364   3.701   0.799   3.767  0.9940  0.6928  0.9103
 3438SOL    HW211365   3.639   0.818   3.904 -0.1957 -0.4794  0.5491
 3439SOL     OW11366   1.213   6.929   1.210 -0.3741 -0.6135 -0.6878
 3439SOL    HW111367   1.277   6.905   1.277  1.8838 -0.6734 -2.7404
 3439SOL    HW211368   1.142   6.865   1.221  1.8032 -3.2176 -0.8612
 3440SOL     OW11369   0.944   0.775   3.796  0.2388 -0.6165 -1.0327
 3440SOL    HW111370   0.867   0.803   3.746  0.7122  0.8897 -0.9717
 3440SOL    HW211371   1.017   0.825   3.759  0.9990 -1.1873 -0.3586
 3441SOL     OW11372   2.518   7.440   4.404  0.3448 -0.8639 -0.5499
 3441SOL    HW111373   2.602   7.486   4.413  0.3070 -1.1108  1.3407
 3441SOL    HW211374   2.455   7.498   4.446 -0.1344 -1.5064 -0.3846
 3442SOL     OW11375   5.718   7.007   5.884 -0.0781 -0.0194  0.9079
 3442SOL    HW111376   5.737   7.092   5.925 -0.4886  0.3675  0.3072
 3442SOL    HW211377   5.635   6.980   5.924 -1.3118  1.1048 -0.7652
 3443SOL     OW11378   1.453   2.219   0.184 -0.3485 -0.0401  0.7616
 3443SOL    HW111379   1.462   2.267   0.266  0.1888 -0.9070  1.2191
 3443SOL    HW211380   1.501   2.273   0.120  2.1023 -0.9813  1.7020
 3444SOL     OW11381   1.383   3.629   3.377 -0.2618 -0.1169 -0.2988
 3444SOL    HW111382   1.287   3.624   3.369 -0.3203 -1.2896  0.7974
 3444SOL    HW211383   1.400   3.614   3.470  1.0416 -0.9365 -0.6406
 3445SOL     OW11384   0.621   4.962   1.708  0.4029 -0.2253 -0.1147
 3445SOL    HW111385   0.615   5.056   1.725 -0.3939 -0.2103 -0.4021
 3445SOL    HW211386   0.567   4.923   1.777 -0.1592 -0.3847 -0.6323
 3446SOL     OW11387   4.883   2.151   1.061  0.2195  0.2749  0.1696
 3446SOL    HW111388   4.813   2.089   1.042  0.3191  0.3458 -0.4695
 3446SOL    HW211389   4.839   2.225   1.103 -0.0265  0.1366  0.1569
 3447SOL     OW11390   1.376   0.393   1.922  0.4113  0.5714  0.3159
 3447SOL    HW111391   1.423   0.469   1.957 -0.6516  1.0361  0.8074
 3447SOL    HW211392   1.413   0.318   1.968  0.6471  0.9328  0.7269
 3448SOL     OW11393   1.979   7.880   8.066 -0.4003 -0.3853  0.0450
 3448SOL    HW111394   2.066   7.852   8.096 -0.9125 -0.5398  1.4567
 3448SOL    HW211395   1.953   7.814   8.003  0.1900 -0.7477  0.1669
 3449SOL     OW11396   1.542   2.500   6.010  0.0603 -0.3329  0.1584
 3449SOL    HW111397   1.531   2.595   6.000  0.2449 -0.3917 -0.6135
 3449SOL    HW211398   1.539   2.486   6.105 -0.6848  0.3561  0.2505
 3450SOL     OW11399   5.886   3.582   5.105 -0.1344  0.0761  0.8509
 3450SOL    HW111400   5.811   3.522   5.102 -0.6555  0.7114  1.0047
 3450SOL    HW211401   5.920   3.581   5.016  0.4172 -1.1308  1.0486
 3451SOL     OW11402   7.386   2.791   6.242  0.1537 -0.0288 -0.0417
 3451SOL    HW111403   7.383   2.886   6.251  0.3067  0.0151 -0.4212
 3451SOL    HW211404   7.463   2.764   6.291  1.0589  0.2176 -1.2875
 3452SOL     OW11405   7.871   5.639   3.584  0.2039 -0.5749 -0.3415
 3452SOL    HW111406   7.810   5.610   3.516 -0.0331 -0.7512 -0.0531
 3452SOL    HW211407   7.815   5.676   3.652  0.2271 -2.9807  1.0547
 3453SOL     OW11408   4.113   7.330   2.665 -0.4451  0.8470 -0.2456
 3453SOL    HW111409   4.183   7.323   2.730 -1.5194 -0.5325  0.8572
 3453SOL    HW211410   4.052   7.393   2.703 -0.3006  1.2727 -0.7129
 3454SOL     OW11411   0.477   6.168   0.681 -0.0682 -0.0209  0.3212
 3454SOL    HW111412   0.536   6.196   0.612 -1.2965  1.3314 -0.2307
 3454SOL    HW211413   0.535   6.137   0.751  1.2035 -1.2392 -1.1888
 3455SOL     OW11414   0.626   0.934   1.955 -0.0676 -0.3158  0.3798
 3455SOL    HW111415   0.713   0.930   1.914 -1.1600 -1.7973 -2.0123
 3455SOL    HW211416   0.602   1.026   1.950 -0.1041 -0.3925 -2.4299
 3456SOL     OW11417   6.586   1.140   5.964 -0.2774 -0.2059 -0.4633
 3456SOL    HW111418   6.652   1.113   5.900  0.8174  2.3167 -0.5180
 3456SOL    HW211419   6.635   1.156   6.045 -1.1185 -0.0509  0.0339
 3457SOL     OW11420   6.254   0.978   4.255  0.3783  0.2705 -0.0342
 3457SOL    HW111421   6.160   0.968   4.270  0.4938 -2.6404 -0.6403
 3457SOL    HW211422   6.260   1.047   4.188 -1.6024 -1.5280 -2.2308
 3458SOL     OW11423   6.497   2.606   7.066  0.7177 -0.4676 -0.5117
 3458SOL    HW111424   6.491   2.528   7.121 -0.8938 -1.6905 -2.2984
 3458SOL    HW211425   6.448   2.673   7.114 -0.9666 -1.6022 -0.5622
 3459SOL     OW11426   7.570   2.984   1.528 -0.1046  0.2501 -0.5371
 3459SOL    HW111427   7.557   3.071   1.490  1.6235  0.4780 -0.6809
 3459SOL    HW211428   7.643   2.995   1.588 -1.5255 -0.5604  1.4439
 3460SOL     OW11429   6.533   2.977   2.758  0.1347 -0.2744  0.0147
 3460SOL    HW111430   6.449   2.979   2.713 -0.2022  1.1597  0.6450
 3460SOL    HW211431   6.598   2.994   2.689 -0.0917 -1.1279 -0.4252
 3461SOL     OW11432   2.631   1.920   3.174 -0.0870 -0.0103 -0.1599
 3461SOL    HW111433   2.647   1.892   3.265 -0.9347 -1.2045 -0.3695
 3461SOL    HW211434   2.687   1.863   3.121  0.1408  0.4530 -0.4300
 3462SOL     OW11435   4.164   1.883   2.625 -0.2812  0.2932  0.3565
 3462SOL    HW111436   4.194   1.816   2.687 -0.1354 -0.6806 -0.7257
 3462SOL    HW211437   4.090   1.925   2.670  0.3642  0.2194  1.5363
 3463SOL     OW11438   5.814   6.091   5.951  0.1067 -0.2108 -0.1753
 3463SOL    HW111439   5.839   6.174   5.993 -0.4839 -0.5423  0.8798
 3463SOL    HW211440   5.721   6.081   5.972  0.2905 -1.3866  0.1568
 3464SOL     OW11441   1.588   6.200   3.181 -0.3132 -0.5570 -0.0463
 3464SOL    HW111442   1.597   6.106   3.166  0.5703 -0.5515  0.4173
 3464SOL    HW211443   1.504   6.222   3.142 -1.2827 -1.8362  1.1993
 3465SOL     OW11444   7.386   8.254   7.185 -0.2186 -0.3951  0.0345
 3465SOL    HW111445   7.307   8.225   7.231 -1.1431  0.2620 -1.0799
 3465SOL    HW211446   7.445   8.179   7.189 -1.1347 -1.1196  0.3753
 3466SOL     OW11447   4.946   5.848   7.576 -0.6476 -0.1519 -0.5215
 3466SOL    HW111448   4.868   5.805   7.540  0.2752 -1.1483 -1.3645
 3466SOL    HW211449   5.019   5.793   7.550  0.4659  1.2948 -0.6150
 3467SOL     OW11450   3.243   7.017   3.748 -0.2229  0.0505  0.0365
 3467SOL    HW111451   3.283   7.007   3.835 -2.4822 -0.8869  1.0226
 3467SOL    HW211452   3.183   7.091   3.757 -2.6968 -1.8495  0.2293
 3468SOL     OW11453   6.952   4.703   1.562 -0.0113 -0.6502 -0.3003
 3468SOL    HW111454   6.905   4.784   1.581 -0.2459 -0.9019  0.2219
 3468SOL    HW211455   6.887   4.634   1.575  0.0647 -0.8997 -1.1813
 3469SOL     OW11456   4.568   7.105   7.034 -0.7960  0.2955  0.5523
 3469SOL    HW111457   4.616   7.155   7.101 -0.2632  0.2947  0.1798
 3469SOL    HW211458   4.547   7.022   7.076  0.8203 -0.2996  0.2759
 3470SOL     OW11459   6.119   6.203   2.457 -0.0086  0.0177  0.0163
 3470SOL    HW111460   6.184   6.155   2.405  0.6708  1.7695 -0.8176
 3470SOL    HW211461   6.043   6.209   2.400  0.2570  0.7754 -0.2603
 3471SOL     OW11462   1.395   1.205   7.239  0.2001  0.1203  0.2387
 3471SOL    HW111463   1.408   1.219   7.332  1.9888  1.2195 -0.1213
 3471SOL    HW211464   1.482   1.216   7.201 -0.6118  0.3944 -1.6480
 3472SOL     OW11465   7.349   5.954   5.327  0.0180  0.6554  0.2190
 3472SOL    HW111466   7.356   6.047   5.349  0.5599  0.3831  1.2287
 3472SOL    HW211467   7.302   5.954   5.243 -1.3765  1.7647  0.9419
 3473SOL     OW11468   2.251   4.635   4.464  0.0608 -0.2167 -0.0053
 3473SOL    HW111469   2.252   4.542   4.488 -0.9233 -1.0724 -2.8817
 3473SOL    HW211470   2.268   4.635   4.369 -1.2099  2.4582 -0.3057
 3474SOL     OW11471   2.081   2.969   0.909 -0.3264  0.6513  0.1181
 3474SOL    HW111472   2.151   2.952   0.846  1.1653 -0.4747  1.9498
 3474SOL    HW211473   2.005   2.923   0.874  0.3853  0.2689 -0.9869
 3475SOL     OW11474   7.964   5.401   8.116 -0.0348 -0.6102  0.4054
 3475SOL    HW111475   8.019   5.326   8.139 -1.5547 -1.9318 -0.0997
 3475SOL    HW211476   7.879   5.363   8.097 -0.7263  1.2193 -0.3407
 3476SOL     OW11477   2.358   4.553   2.951  0.0085  0.2664  0.7830
 3476SOL    HW111478   2.309   4.582   2.874 -1.1623 -1.1090  0.9564
 3476SOL    HW211479   2.314   4.472   2.978  1.7249 -0.4434  1.6162
 3477SOL     OW11480   2.235   1.844   7.237  0.3881  0.0115  0.0463
 3477SOL    HW111481   2.310   1.820   7.183  0.5746  0.2087  0.2154
 3477SOL    HW211482   2.165   1.785   7.209  0.0812  0.9926 -1.3695
 3478SOL     OW11483   5.878   6.151   0.747 -0.2785 -0.0528 -0.5902
 3478SOL    HW111484   5.836   6.094   0.811 -2.3154  0.2912 -1.5305
 3478SOL    HW211485   5.937   6.094   0.698 -0.6697 -0.8725 -0.1160
 3479SOL     OW11486   0.141   2.137   4.350 -0.0298  0.1473 -0.3561
 3479SOL    HW111487   0.114   2.071   4.414  0.8121  0.1830  0.0482
 3479SOL    HW211488   0.203   2.193   4.397  0.1589  0.5212 -1.0329
 3480SOL     OW11489   2.479   6.654   0.827  0.0043 -0.2695 -0.6553
 3480SOL    HW111490   2.489   6.655   0.732 -2.3850  1.6156 -1.0007
 3480SOL    HW211491   2.486   6.746   0.853  0.1179 -0.6918  0.9291
 3481SOL     OW11492   1.336   0.772   5.247 -0.3489 -0.3696 -0.1571
 3481SOL    HW111493   1.372   0.693   5.208 -0.5889  0.2520 -1.7124
 3481SOL    HW211494   1.260   0.793   5.193 -2.6785 -1.2211  2.5653
 3482SOL     OW11495   8.071   1.514   1.211 -0.7807  0.4061  0.5478
 3482SOL    HW111496   7.975   1.514   1.217 -0.7153  1.0191  2.5036
 3482SOL    HW211497   8.090   1.510   1.118 -2.7107 -0.0329  0.1318
 3483SOL     OW11498   4.368   1.040   7.346  0.2944 -0.3106  0.1268
 3483SOL    HW111499   4.282   1.037   7.388  0.3236  0.3275  0.2414
 3483SOL    HW211500   4.411   0.959   7.373 -1.3146 -2.1020 -2.2225
 3484SOL     OW11501   0.966   5.841   5.450  0.0246  1.1895 -0.1384
 3484SOL    HW111502   0.985   5.809   5.361  0.5805  0.6387  0.1684
 3484SOL    HW211503   0.876   5.873   5.445 -0.8890 -1.1380 -0.3048
 3485SOL     OW11504   2.523   2.973   2.656  0.1166  0.0714 -0.0458
 3485SOL    HW111505   2.463   2.915   2.702 -1.0406  2.2692  1.4257
 3485SOL    HW211506   2.496   2.970   2.564 -2.2452  0.9061  0.5596
 3486SOL     OW11507   5.117   4.344   4.260  0.1290 -0.2761  0.2801
 3486SOL    HW111508   5.041   4.399   4.281  0.7623  0.6666  0.1217
 3486SOL    HW211509   5.080   4.271   4.210 -0.6321  0.3386 -0.0736
 3487SOL     OW11510   0.982   3.393   6.713  0.9420 -0.0045  0.4192
 3487SOL    HW111511   1.013   3.482   6.732  1.1309 -0.0594  0.3673
 3487SOL    HW211512   1.032   3.337   6.771  1.9244 -0.2313 -0.6042
 3488SOL     OW11513   4.863   3.973   6.785  0.0107 -0.2422  0.1000
 3488SOL    HW111514   4.844   4.061   6.819  0.3248 -0.4204  0.7666
 3488SOL    HW211515   4.867   3.918   6.863  1.6143 -0.5106 -0.1375
 3489SOL     OW11516   6.862   4.860   2.439  0.0841  0.5448 -0.0923
 3489SOL    HW111517   6.953   4.878   2.463  0.2833  2.1285 -1.8228
 3489SOL    HW211518   6.868   4.794   2.370 -0.1152  0.4309 -0.0019
 3490SOL     OW11519   1.153   4.630   3.353 -0.4565 -0.0579  0.2229
 3490SOL    HW111520   1.065   4.667   3.341 -0.8367 -0.0001  2.6177
 3490SOL    HW211521   1.210   4.705   3.366 -0.3589 -0.1520  0.3444
 3491SOL     OW11522   5.318   0.975   4.816  0.7197  0.0001 -0.0814
 3491SOL    HW111523   5.234   0.947   4.781  1.0789  0.5280 -1.4355
 3491SOL    HW211524   5.308   1.069   4.832  1.3378  0.2756 -1.2051
 3492SOL     OW11525   6.584   8.074   4.226 -0.3853  0.3518  0.0541
 3492SOL    HW111526   6.671   8.096   4.260  0.5408 -2.3299 -0.3803
 3492SOL    HW211527   6.572   8.133   4.152  2.2510 -0.8475 -1.4878
 3493SOL     OW11528   0.407   4.225   7.634  0.5891  0.0603  0.1943
 3493SOL    HW111529   0.315   4.199   7.627  0.6761 -0.7801  1.8188
 3493SOL    HW211530   0.408   4.317   7.604 -0.8633  0.2538  0.6601
 3494SOL     OW11531   4.873   1.746   2.621  0.1620 -0.1208 -0.3520
 3494SOL    HW111532   4.948   1.801   2.599  2.1763 -1.5272  2.4151
 3494SOL    HW211533   4.878   1.673   2.559  0.2985  0.3892 -0.9579
 3495SOL     OW11534   4.353   3.604   0.867 -0.0208  0.0880  0.5091
 3495SOL    HW111535   4.284   3.590   0.932 -1.4421  0.8469 -0.7410
 3495SOL    HW211536   4.357   3.699   0.857  0.8352  0.0219  0.1653
 3496SOL     OW11537   2.957   2.407   0.780 -0.0914  0.2736 -0.0769
 3496SOL    HW111538   2.993   2.322   0.805  0.6393  0.8932  1.0643
 3496SOL    HW211539   2.882   2.386   0.723 -0.6571 -1.1563  1.1347
 3497SOL     OW11540   2.881   1.612   7.069  0.5421 -0.4532 -0.0959
 3497SOL    HW111541   2.833   1.534   7.042  0.5320 -0.0925 -1.1692
 3497SOL    HW211542   2.945   1.626   7.000 -0.5937  1.4671 -0.8514
 3498SOL     OW11543   7.812   3.676   3.903 -0.4200 -0.0494 -0.2118
 3498SOL    HW111544   7.832   3.594   3.859 -0.6646 -1.2083  1.6992
 3498SOL    HW211545   7.811   3.742   3.834  0.3916 -1.5475 -1.7034
 3499SOL     OW11546   1.678   3.249   6.041  0.5061  0.3257 -0.3542
 3499SOL    HW111547   1.731   3.179   6.078  0.2117  1.3517  2.2555
 3499SOL    HW211548   1.588   3.227   6.065  0.1512  0.5000 -1.4536
 3500SOL     OW11549   2.605   1.433   0.234 -0.0027 -0.3875 -0.0298
 3500SOL    HW111550   2.543   1.478   0.177 -0.4625 -0.8647  0.0895
 3500SOL    HW211551   2.658   1.504   0.272 -0.6726  0.0488  0.1086
 3501SOL     OW11552   4.019   1.387   4.760  0.3310  0.2765  0.4994
 3501SOL    HW111553   3.990   1.343   4.840 -0.8691  0.8220  0.3797
 3501SOL    HW211554   4.071   1.321   4.714 -1.5052 -1.0803  0.2665
 3502SOL     OW11555   1.259   3.625   1.714  0.0056  0.7519 -0.2316
 3502SOL    HW111556   1.298   3.582   1.637  2.7120  2.9107 -0.2173
 3502SOL    HW211557   1.165   3.626   1.696  0.4804  0.5873 -3.2217
 3503SOL     OW11558   5.301   2.305   2.768 -0.3176  0.1295  0.0725
 3503SOL    HW111559   5.373   2.269   2.820 -1.6047 -0.1837  1.7267
 3503SOL    HW211560   5.344   2.349   2.695  1.5931  0.4966  1.3354
 3504SOL     OW11561   3.937   7.165   2.832  0.4445 -0.5339 -0.1500
 3504SOL    HW111562   3.960   7.101   2.764 -1.1170  0.1450 -1.3823
 3504SOL    HW211563   3.896   7.237   2.784  0.4416  0.5403  1.4041
 3505SOL     OW11564   0.415   4.665   2.066 -0.6798  0.3265 -0.0451
 3505SOL    HW111565   0.443   4.603   2.134 -2.2969  0.3158  0.6438
 3505SOL    HW211566   0.326   4.688   2.090 -0.9337  1.1005 -1.6368
 3506SOL     OW11567   1.157   1.916   6.347  0.8783  0.1135  0.0160
 3506SOL    HW111568   1.097   1.942   6.417 -1.2618 -2.1864 -0.8012
 3506SOL    HW211569   1.231   1.875   6.392  1.2345  1.7154  0.9819
 3507SOL     OW11570   6.388   1.183   7.817  0.6874  0.7960 -0.1590
 3507SOL    HW111571   6.442   1.243   7.766  2.5314  0.6465  1.4889
 3507SOL    HW211572   6.447   1.110   7.838 -0.0175  0.7923  2.0156
 3508SOL     OW11573   5.034   1.139   2.241  0.0959  0.0509 -0.4198
 3508SOL    HW111574   5.116   1.098   2.268 -0.1350 -0.2647 -0.1836
 3508SOL    HW211575   5.055   1.231   2.228  0.1371  0.2905  1.2205
 3509SOL     OW11576   6.211   7.454   4.797  0.0909 -0.3689 -0.0997
 3509SOL    HW111577   6.173   7.392   4.859  1.9663 -0.1181  1.3821
 3509SOL    HW211578   6.302   7.463   4.824  0.2289  2.0400 -1.0819
 3510SOL     OW11579   6.589   1.315   6.650  0.4522 -0.4185  0.4476
 3510SOL    HW111580   6.608   1.398   6.694  1.9641 -1.6111  2.1941
 3510SOL    HW211581   6.572   1.253   6.721 -0.4514 -1.6831 -0.8060
 3511SOL     OW11582   4.957   3.267   8.134 -0.3191 -0.5327 -0.1464
 3511SOL    HW111583   5.038   3.301   8.171 -0.2664  0.9956 -1.5620
 3511SOL    HW211584   4.985   3.204   8.068 -0.2756 -0.1018 -0.5440
 3512SOL     OW11585   1.452   6.720   3.127  0.1788 -0.1120 -0.0660
 3512SOL    HW111586   1.364   6.721   3.166 -0.1300 -1.6031 -0.6485
 3512SOL    HW211587   1.441   6.759   3.041 -0.0440 -0.8152 -0.3629
 3513SOL     OW11588   0.909   7.680   0.439 -0.3190  0.2082  0.1080
 3513SOL    HW111589   0.973   7.614   0.412 -1.2057  0.0514 -1.7802
 3513SOL    HW211590   0.918   7.750   0.375 -3.0258 -0.4912 -1.2133
 3514SOL     OW11591   3.954   2.781   0.833  0.0071 -0.0279 -0.7028
 3514SOL    HW111592   3.954   2.790   0.929  0.6428  0.3099 -0.7253
 3514SOL    HW211593   4.006   2.855   0.803  2.1187 -1.5857 -1.1509
 3515SOL     OW11594   6.396   0.541   4.838  0.9270 -0.0238 -0.1122
 3515SOL    HW111595   6.395   0.594   4.758 -0.4628 -2.1138 -1.6147
 3515SOL    HW211596   6.329   0.581   4.894  1.2304  0.8972 -0.3842
 3516SOL     OW11597   6.067   0.105   5.784 -0.0715  0.5310 -0.2056
 3516SOL    HW111598   6.042   0.130   5.873  0.2203 -0.6660  0.2357
 3516SOL    HW211599   6.143   0.160   5.764  0.3269  0.2819  0.5842
 3517SOL     OW11600   3.617   0.541   3.582  0.2523  0.0449  0.5053
 3517SOL    HW111601   3.529   0.571   3.604 -0.5260 -1.2804 -0.6537
 3517SOL    HW211602   3.666   0.552   3.663 -1.2159 -0.0353  1.4511
 3518SOL     OW11603   1.455   4.005   2.539 -0.4392 -0.2485 -0.3854
 3518SOL    HW111604   1.386   3.941   2.556  1.1635 -2.4472 -1.5647
 3518SOL    HW211605   1.412   4.075   2.492 -2.1673 -0.7335  0.3974
 3519SOL     OW11606   6.770   2.101   4.280  0.4951 -0.2186  0.0875
 3519SOL    HW111607   6.763   2.033   4.213 -0.0585 -0.5514  0.4699
 3519SOL    HW211608   6.681   2.107   4.317  0.5960  0.5545  0.2104
 3520SOL     OW11609   6.533   5.410   6.388 -0.2184  0.0685  0.4556
 3520SOL    HW111610   6.524   5.354   6.310  2.5950 -0.1647  0.1829
 3520SOL    HW211611   6.482   5.488   6.367 -1.4352 -0.9588 -0.6117
 3521SOL     OW11612   1.319   1.572   5.768 -0.2741 -0.4635  0.9188
 3521SOL    HW111613   1.282   1.552   5.682  1.5695 -0.8739  0.1756
 3521SOL    HW211614   1.305   1.666   5.779 -0.1568 -0.3326 -0.0179
 3522SOL     OW11615   4.137   1.597   1.432  0.6852 -0.3597  0.2542
 3522SOL    HW111616   4.080   1.667   1.463 -1.9230 -1.3614 -1.8786
 3522SOL    HW211617   4.153   1.618   1.340  1.6739 -1.4473  0.1536
 3523SOL     OW11618   6.368   3.778   3.472 -0.1041  0.2918 -0.1181
 3523SOL    HW111619   6.379   3.831   3.551 -2.0487 -0.7995  0.9693
 3523SOL    HW211620   6.456   3.768   3.438  0.9477  0.0725  2.4294
 3524SOL     OW11621   7.994   4.917   1.043  0.0700 -0.4085 -0.0870
 3524SOL    HW111622   8.014   4.948   0.954 -0.3071  0.0158 -0.0241
 3524SOL    HW211623   8.062   4.852   1.061 -0.2596 -1.0222 -0.9646
 3525SOL     OW11624   5.264   2.532   0.285  0.2989 -0.1295  0.6221
 3525SOL    HW111625   5.298   2.560   0.370  0.1150  0.5604  0.4770
 3525SOL    HW211626   5.299   2.595   0.222 -1.0850  0.5068  0.4455
 3526SOL     OW11627   2.023   4.255   7.132 -0.0451 -0.3389 -0.8481
 3526SOL    HW111628   2.086   4.319   7.165 -1.0380 -0.9322  2.5623
 3526SOL    HW211629   2.051   4.172   7.170 -2.6751 -0.6540  0.6370
 3527SOL     OW11630   7.444   4.409   0.355 -0.2053  0.2368 -0.6124
 3527SOL    HW111631   7.517   4.349   0.373 -1.1372 -2.0419 -3.6426
 3527SOL    HW211632   7.435   4.459   0.436  0.9300 -3.4230  2.0936
 3528SOL     OW11633   3.729   0.090   0.214  0.7650  0.5131 -0.0792
 3528SOL    HW111634   3.701   0.130   0.297 -2.2731  0.5698 -0.9896
 3528SOL    HW211635   3.725  -0.004   0.231  0.6606  0.5303  0.0008
 3529SOL     OW11636   7.631   7.048   2.775 -0.2995  0.0846  0.8032
 3529SOL    HW111637   7.702   7.110   2.756 -0.6682  0.0923 -0.7444
 3529SOL    HW211638   7.602   7.070   2.863  1.4813  0.2071  1.3889
 3530SOL     OW11639   2.099   6.595   4.183  0.1881  0.1710  0.4138
 3530SOL    HW111640   2.172   6.535   4.166  1.4650  1.9490 -0.6083
 3530SOL    HW211641   2.134   6.659   4.245 -1.0485  0.0953  1.2277
 3531SOL     OW11642   1.797   3.330   4.487  0.2364 -0.3410 -0.0175
 3531SOL    HW111643   1.729   3.265   4.468  0.2551 -0.0497 -1.1424
 3531SOL    HW211644   1.878   3.288   4.459  0.4208 -0.3504  0.5187
 3532SOL     OW11645   6.356   2.363   7.537 -0.2666 -0.4568 -0.4152
 3532SOL    HW111646   6.425   2.425   7.516 -0.7310 -0.1049 -0.9268
 3532SOL    HW211647   6.398   2.298   7.594  0.3411  0.0547 -0.2750
 3533SOL     OW11648   8.111   5.425   2.048  1.0202  0.6053 -0.2567
 3533SOL    HW111649   8.054   5.371   1.994 -1.8418  1.7227  1.3898
 3533SOL    HW211650   8.076   5.416   2.137  3.0140  1.9377  0.7635
 3534SOL     OW11651   6.368   2.821   3.960 -0.0771 -0.0237 -0.1695
 3534SOL    HW111652   6.429   2.781   4.022  0.0830  0.9262  0.3106
 3534SOL    HW211653   6.309   2.873   4.014 -0.6905 -0.1442 -0.7181
 3535SOL     OW11654   7.037   6.044   5.628 -0.2625  0.4747  0.4816
 3535SOL    HW111655   7.020   6.009   5.715 -1.3047  2.3521  1.0974
 3535SOL    HW211656   7.063   5.968   5.576 -2.2065 -1.1738  1.7546
 3536SOL     OW11657   7.886   3.522   0.077  0.1675  0.1022 -0.0258
 3536SOL    HW111658   7.887   3.504  -0.016 -1.6681 -0.3009  0.0059
 3536SOL    HW211659   7.954   3.589   0.089  0.2785  0.3193 -1.6634
 3537SOL     OW11660   1.366   3.225   5.147 -0.5109 -0.1393  0.0652
 3537SOL    HW111661   1.411   3.300   5.109  0.9864 -0.9110  0.2507
 3537SOL    HW211662   1.318   3.186   5.073  0.2039 -0.0664 -0.4413
 3538SOL     OW11663   0.333   8.247   7.269  0.2546 -0.3572  0.1637
 3538SOL    HW111664   0.353   8.307   7.340  0.2436 -0.9505  0.6784
 3538SOL    HW211665   0.267   8.292   7.217 -0.1207 -0.1315  0.8253
 3539SOL     OW11666   5.299   0.887   0.647 -0.3781 -0.2146 -0.7497
 3539SOL    HW111667   5.372   0.869   0.706  0.3078 -0.9387 -1.7718
 3539SOL    HW211668   5.261   0.969   0.679 -1.1170 -1.4185  1.7130
 3540SOL     OW11669   8.229   7.960   0.833 -0.3371  0.0777  0.1679
 3540SOL    HW111670   8.185   7.985   0.751 -0.5937  2.6378  0.9867
 3540SOL    HW211671   8.304   8.019   0.839  1.1001 -1.6912  0.6601
 3541SOL     OW11672   8.153   5.901   0.962  0.0663  0.2316 -0.1940
 3541SOL    HW111673   8.188   5.904   0.873 -0.5305  1.6892 -0.4150
 3541SOL    HW211674   8.109   5.817   0.968  0.3270  0.0118 -1.1937
 3542SOL     OW11675   7.834   0.243   4.547 -0.4835  0.4978  0.3374
 3542SOL    HW111676   7.763   0.209   4.601 -0.4820  0.0293  0.0561
 3542SOL    HW211677   7.794   0.256   4.461 -0.1261 -0.1973  0.0579
 3543SOL     OW11678   8.124   3.359   2.462 -0.0257 -0.1261 -0.3517
 3543SOL    HW111679   8.060   3.356   2.391  0.1726  0.6358 -0.5714
 3543SOL    HW211680   8.136   3.267   2.487  0.0923 -0.4326 -1.4804
 3544SOL     OW11681   4.596   7.596   4.315 -0.2886 -0.3956 -0.5349
 3544SOL    HW111682   4.565   7.507   4.299 -0.8828 -0.0345 -1.4763
 3544SOL    HW211683   4.627   7.626   4.230 -0.2172  0.3400 -0.2554
 3545SOL     OW11684   7.981   6.794   4.618  0.2554 -0.1064 -0.4705
 3545SOL    HW111685   7.900   6.826   4.578  0.2151  0.7863  0.3055
 3545SOL    HW211686   8.003   6.859   4.684 -0.2326 -2.0509  1.7312
 3546SOL     OW11687   7.113   0.025   0.760  0.4036 -0.2320  0.0335
 3546SOL    HW111688   7.191  -0.026   0.740  0.4088 -0.1269 -0.2278
 3546SOL    HW211689   7.123   0.105   0.708  1.1901  0.7724  1.6633
 3547SOL     OW11690   5.169   4.902   4.296 -0.2161 -0.2543 -0.2529
 3547SOL    HW111691   5.118   4.864   4.225  0.3313 -0.0600 -0.7633
 3547SOL    HW211692   5.105   4.935   4.358 -0.7156 -1.7700  0.0803
 3548SOL     OW11693   2.766   0.663   1.306 -0.5625 -0.8149  0.3902
 3548SOL    HW111694   2.745   0.688   1.216  1.7745  1.5243  0.3594
 3548SOL    HW211695   2.814   0.581   1.299  1.8137  0.5900 -0.8545
 3549SOL     OW11696   4.927   2.634   3.583  0.0064  0.3554 -0.6640
 3549SOL    HW111697   4.860   2.696   3.610  0.9819  1.4641 -0.6868
 3549SOL    HW211698   4.968   2.606   3.665  0.6048  0.9569 -0.7556
 3550SOL     OW11699   7.838   5.888   2.505 -0.3020  0.1113 -0.1265
 3550SOL    HW111700   7.801   5.971   2.475 -0.2496 -0.1001 -0.7967
 3550SOL    HW211701   7.792   5.869   2.586  0.5800  1.4281  0.7172
 3551SOL     OW11702   4.412   0.500   1.953  0.3467  0.8514 -0.1111
 3551SOL    HW111703   4.504   0.505   1.927  0.1384  0.5110 -0.9450
 3551SOL    HW211704   4.387   0.590   1.973  1.2449  0.7698  1.5319
 3552SOL     OW11705   4.525   0.225   1.947  0.5875  0.3184  0.4708
 3552SOL    HW111706   4.459   0.155   1.949  1.1920 -0.2595  0.7265
 3552SOL    HW211707   4.496   0.288   2.013  0.3104  0.0495  0.6079
 3553SOL     OW11708   7.900   4.460   3.801 -0.2676 -0.4964 -0.1771
 3553SOL    HW111709   7.991   4.484   3.780  0.0857 -0.2049  1.5138
 3553SOL    HW211710   7.887   4.375   3.759  0.4859 -0.1252 -1.1962
 3554SOL     OW11711   2.456   4.660   1.976 -0.7180  0.3526  0.2714
 3554SOL    HW111712   2.496   4.746   1.986 -0.6341  0.4583 -0.8002
 3554SOL    HW211713   2.512   4.616   1.911  0.2115 -1.1324  1.9907
 3555SOL     OW11714   1.966   6.339   7.771 -0.0749  0.4639 -0.0621
 3555SOL    HW111715   1.913   6.310   7.846 -0.3238  1.1176  0.0215
 3555SOL    HW211716   1.917   6.310   7.694  0.2670 -0.3626  0.0155
 3556SOL     OW11717   5.499   7.783   4.534 -0.2646  0.0931  0.3842
 3556SOL    HW111718   5.472   7.696   4.503  1.6876 -0.6961  0.7777
 3556SOL    HW211719   5.594   7.776   4.545 -0.3615  1.5097  2.8230
 3557SOL     OW11720   3.221   4.566   7.625 -0.1229  1.0493  0.6692
 3557SOL    HW111721   3.201   4.658   7.605  0.4675  0.9425 -0.4369
 3557SOL    HW211722   3.316   4.565   7.640  0.1036  0.3839 -0.7055
 3558SOL     OW11723   5.216   1.517   2.608  0.2206 -0.1444 -0.1837
 3558SOL    HW111724   5.249   1.606   2.600 -0.0637  0.0372  0.5802
 3558SOL    HW211725   5.236   1.476   2.524  1.1847  0.3579 -0.2131
 3559SOL     OW11726   4.607   5.250   4.384 -0.0228  0.1031  0.3222
 3559SOL    HW111727   4.681   5.284   4.333  0.6566  0.1822  1.3263
 3559SOL    HW211728   4.596   5.160   4.355  0.4874  0.0842  0.1844
 3560SOL     OW11729   0.883   2.595   0.841  0.6439  0.2570  0.0093
 3560SOL    HW111730   0.804   2.615   0.893 -0.6423 -0.8462 -1.4225
 3560SOL    HW211731   0.908   2.507   0.870  0.9212  0.3189 -0.0491
 3561SOL     OW11732   5.657   4.685   6.794 -0.6227 -0.0302  0.2705
 3561SOL    HW111733   5.693   4.748   6.857 -1.0954 -0.6198  1.1644
 3561SOL    HW211734   5.706   4.701   6.714 -0.7140  1.4537  0.4746
 3562SOL     OW11735   0.697   5.623   3.233  0.2818 -0.4468 -0.0771
 3562SOL    HW111736   0.622   5.620   3.174  0.7344  0.5858 -0.7295
 3562SOL    HW211737   0.719   5.716   3.238  0.5121 -0.5574  1.3962
 3563SOL     OW11738   4.477   3.804   2.832 -0.5597 -0.0197  0.3245
 3563SOL    HW111739   4.482   3.720   2.877  1.0158 -0.2722 -0.2832
 3563SOL    HW211740   4.455   3.781   2.742 -0.9679  0.3010  0.3358
 3564SOL     OW11741   4.157   6.026   1.643  0.5191  0.0642 -0.4972
 3564SOL    HW111742   4.233   6.025   1.585  0.4056  1.1815 -0.6895
 3564SOL    HW211743   4.194   6.017   1.731  1.1730  3.1694 -0.3415
 3565SOL     OW11744   5.496   5.431   1.361  0.2897  0.1768 -0.1148
 3565SOL    HW111745   5.482   5.517   1.321 -0.1407 -1.0030 -2.6722
 3565SOL    HW211746   5.460   5.440   1.450 -1.7722  2.0038 -1.0372
 3566SOL     OW11747   0.750   5.766   7.769  0.0701 -0.1294  0.0112
 3566SOL    HW111748   0.822   5.711   7.798 -1.0937 -1.6670  0.0918
 3566SOL    HW211749   0.749   5.840   7.831  1.9372  0.2668 -0.3823
 3567SOL     OW11750   7.757   0.415   1.613  0.6538  0.1665  0.2492
 3567SOL    HW111751   7.775   0.470   1.689 -0.0787 -0.2265  0.7128
 3567SOL    HW211752   7.700   0.346   1.645 -0.3121  0.4391 -0.8126
 3568SOL     OW11753   1.469   5.113   8.015 -0.7260  0.0637 -0.1536
 3568SOL    HW111754   1.523   5.038   7.989 -0.6977 -0.1750  0.5666
 3568SOL    HW211755   1.488   5.180   7.949 -1.2120 -0.7530 -1.1585
 3569SOL     OW11756   3.748   0.791   5.836 -0.0839 -0.2531 -0.0738
 3569SOL    HW111757   3.840   0.763   5.834  0.0244  0.1156 -0.3607
 3569SOL    HW211758   3.743   0.862   5.771 -0.3078  0.5334  0.7852
 3570SOL     OW11759   0.783   0.089   0.071 -0.4946  0.5959 -0.5130
 3570SOL    HW111760   0.809   0.078  -0.020 -0.0350 -2.9679 -0.0909
 3570SOL    HW211761   0.838   0.027   0.120 -1.5930  1.4632  2.0126
 3571SOL     OW11762   6.217   6.817   6.985  0.0190 -0.0475 -0.6308
 3571SOL    HW111763   6.137   6.817   6.933  0.8669 -0.1635 -1.9865
 3571SOL    HW211764   6.212   6.897   7.036 -0.0990  0.9541 -2.1322
 3572SOL     OW11765   6.124   1.081   6.991 -0.1287 -0.1943 -0.4150
 3572SOL    HW111766   6.217   1.096   6.974 -0.3300  0.4214 -1.0362
 3572SOL    HW211767   6.088   1.057   6.906 -0.6250  0.0472 -0.2784
 3573SOL     OW11768   2.405   5.422   7.010  1.0646  0.2948 -0.3448
 3573SOL    HW111769   2.402   5.445   7.103  0.1416 -1.7635  0.1929
 3573SOL    HW211770   2.441   5.500   6.967  1.9836  1.1197  1.7791
 3574SOL     OW11771   2.187   1.268   6.649 -0.5154  0.6239  0.2977
 3574SOL    HW111772   2.162   1.177   6.667 -0.2436  0.7352  1.2884
 3574SOL    HW211773   2.128   1.295   6.579 -1.0701 -0.1004  0.4709
 3575SOL     OW11774   4.890   7.151   3.735 -0.0777 -0.2198  0.2791
 3575SOL    HW111775   4.836   7.085   3.779 -0.3623 -0.1565  0.0255
 3575SOL    HW211776   4.949   7.100   3.680  0.3506 -0.3056  0.8047
 3576SOL     OW11777   0.696   3.678   0.876 -0.1584 -0.1041 -0.3509
 3576SOL    HW111778   0.738   3.632   0.804  0.1539  0.5686 -0.5989
 3576SOL    HW211779   0.669   3.608   0.936  1.5941 -0.5630 -0.0186
 3577SOL     OW11780   2.764   4.793   1.548 -0.0219  0.9291 -0.4446
 3577SOL    HW111781   2.853   4.828   1.538 -0.7186  2.7862 -0.5053
 3577SOL    HW211782   2.762   4.716   1.491  1.6418  0.6560 -0.1776
 3578SOL     OW11783   1.881   3.395   3.511 -0.3876  0.3419  0.3035
 3578SOL    HW111784   1.959   3.449   3.505  1.1965 -1.4738  2.5836
 3578SOL    HW211785   1.817   3.449   3.556 -0.6916  1.9859 -1.9327
 3579SOL     OW11786   6.551   7.619   6.793  0.0819  0.1210 -0.2567
 3579SOL    HW111787   6.489   7.551   6.766  0.4541 -1.1211  1.8185
 3579SOL    HW211788   6.539   7.627   6.888  1.1937  1.8261 -0.2065
 3580SOL     OW11789   2.252   2.632   0.107 -0.0059 -0.1178 -0.2839
 3580SOL    HW111790   2.298   2.697   0.160  0.0900 -0.2072 -0.2595
 3580SOL    HW211791   2.249   2.670   0.019  1.6153 -0.8717 -0.6861
 3581SOL     OW11792   5.380   1.277   8.274 -0.2857 -0.5224  0.4063
 3581SOL    HW111793   5.418   1.217   8.209  0.9154  1.0014 -0.3718
 3581SOL    HW211794   5.286   1.277   8.254 -0.2535 -1.8013  0.1558
 3582SOL     OW11795   2.929   7.417   1.148 -0.1634  0.2473 -0.0293
 3582SOL    HW111796   2.840   7.442   1.172 -0.3165 -1.7653  1.8181
 3582SOL    HW211797   2.944   7.334   1.194  2.9639  0.9295  0.4212
 3583SOL     OW11798   2.057   1.951   0.483  0.0614 -0.0206  0.1485
 3583SOL    HW111799   2.030   1.991   0.401 -3.3677 -0.8441  0.7060
 3583SOL    HW211800   2.057   2.023   0.546 -3.0073 -0.1858  0.4953
 3584SOL     OW11801   3.234   5.460   6.243  0.0842 -0.7103 -0.3256
 3584SOL    HW111802   3.310   5.512   6.217 -0.6708  1.2845  1.1864
 3584SOL    HW211803   3.174   5.524   6.283 -2.0137 -2.3567 -0.6841
 3585SOL     OW11804   2.216   6.879   7.077 -0.1619  0.1608  0.0770
 3585SOL    HW111805   2.181   6.798   7.114 -1.0189  0.5683  0.1948
 3585SOL    HW211806   2.139   6.928   7.049  0.1535  1.9344  2.0683
 3586SOL     OW11807   4.898   7.878   6.704 -0.3854  1.3049  0.0127
 3586SOL    HW111808   4.841   7.856   6.630 -0.9884 -0.3266  0.9161
 3586SOL    HW211809   4.986   7.861   6.671 -0.7273 -0.8309  0.0681
 3587SOL     OW11810   4.394   6.403   1.227  0.1258  0.5384 -0.2130
 3587SOL    HW111811   4.472   6.389   1.280  0.9124  0.3430 -1.3847
 3587SOL    HW211812   4.408   6.349   1.149 -3.3262 -3.4613  1.5196
 3588SOL     OW11813   2.377   6.911   6.509  0.1088 -0.2441 -0.0127
 3588SOL    HW111814   2.305   6.857   6.542 -2.1750  3.0407  0.8739
 3588SOL    HW211815   2.417   6.948   6.588  0.4841  0.6953 -0.6372
 3589SOL     OW11816   5.178   3.242   7.091 -0.1722 -0.4242 -0.1091
 3589SOL    HW111817   5.259   3.291   7.074 -0.2082  0.0262  0.9297
 3589SOL    HW211818   5.199   3.153   7.065  1.1271 -0.5982  1.3494
 3590SOL     OW11819   4.302   0.831   4.933  0.1166  0.8111  0.6944
 3590SOL    HW111820   4.386   0.785   4.929 -0.8431 -1.0658  0.8019
 3590SOL    HW211821   4.269   0.826   4.843  0.2151  1.7604  0.6001
 3591SOL     OW11822   0.389   1.362   0.887 -0.3987  0.0767  0.3304
 3591SOL    HW111823   0.469   1.377   0.837  0.5421  0.7248  1.9649
 3591SOL    HW211824   0.326   1.329   0.822  1.2812 -0.8333 -0.9267
 3592SOL     OW11825   8.087   6.891   0.075 -0.4215 -0.3408  0.1473
 3592SOL    HW111826   8.098   6.930   0.161 -1.1707  0.9200 -0.3041
 3592SOL    HW211827   8.156   6.825   0.069 -0.3579 -0.4456  1.7006
 3593SOL     OW11828   5.965   7.102   1.133  0.2217 -0.2489 -0.2676
 3593SOL    HW111829   5.954   7.008   1.147 -1.5194 -0.2519 -1.2905
 3593SOL    HW211830   6.045   7.110   1.081  0.2391 -1.1990 -0.4051
 3594SOL     OW11831   0.574   8.186   1.432 -0.1658  0.2793 -0.2565
 3594SOL    HW111832   0.620   8.174   1.349 -1.0849  1.5438 -0.9799
 3594SOL    HW211833   0.487   8.150   1.416 -0.5079  0.9881 -0.0120
 3595SOL     OW11834   7.043   4.243   0.062  0.5478  0.3239  0.2182
 3595SOL    HW111835   7.121   4.276   0.107  0.6509  0.1074  0.1980
 3595SOL    HW211836   7.066   4.154   0.035  0.1605  0.1222  0.5439
 3596SOL     OW11837   7.088   2.673   0.569 -0.2018 -0.7593  0.2945
 3596SOL    HW111838   7.100   2.768   0.577  0.8786 -0.6685 -1.7372
 3596SOL    HW211839   7.066   2.660   0.477 -2.7143 -2.3104  1.0301
 3597SOL     OW11840   4.272   3.760   5.101  0.2175  0.2341 -0.0515
 3597SOL    HW111841   4.229   3.809   5.031 -0.3892  0.3218  0.3708
 3597SOL    HW211842   4.316   3.827   5.154  0.2518  0.2202 -0.0627
 3598SOL     OW11843   0.319   7.735   3.232 -0.0971  0.0989 -0.3997
 3598SOL    HW111844   0.373   7.656   3.238  0.0391  0.2245  0.0139
 3598SOL    HW211845   0.331   7.779   3.316 -0.3912  0.4205 -0.5254
 3599SOL     OW11846   2.526   2.968   1.207  0.3094 -0.1681 -0.1765
 3599SOL    HW111847   2.618   2.942   1.220 -0.3499 -2.7285 -0.1411
 3599SOL    HW211848   2.514   2.965   1.112  0.6587  1.9112 -0.3434
 3600SOL     OW11849   2.064   2.966   5.901 -0.0564  0.3346 -0.4591
 3600SOL    HW111850   2.114   3.010   5.971 -2.0233  1.1987  0.4916
 3600SOL    HW211851   2.027   3.038   5.850  0.5272 -0.2946 -1.8210
 3601SOL     OW11852   7.072   6.907   3.905 -0.0716  0.3254  0.3994
 3601SOL    HW111853   7.089   6.834   3.964  1.1614 -0.5069 -0.9101
 3601SOL    HW211854   7.136   6.974   3.930  1.9548 -0.8497 -1.2576
 3602SOL     OW11855   7.451   4.845   6.912 -0.1225 -0.3463  0.3255
 3602SOL    HW111856   7.462   4.763   6.864 -1.9472 -0.1963 -0.4187
 3602SOL    HW211857   7.357   4.864   6.907  0.1757  1.5097  0.9305
 3603SOL     OW11858   7.498   6.126   6.531 -0.4609  0.2908 -0.8505
 3603SOL    HW111859   7.574   6.098   6.481 -1.2755 -0.0870 -1.9212
 3603SOL    HW211860   7.442   6.048   6.536 -0.8263  0.5865 -0.1771
 3604SOL     OW11861   4.272   2.094   5.324  0.0313 -0.6143 -0.6465
 3604SOL    HW111862   4.246   2.016   5.274  0.8073 -0.2394 -1.6759
 3604SOL    HW211863   4.366   2.101   5.308  0.5757 -1.2017  1.9175
 3605SOL     OW11864   2.385   2.513   3.832  1.1854 -0.3762 -0.3400
 3605SOL    HW111865   2.323   2.581   3.859  1.6836 -0.3084  0.6703
 3605SOL    HW211866   2.467   2.560   3.815  1.2901 -0.6145 -0.5038
 3606SOL     OW11867   6.789   8.152   2.263  0.0338 -0.5901  0.4466
 3606SOL    HW111868   6.864   8.184   2.213 -0.1339 -0.2711  0.3959
 3606SOL    HW211869   6.718   8.214   2.243  0.1933  0.0618  1.7539
 3607SOL     OW11870   6.731   2.737   7.005  0.0438  0.5405  0.4155
 3607SOL    HW111871   6.715   2.765   6.915  0.4137 -1.8722 -0.4781
 3607SOL    HW211872   6.645   2.708   7.036  0.1707  0.0867  0.3458
 3608SOL     OW11873   5.456   6.597   8.271  0.4699 -0.2415  0.2977
 3608SOL    HW111874   5.374   6.626   8.231  1.2093  1.4897 -0.0606
 3608SOL    HW211875   5.449   6.626   8.362 -1.1798 -4.1062  1.5956
 3609SOL     OW11876   2.592   4.239   4.651  0.4586  0.0704 -0.0834
 3609SOL    HW111877   2.610   4.255   4.558  1.9446  1.4230  0.3794
 3609SOL    HW211878   2.638   4.158   4.671  3.1327  1.5159  0.1780
 3610SOL     OW11879   1.567   2.901   2.945 -0.1920 -0.0026 -0.8156
 3610SOL    HW111880   1.487   2.870   2.987  0.0899 -0.2934 -0.4986
 3610SOL    HW211881   1.554   2.995   2.936  0.5164  0.3837  1.6057
 3611SOL     OW11882   7.380   0.089   3.255 -0.4447  0.7671 -0.2028
 3611SOL    HW111883   7.436   0.121   3.325 -0.1319  0.1603 -0.1678
 3611SOL    HW211884   7.301   0.058   3.299  0.0100 -0.2023 -0.0350
 3612SOL     OW11885   0.666   7.252   6.998  0.0080 -0.7087  0.7020
 3612SOL    HW111886   0.623   7.323   6.951  1.8087 -0.4288 -0.6380
 3612SOL    HW211887   0.596   7.208   7.046 -1.2970  1.3511  0.7808
 3613SOL     OW11888   5.527   7.681   4.108  0.0386  0.2706  0.2102
 3613SOL    HW111889   5.509   7.774   4.096  1.4501  0.5893  0.3984
 3613SOL    HW211890   5.446   7.645   4.143 -0.7331  1.2997 -0.4657
 3614SOL     OW11891   7.319   1.153   6.904  0.8635 -0.3015 -0.2459
 3614SOL    HW111892   7.269   1.125   6.981  0.8610 -1.3773 -0.6153
 3614SOL    HW211893   7.267   1.224   6.866  0.5859 -0.1370  0.4306
 3615SOL     OW11894   6.685   5.691   5.371  0.0071  0.2627  0.1934
 3615SOL    HW111895   6.735   5.748   5.429  1.1787 -0.9332  0.3977
 3615SOL    HW211896   6.595   5.726   5.374  0.4507  1.3581  1.2156
 3616SOL     OW11897   6.512   2.282   6.499 -0.2140 -0.1646  0.6978
 3616SOL    HW111898   6.457   2.326   6.434 -0.7489  1.7248  2.2899
 3616SOL    HW211899   6.582   2.242   6.449  0.9900  3.5650 -0.9231
 3617SOL     OW11900   4.516   1.176   0.227  0.4640 -0.0826 -0.7594
 3617SOL    HW111901   4.562   1.231   0.163 -3.0956  1.6693 -2.1627
 3617SOL    HW211902   4.444   1.138   0.177 -1.4028 -0.1698  1.8006
 3618SOL     OW11903   3.814   6.919   6.286 -0.2035  0.1581  0.1977
 3618SOL    HW111904   3.855   6.836   6.307 -1.4262 -0.1770  1.4125
 3618SOL    HW211905   3.877   6.985   6.314 -0.8149 -0.3217  2.9186
 3619SOL     OW11906   4.862   0.059   1.308  0.0436  0.1077  0.0549
 3619SOL    HW111907   4.905  -0.025   1.295  2.0012  0.8756  1.1018
 3619SOL    HW211908   4.913   0.121   1.256 -2.1272  0.5055 -1.7339
 3620SOL     OW11909   4.517   0.667   7.861 -0.2308 -0.5747  0.1075
 3620SOL    HW111910   4.457   0.654   7.788  0.2770 -0.9530 -0.2501
 3620SOL    HW211911   4.477   0.736   7.914  0.1750  0.8547 -1.3656
 3621SOL     OW11912   5.881   0.435   5.843  0.7207 -0.1431  0.3886
 3621SOL    HW111913   5.934   0.476   5.774  1.4814 -1.7038  0.0011
 3621SOL    HW211914   5.936   0.364   5.876  0.2969  0.4589  2.5092
 3622SOL     OW11915   6.789   1.703   0.607  0.5549  0.5307 -0.1439
 3622SOL    HW111916   6.811   1.786   0.651 -0.1602 -0.5676  2.4659
 3622SOL    HW211917   6.696   1.711   0.587 -0.1632 -0.5068  2.4005
 3623SOL     OW11918   8.001   2.323   0.973  0.7233  0.1774 -0.1308
 3623SOL    HW111919   7.932   2.298   0.911  0.8754  0.4370 -0.4049
 3623SOL    HW211920   8.072   2.260   0.957 -0.7518 -2.4776  2.5907
 3624SOL     OW11921   4.683   5.810   0.460  0.2568 -0.1261 -0.7281
 3624SOL    HW111922   4.600   5.842   0.425 -0.1307 -1.6483 -1.2353
 3624SOL    HW211923   4.739   5.799   0.383  0.1128 -1.4274 -0.6633
 3625SOL     OW11924   2.624   4.485   4.436  0.2950  0.2463  0.3905
 3625SOL    HW111925   2.571   4.486   4.356  0.6561  0.2116  0.1479
 3625SOL    HW211926   2.659   4.574   4.442  1.6394 -0.1951 -0.4236
 3626SOL     OW11927   2.250   5.144   2.448 -0.1858  0.5749  0.0545
 3626SOL    HW111928   2.156   5.124   2.446 -0.4455  1.6171  0.8533
 3626SOL    HW211929   2.254   5.239   2.460  0.9828  0.6313 -0.6309
 3627SOL     OW11930   3.819   7.471   1.979 -0.6278  0.0444  0.1833
 3627SOL    HW111931   3.856   7.555   1.951 -1.9057  0.2847 -0.8749
 3627SOL    HW211932   3.864   7.405   1.926 -0.8096  0.2261 -0.2037
 3628SOL     OW11933   7.195   7.997   7.136 -0.2723  0.1151 -0.8501
 3628SOL    HW111934   7.138   8.067   7.104  0.2853  1.9749  1.8727
 3628SOL    HW211935   7.135   7.935   7.178 -0.5972 -0.0616 -1.5560
 3629SOL     OW11936   1.294   4.377   5.168  0.4375  0.0412  0.1855
 3629SOL    HW111937   1.355   4.303   5.178  1.2424  0.7214  0.4150
 3629SOL    HW211938   1.209   4.341   5.192  0.8599 -0.7474  0.5424
 3630SOL     OW11939   3.466   6.187   4.966  0.1495 -0.3030 -0.1658
 3630SOL    HW111940   3.470   6.123   4.894 -1.6648 -2.4139  1.4475
 3630SOL    HW211941   3.532   6.157   5.028  1.3458  1.2036 -0.6552
 3631SOL     OW11942   4.005   4.047   4.489 -0.6088 -0.0619  1.1351
 3631SOL    HW111943   4.040   4.093   4.413 -1.1787  0.1866  1.0161
 3631SOL    HW211944   3.917   4.084   4.501  0.1619  1.3585  3.1030
 3632SOL     OW11945   6.327   0.618   2.804 -0.1224 -0.7129 -0.1034
 3632SOL    HW111946   6.298   0.561   2.876  0.6958 -1.6733 -0.5029
 3632SOL    HW211947   6.341   0.703   2.845  3.2462 -1.8971  1.6121
 3633SOL     OW11948   2.154   7.287   0.522  0.8273 -0.1631 -0.0963
 3633SOL    HW111949   2.063   7.269   0.544  0.6176  1.1999  0.2076
 3633SOL    HW211950   2.181   7.211   0.471 -0.4647 -0.6081 -0.1574
 3634SOL     OW11951   7.048   6.368   4.758 -0.6291 -0.0574 -0.6344
 3634SOL    HW111952   7.082   6.295   4.809 -0.2470  0.3482 -0.3075
 3634SOL    HW211953   6.959   6.341   4.735 -1.2405  0.2453  1.2407
 3635SOL     OW11954   6.086   1.044   3.719  0.1772  0.2158  0.0829
 3635SOL    HW111955   6.037   0.997   3.786 -0.8229  0.4039 -0.4990
 3635SOL    HW211956   6.023   1.105   3.681  1.1096  1.1402 -0.0422
 3636SOL     OW11957   1.073   3.308   1.620  0.0489 -0.0679  0.4223
 3636SOL    HW111958   1.118   3.364   1.683  1.5530 -1.6250  0.8206
 3636SOL    HW211959   1.130   3.308   1.543 -0.6511  0.0539 -0.1045
 3637SOL     OW11960   0.167   5.436   3.647  0.3177 -0.3960 -0.0193
 3637SOL    HW111961   0.210   5.370   3.702 -0.6211 -0.3797  0.7639
 3637SOL    HW211962   0.157   5.512   3.705  1.3142  0.4366 -0.8809
 3638SOL     OW11963   0.596   2.965   3.937  0.2459  0.2077  0.3185
 3638SOL    HW111964   0.689   2.963   3.917  0.7361  0.4475  2.3931
 3638SOL    HW211965   0.567   2.874   3.928  0.3466  0.3348 -1.6196
 3639SOL     OW11966   3.552   4.290   3.729 -0.0409  0.2584 -0.2238
 3639SOL    HW111967   3.493   4.238   3.784  1.6792 -2.3455 -0.6353
 3639SOL    HW211968   3.543   4.379   3.762 -0.8210 -0.7929  2.7339
 3640SOL     OW11969   3.233   1.701   7.229  0.0438  0.4940  0.0400
 3640SOL    HW111970   3.227   1.639   7.302 -1.4605  1.9424  1.1964
 3640SOL    HW211971   3.264   1.648   7.156  1.8312 -0.9663  1.7491
 3641SOL     OW11972   1.405   8.119   3.962  0.5160 -0.2175 -0.3847
 3641SOL    HW111973   1.494   8.135   3.931  1.0102 -0.2092  0.9834
 3641SOL    HW211974   1.416   8.067   4.042 -0.6145  1.2732  0.8076
 3642SOL     OW11975   2.852   7.734   3.268  0.8991  0.5015  0.2132
 3642SOL    HW111976   2.807   7.784   3.199 -1.0976  1.0662  1.8287
 3642SOL    HW211977   2.929   7.699   3.225 -1.0523 -0.5055 -2.8068
 3643SOL     OW11978   7.660   0.200   4.742 -0.2226  0.0834  0.3497
 3643SOL    HW111979   7.597   0.264   4.774  0.2592  0.1192  1.2341
 3643SOL    HW211980   7.665   0.134   4.811  1.0598  0.3201  0.4941
 3644SOL     OW11981   0.274   1.319   1.931  0.2241  0.4255  0.5196
 3644SOL    HW111982   0.204   1.262   1.964  0.4735 -0.4330 -0.3917
 3644SOL    HW211983   0.273   1.394   1.990 -0.8087 -0.0346  1.1208
 3645SOL     OW11984   3.656   5.576   2.654  0.7255  0.2930 -0.3143
 3645SOL    HW111985   3.662   5.501   2.713 -0.1575 -0.4730 -1.1589
 3645SOL    HW211986   3.564   5.579   2.629  1.0005  0.8649 -1.3000
 3646SOL     OW11987   3.960   4.343   1.387  0.4072 -0.5241  0.5459
 3646SOL    HW111988   4.052   4.333   1.411 -0.2066 -2.6872  2.4089
 3646SOL    HW211989   3.924   4.402   1.453  0.1818 -0.8672  0.7378
 3647SOL     OW11990   5.444   0.417   0.656 -0.3286 -0.1323 -0.1259
 3647SOL    HW111991   5.519   0.458   0.613 -0.2539 -2.1651 -2.0961
 3647SOL    HW211992   5.402   0.365   0.587 -1.6219 -1.6781  1.7190
 3648SOL     OW11993   7.688   8.023   3.002  0.5398 -0.6437  0.1116
 3648SOL    HW111994   7.783   8.019   3.000  0.7783  2.2678  0.9820
 3648SOL    HW211995   7.666   8.104   2.955 -1.4218 -0.6225  0.9629
 3649SOL     OW11996   7.642   4.184   0.386 -0.2774 -0.3220  0.2167
 3649SOL    HW111997   7.658   4.098   0.425 -0.5922 -0.4911 -0.0238
 3649SOL    HW211998   7.718   4.237   0.412  0.4097 -0.9548 -0.4605
 3650SOL     OW11999   3.318   1.805   8.178 -0.2902 -0.2266 -0.1545
 3650SOL    HW112000   3.223   1.818   8.188 -0.0984  0.1826  1.2596
 3650SOL    HW212001   3.352   1.807   8.267  1.2570  1.1224 -0.7444
 3651SOL     OW12002   0.724   0.327   1.682  0.4718  0.2501 -0.3992
 3651SOL    HW112003   0.672   0.407   1.671 -0.0734 -0.3125 -2.4255
 3651SOL    HW212004   0.710   0.301   1.773 -1.7315  0.8395 -0.5315
 3652SOL     OW12005   5.569   4.803   0.508 -0.0128  0.1550 -0.4940
 3652SOL    HW112006   5.604   4.772   0.425  0.2587 -0.4563 -0.1550
 3652SOL    HW212007   5.645   4.811   0.565 -0.2544  0.1376 -0.1664
 3653SOL     OW12008   0.542   3.246   4.445  0.1973  0.6040 -0.5700
 3653SOL    HW112009   0.498   3.222   4.364 -1.9692  1.6599  0.2083
 3653SOL    HW212010   0.563   3.163   4.487  1.2648  0.0511 -2.1173
 3654SOL     OW12011   3.506   5.484   0.176  0.0017  0.2867 -0.5926
 3654SOL    HW112012   3.532   5.559   0.124  1.6597 -0.2264 -0.5429
 3654SOL    HW212013   3.523   5.408   0.120 -0.1201 -0.1537 -0.0425
 3655SOL     OW12014   6.202   6.448   7.607 -0.5426  0.0249 -0.0431
 3655SOL    HW112015   6.253   6.447   7.688 -0.7128 -2.4489  0.1079
 3655SOL    HW212016   6.263   6.418   7.540 -0.9239  0.2305 -0.4895
 3656SOL     OW12017   5.454   2.221   6.933  0.3834 -0.0563 -0.3647
 3656SOL    HW112018   5.462   2.274   7.012 -0.0830 -0.2179 -0.2056
 3656SOL    HW212019   5.538   2.231   6.888  0.9877 -0.6859  0.6076
 3657SOL     OW12020   7.743   7.964   4.035 -0.6677 -0.0810 -0.2007
 3657SOL    HW112021   7.776   8.052   4.019 -0.4412 -0.5398 -2.7791
 3657SOL    HW212022   7.650   7.975   4.052 -0.7540  0.6349 -1.0689
 3658SOL     OW12023   1.266   1.188   3.451 -0.2735 -0.0790 -1.0238
 3658SOL    HW112024   1.259   1.094   3.433 -2.2382 -0.1356 -0.1931
 3658SOL    HW212025   1.204   1.204   3.521  2.3683  1.3121  1.2115
 3659SOL     OW12026   3.195   3.561   2.648 -0.3595 -0.3733 -0.1574
 3659SOL    HW112027   3.159   3.649   2.664  0.7139  0.0691 -0.0696
 3659SOL    HW212028   3.169   3.510   2.725 -0.5353  0.0255  0.0509
 3660SOL     OW12029   1.182   8.180   3.561  0.1797 -0.1756 -0.3071
 3660SOL    HW112030   1.113   8.212   3.504  0.1089  1.5612  0.6944
 3660SOL    HW212031   1.245   8.138   3.502  0.5920  2.3936 -1.8269
 3661SOL     OW12032   0.681   5.182   2.247  0.3632 -0.1498 -0.3374
 3661SOL    HW112033   0.657   5.181   2.339 -0.1551 -1.6844 -0.4663
 3661SOL    HW212034   0.629   5.253   2.209  0.4289  0.3531  0.5075
 3662SOL     OW12035   2.047   6.467   4.792 -1.1241 -0.2100  0.1483
 3662SOL    HW112036   2.123   6.474   4.849 -1.4882 -1.0932  0.7571
 3662SOL    HW212037   2.074   6.511   4.711 -1.2551  2.8678  1.6173
 3663SOL     OW12038   7.536   6.848   1.132  0.0705 -0.3722 -0.0071
 3663SOL    HW112039   7.535   6.821   1.224  1.2528  0.5507  0.3104
 3663SOL    HW212040   7.509   6.940   1.134 -0.8570 -0.6147 -0.7102
 3664SOL     OW12041   7.190   4.666   3.193 -0.0957  0.5084  0.0834
 3664SOL    HW112042   7.247   4.606   3.144 -1.1801  0.0758 -0.6781
 3664SOL    HW212043   7.251   4.722   3.241  0.9650 -1.2871  0.9586
 3665SOL     OW12044   2.811   4.244   7.425  0.3671  0.3423  0.3945
 3665SOL    HW112045   2.903   4.232   7.402  0.4668  0.3481  0.7907
 3665SOL    HW212046   2.812   4.274   7.516  0.0437  1.6628 -0.0180
 3666SOL     OW12047   2.943   1.111   7.574  0.4791  0.1160  0.3713
 3666SOL    HW112048   2.848   1.115   7.585  0.5881  0.7400  1.1684
 3666SOL    HW212049   2.962   1.018   7.559 -0.2141 -0.0596  0.5580
 3667SOL     OW12050   0.668   4.863   6.521 -0.2955  0.0310  0.4784
 3667SOL    HW112051   0.641   4.953   6.540 -0.6617  0.1402 -0.5078
 3667SOL    HW212052   0.599   4.808   6.557 -0.0586  0.1353  1.1054
 3668SOL     OW12053   8.198   0.150   0.169  0.1411 -0.3334 -0.1741
 3668SOL    HW112054   8.148   0.154   0.088  1.4822  3.2073 -1.0013
 3668SOL    HW212055   8.204   0.056   0.189 -3.3939 -1.1222 -2.0599
 3669SOL     OW12056   0.677   5.591   2.081  0.4504 -0.3681 -0.1263
 3669SOL    HW112057   0.728   5.630   2.152  1.0243  1.2735 -1.3797
 3669SOL    HW212058   0.743   5.560   2.019  0.0463  1.9671 -1.8701
 3670SOL     OW12059   1.637   0.492   8.054 -0.0414 -0.5189  0.8522
 3670SOL    HW112060   1.600   0.552   8.119  0.4766  0.3771  0.3400
 3670SOL    HW212061   1.577   0.499   7.979  0.0204 -0.6423  0.7917
 3671SOL     OW12062   6.032   7.094   6.822 -0.4806  0.1237 -0.2906
 3671SOL    HW112063   6.094   7.110   6.894 -0.3437 -0.8460 -0.1809
 3671SOL    HW212064   6.005   7.003   6.834 -2.0854  0.5936 -0.2264
 3672SOL     OW12065   1.327   2.451   3.664  0.0956 -0.7936 -0.0054
 3672SOL    HW112066   1.286   2.367   3.687 -0.6855 -0.1464  1.1182
 3672SOL    HW212067   1.356   2.440   3.574  0.1381 -2.3155  0.1644
 3673SOL     OW12068   4.605   4.742   6.574 -0.3551  0.1437 -0.3055
 3673SOL    HW112069   4.551   4.755   6.652 -0.0776  0.3898 -0.1503
 3673SOL    HW212070   4.694   4.729   6.608 -0.6757 -3.1241 -0.3509
 3674SOL     OW12071   3.173   4.005   5.041  0.2234 -0.2024  0.8969
 3674SOL    HW112072   3.239   3.936   5.053 -0.2085 -0.6839  0.5197
 3674SOL    HW212073   3.091   3.966   5.073  0.3139  0.7964  2.5074
 3675SOL     OW12074   6.364   7.691   8.226 -0.0870 -0.2831 -0.6068
 3675SOL    HW112075   6.456   7.667   8.230 -0.1467 -0.4859 -0.4395
 3675SOL    HW212076   6.344   7.724   8.314 -0.0757  0.1218 -0.7523
 3676SOL     OW12077   5.864   2.629   6.425 -0.4898  0.5664 -0.1189
 3676SOL    HW112078   5.777   2.635   6.464 -1.9202 -1.0581 -2.7384
 3676SOL    HW212079   5.915   2.575   6.486 -1.4871  0.9892  1.1259
 3677SOL     OW12080   5.549   2.091   7.262 -0.2454 -0.2394  0.1739
 3677SOL    HW112081   5.589   2.027   7.203  0.3468  0.7573 -0.5465
 3677SOL    HW212082   5.512   2.039   7.333  0.5047 -1.3475 -0.2196
 3678SOL     OW12083   2.416   5.157   0.893 -0.0069 -0.4734 -0.3872
 3678SOL    HW112084   2.467   5.221   0.843  0.9904 -0.7948  0.1945
 3678SOL    HW212085   2.339   5.206   0.922  0.0813  0.0938 -1.0690
 3679SOL     OW12086   3.488   2.675   6.090  0.1973 -0.0193  0.0893
 3679SOL    HW112087   3.411   2.663   6.146  1.1943 -0.6539  1.4021
 3679SOL    HW212088   3.544   2.735   6.139  0.4128  0.6715 -0.9889
 3680SOL     OW12089   1.519   7.537   6.776  0.0140 -0.2818 -0.1158
 3680SOL    HW112090   1.555   7.524   6.688  0.4866 -0.2870  0.0778
 3680SOL    HW212091   1.431   7.499   6.772  0.5661 -1.6074 -0.1702
 3681SOL     OW12092   3.755   6.562   0.118  1.6561 -0.1943 -0.1442
 3681SOL    HW112093   3.773   6.579   0.025  2.6215 -0.2767  0.0157
 3681SOL    HW212094   3.696   6.486   0.117  1.8227 -0.3219 -0.6834
 3682SOL     OW12095   4.790   2.468   3.336 -0.3987 -0.1702  0.4594
 3682SOL    HW112096   4.819   2.540   3.392  1.5175 -0.1782 -0.4357
 3682SOL    HW212097   4.698   2.486   3.319  0.1496  2.3764 -0.1866
 3683SOL     OW12098   4.001   2.561   2.042 -0.0721 -0.3380 -0.0628
 3683SOL    HW112099   3.909   2.589   2.041  0.3747  1.2860 -1.6282
 3683SOL    HW212100   4.030   2.575   2.132 -0.9073  0.7828  0.0483
 3684SOL     OW12101   3.407   1.425   6.536 -0.5881 -0.3034 -0.3028
 3684SOL    HW112102   3.422   1.478   6.614 -0.8126  0.9376 -1.0769
 3684SOL    HW212103   3.349   1.478   6.482 -0.5181 -1.1887 -1.2765
 3685SOL     OW12104   5.509   1.380   5.310  0.7417 -0.2988  0.4928
 3685SOL    HW112105   5.472   1.321   5.244  0.7514  0.5804 -0.3220
 3685SOL    HW212106   5.602   1.385   5.288  0.3227  1.9429 -1.0125
 3686SOL     OW12107   1.415   0.304   1.095 -0.3780 -0.0778  0.1707
 3686SOL    HW112108   1.507   0.326   1.087 -0.4191  0.5171  1.0964
 3686SOL    HW212109   1.408   0.259   1.179 -0.6412 -1.8262 -0.7478
 3687SOL     OW12110   6.553   6.365   2.936  0.1002  0.4132  0.0895
 3687SOL    HW112111   6.487   6.333   2.875 -0.0496 -1.5068  1.1908
 3687SOL    HW212112   6.636   6.350   2.891 -0.0669 -0.0963 -0.0618
 3688SOL     OW12113   7.875   2.410   3.167 -0.3739  0.0529 -0.3142
 3688SOL    HW112114   7.782   2.429   3.179  0.3568  4.7098  0.0589
 3688SOL    HW212115   7.887   2.410   3.072 -0.7917 -1.1971 -0.3835
 3689SOL     OW12116   2.998   0.163   5.997 -0.0131  0.4086  0.3512
 3689SOL    HW112117   3.089   0.189   5.983  0.6243 -2.4208 -1.7982
 3689SOL    HW212118   3.002   0.100   6.069 -0.6855  1.9499  1.7934
 3690SOL     OW12119   2.147   0.159   2.268  0.6613 -0.2738  0.0460
 3690SOL    HW112120   2.142   0.081   2.324  0.9138  0.9543  1.8717
 3690SOL    HW212121   2.195   0.223   2.321  2.1895  0.5284 -2.1518
 3691SOL     OW12122   4.603   5.842   4.038  0.3592 -0.2812  0.1734
 3691SOL    HW112123   4.667   5.780   4.070 -0.5888 -1.2848  0.1854
 3691SOL    HW212124   4.539   5.789   3.991  0.3120  0.8564 -1.1206
 3692SOL     OW12125   5.528   0.342   2.759 -0.8022  0.1013 -0.1775
 3692SOL    HW112126   5.599   0.404   2.743  1.2158 -2.0831 -0.3689
 3692SOL    HW212127   5.489   0.327   2.673 -1.5610  1.3322 -0.0697
 3693SOL     OW12128   7.141   6.315   0.128 -0.0110  0.6180  0.2984
 3693SOL    HW112129   7.054   6.339   0.094  1.3334  3.0791 -1.8104
 3693SOL    HW212130   7.136   6.336   0.221 -1.4529  1.5247  0.0685
 3694SOL     OW12131   4.499   0.803   2.279  0.4706 -0.1092 -0.1055
 3694SOL    HW112132   4.476   0.711   2.284 -0.2818  0.0556 -0.4100
 3694SOL    HW212133   4.567   0.815   2.345  1.8561 -1.2496 -1.2550
 3695SOL     OW12134   2.515   1.241   5.262  0.5399 -0.5548  0.0930
 3695SOL    HW112135   2.441   1.293   5.232  0.2757 -1.5270 -1.0316
 3695SOL    HW212136   2.561   1.297   5.324  0.2748  0.9919 -1.0604
 3696SOL     OW12137   5.491   6.404   6.545 -0.2236 -0.3688  0.0315
 3696SOL    HW112138   5.564   6.343   6.555 -0.5352 -1.1559 -2.0632
 3696SOL    HW212139   5.533   6.489   6.528  0.1986 -0.2803  1.4315
 3697SOL     OW12140   5.713   0.918   7.090  0.1082  0.7446  0.1540
 3697SOL    HW112141   5.657   0.841   7.084 -1.3079  1.6569  1.0999
 3697SOL    HW212142   5.798   0.884   7.119 -1.1168 -0.2618  2.8754
 3698SOL     OW12143   1.420   5.824   1.601  0.1993  0.6106 -0.1758
 3698SOL    HW112144   1.419   5.859   1.512 -0.8678 -1.1260 -0.9086
 3698SOL    HW212145   1.495   5.765   1.603 -1.3203 -1.5072 -0.9174
 3699SOL     OW12146   1.343   5.463   4.799  0.6890  0.3722 -0.2849
 3699SOL    HW112147   1.366   5.463   4.706 -1.7256 -0.3140 -0.9427
 3699SOL    HW212148   1.382   5.544   4.833  1.2441  0.8599 -1.9980
 3700SOL     OW12149   4.457   2.247   6.375  0.0117  0.0369  0.1334
 3700SOL    HW112150   4.406   2.202   6.443 -0.8261  0.5494 -0.1454
 3700SOL    HW212151   4.548   2.239   6.405 -0.4570  1.7700  2.2578
 3701SOL     OW12152   1.969   2.829   3.292  0.0262 -1.1738  0.1406
 3701SOL    HW112153   1.993   2.920   3.309  0.5916 -1.3548  0.3079
 3701SOL    HW212154   1.979   2.818   3.197 -1.0989 -0.7616 -0.0458
 3702SOL     OW12155   1.915   3.704   3.262 -0.8896 -0.3106  0.4597
 3702SOL    HW112156   1.888   3.615   3.242 -1.3536  0.0187 -0.4428
 3702SOL    HW212157   1.865   3.759   3.202  0.6707  0.4319 -0.2399
 3703SOL     OW12158   3.982   5.259   4.370 -0.3483 -0.0822  0.0813
 3703SOL    HW112159   3.977   5.349   4.400  1.3613  0.4604 -1.0881
 3703SOL    HW212160   3.995   5.266   4.275  3.1779 -1.3819  0.3396
 3704SOL     OW12161   4.004   4.268   4.968 -0.0280 -0.4607  0.2075
 3704SOL    HW112162   3.964   4.210   5.033 -0.3500 -0.9383 -0.4009
 3704SOL    HW212163   4.052   4.209   4.911  0.0934 -0.0654 -0.0992
 3705SOL     OW12164   6.178   4.031   6.866  0.6309  0.0694  0.1824
 3705SOL    HW112165   6.139   4.038   6.953  1.3846 -1.8691  0.7273
 3705SOL    HW212166   6.271   4.052   6.879  0.7367 -0.1664 -0.1510
 3706SOL     OW12167   7.956   0.186   1.401 -0.3682 -0.1128 -0.7111
 3706SOL    HW112168   7.961   0.226   1.315 -0.8161 -1.3493 -1.3440
 3706SOL    HW212169   7.981   0.094   1.387  0.6386 -0.0890  0.6756
 3707SOL     OW12170   1.212   6.828   0.006 -0.0770  0.0997  0.0015
 3707SOL    HW112171   1.160   6.845   0.084  1.2670 -0.5962  1.0915
 3707SOL    HW212172   1.233   6.735   0.011  1.6917  0.4533 -0.0904
 3708SOL     OW12173   8.184   3.624   6.393 -0.0618 -0.6485  0.6803
 3708SOL    HW112174   8.210   3.656   6.307  0.3945 -1.2000  0.6061
 3708SOL    HW212175   8.216   3.691   6.454 -0.2689 -0.3227  0.4368
 3709SOL     OW12176   2.937   6.122   7.257  0.0424 -0.4029 -0.0760
 3709SOL    HW112177   2.990   6.121   7.336 -0.4798 -0.9939  0.2727
 3709SOL    HW212178   2.849   6.148   7.287 -0.5563 -2.1801 -0.1880
 3710SOL     OW12179   3.715   4.095   0.433  0.4114 -0.2449  0.6891
 3710SOL    HW112180   3.648   4.037   0.469 -1.4879 -0.0920 -2.2475
 3710SOL    HW212181   3.769   4.039   0.377  0.5115  0.2455  0.2857
 3711SOL     OW12182   5.483   3.941   3.391 -0.1406 -0.0301  0.3300
 3711SOL    HW112183   5.458   4.033   3.397 -2.0430 -0.5280  0.9559
 3711SOL    HW212184   5.462   3.906   3.478 -0.7392 -1.3286 -0.3156
 3712SOL     OW12185   1.187   7.360   1.888 -0.3785 -0.1471  0.2587
 3712SOL    HW112186   1.183   7.331   1.797  0.6327 -1.2422  0.5333
 3712SOL    HW212187   1.176   7.455   1.884 -1.8747 -0.3485 -0.8476
 3713SOL     OW12188   6.263   5.543   2.258 -0.2458  0.3738  0.5320
 3713SOL    HW112189   6.255   5.629   2.298 -0.4949 -0.1430  1.6311
 3713SOL    HW212190   6.335   5.551   2.196  0.8994  0.9077  1.8918
 3714SOL     OW12191   2.578   3.106   1.869  0.2976  0.0777  0.4649
 3714SOL    HW112192   2.672   3.086   1.870 -0.0107 -1.4791  0.1521
 3714SOL    HW212193   2.573   3.190   1.823  1.5728  0.4951  1.0113
 3715SOL     OW12194   3.360   2.370   1.076 -0.1899 -0.6080 -0.2013
 3715SOL    HW112195   3.340   2.458   1.043  0.3836 -0.2958  0.2714
 3715SOL    HW212196   3.292   2.353   1.141 -0.1967 -0.4421 -0.1647
 3716SOL     OW12197   6.268   5.992   5.585 -0.4742  0.1825 -0.1769
 3716SOL    HW112198   6.268   6.036   5.670  1.6338 -0.4813  0.2295
 3716SOL    HW212199   6.176   5.991   5.558 -1.4036 -0.7416  2.7010
 3717SOL     OW12200   6.756   5.260   4.480  0.7816 -0.0703 -0.5367
 3717SOL    HW112201   6.684   5.322   4.475  0.0636 -0.8042  0.4476
 3717SOL    HW212202   6.813   5.296   4.548 -0.4626 -1.2816  1.2249
 3718SOL     OW12203   2.178   3.260   5.546 -0.2934 -0.2011 -0.1336
 3718SOL    HW112204   2.269   3.244   5.570 -0.3829 -2.1179 -0.8528
 3718SOL    HW212205   2.174   3.238   5.453 -1.5722 -0.5377 -0.0151
 3719SOL     OW12206   5.765   0.910   5.655  0.1312  0.3918 -0.1823
 3719SOL    HW112207   5.860   0.912   5.647  0.1067  0.5515 -0.4456
 3719SOL    HW212208   5.748   0.918   5.749  0.3674  0.7329 -0.1689
 3720SOL     OW12209   4.952   3.689   5.726 -0.0311 -0.5255 -0.0419
 3720SOL    HW112210   4.899   3.748   5.673  0.2505  0.5294  0.8124
 3720SOL    HW212211   4.935   3.602   5.690 -0.9889 -0.0052 -0.8855
 3721SOL     OW12212   7.786   0.253   6.858  0.4974 -0.4813  0.0037
 3721SOL    HW112213   7.869   0.234   6.814  0.3825  1.2828 -1.0474
 3721SOL    HW212214   7.803   0.331   6.910 -0.6267  0.2244 -0.6467
 3722SOL     OW12215   6.493   0.518   0.087  0.2290  0.3214  0.0962
 3722SOL    HW112216   6.549   0.481   0.155 -0.1471  1.5938  1.1429
 3722SOL    HW212217   6.419   0.458   0.081 -1.3562  1.7505  3.1519
 3723SOL     OW12218   5.579   3.910   6.339 -0.0811 -0.2475 -0.2519
 3723SOL    HW112219   5.547   3.824   6.312  1.0023 -0.9165  0.4973
 3723SOL    HW212220   5.675   3.902   6.337  0.0529  1.1321 -0.7434
 3724SOL     OW12221   6.385   4.971   1.619 -0.3069 -0.4808 -0.2455
 3724SOL    HW112222   6.325   5.026   1.669  0.6935 -0.0344  0.4825
 3724SOL    HW212223   6.339   4.887   1.612 -1.0652 -0.1185  0.1934
 3725SOL     OW12224   7.496   7.601   4.238  1.1479  0.0701 -0.5983
 3725SOL    HW112225   7.537   7.678   4.277  0.1650  0.3619 -0.1262
 3725SOL    HW212226   7.554   7.528   4.261  1.2986  0.4456  0.2299
 3726SOL     OW12227   4.523   2.477   3.435  0.5329  0.1284 -0.0729
 3726SOL    HW112228   4.551   2.388   3.453 -1.9436 -0.3472  1.9768
 3726SOL    HW212229   4.484   2.473   3.348  0.4091 -0.8099  0.0163
 3727SOL     OW12230   2.441   4.209   4.154  0.1659  0.4664  0.0817
 3727SOL    HW112231   2.459   4.142   4.089  0.3063 -3.0157  3.3466
 3727SOL    HW212232   2.346   4.220   4.153  0.1733  0.4875 -0.6846
 3728SOL     OW12233   6.011   7.661   0.072  0.2434  0.1543  0.5870
 3728SOL    HW112234   6.008   7.754   0.051  2.0349  0.1330  0.1192
 3728SOL    HW212235   6.098   7.632   0.045  0.2185 -1.3676  1.9493
 3729SOL     OW12236   7.811   4.956   5.162  0.3915 -0.1087  0.2170
 3729SOL    HW112237   7.895   4.945   5.206  0.0739 -0.7248  0.6926
 3729SOL    HW212238   7.792   4.870   5.124  0.0893  0.0905 -0.0996
 3730SOL     OW12239   6.811   6.880   4.014 -0.4830 -0.5504  0.0660
 3730SOL    HW112240   6.876   6.895   3.945  1.4020 -1.7228  1.4895
 3730SOL    HW212241   6.818   6.957   4.071 -0.5950 -0.5214  0.0415
 3731SOL     OW12242   6.741   3.710   6.669  0.9203  0.2835  0.2119
 3731SOL    HW112243   6.725   3.636   6.729  0.3171  0.1621 -0.0897
 3731SOL    HW212244   6.714   3.677   6.583  1.8385  0.4412 -0.1424
 3732SOL     OW12245   4.117   0.975   4.475 -0.1801 -0.7304 -0.1336
 3732SOL    HW112246   4.051   0.926   4.428 -1.5218 -0.3101  1.2253
 3732SOL    HW212247   4.161   1.027   4.408  0.1697 -2.5283 -1.3448
 3733SOL     OW12248   6.042   3.160   7.419 -0.1965 -0.2577 -0.0515
 3733SOL    HW112249   5.950   3.138   7.430 -0.2904  0.6607  1.1268
 3733SOL    HW212250   6.042   3.234   7.358 -0.2697  0.0743  0.3541
 3734SOL     OW12251   3.052   0.666   2.463  1.1792 -0.1455  0.0488
 3734SOL    HW112252   3.095   0.650   2.547  0.3605  0.2672  0.5553
 3734SOL    HW212253   3.104   0.736   2.422  1.2780  0.0005  0.4269
 3735SOL     OW12254   7.747   5.202   6.473 -0.2094  0.8324 -0.5485
 3735SOL    HW112255   7.720   5.111   6.484  0.4666  0.8526  1.5623
 3735SOL    HW212256   7.837   5.197   6.438  0.0348  0.6737  0.0953
 3736SOL     OW12257   5.372   6.333   2.345 -0.5994  0.2315 -0.8094
 3736SOL    HW112258   5.342   6.269   2.281 -0.6750 -1.2698  0.6810
 3736SOL    HW212259   5.427   6.283   2.405 -0.7922  1.5333  0.4950
 3737SOL     OW12260   1.308   3.930   1.363  0.4736 -0.3615 -0.2505
 3737SOL    HW112261   1.249   3.939   1.288  1.1881 -0.9618 -0.9027
 3737SOL    HW212262   1.395   3.926   1.325  1.0560  1.5579  0.7628
 3738SOL     OW12263   5.683   4.994   7.686  0.0020  0.1090  0.4147
 3738SOL    HW112264   5.757   5.054   7.699  0.0666  0.4943 -1.3652
 3738SOL    HW212265   5.614   5.050   7.651 -0.9145 -0.3813  1.3954
 3739SOL     OW12266   8.135   3.427   1.016 -0.8652 -0.3024 -0.1891
 3739SOL    HW112267   8.144   3.361   0.947 -0.4389 -0.7732  0.3102
 3739SOL    HW212268   8.176   3.387   1.093 -0.1558  0.7370 -0.0074
 3740SOL     OW12269   0.298   4.592   7.883  0.5576  0.5521 -0.0232
 3740SOL    HW112270   0.204   4.578   7.875  0.8078 -2.4690  0.9630
 3740SOL    HW212271   0.333   4.506   7.907  3.4243  1.8694  0.9637
 3741SOL     OW12272   1.921   1.239   5.833  0.1043 -0.4507 -0.0734
 3741SOL    HW112273   1.886   1.239   5.922 -1.7338 -2.0640 -0.7201
 3741SOL    HW212274   1.965   1.154   5.824 -0.6521 -0.7702 -1.0007
 3742SOL     OW12275   0.291   0.086   5.627  0.4994 -0.0371 -0.2304
 3742SOL    HW112276   0.335   0.035   5.559  0.5015 -1.8334  1.0532
 3742SOL    HW212277   0.198   0.069   5.615  0.4568  0.1747 -0.2033
 3743SOL     OW12278   0.794   7.693   2.666 -0.2823  0.2320 -0.0229
 3743SOL    HW112279   0.876   7.644   2.656 -1.4403 -1.3652 -2.6700
 3743SOL    HW212280   0.806   7.771   2.611  0.2879  1.2935  1.5228
 3744SOL     OW12281   6.885   3.043   6.546 -0.1458  0.2726  0.4321
 3744SOL    HW112282   6.972   3.004   6.553 -0.1001  0.4272  0.7267
 3744SOL    HW212283   6.847   3.002   6.468  0.4174  0.6664 -0.0625
 3745SOL     OW12284   4.615   5.748   0.059  0.2069 -0.0571 -0.3458
 3745SOL    HW112285   4.555   5.820   0.038  0.8573  1.1572  1.6601
 3745SOL    HW212286   4.694   5.791   0.090  1.6810 -1.6508 -1.6852
 3746SOL     OW12287   3.391   6.450   3.117 -0.2766 -0.2352 -0.4522
 3746SOL    HW112288   3.380   6.510   3.190  0.2917 -0.8273  0.1337
 3746SOL    HW212289   3.387   6.363   3.156  1.4288 -0.5526 -0.8915
 3747SOL     OW12290   7.729   5.629   0.501 -0.1823 -0.3020 -0.1409
 3747SOL    HW112291   7.667   5.576   0.551 -0.5590  0.5938  0.3707
 3747SOL    HW212292   7.683   5.711   0.484  0.8353  0.3691  0.2152
 3748SOL     OW12293   1.696   7.255   7.702  0.3542 -0.0747 -0.2071
 3748SOL    HW112294   1.613   7.220   7.733 -0.5452  1.6688 -0.4969
 3748SOL    HW212295   1.728   7.191   7.639 -2.2730  0.5656 -2.3627
 3749SOL     OW12296   7.111   1.197   8.069 -0.0468 -0.3052  0.1404
 3749SOL    HW112297   7.179   1.264   8.078 -0.0083 -0.5346  1.9335
 3749SOL    HW212298   7.049   1.215   8.140 -1.3187 -0.7436 -0.8119
 3750SOL     OW12299   0.658   1.482   0.761 -0.0077  0.4485  0.1760
 3750SOL    HW112300   0.678   1.563   0.715 -0.1109 -0.3445 -1.3282
 3750SOL    HW212301   0.706   1.415   0.712  0.2308 -0.3839  1.5039
 3751SOL     OW12302   7.452   6.670   0.468  0.6713  0.3262  0.0988
 3751SOL    HW112303   7.421   6.735   0.532  0.8145  0.1648  0.3348
 3751SOL    HW212304   7.525   6.714   0.424 -0.9839  1.3923 -1.7160
 3752SOL     OW12305   2.215   6.945   5.850 -0.4745 -0.5012 -0.3344
 3752SOL    HW112306   2.198   6.905   5.764  1.1082 -1.2849 -0.3058
 3752SOL    HW212307   2.203   7.039   5.834  1.4057 -0.4502 -1.8819
 3753SOL     OW12308   6.199   5.361   3.995 -0.1865 -0.5168 -0.6271
 3753SOL    HW112309   6.166   5.433   3.941 -2.0520  1.2337  2.5148
 3753SOL    HW212310   6.132   5.292   3.986 -0.9061  0.0801  0.0031
 3754SOL     OW12311   1.248   0.065   7.378 -0.0116  0.0714  0.2182
 3754SOL    HW112312   1.328   0.115   7.360 -0.7083  0.6685 -1.4945
 3754SOL    HW212313   1.249   0.050   7.472  2.6462 -0.8686  0.1289
 3755SOL     OW12314   8.003   0.933   7.236  0.8451 -0.0896 -0.0433
 3755SOL    HW112315   7.945   0.890   7.299  1.3603 -2.6284 -1.1596
 3755SOL    HW212316   8.091   0.919   7.271  1.1216 -1.3572 -1.1503
 3756SOL     OW12317   4.189   1.860   6.629  0.4087  0.2608 -0.3672
 3756SOL    HW112318   4.154   1.772   6.618 -0.1500  0.3247  0.8259
 3756SOL    HW212319   4.238   1.857   6.711  1.5599  0.7002 -1.0149
 3757SOL     OW12320   0.429   2.764   3.770  0.5382 -0.1958 -0.1917
 3757SOL    HW112321   0.337   2.750   3.746  0.6816 -1.0661 -0.2857
 3757SOL    HW212322   0.477   2.752   3.688  0.9238 -1.9888  0.2565
 3758SOL     OW12323   5.312   6.683   8.045 -0.4087 -0.4200 -0.2441
 3758SOL    HW112324   5.328   6.655   7.955 -0.4381  1.0219 -0.7217
 3758SOL    HW212325   5.217   6.688   8.053 -0.4250 -1.1229  0.0623
 3759SOL     OW12326   1.842   5.949   5.129 -0.3994 -0.5099  0.5406
 3759SOL    HW112327   1.885   5.866   5.148 -1.0827 -0.9414  0.2809
 3759SOL    HW212328   1.905   5.997   5.076 -0.1336 -1.0216  0.3805
 3760SOL     OW12329   7.735   6.735   4.051  0.3926  0.2786  0.2814
 3760SOL    HW112330   7.787   6.676   4.106  2.0317 -2.0754 -3.3415
 3760SOL    HW212331   7.657   6.685   4.029 -0.2087  1.1442  0.3945
 3761SOL     OW12332   4.740   0.275   4.843  0.2270 -0.2720  0.3186
 3761SOL    HW112333   4.833   0.291   4.826 -0.1383  1.4179 -0.2834
 3761SOL    HW212334   4.712   0.219   4.771  0.7864 -0.8586  0.5471
 3762SOL     OW12335   5.392   7.934   0.411  0.0313 -0.1886  0.0354
 3762SOL    HW112336   5.401   7.932   0.506  2.7942 -1.7841 -0.1404
 3762SOL    HW212337   5.322   7.871   0.392 -0.6053  0.2131  0.9785
 3763SOL     OW12338   3.014   4.530   1.729 -0.2771 -0.1984  0.2203
 3763SOL    HW112339   2.950   4.482   1.780 -0.4824  0.4333  0.5671
 3763SOL    HW212340   3.055   4.590   1.791 -0.7606  0.8104 -0.4042
 3764SOL     OW12341   1.403   7.052   8.139  0.0328  0.2581 -0.3428
 3764SOL    HW112342   1.434   7.139   8.165  2.3473 -0.8699  1.0794
 3764SOL    HW212343   1.349   7.023   8.212 -0.3598  0.3267 -0.6073
 3765SOL     OW12344   2.345   4.823   6.621  0.4579 -0.4432  0.0125
 3765SOL    HW112345   2.346   4.882   6.696  0.6182  0.1689 -0.4632
 3765SOL    HW212346   2.262   4.775   6.629  0.0195  0.3082  0.0523
 3766SOL     OW12347   5.512   7.039   7.708  0.6187  0.3758  0.0502
 3766SOL    HW112348   5.599   7.078   7.716  0.5020  0.4968  0.8504
 3766SOL    HW212349   5.487   7.018   7.798 -0.0840  0.1270 -0.1944
 3767SOL     OW12350   4.012   5.217   6.939 -0.1165 -0.0990 -0.0999
 3767SOL    HW112351   3.926   5.254   6.963 -0.5594 -1.1570 -0.0307
 3767SOL    HW212352   3.992   5.133   6.899  0.8634 -0.0616 -0.6932
 3768SOL     OW12353   8.004   2.443   5.739 -0.2436  0.6084  0.0183
 3768SOL    HW112354   8.094   2.476   5.730 -0.6035  1.2163 -1.7354
 3768SOL    HW212355   8.012   2.348   5.729  0.2474  0.6171  0.3048
 3769SOL     OW12356   1.966   7.883   4.674  0.3840  0.4396  0.2694
 3769SOL    HW112357   1.913   7.827   4.618  0.9230  0.9631 -0.8037
 3769SOL    HW212358   1.922   7.882   4.759 -1.7506  1.3981 -0.7361
 3770SOL     OW12359   0.863   6.174   4.618 -0.1280  0.1975 -0.4752
 3770SOL    HW112360   0.916   6.120   4.676  0.3074 -0.4469 -1.4567
 3770SOL    HW212361   0.924   6.238   4.582 -0.6207  1.3148  0.6061
 3771SOL     OW12362   2.629   5.949   4.163 -0.0305  0.1277 -0.0563
 3771SOL    HW112363   2.551   5.998   4.136 -1.1107 -1.1382  0.6064
 3771SOL    HW212364   2.644   5.977   4.253 -0.3643 -0.3986  0.1660
 3772SOL     OW12365   0.361   4.251   5.236  0.5553  0.0089 -0.7026
 3772SOL    HW112366   0.426   4.265   5.167 -0.6420 -1.1819 -2.1262
 3772SOL    HW212367   0.277   4.248   5.190 -0.6014  1.7995  1.1190
 3773SOL     OW12368   5.267   3.626   7.415 -0.1003  0.2118  0.7200
 3773SOL    HW112369   5.250   3.551   7.472 -0.7576 -1.7015 -1.8113
 3773SOL    HW212370   5.361   3.622   7.397 -0.3381 -0.8366 -0.4088
 3774SOL     OW12371   4.199   6.864   2.907 -0.0899 -0.2911 -0.3496
 3774SOL    HW112372   4.224   6.955   2.925  1.8630 -0.7791 -0.4295
 3774SOL    HW212373   4.258   6.836   2.837 -0.0417 -1.9106  0.3051
 3775SOL     OW12374   1.865   3.047   6.130  0.3025 -0.0968 -0.8201
 3775SOL    HW112375   1.932   3.001   6.180  1.1010  0.6778 -1.1540
 3775SOL    HW212376   1.836   2.984   6.064  2.1504  0.1791 -1.9608
 3776SOL     OW12377   5.484   5.552   3.991 -0.6494 -1.2074  0.4712
 3776SOL    HW112378   5.471   5.565   4.085  1.1018 -0.5065  0.6495
 3776SOL    HW212379   5.540   5.625   3.964 -0.4059 -1.8836 -0.9491
 3777SOL     OW12380   5.210   6.550   7.101 -0.1534  0.1127 -0.2446
 3777SOL    HW112381   5.234   6.517   7.014  0.5631  1.9070 -0.7566
 3777SOL    HW212382   5.291   6.546   7.152 -0.4685 -0.4971  0.2408
 3778SOL     OW12383   6.668   5.010   2.338  0.7609 -0.2135  0.3688
 3778SOL    HW112384   6.736   4.951   2.371  0.7360 -1.0868 -1.0403
 3778SOL    HW212385   6.596   4.952   2.313  0.5753  0.4251 -0.6708
 3779SOL     OW12386   6.305   2.264   5.933  0.3589  0.5407 -0.0841
 3779SOL    HW112387   6.291   2.245   6.026 -0.3976  0.5010 -0.2019
 3779SOL    HW212388   6.377   2.205   5.907  2.2091  2.1758  1.0227
 3780SOL     OW12389   3.144   3.297   7.228 -0.1455 -0.0363 -0.1825
 3780SOL    HW112390   3.167   3.240   7.155 -1.9013 -0.8721 -0.1351
 3780SOL    HW212391   3.051   3.281   7.243  0.0844  0.3776  2.0222
 3781SOL     OW12392   2.903   6.481   2.038 -0.4210  0.2421  0.6062
 3781SOL    HW112393   2.986   6.448   2.075  0.5083  0.6144 -1.0814
 3781SOL    HW212394   2.917   6.575   2.027 -0.9205  0.2408 -0.0784
 3782SOL     OW12395   1.209   6.976   2.510 -0.6848 -0.0449  0.4689
 3782SOL    HW112396   1.206   6.902   2.450 -0.1533  1.8197 -2.0428
 3782SOL    HW212397   1.298   6.977   2.544 -0.0538  0.5427 -1.0947
 3783SOL     OW12398   0.998   1.309   5.188 -0.3999 -0.2026  0.2062
 3783SOL    HW112399   0.998   1.393   5.234  0.4985  0.0099 -0.1606
 3783SOL    HW212400   1.059   1.322   5.116 -0.0183 -1.2695  0.3265
 3784SOL     OW12401   4.663   5.658   5.982 -0.0700  0.0243  0.2220
 3784SOL    HW112402   4.661   5.687   6.073  3.9102 -1.6544  1.0050
 3784SOL    HW212403   4.642   5.565   5.985 -0.1512  0.0019 -0.6568
 3785SOL     OW12404   6.210   0.655   2.553 -0.6446  0.1619 -0.1924
 3785SOL    HW112405   6.244   0.665   2.642 -0.1023  0.3958 -0.4193
 3785SOL    HW212406   6.282   0.615   2.504 -1.8217 -2.4123  0.0552
 3786SOL     OW12407   0.863   4.611   0.082 -0.2174 -0.0677  0.2152
 3786SOL    HW112408   0.803   4.537   0.095 -0.1913 -0.3500 -1.1436
 3786SOL    HW212409   0.806   4.683   0.053  0.2191 -0.8672 -3.0139
 3787SOL     OW12410   5.331   7.371   6.164  0.1840 -0.1370 -0.1392
 3787SOL    HW112411   5.340   7.308   6.092 -0.0200 -1.0711  0.6483
 3787SOL    HW212412   5.420   7.384   6.196  0.2211 -0.0249 -0.2813
 3788SOL     OW12413   2.460   7.910   3.115 -0.4166  0.1788 -0.3784
 3788SOL    HW112414   2.465   7.823   3.074 -0.9996  0.2796 -0.6552
 3788SOL    HW212415   2.372   7.941   3.097 -0.3376  0.6718  0.0547
 3789SOL     OW12416   5.994   0.430   7.467 -0.4049  0.5123  0.2917
 3789SOL    HW112417   5.990   0.369   7.393  0.1446 -0.2981  0.9163
 3789SOL    HW212418   6.044   0.504   7.433 -0.7969  0.4871 -0.3756
 3790SOL     OW12419   7.965   1.173   3.289 -0.3422  0.4400 -0.0596
 3790SOL    HW112420   7.978   1.113   3.216 -1.1263  1.0537 -0.7232
 3790SOL    HW212421   8.047   1.221   3.296  0.1920 -0.5116  0.3052
 3791SOL     OW12422   4.639   3.706   5.668  0.2012 -0.1682  0.6536
 3791SOL    HW112423   4.599   3.764   5.733  0.0435  0.3701  0.0880
 3791SOL    HW212424   4.687   3.765   5.610  0.6255 -0.6728  0.4796
 3792SOL     OW12425   3.220   2.654   6.629 -0.4357 -0.1487 -0.1058
 3792SOL    HW112426   3.179   2.698   6.555 -1.4156  1.0190  1.0959
 3792SOL    HW212427   3.217   2.718   6.700  1.0569 -1.0084  0.7873
 3793SOL     OW12428   6.132   1.910   7.551 -0.5353  0.2844 -0.3405
 3793SOL    HW112429   6.209   1.870   7.591  0.4468  1.1958 -1.2552
 3793SOL    HW212430   6.102   1.974   7.614  0.9927  1.7035 -0.9813
 3794SOL     OW12431   5.404   2.486   5.431  0.1600 -0.0266  0.2128
 3794SOL    HW112432   5.376   2.566   5.388 -0.2667 -0.6772 -0.7697
 3794SOL    HW212433   5.341   2.473   5.501 -0.1752  0.1377 -0.0564
 3795SOL     OW12434   6.926   7.158   6.695  0.0813  0.1695  0.5015
 3795SOL    HW112435   6.881   7.073   6.700  1.1120 -0.3894  0.6292
 3795SOL    HW212436   6.857   7.221   6.675 -1.0346 -0.4072  2.3001
 3796SOL     OW12437   2.088   2.751   0.393 -0.3792 -0.3827  0.2079
 3796SOL    HW112438   2.101   2.664   0.430  1.5395 -0.3425 -0.2623
 3796SOL    HW212439   2.040   2.736   0.311  0.9375 -1.1328 -0.4431
 3797SOL     OW12440   5.187   7.395   3.687  0.1154 -0.1220 -0.3390
 3797SOL    HW112441   5.221   7.472   3.733  1.3129 -1.2884  0.8187
 3797SOL    HW212442   5.106   7.374   3.735 -0.5674  0.7639 -1.0668
 3798SOL     OW12443   4.010   6.061   0.521 -0.2333 -0.0477  0.7578
 3798SOL    HW112444   4.050   6.125   0.463  0.4696  1.6640  2.9821
 3798SOL    HW212445   4.071   5.987   0.522 -0.9127 -0.7373 -1.6188
 3799SOL     OW12446   6.336   1.946   8.167  0.4947  0.3762 -0.2201
 3799SOL    HW112447   6.297   1.921   8.083 -0.4084  0.0131  0.2888
 3799SOL    HW212448   6.407   2.006   8.144  1.3183 -0.9604 -1.3468
 3800SOL     OW12449   4.338   5.212   1.705 -0.0864  0.1873 -0.2545
 3800SOL    HW112450   4.315   5.298   1.669  1.1879  0.7242  0.1742
 3800SOL    HW212451   4.266   5.192   1.765 -1.5680 -0.1142 -2.0454
 3801SOL     OW12452   1.607   0.476   7.361 -0.2448  0.4257 -0.3526
 3801SOL    HW112453   1.597   0.475   7.266  1.1187 -1.0364 -0.5243
 3801SOL    HW212454   1.639   0.564   7.380 -1.1699  0.9579 -1.1457
 3802SOL     OW12455   5.904   2.952   2.238  0.1819 -0.2903  0.0723
 3802SOL    HW112456   5.842   2.966   2.309 -0.8432  1.4338 -1.1135
 3802SOL    HW212457   5.916   3.038   2.198  1.3734 -1.0541 -1.3242
 3803SOL     OW12458   1.945   5.526   6.093  0.1190 -0.3619  0.1463
 3803SOL    HW112459   2.006   5.502   6.023 -0.1826  0.3367 -0.3638
 3803SOL    HW212460   1.858   5.512   6.055 -0.0609 -1.7293  1.0008
 3804SOL     OW12461   5.183   6.997   7.803 -0.1513 -0.0698  0.2482
 3804SOL    HW112462   5.237   7.013   7.726  1.5672  1.0306  1.6094
 3804SOL    HW212463   5.240   6.949   7.863 -1.3723 -0.6940  0.9509
 3805SOL     OW12464   0.874   0.021   4.477 -0.7871  0.2907  0.4633
 3805SOL    HW112465   0.819   0.001   4.553 -1.0656 -0.9040 -0.0397
 3805SOL    HW212466   0.819   0.000   4.401 -0.3960  1.1553 -0.0769
 3806SOL     OW12467   3.108   3.891   7.041 -0.4906  0.0336  0.1391
 3806SOL    HW112468   3.033   3.833   7.053  0.7271 -1.6469 -0.0966
 3806SOL    HW212469   3.119   3.934   7.126 -0.4489 -1.2720  0.8047
 3807SOL     OW12470   6.051   6.253   2.810 -0.0587  0.5576 -0.5002
 3807SOL    HW112471   6.028   6.241   2.718  1.5235 -1.3111 -0.7322
 3807SOL    HW212472   6.047   6.348   2.824 -0.6458  0.8490 -2.3943
 3808SOL     OW12473   4.890   3.313   1.632 -0.6214 -0.0147  0.4861
 3808SOL    HW112474   4.976   3.335   1.666 -0.4314 -0.5357  0.3417
 3808SOL    HW212475   4.858   3.395   1.593  0.6508 -0.2879 -1.2650
 3809SOL     OW12476   5.625   3.483   5.391 -0.2196 -0.1099 -0.1465
 3809SOL    HW112477   5.714   3.475   5.426 -0.4301  0.5980  0.5897
 3809SOL    HW212478   5.602   3.575   5.407  0.1290  0.6207 -3.2906
 3810SOL     OW12479   2.204   2.010   5.948 -0.0611  0.8867  0.3192
 3810SOL    HW112480   2.285   1.971   5.980 -0.4897  1.6838  2.5801
 3810SOL    HW212481   2.135   1.959   5.991 -0.7375  0.8955 -0.7348
 3811SOL     OW12482   8.061   2.317   7.961  0.0364 -0.3364 -0.4951
 3811SOL    HW112483   8.091   2.231   7.989 -1.4671 -0.7093  0.0718
 3811SOL    HW212484   8.134   2.353   7.911  0.9007 -1.7028 -0.2611
 3812SOL     OW12485   7.074   4.012   0.694 -0.0247  0.2389 -0.3900
 3812SOL    HW112486   7.138   3.952   0.656 -0.6870 -0.0592 -1.0544
 3812SOL    HW212487   7.108   4.099   0.672  0.8521  0.1347  0.4387
 3813SOL     OW12488   5.930   6.641   5.983 -0.0729 -0.3247  0.1631
 3813SOL    HW112489   5.991   6.714   5.971 -0.0671 -0.4353 -0.5381
 3813SOL    HW212490   5.846   6.675   5.954  0.4430 -1.4240 -3.0834
 3814SOL     OW12491   2.241   0.704   1.183  0.1992  0.2171  0.2197
 3814SOL    HW112492   2.285   0.717   1.099  1.2861  0.0558  0.7525
 3814SOL    HW212493   2.307   0.665   1.239 -0.5810  0.1309  1.0981
 3815SOL     OW12494   3.162   4.486   0.571  0.4509 -0.0843  0.4030
 3815SOL    HW112495   3.135   4.577   0.580  1.1137 -0.0116  2.0614
 3815SOL    HW212496   3.230   4.474   0.638  1.3493 -1.4349 -0.6951
 3816SOL     OW12497   3.397   8.056   0.865  0.3625 -0.4342  0.2581
 3816SOL    HW112498   3.374   8.001   0.939 -0.3873 -0.1012  0.2727
 3816SOL    HW212499   3.474   8.105   0.895  0.1786 -0.4403  0.7394
 3817SOL     OW12500   3.908   5.588   6.569  0.1091 -0.1999 -0.0455
 3817SOL    HW112501   3.969   5.659   6.590 -1.2647  0.9800  0.0807
 3817SOL    HW212502   3.965   5.512   6.558  1.5778  0.7589  0.4389
 3818SOL     OW12503   1.940   2.238   1.269 -0.0228  0.1146  0.3897
 3818SOL    HW112504   1.904   2.203   1.187 -2.0628  2.1175  0.3562
 3818SOL    HW212505   2.000   2.169   1.299 -3.6961 -3.5078  0.3715
 3819SOL     OW12506   1.108   2.351   2.363  0.0362  0.4336  0.2149
 3819SOL    HW112507   1.203   2.345   2.368  0.1278  0.5345 -1.1223
 3819SOL    HW212508   1.090   2.441   2.336 -0.3242 -0.1234 -1.5150
 3820SOL     OW12509   2.266   3.707   4.833 -0.1750 -0.3953  0.4124
 3820SOL    HW112510   2.298   3.786   4.789  0.2656 -0.9135 -0.2026
 3820SOL    HW212511   2.211   3.663   4.768  0.3358 -1.0705  0.4308
 3821SOL     OW12512   4.493   5.628   2.290 -0.2343 -0.4909  0.1167
 3821SOL    HW112513   4.573   5.627   2.237 -0.4112  0.9980 -0.2198
 3821SOL    HW212514   4.485   5.718   2.320 -0.3610 -1.1890  2.3991
 3822SOL     OW12515   3.854   5.727   0.055 -0.4739  0.0971  0.0840
 3822SOL    HW112516   3.844   5.671  -0.022  1.7848 -0.3080  0.0148
 3822SOL    HW212517   3.852   5.816   0.020  1.7318 -0.0957 -0.6958
 3823SOL     OW12518   5.670   5.004   6.667  0.7020  0.3882  0.1097
 3823SOL    HW112519   5.718   4.946   6.607  0.8198  0.8988 -0.3018
 3823SOL    HW212520   5.578   4.983   6.651  0.7698 -0.3178  0.6173
 3824SOL     OW12521   3.359   3.749   3.752 -0.6113 -0.2738  0.5279
 3824SOL    HW112522   3.323   3.688   3.816  0.4895 -1.1227  0.3696
 3824SOL    HW212523   3.397   3.693   3.684 -1.6711  0.6058 -0.8285
 3825SOL     OW12524   4.045   0.705   7.627 -0.1803 -0.0490  0.4770
 3825SOL    HW112525   4.066   0.667   7.541 -0.9413 -0.6505  0.5464
 3825SOL    HW212526   4.026   0.630   7.683 -0.2076  0.3654  1.0365
 3826SOL     OW12527   4.840   3.345   3.636 -0.0691  0.1351  0.3388
 3826SOL    HW112528   4.918   3.396   3.657  1.1913 -2.0045  1.1759
 3826SOL    HW212529   4.801   3.391   3.562  1.2128  2.0281  0.7549
 3827SOL     OW12530   7.494   0.371   0.392 -0.6915  0.7409  0.4557
 3827SOL    HW112531   7.580   0.365   0.352 -1.1140  0.8377 -0.5113
 3827SOL    HW212532   7.439   0.313   0.339 -0.7229 -1.2768  2.5216
 3828SOL     OW12533   0.905   1.323   2.730 -0.0566  0.5036  0.3385
 3828SOL    HW112534   0.880   1.302   2.640  1.2194  0.0094  0.0747
 3828SOL    HW212535   0.924   1.417   2.729 -0.8471  0.6687  0.2996
 3829SOL     OW12536   1.107   0.838   5.143 -0.1880 -0.8547  0.5286
 3829SOL    HW112537   1.110   0.923   5.100  0.6968 -1.8713 -1.5805
 3829SOL    HW212538   1.048   0.850   5.217  0.3576  1.7142  0.6310
 3830SOL     OW12539   1.016   4.594   8.142 -0.7942 -0.7505  0.5174
 3830SOL    HW112540   1.034   4.680   8.105 -0.9822 -0.8406  0.2197
 3830SOL    HW212541   0.943   4.608   8.202 -1.3798 -0.8557 -0.1587
 3831SOL     OW12542   1.388   0.873   0.798 -0.6613 -0.1297  0.3266
 3831SOL    HW112543   1.347   0.842   0.879 -0.5207  1.0978  0.8969
 3831SOL    HW212544   1.408   0.965   0.816 -3.4181  1.1098 -2.1779
 3832SOL     OW12545   4.035   8.046   5.437  0.2110  0.4137 -0.1845
 3832SOL    HW112546   4.116   8.009   5.472 -0.0893  0.9710  1.1424
 3832SOL    HW212547   4.001   7.977   5.380  0.3204 -0.8629  1.2256
 3833SOL     OW12548   1.848   7.211   4.659 -0.0487  0.0076  0.4950
 3833SOL    HW112549   1.814   7.288   4.613  0.1559 -0.6195 -0.7598
 3833SOL    HW212550   1.934   7.238   4.692 -0.6034  0.7650  1.3653
 3834SOL     OW12551   3.034   2.830   1.514  0.0470  0.6474  0.3011
 3834SOL    HW112552   3.101   2.763   1.521 -1.6847 -1.2713 -0.4057
 3834SOL    HW212553   3.023   2.863   1.604 -0.8610 -1.9335  1.2273
 3835SOL     OW12554   5.744   3.651   7.181  0.4448 -0.3329  0.5196
 3835SOL    HW112555   5.818   3.625   7.125 -0.6716  0.1592 -1.2628
 3835SOL    HW212556   5.697   3.717   7.130 -3.3271 -3.1686 -0.1039
 3836SOL     OW12557   7.425   3.479   4.989 -0.2396  0.0523 -0.1013
 3836SOL    HW112558   7.509   3.457   4.950 -0.2189 -0.7530  0.3939
 3836SOL    HW212559   7.442   3.557   5.042  0.7876 -1.5528  2.0532
 3837SOL     OW12560   7.292   0.668   5.507  0.4516  0.1000  0.3373
 3837SOL    HW112561   7.293   0.608   5.582 -2.1619  0.2988  0.6252
 3837SOL    HW212562   7.236   0.624   5.443 -0.1015  1.4438 -0.1305
 3838SOL     OW12563   6.960   4.159   7.190  0.1541 -0.4006  0.4921
 3838SOL    HW112564   6.910   4.123   7.264 -1.1214  1.5956  0.6619
 3838SOL    HW212565   6.897   4.163   7.118  1.0051 -0.9715 -0.3017
 3839SOL     OW12566   8.175   6.588   4.645  0.1948 -0.2717  0.4627
 3839SOL    HW112567   8.241   6.640   4.689 -0.8239 -1.0305  3.0578
 3839SOL    HW212568   8.107   6.650   4.621  0.7777  0.1590 -0.1030
 3840SOL     OW12569   3.917   0.489   1.234 -0.2854  0.3839  0.3169
 3840SOL    HW112570   3.953   0.402   1.215 -0.2323  0.0261  1.9720
 3840SOL    HW212571   3.986   0.533   1.283  0.0084  1.6904 -1.1804
 3841SOL     OW12572   1.697   8.210   6.445 -0.1234 -0.3568 -0.4550
 3841SOL    HW112573   1.622   8.163   6.409 -1.1242  1.2092 -0.5293
 3841SOL    HW212574   1.703   8.290   6.392  0.3501  0.4789  0.8040
 3842SOL     OW12575   1.144   4.637   6.084  0.2325  0.2769  0.2888
 3842SOL    HW112576   1.172   4.604   6.169  2.4208  0.3713 -0.3310
 3842SOL    HW212577   1.078   4.575   6.053 -0.1521 -0.0734  1.7655
 3843SOL     OW12578   5.197   1.175   8.076  0.0145 -0.1559  0.4724
 3843SOL    HW112579   5.214   1.081   8.079  1.1133 -0.0499 -1.2118
 3843SOL    HW212580   5.114   1.183   8.030  0.2115 -0.2944  0.0869
 3844SOL     OW12581   7.085   2.612   0.015  0.2758  0.3028 -0.0324
 3844SOL    HW112582   7.098   2.601  -0.080  1.4600  1.6526 -0.0456
 3844SOL    HW212583   6.991   2.628   0.024 -0.2748 -2.1310 -0.7101
 3845SOL     OW12584   3.016   2.448   1.049  0.3246 -0.2213  0.6160
 3845SOL    HW112585   3.002   2.466   0.956 -1.1654  0.8445  1.0052
 3845SOL    HW212586   3.019   2.534   1.090 -2.5790 -0.6303  1.9857
 3846SOL     OW12587   6.022   7.253   6.590  0.0148 -0.3506  0.1704
 3846SOL    HW112588   5.930   7.231   6.576  0.5078 -2.7034  0.2271
 3846SOL    HW212589   6.040   7.228   6.680  1.1027 -1.5591 -0.3487
 3847SOL     OW12590   3.027   0.775   5.056  0.1051 -0.2489  0.7646
 3847SOL    HW112591   3.043   0.864   5.026  0.9523 -0.4593  0.5634
 3847SOL    HW212592   2.942   0.751   5.018 -0.5125  0.7381  1.4705
 3848SOL     OW12593   4.235   7.471   8.190  0.3095  0.3638  0.0162
 3848SOL    HW112594   4.330   7.476   8.184  0.1503  2.1801 -2.0470
 3848SOL    HW212595   4.209   7.547   8.242 -0.0511 -0.1087  0.5509
 3849SOL     OW12596   3.053   7.043   2.312  0.2874 -0.0786 -0.5890
 3849SOL    HW112597   3.111   7.066   2.385 -0.7644 -1.1678  0.6427
 3849SOL    HW212598   3.003   7.123   2.296 -0.7555 -0.3339  1.1539
 3850SOL     OW12599   2.771   5.026   5.746 -0.4376  0.1701  0.6805
 3850SOL    HW112600   2.745   4.960   5.812  0.7831 -0.7867  0.2455
 3850SOL    HW212601   2.692   5.079   5.734 -2.0026 -2.1507 -0.0770
 3851SOL     OW12602   1.186   7.126   4.060 -0.0638 -0.1842  0.0482
 3851SOL    HW112603   1.210   7.118   3.967  0.2998  0.5834  0.0653
 3851SOL    HW212604   1.225   7.209   4.087 -2.4491  0.9704  0.1758
 3852SOL     OW12605   1.547   3.426   5.056  0.1279 -0.1044 -0.5571
 3852SOL    HW112606   1.604   3.354   5.030  1.8977  2.0030 -2.9608
 3852SOL    HW212607   1.598   3.475   5.121  0.3103  0.7581 -1.3386
 3853SOL     OW12608   6.492   2.942   2.234 -0.6002 -0.2635 -0.0009
 3853SOL    HW112609   6.446   2.981   2.309  2.4510  0.8088  1.4648
 3853SOL    HW212610   6.490   2.848   2.252  0.6999  0.0085  1.9072
 3854SOL     OW12611   5.469   3.394   2.441  0.5102  0.1014 -0.8382
 3854SOL    HW112612   5.535   3.394   2.510 -0.7212 -2.1471  0.4273
 3854SOL    HW212613   5.466   3.304   2.410 -3.1670 -0.3822  0.4164
 3855SOL     OW12614   0.018   3.670   6.904  0.3440 -0.2393 -0.0137
 3855SOL    HW112615  -0.065   3.636   6.937 -0.7587  0.9611 -1.4094
 3855SOL    HW212616   0.056   3.717   6.978 -0.0858 -1.0120  0.7147
 3856SOL     OW12617   7.337   3.194   6.084  0.7781 -0.1364 -0.5482
 3856SOL    HW112618   7.417   3.142   6.088  0.4144 -0.6016  2.4596
 3856SOL    HW212619   7.367   3.284   6.066  2.2161  0.0269  2.2247
 3857SOL     OW12620   4.680   2.088   5.366  0.5732  0.5281  0.5095
 3857SOL    HW112621   4.613   2.142   5.325  1.0571 -0.7753 -2.2291
 3857SOL    HW212622   4.762   2.135   5.349  0.7475  0.1050  0.1377
 3858SOL     OW12623   6.272   3.608   2.723 -0.4597 -0.1413  0.2195
 3858SOL    HW112624   6.215   3.685   2.718 -0.9219 -0.5651 -1.8057
 3858SOL    HW212625   6.299   3.592   2.633  1.4501 -1.0356  0.8987
 3859SOL     OW12626   1.972   6.017   0.019 -0.6283  0.2780 -0.0564
 3859SOL    HW112627   1.949   5.929   0.050  0.6198  0.3047  1.0307
 3859SOL    HW212628   1.928   6.076   0.081 -0.8423  0.4061 -0.3302
 3860SOL     OW12629   2.153   4.636   0.626  0.0767 -0.3495 -0.2420
 3860SOL    HW112630   2.101   4.683   0.560  1.3933  1.2880 -0.1784
 3860SOL    HW212631   2.204   4.573   0.575 -0.3088 -0.4207 -0.5528
 3861SOL     OW12632   7.543   2.859   4.487 -0.1420 -0.5106 -0.3831
 3861SOL    HW112633   7.568   2.900   4.405  0.5116  1.3040  0.6751
 3861SOL    HW212634   7.557   2.765   4.472  0.5662 -0.1663 -2.1149
 3862SOL     OW12635   3.943   3.511   1.736 -0.5253 -0.5637 -0.5825
 3862SOL    HW112636   3.951   3.515   1.832 -0.2203 -2.1515 -0.5021
 3862SOL    HW212637   4.021   3.557   1.704  0.5446 -1.8855 -0.0034
 3863SOL     OW12638   7.231   8.126   5.363  0.7048 -0.0539  0.4562
 3863SOL    HW112639   7.232   8.214   5.401 -1.8660  1.0218 -1.6933
 3863SOL    HW212640   7.165   8.079   5.415  0.1232  0.1677 -0.0641
 3864SOL     OW12641   5.321   7.783   5.396 -0.3797  0.4122 -0.4385
 3864SOL    HW112642   5.415   7.799   5.397 -0.3726  0.3471  0.2931
 3864SOL    HW212643   5.285   7.857   5.347 -0.0496  1.0012  0.1965
 3865SOL     OW12644   3.224   1.592   6.396  0.1675  0.6281 -0.1797
 3865SOL    HW112645   3.272   1.668   6.363  0.4543  0.4632 -0.1469
 3865SOL    HW212646   3.142   1.628   6.429  0.3863  0.9523  0.0223
 3866SOL     OW12647   6.553   3.853   7.449 -0.4577 -0.1463  0.0512
 3866SOL    HW112648   6.528   3.883   7.362 -2.5894  0.6648  0.8839
 3866SOL    HW212649   6.484   3.886   7.507  1.1057 -0.3034  2.1267
 3867SOL     OW12650   3.234   4.852   0.091 -0.1175 -0.2048  0.3534
 3867SOL    HW112651   3.285   4.785   0.135 -0.4358 -1.3578 -0.9643
 3867SOL    HW212652   3.279   4.865   0.007 -0.9210  0.1295 -0.0367
 3868SOL     OW12653   3.075   1.570   3.616  0.4596 -0.0477  0.1229
 3868SOL    HW112654   3.080   1.665   3.605  0.4856 -0.3044 -2.8729
 3868SOL    HW212655   2.999   1.557   3.673  0.2507  1.7368  0.3322
 3869SOL     OW12656   7.701   3.737   7.385 -0.7593  0.1560 -0.8364
 3869SOL    HW112657   7.681   3.654   7.342  1.0133 -0.0055 -1.4351
 3869SOL    HW212658   7.756   3.784   7.323  2.3150 -0.2751  1.3210
 3870SOL     OW12659   4.443   2.292   3.104 -0.0809 -0.5243 -0.9473
 3870SOL    HW112660   4.528   2.328   3.080 -0.3116  1.4697  0.8892
 3870SOL    HW212661   4.428   2.221   3.041  1.9550  0.4357 -2.6427
 3871SOL     OW12662   5.716   6.269   4.645  0.6399 -0.1228 -0.3035
 3871SOL    HW112663   5.622   6.288   4.642  0.4557 -1.0503 -1.5611
 3871SOL    HW212664   5.752   6.320   4.573  0.7772 -1.2450 -1.0531
 3872SOL     OW12665   2.496   0.414   5.383 -0.0251 -0.2452 -0.5204
 3872SOL    HW112666   2.578   0.424   5.334 -0.4811  0.3207 -1.1843
 3872SOL    HW212667   2.524   0.406   5.475  0.7705 -0.1174 -0.7420
 3873SOL     OW12668   6.604   5.561   6.854 -0.1066  0.3633  0.0653
 3873SOL    HW112669   6.615   5.474   6.893  0.9462  0.8048  0.8026
 3873SOL    HW212670   6.621   5.548   6.761  0.6513 -0.1267  0.2639
 3874SOL     OW12671   2.941   2.437   8.234 -0.0844  0.1025 -0.2888
 3874SOL    HW112672   3.015   2.394   8.191 -0.5965 -1.2139  0.1057
 3874SOL    HW212673   2.962   2.434   8.327 -1.0331 -1.0916 -0.0986
 3875SOL     OW12674   5.947   4.188   3.190  0.0696  0.7927  0.0870
 3875SOL    HW112675   5.903   4.191   3.105  1.5237  0.5009 -0.6907
 3875SOL    HW212676   5.999   4.108   3.188  0.1866  0.8210  1.2337
 3876SOL     OW12677   2.289   5.702   1.370 -0.0518  1.0546 -0.3456
 3876SOL    HW112678   2.221   5.747   1.319  1.2165  0.6075 -2.5472
 3876SOL    HW212679   2.263   5.610   1.368 -0.0852  1.0561 -0.0272
 3877SOL     OW12680   0.979   6.795   2.853 -0.1520 -0.2212 -0.0263
 3877SOL    HW112681   0.980   6.705   2.819 -1.9360 -1.1580  2.1138
 3877SOL    HW212682   0.997   6.786   2.946  0.3186  1.7610  0.1220
 3878SOL     OW12683   3.838   1.042   8.269  0.2392 -0.5593  0.1664
 3878SOL    HW112684   3.770   1.105   8.293  0.8385  0.6241 -1.0860
 3878SOL    HW212685   3.854   1.059   8.176  1.9211 -1.1203  0.3262
 3879SOL     OW12686   3.439   2.044   7.332  0.1377  0.0025 -0.2511
 3879SOL    HW112687   3.404   2.088   7.410 -0.0024 -0.6416  0.0604
 3879SOL    HW212688   3.413   2.100   7.259 -0.7905 -0.0061  0.0547
 3880SOL     OW12689   5.320   6.159   4.378 -0.6081 -0.5853 -0.4640
 3880SOL    HW112690   5.324   6.189   4.287  1.7564 -0.6409 -0.4357
 3880SOL    HW212691   5.280   6.232   4.425 -0.3018  0.1379 -1.2919
 3881SOL     OW12692   2.864   4.013   2.519 -0.3994  0.1408 -0.0885
 3881SOL    HW112693   2.957   4.003   2.497 -0.8423 -0.0642 -2.1054
 3881SOL    HW212694   2.852   4.108   2.529 -0.1434  0.2542 -0.7795
 3882SOL     OW12695   3.165   6.919   1.158 -0.2413  0.2705  0.0814
 3882SOL    HW112696   3.110   6.947   1.085  0.4349  0.8114 -0.2267
 3882SOL    HW212697   3.229   6.989   1.169  0.9155 -0.7167 -0.1046
 3883SOL     OW12698   4.721   1.905   5.775 -0.0084  0.3300  0.2978
 3883SOL    HW112699   4.687   1.988   5.743  0.1261  0.3166  0.1147
 3883SOL    HW212700   4.656   1.875   5.839 -1.6645 -0.8943 -1.8031
 3884SOL     OW12701   6.544   5.732   1.153 -0.4513  0.0301  0.2674
 3884SOL    HW112702   6.617   5.672   1.171 -1.9015 -1.8464  0.2364
 3884SOL    HW212703   6.471   5.695   1.201 -1.4717  1.7011  0.0588
 3885SOL     OW12704   1.700   2.218   3.318 -0.2226 -0.0566 -0.3844
 3885SOL    HW112705   1.787   2.181   3.311  0.4167  1.0606  1.0730
 3885SOL    HW212706   1.687   2.232   3.412 -0.9495  2.0815 -0.7469
 3886SOL     OW12707   3.415   6.367   3.844  0.2997  0.4262  0.1057
 3886SOL    HW112708   3.398   6.286   3.796 -2.7820  1.1636 -0.2754
 3886SOL    HW212709   3.443   6.338   3.930  1.1061 -0.9961 -0.5960
 3887SOL     OW12710   1.021   3.882   2.404  0.0602 -0.0075  0.3036
 3887SOL    HW112711   0.975   3.898   2.321  0.7655 -0.3918 -0.1736
 3887SOL    HW212712   1.079   3.957   2.414  3.0037 -1.8145 -1.6845
 3888SOL     OW12713   0.416   3.347   3.759  0.0700 -0.2224  0.4613
 3888SOL    HW112714   0.480   3.316   3.823  0.2772 -0.5631  0.0954
 3888SOL    HW212715   0.354   3.398   3.811 -0.0566 -0.9243  1.0293
 3889SOL     OW12716   6.786   7.441   7.673  0.3977  0.5935 -0.1574
 3889SOL    HW112717   6.794   7.364   7.617  1.4785  1.4801 -1.2683
 3889SOL    HW212718   6.692   7.462   7.672  0.2535 -0.0568 -0.7301
 3890SOL     OW12719   2.943   1.042   6.392 -0.8935 -0.4129 -0.9724
 3890SOL    HW112720   2.991   0.983   6.333 -0.2387  0.9112 -1.8200
 3890SOL    HW212721   3.009   1.106   6.420 -2.1977  1.8587 -2.6648
 3891SOL     OW12722   3.808   2.112   0.344  0.1403  0.9315  0.5862
 3891SOL    HW112723   3.734   2.093   0.286 -0.7489 -0.4211  2.0925
 3891SOL    HW212724   3.773   2.106   0.432  1.9601  0.6388  1.3485
 3892SOL     OW12725   1.859   3.441   2.799 -0.7081 -0.0721  0.1212
 3892SOL    HW112726   1.888   3.366   2.851 -0.0918 -0.2343 -0.4385
 3892SOL    HW212727   1.908   3.515   2.834 -0.9050 -0.0291  0.3090
 3893SOL     OW12728   7.708   4.205   6.566  0.1318  0.1372  1.0544
 3893SOL    HW112729   7.653   4.258   6.623 -0.5833 -1.5946  2.0437
 3893SOL    HW212730   7.649   4.138   6.532  1.1323 -0.3925  0.3111
 3894SOL     OW12731   6.452   5.884   5.437 -0.4803  0.1379  0.1929
 3894SOL    HW112732   6.432   5.803   5.483  0.6581 -0.0780  0.3480
 3894SOL    HW212733   6.395   5.950   5.477  0.6128 -0.0046  2.0830
 3895SOL     OW12734   3.146   7.803   4.080  0.7401  0.2024 -0.2597
 3895SOL    HW112735   3.185   7.837   4.160  0.2971  2.3595 -0.9099
 3895SOL    HW212736   3.055   7.784   4.105  0.5663  0.9928 -0.2802
 3896SOL     OW12737   5.995   7.213   4.748 -0.1455 -0.3039  0.0258
 3896SOL    HW112738   5.982   7.178   4.836 -0.1559  0.1615  0.2153
 3896SOL    HW212739   5.916   7.264   4.730 -0.0623 -0.2452 -0.1772
 3897SOL     OW12740   4.847   5.492   1.145  0.3936 -0.2540  0.7340
 3897SOL    HW112741   4.876   5.450   1.225  1.1624  0.4720  0.8562
 3897SOL    HW212742   4.928   5.507   1.095 -0.0217 -0.2673  0.0368
 3898SOL     OW12743   0.271   6.800   7.702  0.4057  0.6229 -0.2300
 3898SOL    HW112744   0.228   6.863   7.759  1.0803  0.5288  0.3994
 3898SOL    HW212745   0.215   6.794   7.625 -1.3145 -0.3420  1.0279
 3899SOL     OW12746   5.405   2.679   0.076  0.9219  0.1940 -0.0589
 3899SOL    HW112747   5.393   2.734  -0.001  1.2971  1.8391  1.0055
 3899SOL    HW212748   5.491   2.702   0.110  0.5185 -0.0463  1.1945
 3900SOL     OW12749   8.270   4.131   4.342  0.4379 -0.1496 -0.3208
 3900SOL    HW112750   8.248   4.093   4.257 -3.8981 -1.2879  1.0594
 3900SOL    HW212751   8.246   4.223   4.333  2.3168  0.3065 -0.9812
 3901SOL     OW12752   8.022   1.400   8.266  0.3315  0.3704 -0.1874
 3901SOL    HW112753   8.020   1.377   8.359  0.3987 -0.2150 -0.3290
 3901SOL    HW212754   7.965   1.335   8.224 -2.6898  2.7174 -0.1298
 3902SOL     OW12755   3.089   3.109   3.811 -0.2199  0.7854  0.2241
 3902SOL    HW112756   3.073   3.077   3.722 -0.9229  1.0446  0.2536
 3902SOL    HW212757   3.080   3.032   3.867  3.0411 -0.0301 -0.1611
 3903SOL     OW12758   6.293   2.226   0.017  0.3759  0.2755 -0.3788
 3903SOL    HW112759   6.319   2.315   0.043  2.2541 -0.2881 -0.1987
 3903SOL    HW212760   6.362   2.198  -0.043 -0.0529 -1.1726 -0.2238
 3904SOL     OW12761   0.991   6.712   5.628  0.4780  0.1708 -0.0143
 3904SOL    HW112762   1.067   6.741   5.576 -1.1511  3.1628 -0.9392
 3904SOL    HW212763   0.936   6.665   5.565 -0.3603  1.6791 -0.4366
 3905SOL     OW12764   5.273   4.406   1.801 -0.4955  0.4282 -1.2355
 3905SOL    HW112765   5.348   4.376   1.852 -1.3217 -0.8477 -0.7279
 3905SOL    HW212766   5.242   4.485   1.846 -1.7783 -1.1695  0.8598
 3906SOL     OW12767   1.094   5.957   5.801 -0.7000  0.2419 -0.0121
 3906SOL    HW112768   1.096   5.881   5.744 -1.8564 -1.6515  2.2962
 3906SOL    HW212769   1.024   6.012   5.765 -0.8820 -0.5230 -0.8473
 3907SOL     OW12770   0.717   6.898   7.603 -0.0338  0.3311 -0.1373
 3907SOL    HW112771   0.669   6.822   7.570 -0.1629  0.2400  0.2484
 3907SOL    HW212772   0.649   6.955   7.640  0.0649  0.6216 -0.3991
 3908SOL     OW12773   4.595   8.265   5.046 -0.0281  0.3801 -0.0055
 3908SOL    HW112774   4.658   8.321   5.092  0.2158  1.7767 -1.9122
 3908SOL    HW212775   4.629   8.176   5.058  1.0378  0.8774  0.8943
 3909SOL     OW12776   4.292   8.188   3.456 -0.1267 -0.4394  0.6125
 3909SOL    HW112777   4.323   8.257   3.515 -1.4245  0.8991 -0.2039
 3909SOL    HW212778   4.372   8.147   3.423  0.7316  1.3109  0.4034
 3910SOL     OW12779   7.486   0.913   0.724  0.2438  0.1445  0.4411
 3910SOL    HW112780   7.453   0.827   0.750  0.7969 -0.1090  0.3130
 3910SOL    HW212781   7.515   0.901   0.634 -0.9835  0.8292 -0.0682
 3911SOL     OW12782   5.100   3.797   7.273 -0.1393 -0.3611  0.1570
 3911SOL    HW112783   5.027   3.814   7.332 -0.3974 -1.2456  0.1058
 3911SOL    HW212784   5.157   3.738   7.322 -0.8026 -1.8381 -0.7815
 3912SOL     OW12785   3.056   8.080   7.867 -0.2188  0.1399 -0.0881
 3912SOL    HW112786   3.132   8.135   7.884  0.0963  0.0995 -1.2507
 3912SOL    HW212787   3.011   8.074   7.951  0.6310  0.8161  0.4324
 3913SOL     OW12788   0.321   1.745   3.430 -0.0976  0.8290 -0.0178
 3913SOL    HW112789   0.251   1.792   3.476 -1.3291 -0.3692 -0.5936
 3913SOL    HW212790   0.384   1.723   3.499 -1.9020 -0.9333  1.2038
 3914SOL     OW12791   7.055   1.602   5.520 -0.3240  0.8008 -0.4368
 3914SOL    HW112792   7.143   1.589   5.485 -0.0440  0.5245  0.3542
 3914SOL    HW212793   7.041   1.528   5.578 -1.1392  0.7665 -0.6664
 3915SOL     OW12794   4.686   4.464   3.456 -0.2066  0.2964  0.1294
 3915SOL    HW112795   4.631   4.526   3.408 -0.4515 -0.1768 -0.2095
 3915SOL    HW212796   4.757   4.443   3.395  0.1784  0.6678  0.4494
 3916SOL     OW12797   8.146   4.217   1.823 -0.2707  0.1330 -0.2892
 3916SOL    HW112798   8.158   4.299   1.776 -0.5374  0.4693  0.2247
 3916SOL    HW212799   8.116   4.155   1.756  1.0580  0.1281 -0.9236
 3917SOL     OW12800   2.019   7.189   1.924  0.7782 -0.8316 -1.2309
 3917SOL    HW112801   2.064   7.243   1.988  0.4171 -0.7267 -1.0609
 3917SOL    HW212802   1.967   7.128   1.976  1.5338 -1.6549 -1.4183
 3918SOL     OW12803   3.841   2.573   4.806  0.3734 -0.0190  0.8168
 3918SOL    HW112804   3.869   2.653   4.761  2.0031 -0.2211  1.4082
 3918SOL    HW212805   3.795   2.522   4.739  1.2910  0.4261 -0.1790
 3919SOL     OW12806   6.612   4.786   8.004  0.3415 -0.0449 -0.7668
 3919SOL    HW112807   6.643   4.871   8.035  1.1312 -0.7384  0.4507
 3919SOL    HW212808   6.526   4.776   8.044 -0.4490  0.8360 -2.1853
 3920SOL     OW12809   7.646   0.699   2.116 -0.4169 -0.5444 -0.0920
 3920SOL    HW112810   7.696   0.619   2.097  0.1384 -0.6810  1.7790
 3920SOL    HW212811   7.709   0.770   2.103  0.1619 -0.6810  1.7291
 3921SOL     OW12812   8.070   1.533   4.850  0.1380  0.0147 -1.0707
 3921SOL    HW112813   8.031   1.451   4.882  0.4814  0.3511  0.2754
 3921SOL    HW212814   8.000   1.574   4.799  0.1420 -1.3590 -2.2552
 3922SOL     OW12815   6.926   5.488   5.959 -0.1183 -0.1696 -0.7784
 3922SOL    HW112816   6.986   5.418   5.933  2.2665  1.7465 -0.7701
 3922SOL    HW212817   6.916   5.542   5.880 -1.0683  0.0949 -0.4909
 3923SOL     OW12818   6.383   6.822   6.262  0.5518 -0.3383  0.0254
 3923SOL    HW112819   6.466   6.792   6.224  0.0727  0.7422 -2.0642
 3923SOL    HW212820   6.332   6.743   6.274  1.5355 -0.9276  0.4583
 3924SOL     OW12821   4.316   4.229   7.509  0.2747  0.9050  1.0208
 3924SOL    HW112822   4.378   4.296   7.481 -0.9371  1.1478 -1.3670
 3924SOL    HW212823   4.232   4.273   7.511 -0.4257 -0.3077  0.1828
 3925SOL     OW12824   1.681   4.104   0.121  0.0584 -0.7322  0.6303
 3925SOL    HW112825   1.607   4.050   0.150 -2.1205  1.0163 -1.3082
 3925SOL    HW212826   1.683   4.092   0.026  1.4235  0.3016  0.5111
 3926SOL     OW12827   2.090   4.098   7.897 -0.1641  0.8305 -0.4275
 3926SOL    HW112828   2.174   4.116   7.939  0.2866 -0.9138 -0.4961
 3926SOL    HW212829   2.091   4.150   7.816 -0.3586  2.9477  0.8492
 3927SOL     OW12830   2.728   3.639   4.406 -0.4658  0.0772  0.1658
 3927SOL    HW112831   2.697   3.678   4.488 -0.6264  1.7133 -0.6279
 3927SOL    HW212832   2.686   3.553   4.403 -0.2670 -0.1220  1.8974
 3928SOL     OW12833   5.958   6.610   7.802 -0.5636 -0.8607  0.2760
 3928SOL    HW112834   5.960   6.542   7.869 -0.1458 -1.0214  0.1042
 3928SOL    HW212835   5.994   6.567   7.724  1.3761  0.0351  0.6110
 3929SOL     OW12836   7.339   5.462   2.340  0.7923  0.3281  0.0405
 3929SOL    HW112837   7.390   5.436   2.264  0.3613  0.3387 -0.2538
 3929SOL    HW212838   7.266   5.512   2.304 -0.8686 -1.8584  0.2358
 3930SOL     OW12839   3.544   4.817   4.063  0.1062  0.3332 -0.1499
 3930SOL    HW112840   3.625   4.773   4.088 -0.3517 -1.0403 -0.9227
 3930SOL    HW212841   3.525   4.876   4.136  0.7721 -0.7563  0.9508
 3931SOL     OW12842   6.064   1.452   3.514  0.0045  0.3817 -0.1239
 3931SOL    HW112843   6.122   1.527   3.525  0.9336 -0.3223 -0.0766
 3931SOL    HW212844   6.028   1.462   3.426  0.1477  0.8523 -0.1339
 3932SOL     OW12845   3.764   1.240   1.981 -0.2195  0.0714  0.5573
 3932SOL    HW112846   3.828   1.304   1.949  0.2173 -0.0174  1.2277
 3932SOL    HW212847   3.794   1.219   2.070 -1.7078  0.7280  1.2378
 3933SOL     OW12848   0.159   1.612   1.536 -0.5617 -1.0694 -0.3011
 3933SOL    HW112849   0.232   1.622   1.475 -1.1095 -0.8948 -0.9392
 3933SOL    HW212850   0.176   1.530   1.581  0.4694 -0.6143  0.1684
 3934SOL     OW12851   1.023   1.297   1.443 -0.3941 -0.7032 -0.8235
 3934SOL    HW112852   1.001   1.212   1.479 -0.2173 -0.7204 -0.7521
 3934SOL    HW212853   1.022   1.284   1.348 -0.9035 -0.6459 -0.8281
 3935SOL     OW12854   2.004   3.936   0.131  0.2020 -0.0923 -0.1358
 3935SOL    HW112855   1.979   3.921   0.040  2.0744  0.7593 -0.8386
 3935SOL    HW212856   1.923   3.961   0.175 -1.0841 -2.2044 -1.1428
 3936SOL     OW12857   6.934   7.074   1.891  0.3061  0.1304  0.6039
 3936SOL    HW112858   6.849   7.031   1.896  0.7513 -0.6588  2.2695
 3936SOL    HW212859   6.991   7.011   1.848  0.2176  0.3842  0.1066
 3937SOL     OW12860   6.649   5.088   3.044  0.1689 -0.3744  0.1806
 3937SOL    HW112861   6.601   5.006   3.036  0.2635 -0.4330  0.2087
 3937SOL    HW212862   6.729   5.074   2.993  1.6713 -1.4275  2.6060
 3938SOL     OW12863   2.461   7.055   2.942  0.3305  0.0185 -0.0421
 3938SOL    HW112864   2.446   7.059   2.848  0.0214  2.3971  0.0497
 3938SOL    HW212865   2.373   7.062   2.980  0.3541 -1.8815  0.4657
 3939SOL     OW12866   0.630   6.766   0.774  0.3548  0.4080 -0.0361
 3939SOL    HW112867   0.676   6.823   0.713 -0.2855  1.4171  0.3918
 3939SOL    HW212868   0.543   6.754   0.735  1.0707 -1.9390 -1.1246
 3940SOL     OW12869   1.527   4.599   2.699 -0.2804  0.6113 -0.2399
 3940SOL    HW112870   1.586   4.533   2.736 -0.7176 -0.3196 -1.1593
 3940SOL    HW212871   1.470   4.550   2.640 -1.8006  1.5479  0.4129
 3941SOL     OW12872   0.322   3.603   4.533 -0.0399 -0.3157 -0.4670
 3941SOL    HW112873   0.371   3.562   4.462  1.1468 -0.2731  0.2942
 3941SOL    HW212874   0.327   3.696   4.515  1.7813 -0.1531  0.5342
 3942SOL     OW12875   7.782   4.727   6.866  0.0511 -0.1342 -0.1041
 3942SOL    HW112876   7.818   4.676   6.939 -1.2056 -1.6095 -0.4489
 3942SOL    HW212877   7.713   4.780   6.906 -1.1955 -1.5533 -0.3054
 3943SOL     OW12878   2.351   2.144   2.100 -0.0298  0.2380 -0.3107
 3943SOL    HW112879   2.282   2.116   2.040  0.6329 -0.5798 -0.7208
 3943SOL    HW212880   2.305   2.164   2.182 -0.5417 -3.2038  0.4223
 3944SOL     OW12881   3.141   5.022   6.760  0.1148  0.0498 -0.4173
 3944SOL    HW112882   3.195   5.101   6.758 -0.4648  0.4486 -0.3882
 3944SOL    HW212883   3.104   5.016   6.672 -1.4840  0.9735  0.1443
 3945SOL     OW12884   8.125   0.238   5.978  0.1297  0.7837 -0.0021
 3945SOL    HW112885   8.194   0.240   6.044  0.6713  1.5281 -0.5782
 3945SOL    HW212886   8.172   0.238   5.895 -0.5072 -1.2031 -0.4326
 3946SOL     OW12887   6.573   6.821   1.235 -0.7751  0.5326  0.5937
 3946SOL    HW112888   6.649   6.865   1.274  1.0289 -1.4465 -0.4262
 3946SOL    HW212889   6.515   6.892   1.209  0.8226  2.1720  1.2612
 3947SOL     OW12890   1.114   3.660   3.319  0.4148 -0.2231  0.1548
 3947SOL    HW112891   1.077   3.647   3.232  1.6373  2.7747 -0.9652
 3947SOL    HW212892   1.038   3.681   3.375 -0.1746 -0.0084 -0.7094
 3948SOL     OW12893   0.474   3.285   0.941  0.0782 -0.2652  0.0098
 3948SOL    HW112894   0.443   3.197   0.918  0.6653 -0.3397 -0.5446
 3948SOL    HW212895   0.506   3.321   0.858  1.3082 -0.1443  0.5209
 3949SOL     OW12896   0.757   2.637   7.550 -0.1775  0.2153 -0.0251
 3949SOL    HW112897   0.820   2.708   7.561  0.5541 -0.3940 -0.2047
 3949SOL    HW212898   0.770   2.608   7.459 -0.1659 -0.4329  0.1799
 3950SOL     OW12899   5.514   1.793   5.897  0.0295 -0.0286 -0.0800
 3950SOL    HW112900   5.587   1.761   5.843 -0.9606 -4.4781  0.8604
 3950SOL    HW212901   5.441   1.799   5.836  0.2069  0.4376 -0.2517
 3951SOL     OW12902   6.455   0.125   6.333  0.2045  0.7610 -0.4442
 3951SOL    HW112903   6.500   0.063   6.391 -2.2839 -2.0971 -1.3468
 3951SOL    HW212904   6.503   0.119   6.250 -0.0612 -0.0241 -0.5452
 3952SOL     OW12905   7.071   7.989   1.830 -0.0795 -0.2313  0.0492
 3952SOL    HW112906   7.092   7.998   1.737  1.0730  1.2419  0.4013
 3952SOL    HW212907   7.143   7.935   1.865  0.0211  0.0362  0.2559
 3953SOL     OW12908   2.300   7.657   2.378 -0.2480  0.0128  0.3826
 3953SOL    HW112909   2.270   7.662   2.468 -2.2549  0.2548 -0.2458
 3953SOL    HW212910   2.352   7.577   2.374 -0.7082 -0.3614  1.5933
 3954SOL     OW12911   1.976   6.366   6.159 -0.2405 -0.2162 -0.1221
 3954SOL    HW112912   1.917   6.291   6.164 -0.2270 -0.1699  1.0263
 3954SOL    HW212913   2.057   6.330   6.122 -0.1875 -0.8149  0.5454
 3955SOL     OW12914   0.303   1.398   7.440  0.0349  0.4556  0.1561
 3955SOL    HW112915   0.264   1.406   7.353 -0.2741 -0.7853  0.1661
 3955SOL    HW212916   0.264   1.319   7.477 -1.3981  2.0272  2.2456
 3956SOL     OW12917   6.895   1.453   3.121 -0.3133  0.2938 -0.4055
 3956SOL    HW112918   6.942   1.481   3.042 -0.1524  0.2793 -0.3161
 3956SOL    HW212919   6.861   1.366   3.098 -0.4003  0.3570 -0.5140
 3957SOL     OW12920   7.372   1.562   0.995  0.3032  0.6165  0.9109
 3957SOL    HW112921   7.356   1.469   1.014 -1.5263  1.0271  1.6466
 3957SOL    HW212922   7.440   1.589   1.056  1.9324 -0.5528 -0.2972
 3958SOL     OW12923   1.656   6.032   2.404  0.0890  0.2969  0.7268
 3958SOL    HW112924   1.603   6.008   2.328  0.2806  0.3845  0.5648
 3958SOL    HW212925   1.595   6.079   2.461 -0.2007 -0.2721  0.8890
 3959SOL     OW12926   7.751   6.905   4.859  0.0500 -0.3379 -0.1125
 3959SOL    HW112927   7.768   6.814   4.885  0.0960  0.4763  3.1161
 3959SOL    HW212928   7.832   6.951   4.883 -0.9827  0.9931  0.9197
 3960SOL     OW12929   2.495   0.834   6.615  0.3310  0.2492  0.5326
 3960SOL    HW112930   2.517   0.885   6.692 -0.6859  0.6456  0.5727
 3960SOL    HW212931   2.571   0.842   6.557  1.0040  0.1301  1.3896
 3961SOL     OW12932   7.843   2.225   0.773  0.5338 -0.6011 -0.0946
 3961SOL    HW112933   7.899   2.238   0.696 -1.2091 -1.7246 -1.6242
 3961SOL    HW212934   7.785   2.301   0.774 -1.8667 -2.2548 -2.1436
 3962SOL     OW12935   5.730   7.863   5.653 -0.4198  0.4049  0.5178
 3962SOL    HW112936   5.774   7.934   5.699  0.5286 -0.2146  0.6023
 3962SOL    HW212937   5.801   7.818   5.606 -1.0065 -0.4606  0.4410
 3963SOL     OW12938   4.427   4.521   2.538  0.3694 -0.0706 -0.6204
 3963SOL    HW112939   4.477   4.569   2.472  1.5471  1.0656  1.0150
 3963SOL    HW212940   4.371   4.587   2.579 -0.0650 -0.6723 -0.2187
 3964SOL     OW12941   7.618   8.228   3.788  0.2802 -0.0818 -0.1211
 3964SOL    HW112942   7.586   8.231   3.878 -0.8974 -0.0692 -0.5258
 3964SOL    HW212943   7.704   8.186   3.795  0.4395  0.4058  1.0626
 3965SOL     OW12944   3.382   6.315   7.067  0.5853 -0.1757 -0.0906
 3965SOL    HW112945   3.292   6.284   7.060  0.5598 -0.7635  2.2286
 3965SOL    HW212946   3.427   6.273   6.994 -1.0619  0.4296 -1.5276
 3966SOL     OW12947   5.489   7.101   3.934  0.1550  0.1018  0.0003
 3966SOL    HW112948   5.553   7.113   4.004 -0.7999 -1.3811  1.1736
 3966SOL    HW212949   5.530   7.141   3.857  1.6792  0.8253  1.1476
 3967SOL     OW12950   2.597   3.837   0.359 -0.9222  0.3568  0.2113
 3967SOL    HW112951   2.648   3.917   0.369 -0.3327 -0.0403  0.4643
 3967SOL    HW212952   2.508   3.863   0.380 -0.6522  0.8373  0.8012
 3968SOL     OW12953   1.319   7.644   6.076  0.3920  0.1502 -0.3695
 3968SOL    HW112954   1.343   7.713   6.138  3.7348 -1.5239  0.4409
 3968SOL    HW212955   1.288   7.572   6.131 -2.0519  0.5396 -1.1303
 3969SOL     OW12956   2.516   2.782   2.991 -0.2878  0.1403  0.0801
 3969SOL    HW112957   2.563   2.860   3.021 -0.6813 -0.0651  1.2911
 3969SOL    HW212958   2.582   2.730   2.946  0.5771  0.0404  1.4070
 3970SOL     OW12959   1.465   2.372   0.707 -0.1367 -0.2529  0.0007
 3970SOL    HW112960   1.460   2.465   0.685  1.7657  0.2471  1.4545
 3970SOL    HW212961   1.427   2.365   0.795 -1.0582 -1.0380 -0.4275
 3971SOL     OW12962   6.274   3.343   4.426  0.2731 -0.0807  0.0284
 3971SOL    HW112963   6.306   3.430   4.402 -0.7072  0.2526 -0.1475
 3971SOL    HW212964   6.311   3.327   4.513 -0.9800  1.3247  0.8795
 3972SOL     OW12965   5.875   4.439   8.002  0.1564  0.3408  0.0943
 3972SOL    HW112966   5.910   4.457   8.089  2.5454 -0.2518 -0.6738
 3972SOL    HW212967   5.838   4.351   8.009  0.1086  0.3967  0.5747
 3973SOL     OW12968   6.798   3.469   0.083 -0.4256  0.3482 -0.5174
 3973SOL    HW112969   6.847   3.399   0.040 -1.9965 -1.3944  0.4069
 3973SOL    HW212970   6.758   3.428   0.160 -1.1238  2.3535  0.2802
 3974SOL     OW12971   7.806   3.867   3.707 -0.2854 -0.4871  0.4252
 3974SOL    HW112972   7.724   3.889   3.665 -0.0437 -1.4652 -0.5937
 3974SOL    HW212973   7.874   3.891   3.644  0.1511 -0.7324  0.7866
 3975SOL     OW12974   7.274   1.247   7.588  0.1846 -0.1592 -0.6121
 3975SOL    HW112975   7.308   1.161   7.614  1.0979 -0.1580 -1.7132
 3975SOL    HW212976   7.316   1.309   7.648  0.3179 -0.3807 -0.4753
 3976SOL     OW12977   0.379   5.591   0.395 -0.1196  0.1541 -0.1272
 3976SOL    HW112978   0.383   5.496   0.404  1.5496  0.2062  0.0452
 3976SOL    HW212979   0.310   5.607   0.331 -0.6763 -1.1404  0.1208
 3977SOL     OW12980   5.412   3.351   7.228  0.1738 -0.5035 -0.0875
 3977SOL    HW112981   5.480   3.411   7.260  0.2916 -0.0580 -1.1384
 3977SOL    HW212982   5.349   3.408   7.184 -0.9747 -0.8935  0.9898
 3978SOL     OW12983   0.742   8.026   4.551  0.6146  0.0793 -0.2505
 3978SOL    HW112984   0.758   8.104   4.605 -0.0478  1.0476 -1.3919
 3978SOL    HW212985   0.683   8.057   4.482  1.3822 -1.1331 -1.4852
 3979SOL     OW12986   2.850   1.418   0.487  0.3574  0.3422  0.2292
 3979SOL    HW112987   2.789   1.344   0.478 -1.3631  1.7985 -0.6020
 3979SOL    HW212988   2.916   1.403   0.419 -0.2027 -0.2262 -0.2046
 3980SOL     OW12989   4.823   2.657   6.062  0.0088 -0.2344 -0.3717
 3980SOL    HW112990   4.739   2.688   6.030 -0.3827  0.4177  1.1772
 3980SOL    HW212991   4.872   2.632   5.984 -1.6815 -0.7992 -1.2818
 3981SOL     OW12992   5.369   5.651   4.920 -0.5000  0.2863  0.5471
 3981SOL    HW112993   5.349   5.679   5.010 -0.4457 -0.4296  0.7891
 3981SOL    HW212994   5.461   5.626   4.923  0.2327  2.6313 -0.3261
 3982SOL     OW12995   4.547   2.997   4.042  0.4049 -0.0130 -0.2458
 3982SOL    HW112996   4.606   3.063   4.005  1.1784 -0.5637 -0.0184
 3982SOL    HW212997   4.511   2.952   3.965  0.6276  0.0329 -0.3794
 3983SOL     OW12998   0.108   5.921   4.578  0.5626 -0.1256  0.0348
 3983SOL    HW112999   0.103   5.908   4.672  1.0606  1.1102  0.2511
 3983SOL    HW213000   0.177   5.861   4.549  0.2371 -0.6835  0.4176
 3984SOL     OW13001   0.507   4.111   7.204  0.2932  0.9553 -0.3225
 3984SOL    HW113002   0.517   4.196   7.161 -1.3772  1.4435  0.1991
 3984SOL    HW213003   0.413   4.096   7.207  0.5475 -1.8480 -2.1395
 3985SOL     OW13004   1.377   0.332   3.264  0.3981  0.1322  0.3739
 3985SOL    HW113005   1.354   0.244   3.293  2.2694 -0.9383 -1.1384
 3985SOL    HW213006   1.462   0.349   3.304  1.0517  0.3377 -1.0449
 3986SOL     OW13007   1.369   5.847   7.197 -0.2941  0.1557  0.0407
 3986SOL    HW113008   1.331   5.924   7.241 -1.0177  0.3196 -0.8340
 3986SOL    HW213009   1.452   5.878   7.162 -0.7070  0.6199 -0.5394
 3987SOL     OW13010   6.084   0.751   3.544  0.0484 -0.0166 -0.1215
 3987SOL    HW113011   6.068   0.679   3.484  1.2441 -0.5302  0.1418
 3987SOL    HW213012   5.999   0.794   3.554 -0.0975  0.3949 -2.5451
 3988SOL     OW13013   3.135   0.138   3.271 -0.5562  0.0692 -0.0570
 3988SOL    HW113014   3.199   0.066   3.270  1.4372  1.7582 -0.2011
 3988SOL    HW213015   3.059   0.103   3.224  0.1633 -2.0778  0.2584
 3989SOL     OW13016   3.130   7.333   2.478  0.5485  0.5133 -0.1568
 3989SOL    HW113017   3.060   7.393   2.505  0.7958  0.6182  0.2570
 3989SOL    HW213018   3.140   7.349   2.384  0.0490  0.5291 -0.2111
 3990SOL     OW13019   5.200   1.055   4.398 -0.3683 -0.9920  0.4188
 3990SOL    HW113020   5.107   1.077   4.405 -0.2878 -0.0973 -0.9686
 3990SOL    HW213021   5.205   0.989   4.328  0.1379 -0.2284 -0.2863
 3991SOL     OW13022   6.621   2.896   7.626  0.2550 -0.1321  0.4409
 3991SOL    HW113023   6.533   2.911   7.661  0.2127 -1.1555  0.7906
 3991SOL    HW213024   6.658   2.828   7.682  1.5862  0.8526  0.8089
 3992SOL     OW13025   6.022   3.530   2.880  0.0096  0.1549 -0.2877
 3992SOL    HW113026   6.088   3.558   2.818 -0.2054 -0.2166 -0.6877
 3992SOL    HW213027   6.024   3.597   2.949  0.7312  0.1902 -0.3388
 3993SOL     OW13028   4.613   6.318   7.400 -0.1687  0.4357  0.5448
 3993SOL    HW113029   4.550   6.288   7.465  1.5487 -0.1626  2.0383
 3993SOL    HW213030   4.650   6.237   7.363  0.2555  0.7518  0.2658
 3994SOL     OW13031   0.303   5.232   4.656  0.1210  0.2585  0.0442
 3994SOL    HW113032   0.316   5.148   4.700  1.4718  0.6306  0.3993
 3994SOL    HW213033   0.223   5.219   4.604  0.9344 -1.6447 -0.8670
 3995SOL     OW13034   6.571   2.034   7.306  0.2979 -0.0795 -0.3874
 3995SOL    HW113035   6.597   1.965   7.367 -1.1943 -1.5734 -1.3459
 3995SOL    HW213036   6.561   1.989   7.222 -0.1204  1.4371 -1.1842
 3996SOL     OW13037   2.233   8.142   3.726  0.2512 -0.7752  0.0670
 3996SOL    HW113038   2.222   8.086   3.803  2.1494 -0.4093  0.6453
 3996SOL    HW213039   2.143   8.169   3.704 -0.3972 -1.3662  1.7711
 3997SOL     OW13040   2.792   5.728   3.210  0.0804  0.3755 -0.1779
 3997SOL    HW113041   2.709   5.776   3.206 -0.2762 -0.2825 -1.0510
 3997SOL    HW213042   2.778   5.652   3.153  1.7127  0.8844 -1.3074
 3998SOL     OW13043   3.028   0.935   4.380 -0.6935 -0.3247 -0.1453
 3998SOL    HW113044   3.030   0.870   4.450 -2.0779 -1.1975 -0.8803
 3998SOL    HW213045   3.002   1.016   4.422 -0.5288 -0.6119  0.5158
 3999SOL     OW13046   5.212   0.054   0.569 -0.2767 -0.5129 -0.3802
 3999SOL    HW113047   5.241   0.134   0.525  2.0937 -0.7749  0.5434
 3999SOL    HW213048   5.274  -0.013   0.540  2.8629 -0.2934  4.5946
 4000SOL     OW13049   7.010   5.050   5.649  0.0538  0.3662 -0.0967
 4000SOL    HW113050   6.920   5.018   5.659  0.0273  0.7877  1.2671
 4000SOL    HW213051   7.065   4.973   5.667 -0.0373  0.3138 -0.0404
 4001SOL     OW13052   7.830   5.553   6.876 -0.0062  0.5271 -0.3946
 4001SOL    HW113053   7.842   5.459   6.888 -1.4358  0.3714 -0.0538
 4001SOL    HW213054   7.736   5.564   6.864  0.1785  1.8859 -0.7369
 4002SOL     OW13055   2.307   5.210   0.468  0.1282  0.3570  0.2254
 4002SOL    HW113056   2.371   5.255   0.414 -0.2178  1.3107  0.6008
 4002SOL    HW213057   2.344   5.122   0.479  0.6870  0.4579 -0.7137
 4003SOL     OW13058   5.138   3.467   1.944 -0.5281 -0.4429  0.0924
 4003SOL    HW113059   5.184   3.395   1.988  0.9618  0.3212 -0.1536
 4003SOL    HW213060   5.143   3.540   2.005  0.0008  0.1032 -0.5711
 4004SOL     OW13061   4.342   6.007   0.127  0.1877 -0.2937  0.5315
 4004SOL    HW113062   4.281   6.055   0.183  0.4811  0.0148  0.5897
 4004SOL    HW213063   4.406   6.072   0.099  0.1411 -0.4808 -0.0292
 4005SOL     OW13064   1.991   1.783   1.611 -0.0662  0.4116  0.0162
 4005SOL    HW113065   2.074   1.818   1.643 -0.3429  0.9377  0.1697
 4005SOL    HW213066   1.928   1.854   1.625 -0.8029 -0.4218  1.0513
 4006SOL     OW13067   5.236   3.573   1.087  0.2513 -0.6658  0.0299
 4006SOL    HW113068   5.312   3.595   1.140 -0.8047 -1.2336  1.8403
 4006SOL    HW213069   5.161   3.601   1.138 -0.7970  0.7086 -2.1006
 4007SOL     OW13070   6.780   4.813   0.091 -0.0918 -0.0661 -0.3849
 4007SOL    HW113071   6.785   4.870   0.168 -1.1661 -0.8331  0.2817
 4007SOL    HW213072   6.867   4.775   0.083 -0.3189 -1.0498  1.3230
 4008SOL     OW13073   1.607   7.087   0.124 -0.4106  0.5285 -0.3261
 4008SOL    HW113074   1.524   7.041   0.111 -0.4382  0.4504  0.1064
 4008SOL    HW213075   1.587   7.178   0.103 -0.7491  0.6068  0.3050
 4009SOL     OW13076   5.803   2.011   7.543 -0.5674 -0.2233  0.4704
 4009SOL    HW113077   5.855   2.048   7.613 -0.5313 -0.1017  0.3803
 4009SOL    HW213078   5.766   1.931   7.580 -0.5444 -0.1625  0.6250
 4010SOL     OW13079   0.046   6.179   4.161  0.2011  0.1025  0.2582
 4010SOL    HW113080   0.085   6.163   4.247  0.7996 -0.6563 -0.1418
 4010SOL    HW213081   0.110   6.234   4.116 -0.5208  1.2520  0.6003
 4011SOL     OW13082   2.101   1.648   7.744 -0.0468  0.4106  0.0536
 4011SOL    HW113083   2.147   1.628   7.662 -0.8624 -1.5552  0.0350
 4011SOL    HW213084   2.171   1.659   7.808  0.5405 -1.0757 -0.2838
 4012SOL     OW13085   3.215   4.782   6.800  0.1246  0.0081 -0.7143
 4012SOL    HW113086   3.206   4.872   6.771  1.7478  0.3437 -0.3066
 4012SOL    HW213087   3.223   4.787   6.895  0.9586 -0.4768 -0.7450
 4013SOL     OW13088   4.481   3.470   7.327 -0.1429  0.5314  0.7644
 4013SOL    HW113089   4.493   3.565   7.330  1.0983  0.4231 -0.1303
 4013SOL    HW213090   4.548   3.435   7.386 -1.0550  0.2224  1.6479
 4014SOL     OW13091   0.673   0.309   1.973  0.4565  0.2389 -0.1730
 4014SOL    HW113092   0.725   0.353   2.040  0.0854 -0.7081  0.7774
 4014SOL    HW213093   0.677   0.216   1.998  1.3431 -0.3178 -2.1846
 4015SOL     OW13094   5.406   6.124   4.117  0.1769 -0.4067  0.0247
 4015SOL    HW113095   5.363   6.042   4.096 -0.1458 -0.5306  1.0903
 4015SOL    HW213096   5.466   6.140   4.044 -0.4975 -1.0601 -0.6843
 4016SOL     OW13097   5.620   4.435   6.663  0.2696  0.1216 -0.0021
 4016SOL    HW113098   5.711   4.411   6.644  0.2277  1.0696 -1.4946
 4016SOL    HW213099   5.627   4.506   6.727  0.5008 -0.9455  1.2055
 4017SOL     OW13100   1.687   1.915   7.521 -0.5146  0.0013  0.1068
 4017SOL    HW113101   1.697   1.858   7.597 -0.2509 -2.7372 -1.8325
 4017SOL    HW213102   1.754   1.884   7.460 -1.7900  0.9695 -1.8790
 4018SOL     OW13103   5.389   1.707   8.228  0.0935 -0.5756  0.4318
 4018SOL    HW113104   5.363   1.693   8.320 -3.7575 -0.8725 -0.5117
 4018SOL    HW213105   5.394   1.802   8.219 -0.2424 -0.5177  0.7926
 4019SOL     OW13106   3.834   1.498   1.350 -0.4255  0.1489 -0.4967
 4019SOL    HW113107   3.871   1.576   1.310 -0.3230  1.0612  1.2898
 4019SOL    HW213108   3.805   1.526   1.437  0.6931 -2.0085  0.6908
 4020SOL     OW13109   7.770   8.048   2.304  0.0567  0.0655  0.1896
 4020SOL    HW113110   7.858   8.085   2.310 -0.0084 -0.0821  2.8276
 4020SOL    HW213111   7.749   8.053   2.210  1.5502  3.1150 -0.1142
 4021SOL     OW13112   6.464   3.580   3.823  0.1292 -0.6539  0.0942
 4021SOL    HW113113   6.435   3.534   3.744  1.5053 -0.8279 -0.3291
 4021SOL    HW213114   6.418   3.535   3.894 -2.1276  0.3111 -0.6481
 4022SOL     OW13115   3.514   3.266   3.601  0.0563  0.1394 -0.3911
 4022SOL    HW113116   3.440   3.283   3.659 -0.9282 -0.3313 -1.4687
 4022SOL    HW213117   3.586   3.316   3.639 -0.3225 -0.7782  1.6668
 4023SOL     OW13118   1.653   6.114   7.243  0.3278 -0.5526  0.2255
 4023SOL    HW113119   1.640   6.029   7.202  1.7007 -0.3427 -0.7201
 4023SOL    HW213120   1.748   6.125   7.248  0.2224  1.5821 -1.1446
 4024SOL     OW13121   2.573   4.578   2.763  0.2303 -0.1531  0.2991
 4024SOL    HW113122   2.498   4.549   2.815  0.6837  0.1836  1.1709
 4024SOL    HW213123   2.540   4.583   2.674 -1.0923  1.0495  0.8206
 4025SOL     OW13124   7.657   7.918   3.285  0.4232 -0.1001 -0.4702
 4025SOL    HW113125   7.731   7.960   3.329  0.1802 -1.7424  1.7301
 4025SOL    HW213126   7.668   7.939   3.193  1.6673  2.5903  0.2029
 4026SOL     OW13127   5.908   1.159   3.052  0.2974 -0.3537  0.2984
 4026SOL    HW113128   5.978   1.190   3.109  1.0152 -1.1710 -0.1005
 4026SOL    HW213129   5.843   1.122   3.111  0.9358 -1.0022  0.6234
 4027SOL     OW13130   5.111   0.789   4.251 -0.1921 -0.4066  0.5768
 4027SOL    HW113131   5.197   0.747   4.247 -0.7032 -1.4566 -0.0303
 4027SOL    HW213132   5.063   0.738   4.316 -1.3992 -1.9822 -1.4049
 4028SOL     OW13133   7.954   1.241   8.018 -0.1395 -0.6377  0.0667
 4028SOL    HW113134   8.036   1.218   8.063 -0.2220 -2.9561 -0.8534
 4028SOL    HW213135   7.889   1.183   8.056 -1.0622  0.1727 -0.2473
 4029SOL     OW13136   5.007   5.196   3.862  0.1912 -0.0478 -0.4005
 4029SOL    HW113137   5.083   5.138   3.861  0.1389 -0.1124 -0.5075
 4029SOL    HW213138   4.938   5.144   3.903  0.1110 -0.1009 -0.6039
 4030SOL     OW13139   7.872   6.421   7.882  0.0401  0.5284 -0.2780
 4030SOL    HW113140   7.950   6.474   7.865  0.9477 -0.3031  1.1760
 4030SOL    HW213141   7.882   6.345   7.825  0.5528  0.1741  0.2831
 4031SOL     OW13142   0.753   6.458   2.701 -0.1431  0.2920 -0.4175
 4031SOL    HW113143   0.732   6.542   2.741  0.2446  0.0870  0.2539
 4031SOL    HW213144   0.706   6.457   2.618  0.9049  1.7335 -1.0731
 4032SOL     OW13145   2.132   0.767   4.052 -0.0165 -0.1940  0.2280
 4032SOL    HW113146   2.044   0.767   4.089  1.2396  1.5995  3.6622
 4032SOL    HW213147   2.135   0.846   3.998 -0.4209 -0.0918  0.3503
 4033SOL     OW13148   1.083   1.647   4.554 -0.1559 -0.6030 -0.3154
 4033SOL    HW113149   1.038   1.633   4.471 -0.5143  0.4373 -0.3158
 4033SOL    HW213150   1.053   1.734   4.583 -0.4867 -1.1741  1.1778
 4034SOL     OW13151   1.210   6.550   2.120  0.5372  0.0218 -0.2605
 4034SOL    HW113152   1.177   6.461   2.108  0.3221  0.1102 -0.3202
 4034SOL    HW213153   1.280   6.558   2.054 -1.5128  0.9537 -2.4827
 4035SOL     OW13154   4.308   8.185   7.937  0.2265 -0.2149 -0.4037
 4035SOL    HW113155   4.284   8.123   7.868  2.8032 -1.2807 -0.4530
 4035SOL    HW213156   4.235   8.182   7.999 -0.7949 -1.4586 -1.6004
 4036SOL     OW13157   3.958   5.419   4.890 -0.2050 -0.0301  0.6544
 4036SOL    HW113158   3.954   5.334   4.847  2.0431 -0.1950  0.6654
 4036SOL    HW213159   3.869   5.433   4.923 -0.8040 -2.0253  0.0531
 4037SOL     OW13160   4.463   3.291   5.877 -0.3759 -0.2034 -0.0203
 4037SOL    HW113161   4.523   3.306   5.804  0.1386 -2.3391 -0.0861
 4037SOL    HW213162   4.376   3.309   5.841  0.0036  0.3319 -0.6809
 4038SOL     OW13163   1.141   0.048   8.188 -0.1040 -0.8542 -0.0054
 4038SOL    HW113164   1.180  -0.015   8.248 -1.3421 -1.9558 -0.2967
 4038SOL    HW213165   1.046   0.040   8.203 -0.2982  1.6225  0.6186
 4039SOL     OW13166   4.697   3.660   3.753 -0.3182 -0.1713  0.0245
 4039SOL    HW113167   4.677   3.567   3.754 -2.2200  0.1590 -1.2758
 4039SOL    HW213168   4.792   3.664   3.749  0.2471 -1.9287  4.8294
 4040SOL     OW13169   1.592   3.552   2.288  0.4013  0.4634 -0.0845
 4040SOL    HW113170   1.683   3.576   2.304  0.8795 -0.1144 -1.7269
 4040SOL    HW213171   1.595   3.461   2.259 -0.8116  0.1196  0.7952
 4041SOL     OW13172   4.993   2.505   0.072  0.0963 -0.1244 -0.0791
 4041SOL    HW113173   5.044   2.430   0.104 -0.5194 -0.2949  0.5188
 4041SOL    HW213174   4.910   2.467   0.044  0.9088 -0.1432 -2.8048
 4042SOL     OW13175   6.804   3.727   4.205  0.1243 -0.2836  0.1399
 4042SOL    HW113176   6.828   3.712   4.113 -0.9988 -0.9727 -0.0582
 4042SOL    HW213177   6.838   3.814   4.225  2.5607 -1.0764 -0.1702
 4043SOL     OW13178   0.273   2.591   2.354  0.4175 -0.1248  0.3072
 4043SOL    HW113179   0.295   2.631   2.438 -0.2688  1.6097 -0.2754
 4043SOL    HW213180   0.191   2.545   2.371 -1.4504  2.7961  0.0024
 4044SOL     OW13181   5.887   3.385   5.957 -0.0824  0.1786  1.1399
 4044SOL    HW113182   5.931   3.469   5.944 -0.3041  0.1749  0.3195
 4044SOL    HW213183   5.828   3.400   6.031  0.1258  0.6509  1.2100
 4045SOL     OW13184   1.943   1.307   7.273  0.1298  0.2543 -0.4996
 4045SOL    HW113185   1.931   1.390   7.319 -1.2135 -0.3297  0.2713
 4045SOL    HW213186   2.009   1.261   7.325  0.7958  0.7696 -0.8654
 4046SOL     OW13187   2.001   3.871   2.725  0.2431 -0.2901  0.2729
 4046SOL    HW113188   1.931   3.889   2.663 -1.2033 -2.8527  1.0347
 4046SOL    HW213189   2.072   3.834   2.672  0.1246  0.1394 -0.1913
 4047SOL     OW13190   5.620   1.283   4.540  0.1401  0.4263  0.0309
 4047SOL    HW113191   5.611   1.254   4.450 -0.8963  2.9656 -0.7644
 4047SOL    HW213192   5.531   1.305   4.567 -0.2022 -3.4609  2.9603
 4048SOL     OW13193   6.734   0.715   1.375 -0.4008  0.5745 -0.6445
 4048SOL    HW113194   6.648   0.679   1.395 -0.0409  0.9580  1.9341
 4048SOL    HW213195   6.787   0.696   1.453  1.5729  1.1989 -1.7563
 4049SOL     OW13196   4.663   4.033   2.483 -0.1713 -0.0688 -0.4482
 4049SOL    HW113197   4.717   4.053   2.559 -0.1626  1.0220 -0.7160
 4049SOL    HW213198   4.604   4.108   2.475  1.4834  1.1410 -2.9497
 4050SOL     OW13199   6.919   6.464   4.273  0.0480 -0.1442  0.7218
 4050SOL    HW113200   6.852   6.529   4.255 -0.7877 -0.7180  1.6585
 4050SOL    HW213201   6.976   6.466   4.196 -1.6051 -0.3438 -0.5476
 4051SOL     OW13202   4.157   5.735   7.049 -0.4073  0.7771  0.7247
 4051SOL    HW113203   4.156   5.792   6.972 -0.1278 -2.3621 -1.7872
 4051SOL    HW213204   4.065   5.716   7.066 -0.4498  1.1728  0.9522
 4052SOL     OW13205   1.364   1.040   5.328  0.3759 -0.0207 -0.2315
 4052SOL    HW113206   1.403   0.956   5.304 -0.0898 -0.0154 -1.0219
 4052SOL    HW213207   1.434   1.103   5.313  0.7088 -0.2552  0.3073
 4053SOL     OW13208   4.538   4.791   0.813 -0.2303 -0.2978  0.2257
 4053SOL    HW113209   4.539   4.825   0.903  0.1851  0.6061 -0.1105
 4053SOL    HW213210   4.450   4.812   0.782 -0.1117  0.1091  0.1585
 4054SOL     OW13211   5.508   1.360   1.531 -0.5314  0.7202  0.4220
 4054SOL    HW113212   5.545   1.297   1.468 -1.9647 -0.6730  0.9225
 4054SOL    HW213213   5.413   1.354   1.518 -0.7243  2.5204  0.7694
 4055SOL     OW13214   7.490   4.290   2.748 -0.2379  0.4469 -0.5378
 4055SOL    HW113215   7.544   4.348   2.801  1.8016 -1.5431 -0.2962
 4055SOL    HW213216   7.505   4.319   2.658 -0.4462  1.2070 -0.3408
 4056SOL     OW13217   3.047   1.533   5.353 -0.0305 -0.0818  0.3714
 4056SOL    HW113218   2.962   1.494   5.335  1.1033 -1.5917 -2.3596
 4056SOL    HW213219   3.098   1.464   5.396  0.2348  0.3771  0.8170
 4057SOL     OW13220   0.367   2.258   0.650  0.1906 -0.4434 -0.2195
 4057SOL    HW113221   0.313   2.182   0.670 -1.8274  0.6990 -1.0559
 4057SOL    HW213222   0.405   2.239   0.564 -0.5087 -0.4142 -0.5411
 4058SOL     OW13223   2.889   2.960   0.355 -0.6709  0.1768  0.5099
 4058SOL    HW113224   2.899   2.926   0.266 -2.8517 -0.6639  0.5199
 4058SOL    HW213225   2.969   2.934   0.400  0.7349  1.1059 -1.3066
 4059SOL     OW13226   6.230   7.922   4.723  0.9130 -0.0512 -0.4587
 4059SOL    HW113227   6.238   7.999   4.779 -1.4481 -1.0724  1.4334
 4059SOL    HW213228   6.294   7.860   4.759 -0.7163 -0.7744  1.3950
 4060SOL     OW13229   3.344   2.120   6.644  1.0372 -0.2459 -0.3508
 4060SOL    HW113230   3.257   2.095   6.613 -0.4148  2.3696  1.2084
 4060SOL    HW213231   3.399   2.118   6.566 -1.5037  2.2801 -2.4176
 4061SOL     OW13232   4.011   3.996   6.359  0.5610  0.2990 -0.1344
 4061SOL    HW113233   4.067   3.965   6.430  2.3447  1.3283 -1.0346
 4061SOL    HW213234   3.982   4.083   6.387  1.3830  0.7666 -0.7077
 4062SOL     OW13235   0.616   3.445   5.079  0.9952 -0.2379 -0.5292
 4062SOL    HW113236   0.542   3.444   5.141  0.4664 -1.0657 -1.1620
 4062SOL    HW213237   0.600   3.371   5.021  0.6299  1.4274 -2.6593
 4063SOL     OW13238   5.345   7.622   2.893  0.0009  0.7846  0.0738
 4063SOL    HW113239   5.260   7.631   2.851 -0.7861  1.9120  1.7784
 4063SOL    HW213240   5.387   7.707   2.882  0.2728  0.7131  0.5038
 4064SOL     OW13241   8.093   4.445   1.662 -0.4219  0.1628  0.3143
 4064SOL    HW113242   8.062   4.394   1.588 -0.9526  0.4731  0.3222
 4064SOL    HW213243   8.030   4.516   1.672 -1.1370 -0.6428  1.9168
 4065SOL     OW13244   5.770   1.332   4.257  0.0646 -0.4221 -0.9487
 4065SOL    HW113245   5.820   1.412   4.237 -0.6160  0.6535  1.2836
 4065SOL    HW213246   5.715   1.319   4.181  0.4166  1.0845 -1.5074
 4066SOL     OW13247   6.574   3.136   6.657 -0.2432 -0.1475 -0.5867
 4066SOL    HW113248   6.664   3.162   6.675 -0.5259  0.6065 -0.2187
 4066SOL    HW213249   6.521   3.198   6.707 -0.9844  0.0101 -1.5450
 4067SOL     OW13250   8.218   1.271   0.522 -0.0467  0.3496  0.1826
 4067SOL    HW113251   8.144   1.300   0.469 -0.3788 -0.2480  0.3234
 4067SOL    HW213252   8.294   1.282   0.464 -0.6635 -2.6149 -1.3511
 4068SOL     OW13253   6.441   2.481   6.309  1.0094 -0.2424  0.0922
 4068SOL    HW113254   6.393   2.532   6.244  0.5605 -0.7893 -0.0123
 4068SOL    HW213255   6.524   2.529   6.321  0.6846  0.3923 -0.1508
 4069SOL     OW13256   3.110   5.706   0.122  0.1428 -0.0073 -0.3094
 4069SOL    HW113257   3.157   5.639   0.172 -1.2262  0.6240  1.9716
 4069SOL    HW213258   3.128   5.788   0.168 -1.9202  0.4714 -0.2709
 4070SOL     OW13259   0.815   8.016   4.099  0.5651 -0.2650 -0.2351
 4070SOL    HW113260   0.888   7.976   4.052  0.5296  0.6848 -1.1130
 4070SOL    HW213261   0.778   8.079   4.038 -1.3715 -1.1260 -0.0254
 4071SOL     OW13262   6.926   2.927   8.225 -0.4279 -0.2016  0.1528
 4071SOL    HW113263   7.009   2.932   8.272 -1.7840  2.6702  2.6214
 4071SOL    HW213264   6.881   2.851   8.262 -0.6123  0.8043  2.1146
 4072SOL     OW13265   6.184   2.124   0.364 -0.0065 -0.6320  0.1643
 4072SOL    HW113266   6.210   2.092   0.278  0.9392  0.1152  0.1568
 4072SOL    HW213267   6.125   2.197   0.347  0.4263 -0.2844  0.1385
 4073SOL     OW13268   1.637   8.243   4.732  0.0945  0.1475  0.2472
 4073SOL    HW113269   1.615   8.311   4.795  1.8878  0.6309  0.3959
 4073SOL    HW213270   1.720   8.271   4.694 -0.6269 -0.4282 -1.9163
 4074SOL     OW13271   5.380   6.836   5.395  0.6670 -0.6179 -0.4932
 4074SOL    HW113272   5.441   6.767   5.418 -0.4426 -1.6756 -0.6149
 4074SOL    HW213273   5.315   6.836   5.466  1.1340  0.9344 -0.0174
 4075SOL     OW13274   3.860   4.021   2.464 -0.3933 -0.4031 -0.0267
 4075SOL    HW113275   3.896   4.098   2.420  0.8380  0.4258  2.3102
 4075SOL    HW213276   3.786   3.995   2.408  1.0750  0.5062 -2.5922
 4076SOL     OW13277   4.070   0.978   4.190  0.0951  0.1039  0.9391
 4076SOL    HW113278   4.003   0.995   4.124 -0.3380  1.2087  1.6224
 4076SOL    HW213279   4.153   0.984   4.143 -0.2649 -2.2346 -0.1234
 4077SOL     OW13280   6.876   8.072   4.144  0.5800  0.5640 -0.6134
 4077SOL    HW113281   6.955   8.126   4.150  0.0813  1.1433  1.2630
 4077SOL    HW213282   6.886   8.026   4.061  1.9780  2.0439 -1.3331
 4078SOL     OW13283   1.990   3.611   6.199 -0.1290 -0.2986  0.3444
 4078SOL    HW113284   2.059   3.547   6.216 -0.2170 -0.7077 -0.7681
 4078SOL    HW213285   1.917   3.559   6.166 -0.5014  0.2773  0.2560
 4079SOL     OW13286   7.422   2.644   6.652  0.2168 -0.2018  1.2177
 4079SOL    HW113287   7.333   2.633   6.618  0.2720 -3.1868  1.7187
 4079SOL    HW213288   7.470   2.688   6.582 -1.4656  0.8716  0.6821
 4080SOL     OW13289   4.713   6.499   5.891  0.5386  0.2317 -0.0458
 4080SOL    HW113290   4.663   6.576   5.865  0.4542  0.1881 -0.0174
 4080SOL    HW213291   4.666   6.426   5.849  0.5414  0.1843  0.0338
 4081SOL     OW13292   8.076   6.024   2.270 -0.0594 -0.2883  0.4124
 4081SOL    HW113293   8.067   5.933   2.299 -0.7952 -0.2488  0.3136
 4081SOL    HW213294   8.004   6.036   2.208 -0.3182  0.5370  0.8686
 4082SOL     OW13295   1.051   5.677   3.488 -0.2234 -0.1628  0.2219
 4082SOL    HW113296   1.089   5.724   3.563 -1.3621  1.8397 -0.3602
 4082SOL    HW213297   0.987   5.738   3.453 -2.4629 -2.5433 -0.1081
 4083SOL     OW13298   6.002   2.907   5.472 -0.4534 -0.0814  0.2511
 4083SOL    HW113299   6.018   2.955   5.391 -0.3316  0.2566  0.4724
 4083SOL    HW213300   5.986   2.975   5.538 -0.1552 -0.3401  0.5947
 4084SOL     OW13301   2.695   8.203   5.334  0.0021 -0.0743 -0.6425
 4084SOL    HW113302   2.630   8.257   5.289  0.7097  1.7994  0.4506
 4084SOL    HW213303   2.698   8.122   5.284 -2.2159  0.2803 -1.4836
 4085SOL     OW13304   2.497   1.854   0.272 -0.2434 -0.1373  0.0344
 4085SOL    HW113305   2.471   1.835   0.182 -1.5872 -0.8456  0.5522
 4085SOL    HW213306   2.423   1.826   0.325  1.1559 -1.2402  1.4930
 4086SOL     OW13307   7.958   7.794   3.959  0.1417 -0.5626 -0.3545
 4086SOL    HW113308   8.023   7.864   3.964 -0.5313  0.1411 -1.1569
 4086SOL    HW213309   7.875   7.837   3.980 -0.4513 -0.8403 -1.9932
 4087SOL     OW13310   0.944   5.579   4.754  0.0835 -0.2119  0.0289
 4087SOL    HW113311   0.980   5.492   4.770 -0.6002 -0.6289 -0.6187
 4087SOL    HW213312   0.879   5.566   4.684  0.3394  0.9053 -0.4410
 4088SOL     OW13313   7.449   3.936   0.460 -0.4660  0.3761 -0.4696
 4088SOL    HW113314   7.495   3.863   0.418 -3.0512 -0.9504 -1.2518
 4088SOL    HW213315   7.409   3.897   0.538  0.0880  1.6026  0.4685
 4089SOL     OW13316   0.961   5.083   2.997  0.1418 -0.4742  0.1578
 4089SOL    HW113317   0.923   5.041   3.074 -0.2627  1.3513  1.0075
 4089SOL    HW213318   1.055   5.064   3.003 -0.0319 -1.2805  0.4702
 4090SOL     OW13319   4.829   6.710   0.824  0.6224 -0.2766 -0.2803
 4090SOL    HW113320   4.872   6.752   0.898 -2.1341  4.6158 -1.0511
 4090SOL    HW213321   4.900   6.687   0.764  2.5436  0.6758  1.5151
 4091SOL     OW13322   6.008   6.371   4.780 -0.3444  0.5314 -0.3040
 4091SOL    HW113323   5.973   6.460   4.773  2.2300  1.7524  1.0487
 4091SOL    HW213324   5.931   6.314   4.769 -2.4369  2.9551  0.7805
 4092SOL     OW13325   6.512   0.392   3.579  0.6110  0.0204  0.4574
 4092SOL    HW113326   6.452   0.333   3.533 -0.5561  2.1336 -0.8751
 4092SOL    HW213327   6.459   0.431   3.648  0.2855  2.0790 -0.8713
 4093SOL     OW13328   7.037   1.475   0.837  0.8815  0.1302  0.3700
 4093SOL    HW113329   7.094   1.403   0.810  0.4294 -0.2125  0.3224
 4093SOL    HW213330   6.956   1.461   0.788  1.3342  1.5670 -0.8585
 4094SOL     OW13331   1.366   2.147   3.300 -0.2714  0.4562  0.5341
 4094SOL    HW113332   1.297   2.113   3.243 -0.8118 -1.7380  2.3668
 4094SOL    HW213333   1.444   2.097   3.277 -0.0378  0.8063  0.5464
 4095SOL     OW13334   4.688   1.147   4.822  0.3153  0.3900  0.1028
 4095SOL    HW113335   4.725   1.215   4.766  0.1138 -0.7300 -1.4433
 4095SOL    HW213336   4.594   1.148   4.802  0.6259 -2.0393 -1.9496
 4096SOL     OW13337   5.641   8.258   5.001  0.2058  0.0633  0.1438
 4096SOL    HW113338   5.692   8.300   5.070 -1.2186  0.2037  1.1694
 4096SOL    HW213339   5.578   8.203   5.048 -1.5257  0.9975 -0.9503
 4097SOL     OW13340   5.467   1.135   7.683  0.2666  0.2973  0.0153
 4097SOL    HW113341   5.475   1.188   7.763 -2.5533 -1.1631  1.4146
 4097SOL    HW213342   5.513   1.186   7.617  1.5618  2.2649  2.2451
 4098SOL     OW13343   1.101   3.602   6.830 -0.1217  0.0589 -0.3527
 4098SOL    HW113344   1.078   3.537   6.895  0.4734 -0.0753 -0.2648
 4098SOL    HW213345   1.173   3.651   6.870 -1.3683  1.5856  0.0921
 4099SOL     OW13346   3.304   3.369   1.038 -0.1057  0.0836 -0.0858
 4099SOL    HW113347   3.302   3.336   0.948  3.1188  0.3010 -0.3709
 4099SOL    HW213348   3.281   3.462   1.030  0.1028  0.0850 -0.6898
 4100SOL     OW13349   2.688   1.475   4.806  0.1842 -0.0787  0.3016
 4100SOL    HW113350   2.684   1.387   4.769  1.7683 -0.8760  1.8179
 4100SOL    HW213351   2.597   1.501   4.819 -0.3040 -1.5327 -0.0996
 4101SOL     OW13352   0.182   0.340   1.529  0.4275 -0.7833  0.0305
 4101SOL    HW113353   0.278   0.341   1.522  0.4586 -2.9811 -0.4985
 4101SOL    HW213354   0.155   0.261   1.482 -1.7378  0.2475 -0.5904
 4102SOL     OW13355   1.665   3.566   5.564 -0.4499 -0.2066  0.4970
 4102SOL    HW113356   1.734   3.524   5.617 -1.0403 -1.6697  0.1570
 4102SOL    HW213357   1.597   3.499   5.556 -2.4724  1.5544  1.7689
 4103SOL     OW13358   6.981   3.377   7.369 -0.2972 -0.5841 -0.2547
 4103SOL    HW113359   7.019   3.460   7.341 -0.0076 -0.2775  1.0055
 4103SOL    HW213360   6.932   3.397   7.448  0.1122 -1.6664  0.3048
 4104SOL     OW13361   3.463   5.012   7.732 -0.2255 -0.1235  0.3984
 4104SOL    HW113362   3.520   4.957   7.785  1.1020  0.6134 -0.2290
 4104SOL    HW213363   3.464   5.097   7.776  0.6914  0.4240 -0.6528
 4105SOL     OW13364   0.136   6.024   5.311 -0.2669  0.1319 -0.2035
 4105SOL    HW113365   0.053   6.019   5.263  0.9408 -1.6773 -2.2609
 4105SOL    HW213366   0.120   5.975   5.392 -0.9446 -1.0361 -1.0238
 4106SOL     OW13367   5.914   5.181   2.817 -0.6413  0.3382  0.9164
 4106SOL    HW113368   5.965   5.121   2.763 -1.4731 -1.4450  2.0197
 4106SOL    HW213369   5.974   5.206   2.887 -0.7808 -0.5285  1.3581
 4107SOL     OW13370   6.529   5.412   0.875  0.2698 -0.0365 -0.6438
 4107SOL    HW113371   6.585   5.362   0.815  0.7184  1.1686 -1.2861
 4107SOL    HW213372   6.543   5.504   0.848 -1.1184  0.3741 -0.0353
 4108SOL     OW13373   6.373   0.692   2.080 -0.0059 -0.1962  0.0313
 4108SOL    HW113374   6.281   0.719   2.084  0.0986  0.1419  0.2665
 4108SOL    HW213375   6.379   0.635   2.003 -0.1903  0.6416 -0.6167
 4109SOL     OW13376   6.632   6.013   0.934  0.5113  0.2681  0.0797
 4109SOL    HW113377   6.719   5.975   0.947  0.5167 -0.3232 -1.4325
 4109SOL    HW213378   6.598   5.968   0.856 -0.7732  1.1502  0.0983
 4110SOL     OW13379   1.026   8.084   1.905 -0.1988  0.0437  0.4678
 4110SOL    HW113380   1.001   8.140   1.978  1.7592  0.4206  0.9130
 4110SOL    HW213381   1.120   8.069   1.917  0.3804  0.7165 -2.3532
 4111SOL     OW13382   0.762   6.351   5.081  0.0796  0.3051  0.5848
 4111SOL    HW113383   0.734   6.443   5.089  0.0629  0.3577 -0.0544
 4111SOL    HW213384   0.831   6.353   5.015 -1.3264 -0.4344 -0.9775
 4112SOL     OW13385   1.417   1.111   2.553  0.1180  0.2018 -0.2863
 4112SOL    HW113386   1.479   1.173   2.514  0.4255  0.4566  0.5968
 4112SOL    HW213387   1.417   1.133   2.646 -1.2654  0.1719 -0.2657
 4113SOL     OW13388   3.589   2.815   1.449 -0.3655  0.2384  0.3594
 4113SOL    HW113389   3.669   2.766   1.466 -0.5191 -0.1830 -0.0980
 4113SOL    HW213390   3.572   2.801   1.355 -0.3488  1.2515  0.1923
 4114SOL     OW13391   1.719   2.274   6.481  0.7491  0.3813 -0.0671
 4114SOL    HW113392   1.700   2.293   6.573 -0.4170 -2.5507  0.4026
 4114SOL    HW213393   1.814   2.281   6.475  0.7306  1.9800  0.9877
 4115SOL     OW13394   0.668   4.112   3.145 -0.6335 -0.0326 -0.0379
 4115SOL    HW113395   0.598   4.160   3.102 -0.1269  0.4307 -0.3546
 4115SOL    HW213396   0.737   4.177   3.161 -0.2292 -0.5003  0.1677
 4116SOL     OW13397   4.284   7.242   3.199  0.2193 -0.2426  0.0886
 4116SOL    HW113398   4.225   7.317   3.193  0.9486  0.2770 -0.9206
 4116SOL    HW213399   4.281   7.216   3.291 -0.0672  1.0131  0.4506
 4117SOL     OW13400   7.159   6.580   0.403 -0.0948  0.5377  0.0627
 4117SOL    HW113401   7.169   6.485   0.399 -0.6674  0.5165 -1.4174
 4117SOL    HW213402   7.249   6.613   0.405  0.1098 -0.0170  0.1232
 4118SOL     OW13403   2.296   5.489   4.983  0.4070  0.4957 -0.6269
 4118SOL    HW113404   2.280   5.542   4.905  0.6313  0.7726 -0.4835
 4118SOL    HW213405   2.208   5.471   5.017  0.3458  1.2105 -0.3867
 4119SOL     OW13406   2.309   3.843   3.916 -0.2269 -0.1827 -0.2435
 4119SOL    HW113407   2.235   3.902   3.912 -1.2761 -1.0751  2.7910
 4119SOL    HW213408   2.272   3.756   3.898  0.3469 -0.4593 -0.1293
 4120SOL     OW13409   6.267   1.336   7.336 -0.6065  0.0625  0.0174
 4120SOL    HW113410   6.305   1.293   7.412 -0.3794 -1.3237 -0.8378
 4120SOL    HW213411   6.341   1.380   7.293 -0.4347 -0.5015 -0.2668
 4121SOL     OW13412   5.595   8.200   7.133  0.8324  0.1331 -0.2826
 4121SOL    HW113413   5.569   8.112   7.162 -0.4373  0.7373  0.5076
 4121SOL    HW213414   5.518   8.235   7.089  0.7768  1.3934  0.7322
 4122SOL     OW13415   1.565   1.699   5.109 -0.2878 -0.1248 -0.1138
 4122SOL    HW113416   1.517   1.780   5.122  1.8095  1.0337  0.8430
 4122SOL    HW213417   1.554   1.650   5.191  1.5920  0.9863  0.8703
 4123SOL     OW13418   0.223   2.967   4.530 -0.4354 -0.3864  0.2245
 4123SOL    HW113419   0.235   2.893   4.589 -1.6846 -0.0750  0.8996
 4123SOL    HW213420   0.202   2.927   4.445 -0.7270 -0.8109  0.4960
 4124SOL     OW13421   4.280   2.735   7.055  0.0002 -0.2702 -0.0964
 4124SOL    HW113422   4.239   2.668   7.001 -0.6690  0.4221 -0.4700
 4124SOL    HW213423   4.234   2.816   7.031  1.1100  0.4017 -0.0093
 4125SOL     OW13424   3.413   2.525   5.297 -0.1937  0.0933 -0.3915
 4125SOL    HW113425   3.364   2.549   5.376  1.1563 -1.8440  1.1086
 4125SOL    HW213426   3.369   2.447   5.264  0.8547 -0.7029  0.0381
 4126SOL     OW13427   0.058   7.815   1.795  0.5590 -0.0076  0.3252
 4126SOL    HW113428   0.110   7.782   1.869 -1.6809 -1.8801  1.2190
 4126SOL    HW213429   0.016   7.894   1.829  0.7880  0.0373  0.5070
 4127SOL     OW13430   3.273   7.804   3.119  0.0587  0.7375 -0.1234
 4127SOL    HW113431   3.248   7.757   3.040  0.5669  0.8594 -0.3579
 4127SOL    HW213432   3.369   7.811   3.114 -0.0429  2.2714 -0.3686
 4128SOL     OW13433   0.254   2.851   3.464 -0.5078 -0.0885 -0.0343
 4128SOL    HW113434   0.249   2.934   3.511  3.8260 -0.0271  0.7437
 4128SOL    HW213435   0.236   2.785   3.531 -1.6100  0.1641 -0.0777
 4129SOL     OW13436   0.519   6.452   1.006  0.1493  0.4714 -0.3848
 4129SOL    HW113437   0.459   6.390   1.049  0.1660  0.7268  0.0214
 4129SOL    HW213438   0.468   6.487   0.933 -0.2770  0.8399  0.0821
 4130SOL     OW13439   3.514   2.171   2.992  0.1143  0.0123 -0.6743
 4130SOL    HW113440   3.482   2.141   3.077 -0.1329 -3.0379 -1.7043
 4130SOL    HW213441   3.435   2.192   2.942  0.2386  1.3349 -0.3529
 4131SOL     OW13442   6.577   6.593   7.322  0.4064  0.3093  0.5889
 4131SOL    HW113443   6.666   6.561   7.311  0.2660  0.6628 -2.0864
 4131SOL    HW213444   6.542   6.540   7.394  2.8985  0.5644  2.0962
 4132SOL     OW13445   1.945   4.504   3.094 -0.0477 -0.2897 -0.1849
 4132SOL    HW113446   1.889   4.574   3.062  1.9395  1.6520  0.2884
 4132SOL    HW213447   1.973   4.457   3.016  0.6172  1.1118 -0.8294
 4133SOL     OW13448   7.323   4.901   2.507  0.2297  0.4685 -0.5583
 4133SOL    HW113449   7.332   4.995   2.488  1.0760  0.4655 -0.2128
 4133SOL    HW213450   7.254   4.896   2.572  0.6581  0.9258 -0.0551
 4134SOL     OW13451   0.560   7.721   7.909  0.0548 -0.5613  0.0554
 4134SOL    HW113452   0.646   7.713   7.869  0.1814  0.4157  0.1079
 4134SOL    HW213453   0.545   7.815   7.916  0.4601 -0.6294  3.2168
 4135SOL     OW13454   3.285   1.559   3.978 -0.0205  0.7233 -0.2349
 4135SOL    HW113455   3.200   1.602   3.973 -0.7598 -0.6699 -0.0769
 4135SOL    HW213456   3.267   1.474   4.020  1.3413  0.1488 -0.7467
 4136SOL     OW13457   0.307   8.077   7.849  0.3014  0.4393 -0.6469
 4136SOL    HW113458   0.222   8.041   7.825 -1.0771  2.0329  1.4219
 4136SOL    HW213459   0.301   8.170   7.825 -0.1674  1.4971  2.8897
 4137SOL     OW13460   2.423   1.473   4.423  0.5078 -0.0325 -0.2767
 4137SOL    HW113461   2.349   1.430   4.381  0.6700 -0.2066 -0.3841
 4137SOL    HW213462   2.433   1.428   4.507 -2.0730  2.5850  1.6282
 4138SOL     OW13463   6.808   6.078   5.341 -0.5654 -0.0136  0.0177
 4138SOL    HW113464   6.728   6.128   5.328 -0.2514  1.0930  1.9403
 4138SOL    HW213465   6.877   6.132   5.303 -0.4501  0.2064  0.5237
 4139SOL     OW13466   7.722   5.983   4.694 -0.2885  0.3944 -0.0139
 4139SOL    HW113467   7.735   5.905   4.640  1.1792  0.5706  0.0487
 4139SOL    HW213468   7.721   6.055   4.630  0.2147  0.4872  0.0788
 4140SOL     OW13469   4.632   6.286   5.223  0.2764 -0.1400 -0.0932
 4140SOL    HW113470   4.632   6.377   5.252 -0.4306 -0.5289  1.1862
 4140SOL    HW213471   4.554   6.277   5.169  0.6950  0.1563 -0.7690
 4141SOL     OW13472   3.028   1.658   0.789  0.8172  0.2010  0.7399
 4141SOL    HW113473   3.060   1.595   0.854 -0.7523 -2.7514 -1.0983
 4141SOL    HW213474   2.933   1.658   0.800  0.5347 -0.1976 -1.3198
 4142SOL     OW13475   5.597   4.358   2.866  0.2338 -0.9102 -0.2863
 4142SOL    HW113476   5.532   4.301   2.826  0.3526 -1.7185  0.6263
 4142SOL    HW213477   5.632   4.306   2.939  0.3508  0.3360  0.5654
 4143SOL     OW13478   6.679   3.428   3.415  0.1019  0.6030 -0.4132
 4143SOL    HW113479   6.647   3.438   3.326 -0.3619  0.0752 -0.3138
 4143SOL    HW213480   6.739   3.353   3.411  0.4028  0.8368 -0.3592
 4144SOL     OW13481   0.889   7.491   4.551  0.7608  0.2214  0.6300
 4144SOL    HW113482   0.884   7.581   4.520 -3.0847 -0.7948 -2.5420
 4144SOL    HW213483   0.928   7.442   4.479 -2.2466 -1.2875 -0.1464
 4145SOL     OW13484   7.401   6.228   1.243  0.0400 -0.4558  0.0211
 4145SOL    HW113485   7.407   6.133   1.251 -0.0013 -0.3698  1.2780
 4145SOL    HW213486   7.459   6.262   1.310 -0.9593  0.3967  0.4913
 4146SOL     OW13487   7.688   8.240   1.269  0.2747 -0.0588  0.4930
 4146SOL    HW113488   7.673   8.222   1.361  1.3888 -2.1327  0.3220
 4146SOL    HW213489   7.769   8.193   1.248  1.2391  2.1390 -1.0383
 4147SOL     OW13490   2.329   5.941   2.256  0.3823  0.4069  0.3140
 4147SOL    HW113491   2.235   5.953   2.273 -0.0344 -0.0805 -1.4263
 4147SOL    HW213492   2.342   5.976   2.168  2.1539  1.7799  1.0518
 4148SOL     OW13493   2.939   2.597   3.378 -0.2653 -0.0195  0.0099
 4148SOL    HW113494   2.887   2.649   3.439 -0.3246  0.6828 -0.6311
 4148SOL    HW213495   2.874   2.552   3.323 -0.2043  0.2932 -0.3202
 4149SOL     OW13496   0.255   4.008   7.075  0.5169  0.2519 -0.0796
 4149SOL    HW113497   0.288   4.093   7.046  2.0405  0.9967  3.2697
 4149SOL    HW213498   0.160   4.016   7.072  0.4983  3.2959  2.7413
 4150SOL     OW13499   3.137   7.509   7.177  0.0893 -0.0880  0.0682
 4150SOL    HW113500   3.134   7.500   7.272  0.7627  2.0901  0.3488
 4150SOL    HW213501   3.122   7.421   7.144 -0.7428 -0.7933  2.1773
 4151SOL     OW13502   5.311   0.995   6.795 -0.6280  0.3896  0.1372
 4151SOL    HW113503   5.335   0.907   6.767 -0.4881  1.0156 -1.8934
 4151SOL    HW213504   5.269   0.983   6.880 -1.1631 -1.6973 -0.3680
 4152SOL     OW13505   3.080   7.284   7.595  0.0496 -0.0838 -0.2653
 4152SOL    HW113506   3.073   7.223   7.668 -0.0071 -0.3960 -0.5275
 4152SOL    HW213507   3.027   7.360   7.621  0.5475  0.0834  0.2875
 4153SOL     OW13508   3.067   0.050   4.216 -0.2887  0.2413 -0.2687
 4153SOL    HW113509   3.070   0.136   4.172 -0.3351  0.3813  0.0031
 4153SOL    HW213510   2.999   0.002   4.169 -1.2134  0.8254  0.4390
 4154SOL     OW13511   5.153   6.303   7.730  0.4839 -0.7172 -0.0294
 4154SOL    HW113512   5.121   6.213   7.738  0.9373 -0.9688 -0.8810
 4154SOL    HW213513   5.137   6.325   7.639  0.3882  0.0700  0.1756
 4155SOL     OW13514   7.971   4.487   5.818  0.1731 -0.0425 -0.1145
 4155SOL    HW113515   7.930   4.460   5.900 -1.5385  1.1887 -0.4987
 4155SOL    HW213516   8.060   4.453   5.823  0.2822  0.4029  2.4715
 4156SOL     OW13517   3.795   2.524   7.454  0.4319 -0.3611  0.3627
 4156SOL    HW113518   3.834   2.581   7.521  1.4903 -1.8192  1.0541
 4156SOL    HW213519   3.855   2.449   7.449  0.6682 -0.0879 -2.6269
 4157SOL     OW13520   4.550   7.273   2.581  0.2398  0.2163  0.0385
 4157SOL    HW113521   4.482   7.297   2.518 -0.3864 -1.0829  0.1726
 4157SOL    HW213522   4.502   7.228   2.651  1.3611 -2.4504 -0.7535
 4158SOL     OW13523   7.686   3.593   6.972 -0.2168  0.1666 -0.3506
 4158SOL    HW113524   7.756   3.533   6.948 -0.1723  0.5264 -1.1445
 4158SOL    HW213525   7.688   3.660   6.904 -1.6345 -0.0592 -0.6347
 4159SOL     OW13526   6.985   1.557   1.729  0.6955 -0.2712  0.3136
 4159SOL    HW113527   7.033   1.592   1.804 -0.6370  3.2690 -0.2543
 4159SOL    HW213528   7.052   1.542   1.662  1.5573 -0.4246  1.1984
 4160SOL     OW13529   0.992   0.520   6.348 -0.0905  0.1820 -0.3236
 4160SOL    HW113530   1.001   0.424   6.352  1.5024  0.3530  1.4737
 4160SOL    HW213531   0.963   0.545   6.436  2.5587  1.5617  0.2541
 4161SOL     OW13532   3.257   7.801   2.342 -0.0421  0.6979 -0.9576
 4161SOL    HW113533   3.263   7.730   2.278 -1.6087  1.3925 -1.9270
 4161SOL    HW213534   3.348   7.830   2.353  0.5845 -1.1927 -0.8087
 4162SOL     OW13535   1.015   0.343   1.606 -0.0402 -0.1321  0.7525
 4162SOL    HW113536   1.047   0.315   1.692 -1.1183 -1.8121  0.6685
 4162SOL    HW213537   0.921   0.352   1.617  0.0619  2.0772  0.3259
 4163SOL     OW13538   1.391   3.846   0.647  0.0568 -0.2897  0.1085
 4163SOL    HW113539   1.325   3.872   0.711 -1.0552 -0.4241 -0.9457
 4163SOL    HW213540   1.348   3.777   0.596  1.0590 -0.4453 -0.5432
 4164SOL     OW13541   1.779   5.536   7.689 -0.2421  0.0667 -0.3041
 4164SOL    HW113542   1.825   5.592   7.751 -0.1210  0.4415 -0.7273
 4164SOL    HW213543   1.738   5.596   7.627 -1.0264 -0.2722 -0.1338
 4165SOL     OW13544   5.905   6.957   1.685  0.3192  0.3442 -0.0567
 4165SOL    HW113545   5.880   6.908   1.764 -1.1985 -0.7097 -1.1269
 4165SOL    HW213546   5.948   6.892   1.630  2.3066  1.3166  0.2607
 4166SOL     OW13547   5.205   0.755   6.484 -0.2811  0.1729 -0.0963
 4166SOL    HW113548   5.264   0.683   6.463 -0.4305  0.2662 -0.8416
 4166SOL    HW213549   5.198   0.753   6.580  0.5583 -0.1289 -0.0352
 4167SOL     OW13550   2.143   1.677   4.309  0.2800  0.4769  0.4763
 4167SOL    HW113551   2.235   1.684   4.285  0.0919  0.2364 -0.3294
 4167SOL    HW213552   2.114   1.767   4.323  0.1053  0.7248 -1.3130
 4168SOL     OW13553   2.937   7.454   7.395  0.0132  0.0503  0.1249
 4168SOL    HW113554   2.842   7.438   7.399  0.1106 -0.3339  0.9795
 4168SOL    HW213555   2.977   7.368   7.401  0.4280  0.2295 -0.0104
 4169SOL     OW13556   2.749   7.925   0.595 -0.1589 -0.2326  0.6961
 4169SOL    HW113557   2.837   7.920   0.633 -0.2300  0.5757  0.9738
 4169SOL    HW213558   2.693   7.952   0.668 -0.4602  0.3334  0.2551
 4170SOL     OW13559   4.195   3.692   7.478 -0.4387  0.3611  0.6861
 4170SOL    HW113560   4.113   3.668   7.520 -1.5975  3.9124  0.7244
 4170SOL    HW213561   4.169   3.731   7.394  1.2859  0.6765  0.2556
 4171SOL     OW13562   0.205   0.787   0.256  0.4997  0.1629  0.2824
 4171SOL    HW113563   0.267   0.737   0.309  0.4412 -0.2359 -0.0221
 4171SOL    HW213564   0.258   0.854   0.214  0.4660  0.8070  1.2404
 4172SOL     OW13565   2.325   1.730   6.782 -0.7386  0.7617  0.5880
 4172SOL    HW113566   2.264   1.661   6.805  0.9453 -0.3262  2.0707
 4172SOL    HW213567   2.409   1.685   6.769  0.2786  2.4409  0.9876
 4173SOL     OW13568   7.440   1.796   3.762  0.4199  0.1537 -0.5562
 4173SOL    HW113569   7.468   1.761   3.847  1.3782 -0.1495 -0.9787
 4173SOL    HW213570   7.346   1.811   3.772  0.2256 -1.3039  0.0828
 4174SOL     OW13571   5.553   5.220   1.712  0.3950  0.0027 -0.4304
 4174SOL    HW113572   5.630   5.277   1.711 -0.9348  1.9171 -1.9761
 4174SOL    HW213573   5.578   5.145   1.657  0.7178  1.3127 -2.1637
 4175SOL     OW13574   1.734   6.194   2.731  0.2375 -0.0336 -0.0608
 4175SOL    HW113575   1.815   6.144   2.723 -0.3642 -1.1184  0.4157
 4175SOL    HW213576   1.676   6.138   2.783 -0.9009  0.6132 -0.5897
 4176SOL     OW13577   7.555   2.000   5.529 -0.1370  0.0062  0.0260
 4176SOL    HW113578   7.565   2.094   5.545 -0.7511  0.7326 -3.1465
 4176SOL    HW213579   7.644   1.965   5.530  0.1920  0.8375  0.1647
 4177SOL     OW13580   6.827   4.841   4.589 -0.5081  0.3522  0.3178
 4177SOL    HW113581   6.917   4.813   4.604 -0.3053  0.0970 -1.1821
 4177SOL    HW213582   6.800   4.882   4.671  1.9338  2.9805 -0.0024
 4178SOL     OW13583   6.451   5.387   4.055 -0.0077  0.0982 -0.0364
 4178SOL    HW113584   6.490   5.463   4.011  1.7392 -0.3641  0.6158
 4178SOL    HW213585   6.359   5.390   4.030  0.3476  1.4740 -1.3835
 4179SOL     OW13586   0.508   3.111   6.401  0.1734 -0.3075  0.2813
 4179SOL    HW113587   0.440   3.058   6.358 -0.5982 -0.1062  1.2234
 4179SOL    HW213588   0.578   3.116   6.336 -1.1079  0.3125 -1.1261
 4180SOL     OW13589   3.543   5.526   2.224 -0.0052 -0.5360  0.4703
 4180SOL    HW113590   3.591   5.578   2.159  0.0181 -0.9593  0.1426
 4180SOL    HW213591   3.456   5.514   2.185  0.7089 -2.7916 -0.6096
 4181SOL     OW13592   0.163   6.858   7.435 -0.2317  0.0377  0.1151
 4181SOL    HW113593   0.182   6.847   7.342  0.3774 -2.2008  0.4572
 4181SOL    HW213594   0.075   6.897   7.437  0.8857  2.9032 -1.3777
 4182SOL     OW13595   0.952   2.576   0.326  0.6434 -0.0803  0.1580
 4182SOL    HW113596   0.910   2.619   0.401  0.1385 -0.2564 -0.0194
 4182SOL    HW213597   0.879   2.547   0.271  0.8669 -2.6452  1.0620
 4183SOL     OW13598   1.332   6.291   4.134 -0.2850 -0.2119 -0.5406
 4183SOL    HW113599   1.361   6.357   4.071 -0.2614 -0.9138 -1.2775
 4183SOL    HW213600   1.259   6.333   4.180  1.3916  1.3170  0.8500
 4184SOL     OW13601   2.031   7.703   0.269 -0.2071  0.2958  0.2750
 4184SOL    HW113602   2.118   7.716   0.233 -0.5807  0.2836 -0.6606
 4184SOL    HW213603   2.046   7.673   0.359  0.8248 -2.1137 -0.6012
 4185SOL     OW13604   3.304   1.484   3.477  0.1880  0.8881 -0.1395
 4185SOL    HW113605   3.352   1.563   3.450 -0.4836  1.7826  1.1424
 4185SOL    HW213606   3.246   1.515   3.546 -0.4832 -0.6543  0.0188
 4186SOL     OW13607   2.672   6.018   4.418 -0.1367  0.0300 -0.4795
 4186SOL    HW113608   2.616   6.068   4.478 -0.3831 -1.5176  0.6377
 4186SOL    HW213609   2.719   5.957   4.474  0.2800 -0.8827 -1.7786
 4187SOL     OW13610   1.944   0.015   5.740 -0.0569 -0.1808  0.0532
 4187SOL    HW113611   1.889   0.094   5.738  0.9228  0.6677  2.5461
 4187SOL    HW213612   2.025   0.041   5.695  0.2070  0.2288  0.7438
 4188SOL     OW13613   0.061   4.039   3.164 -0.3307  0.0133 -0.0722
 4188SOL    HW113614   0.071   3.998   3.250  2.7296 -0.3398 -0.4721
 4188SOL    HW213615  -0.009   3.989   3.122  0.6145 -2.2822  0.9067
 4189SOL     OW13616   3.688   4.905   7.891  0.4513  0.3071 -0.4680
 4189SOL    HW113617   3.716   4.947   7.972 -0.5844  1.0359 -0.4789
 4189SOL    HW213618   3.702   4.811   7.907  1.5338  0.5348  0.0377
 4190SOL     OW13619   1.796   0.466   0.620  0.7458 -0.0833  0.4057
 4190SOL    HW113620   1.738   0.511   0.682  1.6993  0.7126  0.7606
 4190SOL    HW213621   1.881   0.465   0.664  1.3820  0.2488 -0.7631
 4191SOL     OW13622   8.116   4.941   6.688 -0.0884 -0.2509  0.3702
 4191SOL    HW113623   8.078   4.876   6.628  0.0100 -1.1138  1.2282
 4191SOL    HW213624   8.124   5.020   6.634 -2.1769 -0.3058 -0.1388
 4192SOL     OW13625   0.553   5.487   7.871  0.0206 -0.3386  0.2080
 4192SOL    HW113626   0.642   5.509   7.842 -0.6721  0.6277 -1.3550
 4192SOL    HW213627   0.519   5.430   7.803 -0.5764 -0.6672  0.7717
 4193SOL     OW13628   3.907   4.132   7.823  0.2700 -0.3259 -0.4044
 4193SOL    HW113629   3.825   4.142   7.776  0.9681  0.4286 -1.5171
 4193SOL    HW213630   3.894   4.176   7.906 -0.2759  0.2575 -0.7960
 4194SOL     OW13631   1.416   0.265   5.151  0.0521  0.0443 -0.4743
 4194SOL    HW113632   1.429   0.214   5.071 -1.2800 -1.3931  0.1811
 4194SOL    HW213633   1.482   0.231   5.212  0.5205  0.5719 -0.6697
 4195SOL     OW13634   5.967   4.813   0.567  0.1631 -0.2673  0.2529
 4195SOL    HW113635   6.009   4.826   0.482 -1.5960 -0.3501 -0.6810
 4195SOL    HW213636   5.945   4.720   0.569 -1.8187  0.1543 -0.2188
 4196SOL     OW13637   5.738   1.939   6.546  0.6118  0.2852 -0.3073
 4196SOL    HW113638   5.810   1.880   6.520  1.9107  0.5982  2.2163
 4196SOL    HW213639   5.719   1.990   6.467  2.6110 -0.3877 -1.3034
 4197SOL     OW13640   3.586   6.218   6.916  0.0894 -0.1660  0.0639
 4197SOL    HW113641   3.670   6.264   6.913 -0.2862  0.4847 -1.4687
 4197SOL    HW213642   3.609   6.126   6.902  0.6125 -0.0955  0.4398
 4198SOL     OW13643   8.126   2.967   5.016  0.1054  0.4089 -0.0701
 4198SOL    HW113644   8.058   3.034   5.023  0.8835  1.0714  1.6511
 4198SOL    HW213645   8.086   2.898   4.963 -1.1153  1.7289 -0.9612
 4199SOL     OW13646   6.211   0.850   4.020  0.3173  0.6314 -0.6702
 4199SOL    HW113647   6.198   0.813   3.933  1.2567  1.1129 -1.0370
 4199SOL    HW213648   6.300   0.824   4.044  0.2981  1.0369 -0.1240
 4200SOL     OW13649   0.039   2.053   6.902  0.0944 -0.2181 -0.3709
 4200SOL    HW113650   0.024   1.992   6.975  0.6964  0.2555  0.1668
 4200SOL    HW213651  -0.001   2.135   6.931  0.0887 -0.1074 -0.6940
 4201SOL     OW13652   3.133   8.113   3.965 -0.3175 -0.4284 -0.0049
 4201SOL    HW113653   3.189   8.190   3.968  0.2862 -0.8859  0.8408
 4201SOL    HW213654   3.045   8.147   3.982  0.0383 -0.0095  1.0699
 4202SOL     OW13655   8.024   2.553   2.380  0.1810  0.0625  0.0525
 4202SOL    HW113656   8.004   2.606   2.302 -0.5484  2.7125  1.8830
 4202SOL    HW213657   7.940   2.544   2.425  0.7285 -0.6634  0.9615
 4203SOL     OW13658   2.849   3.738   2.129  0.0745 -0.5327  0.2376
 4203SOL    HW113659   2.811   3.784   2.054  1.9639  1.7924  0.5552
 4203SOL    HW213660   2.789   3.756   2.201 -0.8405 -1.2993 -0.3041
 4204SOL     OW13661   3.686   0.093   5.521 -0.3383 -0.4950  0.4009
 4204SOL    HW113662   3.645   0.027   5.466 -0.5770  1.8540 -2.5231
 4204SOL    HW213663   3.773   0.105   5.483  0.5500 -0.6448  2.2823
 4205SOL     OW13664   4.245   4.502   5.673  0.9473 -0.0455  0.3898
 4205SOL    HW113665   4.330   4.516   5.633  0.3501 -0.3308 -1.0346
 4205SOL    HW213666   4.184   4.551   5.618  0.2662  0.7089  1.7763
 4206SOL     OW13667   4.539   7.908   4.443  0.2590  0.1454  0.1488
 4206SOL    HW113668   4.595   7.840   4.480  1.7231  0.1320 -1.9034
 4206SOL    HW213669   4.599   7.968   4.399 -1.2379  0.8115 -1.1215
 4207SOL     OW13670   3.598   4.336   0.244  0.2610  0.6157  0.2766
 4207SOL    HW113671   3.654   4.323   0.320  0.5307  0.5846  0.0777
 4207SOL    HW213672   3.510   4.318   0.275  0.5348 -0.9999  0.1853
 4208SOL     OW13673   2.626   0.348   5.623 -0.1349 -0.7482  0.0441
 4208SOL    HW113674   2.563   0.295   5.672  0.1576 -0.5902  0.5948
 4208SOL    HW213675   2.710   0.332   5.665 -0.4357  2.4239  2.2471
 4209SOL     OW13676   3.132   4.153   3.372  0.2466  0.3160 -0.3728
 4209SOL    HW113677   3.202   4.103   3.414 -0.6773 -0.4097  0.3255
 4209SOL    HW213678   3.159   4.159   3.280  0.6576 -0.9662 -0.3445
 4210SOL     OW13679   6.718   4.254   7.551 -0.4496  0.0645  0.3852
 4210SOL    HW113680   6.768   4.330   7.522 -1.3013  0.3248 -0.4887
 4210SOL    HW213681   6.630   4.269   7.514 -1.0191 -0.6262  1.4240
 4211SOL     OW13682   7.660   6.606   6.691 -0.0828  0.4785  0.3254
 4211SOL    HW113683   7.594   6.671   6.717  0.2483  2.0071 -2.3330
 4211SOL    HW213684   7.611   6.543   6.637 -0.3991 -1.6149  2.8574
 4212SOL     OW13685   3.476   2.892   6.601  0.3479 -0.2954  0.7126
 4212SOL    HW113686   3.406   2.829   6.615  0.4683 -0.3884  0.9116
 4212SOL    HW213687   3.488   2.896   6.506 -0.6330  0.4989  0.6101
 4213SOL     OW13688   6.001   6.274   1.685 -0.1496 -0.4861  0.1765
 4213SOL    HW113689   5.929   6.334   1.703 -0.6046 -1.0854  0.3682
 4213SOL    HW213690   6.079   6.330   1.680 -0.7676  0.3020 -1.0513
 4214SOL     OW13691   1.114   5.031   7.117  0.4730 -0.4267  0.0977
 4214SOL    HW113692   1.077   4.943   7.109 -0.3305 -0.1807  0.9820
 4214SOL    HW213693   1.061   5.074   7.184  0.9550  0.6862 -0.2083
 4215SOL     OW13694   4.957   7.133   1.486 -0.6553  0.2442  0.0297
 4215SOL    HW113695   5.051   7.114   1.484 -0.9898 -1.6128  0.4361
 4215SOL    HW213696   4.929   7.125   1.394 -0.4767  0.4406 -0.0409
 4216SOL     OW13697   0.689   8.253   4.284  0.2720  0.0258  0.7521
 4216SOL    HW113698   0.756   8.222   4.223  0.0313  1.4502 -0.2919
 4216SOL    HW213699   0.687   8.348   4.271 -2.7526 -0.0583 -0.1550
 4217SOL     OW13700   0.016   1.956   3.368 -0.1803 -0.2701 -0.8652
 4217SOL    HW113701   0.003   1.862   3.368  0.9805 -0.4488  0.1540
 4217SOL    HW213702   0.063   1.974   3.287 -0.9456 -0.4591 -1.3674
 4218SOL     OW13703   3.556   7.596   3.854 -0.3172  0.0480  0.1153
 4218SOL    HW113704   3.462   7.613   3.844 -0.4768 -0.7675  0.1610
 4218SOL    HW213705   3.575   7.617   3.946 -0.3822  0.5197  0.0242
 4219SOL     OW13706   0.545   4.229   3.710 -0.4597 -0.0760 -0.4803
 4219SOL    HW113707   0.473   4.206   3.769  0.8092 -0.2356  1.1051
 4219SOL    HW213708   0.528   4.181   3.630 -2.0287 -0.2110 -0.1034
 4220SOL     OW13709   0.657   5.906   7.283 -0.3241  0.0404  0.0493
 4220SOL    HW113710   0.663   5.927   7.376  0.0169 -2.3007  0.6345
 4220SOL    HW213711   0.564   5.885   7.270 -1.0644  3.3686 -0.9614
 4221SOL     OW13712   0.612   8.077   2.858 -0.2352 -0.0131  0.2522
 4221SOL    HW113713   0.604   8.053   2.950  0.7171  0.3557  0.4397
 4221SOL    HW213714   0.616   7.994   2.811 -0.0398 -0.2039  0.6059
 4222SOL     OW13715   1.165   2.130   2.845  0.1307  0.5822  0.7998
 4222SOL    HW113716   1.150   2.065   2.777  1.6277 -0.9418  1.8336
 4222SOL    HW213717   1.201   2.080   2.918  3.0537  2.7768  1.0341
 4223SOL     OW13718   3.428   6.563   0.728 -0.0498 -0.1743  0.0078
 4223SOL    HW113719   3.338   6.530   0.727  0.4087 -1.4914 -0.4340
 4223SOL    HW213720   3.419   6.658   0.726 -1.4381 -0.2646  0.8169
 4224SOL     OW13721   7.910   6.924   2.571  0.2081 -0.6823  0.2368
 4224SOL    HW113722   7.881   7.015   2.563  1.1224 -0.5257 -2.1795
 4224SOL    HW213723   8.000   6.931   2.605  0.4348 -0.6492 -0.3643
 4225SOL     OW13724   7.584   5.083   1.399  0.4634  0.4400 -0.3592
 4225SOL    HW113725   7.675   5.058   1.385  0.4377 -0.7542  1.2503
 4225SOL    HW213726   7.566   5.058   1.490 -1.0365  2.0208 -0.1563
 4226SOL     OW13727   7.078   6.765   7.036 -0.7993 -0.1138 -0.3543
 4226SOL    HW113728   7.029   6.833   6.990  0.0735 -0.0011 -1.1406
 4226SOL    HW213729   7.047   6.683   6.998 -0.5665 -0.0536 -0.6844
 4227SOL     OW13730   7.426   1.051   1.820  0.3617  0.3383  0.1873
 4227SOL    HW113731   7.377   1.130   1.841 -1.6911 -1.3003  2.0365
 4227SOL    HW213732   7.444   1.011   1.905  1.6295 -1.0499 -0.6853
 4228SOL     OW13733   0.468   3.960   0.371 -0.7792  0.1554 -0.4543
 4228SOL    HW113734   0.504   4.033   0.420  2.0243 -1.0696 -0.5198
 4228SOL    HW213735   0.381   3.947   0.408  0.0293  1.2287  2.0444
 4229SOL     OW13736   7.610   0.490   7.608 -0.3405 -0.6577 -0.4377
 4229SOL    HW113737   7.684   0.545   7.582 -0.7843  0.3964  0.4892
 4229SOL    HW213738   7.649   0.420   7.661 -0.1402  0.8016  1.4326
 4230SOL     OW13739   2.795   3.968   2.830 -0.1018 -0.4390 -0.0238
 4230SOL    HW113740   2.871   3.984   2.886  0.2264 -0.7707 -0.3633
 4230SOL    HW213741   2.745   3.900   2.876  0.5394 -1.2265 -0.4657
 4231SOL     OW13742   4.828   4.675   6.201 -0.1119  0.4537  0.5046
 4231SOL    HW113743   4.750   4.720   6.232  0.0227  0.0407  1.4644
 4231SOL    HW213744   4.795   4.598   6.154 -0.3516  1.6486 -1.3652
 4232SOL     OW13745   0.777   7.959   6.615  0.4025  0.0244 -0.3731
 4232SOL    HW113746   0.751   7.933   6.703  0.2703  2.9243  0.5423
 4232SOL    HW213747   0.869   7.934   6.608  1.0407  1.6719  1.4584
 4233SOL     OW13748   4.303   4.588   7.232 -0.2103 -0.0979 -0.1291
 4233SOL    HW113749   4.309   4.676   7.194 -1.7169  1.3086  2.5580
 4233SOL    HW213750   4.211   4.580   7.257  0.3192 -1.6555  1.4388
 4234SOL     OW13751   7.739   1.817   0.755 -0.0526 -0.2762 -0.3029
 4234SOL    HW113752   7.815   1.817   0.697  0.4710  1.7318  0.3234
 4234SOL    HW213753   7.713   1.725   0.759  2.9598 -1.2273  0.2500
 4235SOL     OW13754   4.929   5.559   6.470  0.0885  0.3855 -0.1542
 4235SOL    HW113755   5.014   5.598   6.452  0.6413 -0.7697 -0.1431
 4235SOL    HW213756   4.891   5.542   6.384 -0.7490  2.1305 -0.1737
 4236SOL     OW13757   3.822   4.742   3.609  0.6493 -0.2720  0.6037
 4236SOL    HW113758   3.838   4.725   3.516  0.1891 -0.3725  0.5421
 4236SOL    HW213759   3.745   4.689   3.631  0.4572  0.1357  0.9212
 4237SOL     OW13760   2.121   0.626   3.627 -0.0711  0.0293 -0.6133
 4237SOL    HW113761   2.172   0.578   3.693  0.6545  2.9896  1.1554
 4237SOL    HW213762   2.078   0.696   3.675 -0.9496  1.3009 -3.0464
 4238SOL     OW13763   3.515   4.066   7.560  0.0027  0.3743  0.1707
 4238SOL    HW113764   3.504   4.012   7.482  2.7120  0.8072 -0.6159
 4238SOL    HW213765   3.479   4.152   7.536  1.0526  0.5802 -0.7388
 4239SOL     OW13766   0.553   0.834   6.090  0.0246 -0.3795  0.8844
 4239SOL    HW113767   0.572   0.915   6.137  0.6277 -0.9920  1.7318
 4239SOL    HW213768   0.481   0.794   6.139 -1.7368  0.6212 -0.7496
 4240SOL     OW13769   0.077   4.604   0.030 -0.4942  0.0776  0.4447
 4240SOL    HW113770   0.012   4.616   0.099 -1.9737 -0.4968 -0.8111
 4240SOL    HW213771   0.161   4.619   0.074 -1.3950 -0.1294  2.3310
 4241SOL     OW13772   3.021   5.337   2.792 -1.1431  0.0226 -0.6054
 4241SOL    HW113773   2.937   5.372   2.820 -1.2546  0.8047 -1.8407
 4241SOL    HW213774   3.000   5.277   2.721 -0.7000 -0.1393 -0.6021
 4242SOL     OW13775   5.906   4.779   1.339 -0.4711 -0.2356  0.8285
 4242SOL    HW113776   5.889   4.686   1.353 -0.8557 -0.5724 -1.3858
 4242SOL    HW213777   5.933   4.784   1.247 -2.0589  2.0111  0.4123
 4243SOL     OW13778   3.381   1.273   1.473  0.0038 -0.1320  0.2526
 4243SOL    HW113779   3.339   1.357   1.452  0.9393  0.0890 -0.8765
 4243SOL    HW213780   3.366   1.219   1.396  2.1737  0.1423 -0.4393
 4244SOL     OW13781   1.828   6.183   7.558  0.0752  0.3399 -0.6039
 4244SOL    HW113782   1.841   6.253   7.495  1.0489 -0.0165 -0.8256
 4244SOL    HW213783   1.740   6.198   7.594  0.3685  1.8246 -0.4347
 4245SOL     OW13784   7.652   4.367   7.415 -0.0062 -0.4776 -0.4857
 4245SOL    HW113785   7.663   4.441   7.474  0.9919 -2.0273  1.3511
 4245SOL    HW213786   7.561   4.339   7.428 -0.1046 -0.1787 -0.5087
 4246SOL     OW13787   8.230   3.311   7.250 -0.2728 -0.3012 -0.0405
 4246SOL    HW113788   8.192   3.251   7.186 -0.2350  1.1500 -1.4645
 4246SOL    HW213789   8.324   3.312   7.231 -0.4943  1.6173 -1.3278
 4247SOL     OW13790   6.513   4.291   0.921 -0.0060  0.3474  0.3524
 4247SOL    HW113791   6.565   4.313   0.844 -0.2828 -1.2990 -0.3304
 4247SOL    HW213792   6.457   4.367   0.935 -0.4693  0.3973 -1.5088
 4248SOL     OW13793   1.401   4.497   6.027 -0.1878  0.1953  0.5250
 4248SOL    HW113794   1.364   4.571   6.074 -0.5279 -1.8242  3.7491
 4248SOL    HW213795   1.483   4.530   5.990 -1.9334  2.9947 -1.2076
 4249SOL     OW13796   0.959   2.083   1.105 -0.8275 -0.0548 -0.1145
 4249SOL    HW113797   1.046   2.062   1.138 -1.9358 -3.0933  1.2361
 4249SOL    HW213798   0.912   2.118   1.181 -1.4836 -0.8967 -0.1079
 4250SOL     OW13799   4.125   4.776   6.542 -0.0014 -0.0472  0.2684
 4250SOL    HW113800   4.158   4.836   6.608 -1.1802  1.5290 -0.4985
 4250SOL    HW213801   4.030   4.785   6.547 -0.2727 -2.4602  0.6462
 4251SOL     OW13802   7.005   1.030   3.738  0.0592 -0.6817  0.0050
 4251SOL    HW113803   7.024   0.962   3.672 -1.1792 -1.8199  0.7569
 4251SOL    HW213804   6.999   0.981   3.820 -0.7438  0.3658  0.5848
 4252SOL     OW13805   4.184   7.671   5.711  0.3185 -0.2147 -0.2737
 4252SOL    HW113806   4.278   7.680   5.726  0.6624 -1.7580 -1.2212
 4252SOL    HW213807   4.150   7.639   5.794  0.4350  1.2866  0.3888
 4253SOL     OW13808   6.473   3.517   7.374 -0.1273 -0.0613 -0.3608
 4253SOL    HW113809   6.522   3.598   7.386  1.3202 -1.0912  1.0603
 4253SOL    HW213810   6.514   3.474   7.300  0.6679 -0.5941  0.3836
 4254SOL     OW13811   3.702   6.413   7.950  0.0646 -0.4573 -0.3911
 4254SOL    HW113812   3.622   6.442   7.907 -1.0527 -1.0362  1.2125
 4254SOL    HW213813   3.696   6.317   7.949 -0.9554 -0.5383  2.5912
 4255SOL     OW13814   4.792   4.273   2.271  0.2515  1.0895 -0.2651
 4255SOL    HW113815   4.765   4.193   2.226  0.9370 -0.8958  2.6059
 4255SOL    HW213816   4.719   4.295   2.328  1.9223 -0.6284  2.7946
 4256SOL     OW13817   7.162   4.548   8.239 -0.1780  0.3869  0.5406
 4256SOL    HW113818   7.188   4.499   8.317  1.1923  0.1527 -0.0446
 4256SOL    HW213819   7.121   4.482   8.182 -0.7814  0.4742  0.8595
 4257SOL     OW13820   6.916   1.879   1.033 -0.0525  0.3843 -0.0139
 4257SOL    HW113821   6.964   1.961   1.043  1.0125 -0.0807 -1.1235
 4257SOL    HW213822   6.901   1.871   0.939 -3.3333  1.0485  0.3328
 4258SOL     OW13823   4.287   3.459   7.972  0.2726  0.6114  0.5092
 4258SOL    HW113824   4.245   3.375   7.957 -2.0877  1.7580  0.2430
 4258SOL    HW213825   4.356   3.464   7.906 -1.3439  0.0222 -1.2962
 4259SOL     OW13826   6.029   6.993   0.187 -0.0459  0.3651  0.0287
 4259SOL    HW113827   5.953   6.937   0.176 -0.5864  0.5572  2.2626
 4259SOL    HW213828   6.062   6.971   0.275  1.3632  1.6117 -0.1488
 4260SOL     OW13829   7.400   0.509   5.287  0.1297 -1.0661  0.0540
 4260SOL    HW113830   7.360   0.423   5.278 -0.8107 -0.7670  1.1702
 4260SOL    HW213831   7.458   0.502   5.362 -0.0727 -0.6831  0.2508
 4261SOL     OW13832   7.722   2.810   1.793 -0.4295  0.6514  0.0614
 4261SOL    HW113833   7.655   2.746   1.770  0.0672  0.0904  0.1416
 4261SOL    HW213834   7.675   2.881   1.837 -0.8322 -0.2331  1.0980
 4262SOL     OW13835   2.177   2.441   2.493  0.5569 -0.0047  0.3648
 4262SOL    HW113836   2.216   2.528   2.492 -1.4464  0.9533 -0.6889
 4262SOL    HW213837   2.146   2.429   2.583 -0.5182  1.0455  0.1507
 4263SOL     OW13838   3.857   4.813   6.550  0.0294 -0.1180 -0.6519
 4263SOL    HW113839   3.836   4.819   6.456  0.4966  1.3202 -0.6785
 4263SOL    HW213840   3.793   4.750   6.584 -0.0955 -0.7363 -1.9416
 4264SOL     OW13841   5.580   1.135   6.716  0.0247 -0.2585  0.2029
 4264SOL    HW113842   5.629   1.138   6.634 -1.0301  2.3564 -0.4451
 4264SOL    HW213843   5.490   1.114   6.690 -0.0516 -0.7640  0.8509
 4265SOL     OW13844   6.772   1.865   4.648  0.1318  0.2448 -0.0272
 4265SOL    HW113845   6.853   1.886   4.601  1.6469  1.8934  3.0316
 4265SOL    HW213846   6.800   1.806   4.718 -1.0095  1.9559  1.9620
 4266SOL     OW13847   5.078   5.104   1.558  0.3509 -0.3761  0.1312
 4266SOL    HW113848   5.037   5.189   1.541 -0.0525 -0.2351  1.6328
 4266SOL    HW213849   5.170   5.124   1.574  0.2185 -0.1795  0.6832
 4267SOL     OW13850   7.984   3.088   5.549 -0.7216 -0.4336 -0.1093
 4267SOL    HW113851   8.036   3.016   5.513  1.1427  0.1905  1.1682
 4267SOL    HW213852   8.048   3.143   5.595 -2.2005  1.6414 -0.4067
 4268SOL     OW13853   1.547   4.458   1.744 -0.7538 -0.0356  0.2764
 4268SOL    HW113854   1.580   4.385   1.691 -2.0299 -2.4109  2.5649
 4268SOL    HW213855   1.615   4.525   1.735 -1.0988  0.0044 -4.6497
 4269SOL     OW13856   2.761   3.783   7.045  0.1833 -0.2317  0.1793
 4269SOL    HW113857   2.813   3.708   7.074  0.1038 -0.1992  0.4069
 4269SOL    HW213858   2.734   3.761   6.956  0.7096 -0.1860  0.0053
 4270SOL     OW13859   5.842   5.724   7.813  0.1611  0.1402 -0.0576
 4270SOL    HW113860   5.811   5.686   7.731 -1.3113  0.8206  0.1517
 4270SOL    HW213861   5.799   5.672   7.882  1.1867 -0.2673  0.2859
 4271SOL     OW13862   5.127   3.783   0.129 -0.0572  0.3245  0.8476
 4271SOL    HW113863   5.201   3.774   0.069 -0.3966  1.3777  0.2595
 4271SOL    HW213864   5.161   3.835   0.202 -0.6998  2.4962 -0.3304
 4272SOL     OW13865   3.929   7.562   6.623 -0.3030  0.2424  0.1215
 4272SOL    HW113866   4.012   7.600   6.652  1.2497 -1.0708 -2.1689
 4272SOL    HW213867   3.909   7.495   6.688  0.0175  1.0449  1.0797
 4273SOL     OW13868   2.137   3.527   3.456  0.0365 -0.0428 -0.5028
 4273SOL    HW113869   2.160   3.619   3.471  0.7280  0.4136 -3.7457
 4273SOL    HW213870   2.205   3.477   3.501  0.9584  1.0992 -0.5975
 4274SOL     OW13871   6.744   7.278   7.000  0.1690  0.4877  0.9882
 4274SOL    HW113872   6.831   7.265   6.961  0.7195  3.7770  0.8076
 4274SOL    HW213873   6.683   7.263   6.927  0.6745 -0.1366  0.6742
 4275SOL     OW13874   2.442   5.053   2.276 -0.1586 -0.2402  0.2704
 4275SOL    HW113875   2.392   5.007   2.209 -0.8110  1.2893 -0.3541
 4275SOL    HW213876   2.380   5.068   2.347  0.2652 -0.9985  0.8134
 4276SOL     OW13877   3.848   4.561   2.438 -0.0745 -0.1083 -0.6551
 4276SOL    HW113878   3.785   4.520   2.378  0.6081 -0.7745 -0.9377
 4276SOL    HW213879   3.920   4.497   2.444  0.1426  0.2167  0.4027
 4277SOL     OW13880   0.980   4.726   3.013  0.6140  0.0725  0.5562
 4277SOL    HW113881   0.947   4.724   3.102 -0.6180 -0.2299  0.1083
 4277SOL    HW213882   1.074   4.745   3.023  0.4279  0.4135  1.8783
 4278SOL     OW13883   3.549   4.461   5.514 -0.3141 -0.0363 -0.6483
 4278SOL    HW113884   3.504   4.397   5.569  1.0473  0.5196  1.2203
 4278SOL    HW213885   3.481   4.523   5.488 -0.5987  1.3314  2.8592
 4279SOL     OW13886   6.725   2.910   1.494  0.0802  0.0908 -0.0136
 4279SOL    HW113887   6.813   2.928   1.460  0.5572  1.4492  1.7639
 4279SOL    HW213888   6.707   2.820   1.468  2.8804 -0.9691  1.3240
 4280SOL     OW13889   1.041   0.876   2.981 -0.0266  0.8842  0.6935
 4280SOL    HW113890   1.038   0.959   3.029  2.4072 -0.2777  3.1465
 4280SOL    HW213891   1.130   0.844   2.993  0.1698 -0.5174 -3.1113
 4281SOL     OW13892   6.628   6.589   6.423  0.0041  0.0971  0.3393
 4281SOL    HW113893   6.607   6.665   6.369 -1.9845  0.8372  2.0305
 4281SOL    HW213894   6.627   6.515   6.362 -1.1871  1.0225 -0.8119
 4282SOL     OW13895   1.977   5.347   6.343  0.5000 -0.1399  0.0423
 4282SOL    HW113896   1.909   5.386   6.289  0.3881  1.7454  1.4263
 4282SOL    HW213897   2.052   5.337   6.285 -0.2296 -0.0239 -0.9323
 4283SOL     OW13898   2.949   5.750   1.746 -0.1653 -0.5101  0.4242
 4283SOL    HW113899   3.033   5.777   1.784 -0.3176  0.5451  0.0276
 4283SOL    HW213900   2.905   5.704   1.818  0.2510 -0.0148  1.0122
 4284SOL     OW13901   2.333   4.081   8.053  0.9479 -0.6126  0.1530
 4284SOL    HW113902   2.294   4.150   8.108 -0.2400 -0.3655 -0.9395
 4284SOL    HW213903   2.423   4.072   8.085  0.8719  0.8705  0.8674
 4285SOL     OW13904   1.615   5.409   6.481 -0.2227  0.7193 -0.0005
 4285SOL    HW113905   1.645   5.347   6.547 -0.4316  0.7125  0.0893
 4285SOL    HW213906   1.647   5.494   6.512 -0.7892  0.7936  0.4011
 4286SOL     OW13907   6.329   3.618   4.366 -0.1032  0.1808 -0.5735
 4286SOL    HW113908   6.409   3.639   4.319  1.2659 -0.4238  1.3690
 4286SOL    HW213909   6.314   3.693   4.423 -0.9044  0.2567 -0.8670
 4287SOL     OW13910   4.141   7.660   7.478 -0.0338  0.2558 -0.1725
 4287SOL    HW113911   4.191   7.617   7.409  0.8955  0.5696  0.2972
 4287SOL    HW213912   4.192   7.645   7.558  0.0072  1.7360  0.0978
 4288SOL     OW13913   7.297   0.914   5.640  0.1960  0.0521 -0.0558
 4288SOL    HW113914   7.264   0.870   5.718  1.2950 -0.9911 -0.1303
 4288SOL    HW213915   7.301   0.845   5.574  0.2942  0.6701 -0.7090
 4289SOL     OW13916   0.125   3.155   0.814 -0.5853  0.2673  0.2042
 4289SOL    HW113917   0.030   3.163   0.826 -0.6455  3.1297 -1.3231
 4289SOL    HW213918   0.162   3.223   0.871  0.5800 -0.8180  0.7777
 4290SOL     OW13919   0.427   5.147   5.854  0.3924 -0.4011  0.1130
 4290SOL    HW113920   0.349   5.171   5.804  0.0920  0.4361  0.9455
 4290SOL    HW213921   0.401   5.068   5.902 -0.5848  0.8261  1.7259
 4291SOL     OW13922   4.059   4.064   6.041 -0.3851  0.4277  0.5656
 4291SOL    HW113923   4.077   4.081   6.134  0.3400  0.9355  0.3345
 4291SOL    HW213924   3.977   4.110   6.024 -1.6599 -1.3698  1.4599
 4292SOL     OW13925   1.948   5.499   5.098  0.0678  0.3030  0.2622
 4292SOL    HW113926   1.984   5.424   5.146 -0.4153  0.6372  1.1559
 4292SOL    HW213927   1.913   5.460   5.017 -0.3690 -0.4758  0.8106
 4293SOL     OW13928   4.761   2.725   6.539  0.4842 -0.5209 -0.0490
 4293SOL    HW113929   4.715   2.762   6.615 -0.6004  0.9760 -1.3568
 4293SOL    HW213930   4.692   2.686   6.486  1.2387 -1.6239 -0.2427
 4294SOL     OW13931   1.552   1.242   5.255  1.0191  0.1727  0.2048
 4294SOL    HW113932   1.548   1.323   5.305  1.1496  0.9810 -1.0721
 4294SOL    HW213933   1.623   1.254   5.193 -0.1167 -0.1853 -1.2271
 4295SOL     OW13934   2.785   7.857   8.242 -0.8578 -0.2230 -0.1622
 4295SOL    HW113935   2.783   7.774   8.289  0.7992 -0.8552 -1.1136
 4295SOL    HW213936   2.756   7.922   8.306 -1.4910 -1.4207  0.8148
 4296SOL     OW13937   7.130   5.318   4.795  0.5046 -0.2354 -0.2283
 4296SOL    HW113938   7.190   5.256   4.752  0.9322 -0.1129  0.1838
 4296SOL    HW213939   7.175   5.402   4.790  0.2239 -0.0832 -0.1927
 4297SOL     OW13940   4.217   7.980   1.912 -0.4332 -0.0607 -0.1524
 4297SOL    HW113941   4.133   8.026   1.902 -0.6387 -0.4902 -0.4355
 4297SOL    HW213942   4.193   7.888   1.922 -0.0359 -0.0827  0.6348
 4298SOL     OW13943   6.074   1.275   6.321  0.6854  0.2766 -0.8572
 4298SOL    HW113944   6.039   1.249   6.406  0.1474  1.4554 -0.7015
 4298SOL    HW213945   6.154   1.223   6.312  1.2065  0.7417  0.7516
 4299SOL     OW13946   8.092   2.801   4.625  0.2798 -0.0615 -0.2917
 4299SOL    HW113947   8.001   2.792   4.597  0.1986 -0.9573  0.2257
 4299SOL    HW213948   8.097   2.890   4.661 -0.8148 -0.5552  1.1720
 4300SOL     OW13949   5.623   6.656   5.925  0.6250  0.1781 -0.7202
 4300SOL    HW113950   5.581   6.739   5.947  0.6073 -0.1645  0.6535
 4300SOL    HW213951   5.680   6.677   5.851  1.0033  1.5460 -0.0826
 4301SOL     OW13952   7.695   2.163   7.556 -0.8229  0.4279 -0.2141
 4301SOL    HW113953   7.765   2.176   7.621 -0.7151 -0.3326 -0.1743
 4301SOL    HW213954   7.697   2.070   7.538 -2.6752  0.1690  0.7275
 4302SOL     OW13955   6.750   2.349   2.611 -0.0164  0.1284  0.5426
 4302SOL    HW113956   6.756   2.349   2.516 -3.1879 -1.4196  0.1765
 4302SOL    HW213957   6.798   2.271   2.639  1.6532  1.0568  0.3424
 4303SOL     OW13958   4.616   0.909   4.531  0.4903  0.0340  0.6132
 4303SOL    HW113959   4.546   0.948   4.584  0.1872  0.6373 -0.2059
 4303SOL    HW213960   4.571   0.842   4.478  0.8205 -0.6865  1.2260
 4304SOL     OW13961   5.925   1.715   7.530  0.3641 -0.4881 -0.1386
 4304SOL    HW113962   5.996   1.655   7.552  0.3372 -1.1100 -1.6234
 4304SOL    HW213963   5.966   1.802   7.529  1.0507 -0.8101 -0.7008
 4305SOL     OW13964   7.323   3.325   7.239  0.1569  0.3259  0.2647
 4305SOL    HW113965   7.353   3.395   7.182 -0.5253 -0.5640 -1.2357
 4305SOL    HW213966   7.279   3.262   7.181 -3.1801  0.7357  2.0464
 4306SOL     OW13967   6.539   4.610   1.243  0.3580 -0.3345  0.1601
 4306SOL    HW113968   6.479   4.596   1.316  0.8260 -0.6121  0.4960
 4306SOL    HW213969   6.605   4.671   1.278  0.6312 -0.5371 -0.0039
 4307SOL     OW13970   1.590   3.144   0.346  0.2560 -0.1908 -0.3087
 4307SOL    HW113971   1.664   3.148   0.407  0.9312  1.9531 -1.1735
 4307SOL    HW213972   1.517   3.113   0.400  0.8827  1.3761  1.5982
 4308SOL     OW13973   7.531   7.443   3.402 -0.8391 -0.7471  0.3785
 4308SOL    HW113974   7.499   7.353   3.398  0.7120 -1.3272  0.1749
 4308SOL    HW213975   7.565   7.460   3.314 -0.5530 -0.1907  0.5919
 4309SOL     OW13976   8.176   0.622   3.102  0.3048  0.7194  0.3855
 4309SOL    HW113977   8.205   0.542   3.147 -2.4921 -0.8138 -0.2847
 4309SOL    HW213978   8.129   0.672   3.168 -0.7449  0.1966  0.0487
 4310SOL     OW13979   6.407   4.750   6.793 -0.1797  0.1884 -0.3691
 4310SOL    HW113980   6.463   4.746   6.871 -0.3189 -0.0618 -0.2776
 4310SOL    HW213981   6.435   4.675   6.740  1.7473  1.8265 -1.8467
 4311SOL     OW13982   1.787   4.428   1.529  0.5507  0.1229  0.1271
 4311SOL    HW113983   1.751   4.340   1.537  2.8392 -0.8484  0.6032
 4311SOL    HW213984   1.869   4.417   1.481  1.6795  1.7352  1.5272
 4312SOL     OW13985   7.466   6.895   5.687  0.0835  0.2098  0.3625
 4312SOL    HW113986   7.412   6.935   5.619 -0.5926  1.1189  1.3930
 4312SOL    HW213987   7.551   6.882   5.645 -0.0213  1.6802 -0.3795
 4313SOL     OW13988   0.471   4.996   2.466 -0.0946 -0.0119 -0.2497
 4313SOL    HW113989   0.480   5.057   2.539  4.7793 -1.7294  0.9765
 4313SOL    HW213990   0.413   4.927   2.500  0.1936  0.3715  1.0890
 4314SOL     OW13991   2.254   1.050   4.594 -0.1405 -0.4764 -0.0023
 4314SOL    HW113992   2.194   1.030   4.666 -0.0921  0.8660  0.4367
 4314SOL    HW213993   2.202   1.035   4.515 -0.4841 -1.0768  0.3290
 4315SOL     OW13994   4.713   4.410   6.728 -0.3577 -0.0162  0.7323
 4315SOL    HW113995   4.755   4.355   6.793 -0.0315  3.3075  3.5986
 4315SOL    HW213996   4.620   4.393   6.739 -0.2602 -0.0748  1.5243
 4316SOL     OW13997   2.446   4.849   5.228 -0.1120  0.1497  0.1986
 4316SOL    HW113998   2.353   4.827   5.229 -0.2677  0.7842  0.1598
 4316SOL    HW213999   2.483   4.804   5.304 -0.5153  0.1687  0.4062
 4317SOL     OW14000   7.330   7.463   7.083  0.7875 -0.7035  0.1684
 4317SOL    HW114001   7.274   7.505   7.148  0.6108  0.0720 -0.4729
 4317SOL    HW214002   7.269   7.414   7.027  0.4622  1.5871 -1.6433
 4318SOL     OW14003   2.415   1.523   4.848 -0.4333 -0.4239 -0.2920
 4318SOL    HW114004   2.420   1.605   4.798 -1.4408  0.4305  0.9394
 4318SOL    HW214005   2.387   1.458   4.783  0.7958  0.0911 -1.3834
 4319SOL     OW14006   1.665   3.543   1.780 -0.0881 -0.8081  0.2275
 4319SOL    HW114007   1.731   3.497   1.728  0.7863  0.7432 -0.1096
 4319SOL    HW214008   1.613   3.591   1.716  1.2228  1.4073  0.6898
 4320SOL     OW14009   1.683   4.900   2.138 -0.7829 -0.3745 -0.2356
 4320SOL    HW114010   1.765   4.898   2.089  0.2822 -0.6083  1.4524
 4320SOL    HW214011   1.693   4.974   2.198 -2.0095 -0.1228 -0.3211
 4321SOL     OW14012   4.135   4.836   0.512 -0.3052  0.5253  0.4648
 4321SOL    HW114013   4.085   4.754   0.512 -1.0602  0.9712  1.5304
 4321SOL    HW214014   4.168   4.844   0.422 -2.4571  0.4095 -0.3885
 4322SOL     OW14015   2.654   4.085   0.976 -0.0412  0.5016 -0.0310
 4322SOL    HW114016   2.587   4.121   0.919  1.2516  0.6375 -1.5182
 4322SOL    HW214017   2.679   4.158   1.033 -0.4685  0.7077 -0.1031
 4323SOL     OW14018   7.194   4.405   0.220  0.1842  0.4915 -0.0693
 4323SOL    HW114019   7.164   4.489   0.256 -2.7145 -1.2460  1.9779
 4323SOL    HW214020   7.276   4.388   0.266  3.5143  4.1299 -3.8494
 4324SOL     OW14021   5.117   6.525   1.168 -0.3056  0.0482 -0.0158
 4324SOL    HW114022   5.156   6.590   1.110  0.6598  0.7535  1.3734
 4324SOL    HW214023   5.163   6.444   1.146 -1.1667 -0.1126 -1.4042
 4325SOL     OW14024   6.051   0.298   0.340 -0.2525  0.1414 -0.1375
 4325SOL    HW114025   6.043   0.265   0.250  2.2777 -1.2778  0.0717
 4325SOL    HW214026   6.107   0.234   0.384  1.2805  2.4941  1.5729
 4326SOL     OW14027   2.909   7.685   3.544  0.3428 -0.1641  0.6884
 4326SOL    HW114028   2.905   7.762   3.601  1.9600  2.2772 -2.2090
 4326SOL    HW214029   2.882   7.717   3.458  1.2792 -2.8015 -0.7048
 4327SOL     OW14030   7.013   2.939   2.013  0.3071  0.0754 -0.0483
 4327SOL    HW114031   7.035   2.907   2.100  0.5448 -0.4366 -0.2907
 4327SOL    HW214032   6.932   2.893   1.990  0.4312 -0.0497 -0.2361
 4328SOL     OW14033   1.091   0.035   5.641 -0.1822 -0.3313 -0.2252
 4328SOL    HW114034   1.152  -0.037   5.656  0.9267  0.4100 -1.0689
 4328SOL    HW214035   1.063   0.061   5.728 -0.5928 -1.7518  0.1023
 4329SOL     OW14036   1.928   3.913   1.840  0.5905 -0.0681 -0.2549
 4329SOL    HW114037   1.839   3.931   1.871  0.9519 -1.2542  1.6736
 4329SOL    HW214038   1.917   3.845   1.773  0.1172 -1.9257  1.5847
 4330SOL     OW14039   5.178   0.488   0.385  0.1541 -0.2900 -0.2038
 4330SOL    HW114040   5.115   0.422   0.355  0.8948 -0.7534 -0.8040
 4330SOL    HW214041   5.147   0.513   0.472 -2.5697  1.7304 -1.6198
 4331SOL     OW14042   3.446   0.336   3.250 -0.1183 -0.1572  0.0040
 4331SOL    HW114043   3.518   0.305   3.304  0.1274  0.1530 -0.1444
 4331SOL    HW214044   3.481   0.412   3.204 -0.8685  0.6984  0.7936
 4332SOL     OW14045   6.647   3.166   1.613 -0.7891  0.1800 -0.0976
 4332SOL    HW114046   6.701   3.224   1.559 -2.3758  1.2108 -0.6336
 4332SOL    HW214047   6.678   3.078   1.592 -0.4582  0.6514 -1.6759
 4333SOL     OW14048   7.118   4.586   2.861 -0.0632  0.0658 -0.0212
 4333SOL    HW114049   7.146   4.519   2.924  1.1283  1.4267  0.9686
 4333SOL    HW214050   7.167   4.566   2.781  0.7302  0.0639  0.4475
 4334SOL     OW14051   5.686   4.226   4.247 -0.1410 -0.0681 -0.1454
 4334SOL    HW114052   5.670   4.320   4.256 -0.7198 -0.1987  0.3131
 4334SOL    HW214053   5.655   4.204   4.159 -1.0899 -0.0258  0.1587
 4335SOL     OW14054   4.551   3.247   4.620  0.5601  0.2233 -0.1727
 4335SOL    HW114055   4.618   3.222   4.683  1.1761  0.8982 -0.5454
 4335SOL    HW214056   4.509   3.165   4.595  1.2365 -0.2052  0.0730
 4336SOL     OW14057   7.905   2.431   4.085 -0.7855  0.1632  0.0877
 4336SOL    HW114058   7.849   2.356   4.068  0.7106 -0.9372 -0.2142
 4336SOL    HW214059   7.907   2.439   4.181 -1.1899  0.0205  0.1085
 4337SOL     OW14060   2.917   4.227   1.863  0.5758  0.0096  0.0021
 4337SOL    HW114061   2.871   4.306   1.892 -0.2674 -0.6324  0.4950
 4337SOL    HW214062   2.973   4.204   1.937  0.2426 -0.2688  0.1756
 4338SOL     OW14063   3.741   7.836   2.881  0.2415  0.6073  0.1212
 4338SOL    HW114064   3.731   7.761   2.939 -0.3732  1.7587  1.5694
 4338SOL    HW214065   3.779   7.905   2.936 -1.3890  2.1011 -0.5007
 4339SOL     OW14066   6.918   0.332   4.629 -0.3954 -0.3670 -0.1540
 4339SOL    HW114067   6.851   0.318   4.696 -0.0245 -0.7048  0.1583
 4339SOL    HW214068   6.885   0.405   4.576 -2.3983 -2.2832 -1.7726
 4340SOL     OW14069   4.997   1.324   2.067 -0.1175 -0.4438  0.3937
 4340SOL    HW114070   4.915   1.280   2.046 -0.9034  1.1916 -0.1144
 4340SOL    HW214071   5.065   1.269   2.029 -1.0265 -1.4508  0.2006
 4341SOL     OW14072   5.468   3.366   4.847 -0.6272 -0.0922  0.1774
 4341SOL    HW114073   5.439   3.381   4.937 -1.3123  0.5087 -0.1263
 4341SOL    HW214074   5.555   3.327   4.856 -1.2648 -1.3958  1.1199
 4342SOL     OW14075   5.932   2.832   7.255 -0.2362 -0.0406 -0.5367
 4342SOL    HW114076   5.857   2.807   7.308  0.3828  0.3658  0.5832
 4342SOL    HW214077   6.003   2.775   7.285  0.3735  0.8560 -0.2080
 4343SOL     OW14078   1.564   1.341   0.414 -0.6300 -0.4962  1.0116
 4343SOL    HW114079   1.641   1.314   0.364  0.4166 -0.7682  2.6864
 4343SOL    HW214080   1.504   1.267   0.409 -0.1518 -0.8779  0.9093
 4344SOL     OW14081   2.342   4.146   0.443  0.2512 -0.2783 -0.3972
 4344SOL    HW114082   2.312   4.136   0.353 -0.4153 -1.0346 -0.1035
 4344SOL    HW214083   2.325   4.061   0.484  1.1980 -0.1677  0.2554
 4345SOL     OW14084   5.585   5.661   4.448 -0.0655  0.1472  0.8719
 4345SOL    HW114085   5.629   5.703   4.522 -0.3921  1.4551  0.3568
 4345SOL    HW214086   5.641   5.586   4.426  0.1027 -0.1862  2.3412
 4346SOL     OW14087   5.067   2.698   8.080 -0.4071 -0.1355 -0.1368
 4346SOL    HW114088   5.134   2.757   8.117  1.4571 -1.4975 -1.1638
 4346SOL    HW214089   5.066   2.623   8.140 -0.7119 -0.3069 -0.3585
 4347SOL     OW14090   3.969   8.078   7.704  0.6191 -0.0930  0.1805
 4347SOL    HW114091   3.997   8.116   7.787  1.0439  2.1577 -0.9126
 4347SOL    HW214092   4.050   8.053   7.660  0.4360 -0.6560  0.1552
 4348SOL     OW14093   6.645   7.995   7.086 -0.2391  0.0684  0.4856
 4348SOL    HW114094   6.570   7.985   7.144 -0.0760  1.7446  1.0262
 4348SOL    HW214095   6.636   7.923   7.023 -2.4551  0.4100  0.3439
 4349SOL     OW14096   7.851   5.338   4.380  0.0594  0.9055  0.5679
 4349SOL    HW114097   7.757   5.357   4.379  0.0559  0.8437 -0.4654
 4349SOL    HW214098   7.892   5.415   4.340  0.3074  0.1868 -0.5959
 4350SOL     OW14099   6.614   1.678   5.114  0.7623  0.3317 -0.2819
 4350SOL    HW114100   6.548   1.675   5.183  0.9798 -0.6986 -0.1047
 4350SOL    HW214101   6.599   1.762   5.070 -0.7245  0.0662 -0.3112
 4351SOL     OW14102   4.369   7.558   0.485  0.3896 -0.0976 -0.0187
 4351SOL    HW114103   4.344   7.477   0.531 -0.3005 -0.5796 -1.1769
 4351SOL    HW214104   4.321   7.627   0.531 -0.6171 -0.6216 -0.2474
 4352SOL     OW14105   1.620   1.452   3.122  0.0921 -0.1985 -0.3822
 4352SOL    HW114106   1.589   1.533   3.164 -1.3072 -0.7230 -0.3512
 4352SOL    HW214107   1.649   1.479   3.035  0.6059  0.4946 -0.0024
 4353SOL     OW14108   1.243   0.020   4.368  0.2817  0.1019 -0.5796
 4353SOL    HW114109   1.331   0.006   4.403  0.6610  1.6099 -0.8500
 4353SOL    HW214110   1.250   0.002   4.275 -0.4087 -2.5694 -0.1944
 4354SOL     OW14111   8.170   6.326   0.600 -0.4345 -0.0232  0.4241
 4354SOL    HW114112   8.230   6.252   0.611  0.6637  0.8965  0.6995
 4354SOL    HW214113   8.087   6.285   0.574  0.8368 -1.2002 -2.1628
 4355SOL     OW14114   6.806   8.102   1.260 -0.4694  0.1011 -0.2829
 4355SOL    HW114115   6.762   8.160   1.198 -2.8821 -0.2889  0.9359
 4355SOL    HW214116   6.796   8.014   1.223 -0.6189  0.0228 -0.0615
 4356SOL     OW14117   5.971   6.527   2.864 -0.4494 -0.0399  0.3789
 4356SOL    HW114118   6.063   6.546   2.846 -0.2702  0.4996  1.7375
 4356SOL    HW214119   5.966   6.519   2.959 -1.2914 -2.9424  0.1801
 4357SOL     OW14120   6.191   4.848   0.791 -0.8288  0.6817 -0.4826
 4357SOL    HW114121   6.198   4.818   0.700  2.0850  0.1745 -0.2096
 4357SOL    HW214122   6.174   4.768   0.841 -1.6974  0.8536 -0.4835
 4358SOL     OW14123   8.198   0.903   2.813  0.0762 -0.3041 -0.4981
 4358SOL    HW114124   8.109   0.901   2.849  0.9997 -2.3004  1.9101
 4358SOL    HW214125   8.185   0.903   2.718 -2.4670  1.1330 -0.2437
 4359SOL     OW14126   5.897   1.112   1.031 -0.4846 -0.1579  0.8229
 4359SOL    HW114127   5.927   1.198   0.999  0.0536 -0.2235  1.1550
 4359SOL    HW214128   5.835   1.083   0.964 -0.4975  0.3867  0.5898
 4360SOL     OW14129   2.160   4.288   3.704 -0.0115 -0.3207  0.8376
 4360SOL    HW114130   2.072   4.319   3.685  0.0319  0.1712  1.4142
 4360SOL    HW214131   2.217   4.339   3.646 -0.1072 -0.7750  0.3231
 4361SOL     OW14132   3.735   5.776   6.741  0.2492  0.3210 -0.4814
 4361SOL    HW114133   3.691   5.743   6.663 -1.8771 -1.6357  1.4039
 4361SOL    HW214134   3.805   5.712   6.759 -0.8389 -0.6309  0.5241
 4362SOL     OW14135   6.581   7.624   2.263 -0.1028 -0.3351  0.1721
 4362SOL    HW114136   6.619   7.678   2.332  2.4465 -2.5896  0.6917
 4362SOL    HW214137   6.547   7.547   2.309  1.2438 -1.6666 -0.9618
 4363SOL     OW14138   7.141   3.743   5.195 -0.3942  0.9903  0.1069
 4363SOL    HW114139   7.212   3.694   5.235 -0.8031  0.1494 -0.1753
 4363SOL    HW214140   7.105   3.684   5.128 -2.2618  0.8226  1.1771
 4364SOL     OW14141   3.972   4.393   6.136 -0.0392  0.5061 -0.1893
 4364SOL    HW114142   4.010   4.476   6.162 -0.0267  0.7535 -0.9732
 4364SOL    HW214143   3.954   4.347   6.218  1.7972  0.4527  0.2125
 4365SOL     OW14144   5.138   3.751   2.569  0.5399 -0.5362 -0.2285
 4365SOL    HW114145   5.060   3.752   2.513  0.1442 -0.8409  0.3112
 4365SOL    HW214146   5.128   3.828   2.625 -0.5527 -1.7845  1.4082
 4366SOL     OW14147   7.785   2.885   6.106  0.1783 -0.0116 -0.5284
 4366SOL    HW114148   7.850   2.934   6.056  1.6744 -1.0454  0.3433
 4366SOL    HW214149   7.744   2.827   6.041 -0.4914  1.2054 -1.2391
 4367SOL     OW14150   4.991   6.373   5.878  0.1565 -0.0152  0.2113
 4367SOL    HW114151   4.997   6.465   5.852 -0.1846 -0.5086 -1.8388
 4367SOL    HW214152   4.898   6.352   5.872  0.2302 -0.4914  0.6471
 4368SOL     OW14153   0.048   0.593   4.836  0.1017 -0.0665 -0.9802
 4368SOL    HW114154   0.080   0.641   4.759  0.1348  1.0884 -0.2727
 4368SOL    HW214155  -0.012   0.528   4.800 -2.1015  2.2460 -1.8343
 4369SOL     OW14156   6.798   2.753   5.400  0.2997 -0.0117  0.6527
 4369SOL    HW114157   6.886   2.741   5.365  0.1213 -2.1614  0.8008
 4369SOL    HW214158   6.754   2.808   5.335  1.2579 -0.3322 -0.3043
 4370SOL     OW14159   2.962   7.789   6.674  0.2613  0.1635 -0.4282
 4370SOL    HW114160   2.991   7.751   6.756 -0.4122  0.7008  0.0786
 4370SOL    HW214161   2.959   7.884   6.691 -3.0976  0.1015  0.0734
 4371SOL     OW14162   1.846   3.263   2.098  0.1698 -0.7284  1.1013
 4371SOL    HW114163   1.813   3.343   2.057  1.6607 -1.3901 -1.6321
 4371SOL    HW214164   1.793   3.253   2.177 -1.9561  1.4240  0.0700
 4372SOL     OW14165   4.889   2.046   0.453  0.6392  0.0735 -0.4402
 4372SOL    HW114166   4.839   2.123   0.479 -0.3686 -0.2276 -1.3600
 4372SOL    HW214167   4.944   2.026   0.528 -0.2502  0.7485  0.4204
 4373SOL     OW14168   4.840   7.201   1.197 -0.0251  0.2050 -0.0400
 4373SOL    HW114169   4.821   7.186   1.104  0.2421  1.8111 -0.3839
 4373SOL    HW214170   4.771   7.261   1.226  1.3202  1.7583  0.1075
 4374SOL     OW14171   4.249   1.230   2.382 -0.4228 -0.5917 -0.1392
 4374SOL    HW114172   4.255   1.155   2.322 -3.0437 -0.5240 -0.6009
 4374SOL    HW214173   4.314   1.292   2.349  0.7238 -2.0256 -0.6717
 4375SOL     OW14174   5.244   4.051   6.675  0.0238  0.2275 -0.0340
 4375SOL    HW114175   5.340   4.055   6.677  0.0087  0.9587 -0.4300
 4375SOL    HW214176   5.225   3.983   6.610  0.2722 -0.7769  0.9232
 4376SOL     OW14177   2.137   2.035   4.593 -0.0286 -0.3320  0.0723
 4376SOL    HW114178   2.184   2.119   4.596  0.2962 -0.5306  0.8339
 4376SOL    HW214179   2.057   2.055   4.545  0.4676  0.2018 -0.5489
 4377SOL     OW14180   4.381   3.864   1.919 -0.3538 -0.3203 -0.2766
 4377SOL    HW114181   4.456   3.897   1.871 -0.0058 -1.3894 -0.4925
 4377SOL    HW214182   4.396   3.770   1.925 -0.6106 -0.2765  1.5337
 4378SOL     OW14183   3.371   7.594   6.718  0.1740 -0.2483  0.6417
 4378SOL    HW114184   3.295   7.536   6.722 -0.6986  0.9086  2.6943
 4378SOL    HW214185   3.438   7.543   6.672 -2.5332 -0.4001 -3.6666
 4379SOL     OW14186   5.183   3.948   4.625 -0.3100  0.4612 -0.3001
 4379SOL    HW114187   5.199   3.889   4.698  1.0406  1.3678  0.1648
 4379SOL    HW214188   5.262   3.943   4.571 -0.3659  1.4621 -0.5023
 4380SOL     OW14189   3.921   0.299   6.474 -0.4944  0.4021  0.3388
 4380SOL    HW114190   3.965   0.215   6.465  1.6367  1.2825  1.5146
 4380SOL    HW214191   3.830   0.283   6.449 -0.0178 -2.0803 -0.0120
 4381SOL     OW14192   7.949   3.716   8.057 -0.5979 -0.0970  0.2778
 4381SOL    HW114193   7.910   3.743   8.140 -1.0869 -0.4332  0.1623
 4381SOL    HW214194   7.949   3.620   8.060 -0.7271 -0.1147 -0.1611
 4382SOL     OW14195   0.849   6.860   4.375 -0.1228 -0.3334 -0.4794
 4382SOL    HW114196   0.894   6.913   4.440 -0.1104 -1.8655  0.8474
 4382SOL    HW214197   0.761   6.897   4.369  0.0309  0.1181  0.0564
 4383SOL     OW14198   8.197   6.180   1.062  0.0032 -0.1525  0.2229
 4383SOL    HW114199   8.172   6.104   1.009  1.3935  0.3196 -1.2020
 4383SOL    HW214200   8.220   6.143   1.147  1.6338 -1.5213 -0.7388
 4384SOL     OW14201   0.265   6.512   4.664  0.2415  0.3182  0.7582
 4384SOL    HW114202   0.358   6.535   4.657  0.1636  0.2700 -0.7335
 4384SOL    HW214203   0.220   6.580   4.613 -0.4020 -0.5236  0.1900
 4385SOL     OW14204   2.263   6.446   7.943 -0.2859  0.5834 -0.3803
 4385SOL    HW114205   2.192   6.501   7.977 -0.0725  0.3795  0.4131
 4385SOL    HW214206   2.244   6.438   7.849 -2.0822 -0.5816  0.0244
 4386SOL     OW14207   5.954   4.732   7.049  0.5423 -0.1557 -0.5178
 4386SOL    HW114208   5.863   4.762   7.050  0.8203  0.7140 -0.4155
 4386SOL    HW214209   5.967   4.690   7.134 -0.3122 -2.0280 -1.2646
 4387SOL     OW14210   1.878   2.068   5.280 -0.1544 -0.7690  0.7983
 4387SOL    HW114211   1.830   1.987   5.293 -2.5992  0.4390 -0.0174
 4387SOL    HW214212   1.811   2.132   5.254  1.7880  1.2809  0.4795
 4388SOL     OW14213   0.008   1.068   5.789  0.3136  0.3572 -0.2690
 4388SOL    HW114214  -0.039   1.047   5.870  1.6200  2.6636  1.1893
 4388SOL    HW214215   0.064   0.991   5.774 -0.4881 -0.4243  0.5761
 4389SOL     OW14216   6.831   7.631   7.255 -0.4501 -0.1740 -0.0778
 4389SOL    HW114217   6.807   7.538   7.258  2.1232 -0.9208  0.4593
 4389SOL    HW214218   6.840   7.656   7.347 -2.8512  1.1872 -0.1410
 4390SOL     OW14219   0.697   7.979   0.648  0.5995  0.0218  0.8364
 4390SOL    HW114220   0.659   8.067   0.656  0.5317 -0.0752  1.7626
 4390SOL    HW214221   0.787   7.994   0.619 -0.3187  0.2197 -2.2150
 4391SOL     OW14222   2.619   6.433   1.235  0.3287 -0.0541 -0.3750
 4391SOL    HW114223   2.649   6.344   1.214  0.6725 -0.8513  2.9006
 4391SOL    HW214224   2.528   6.436   1.205 -0.3120 -2.2441  1.1412
 4392SOL     OW14225   5.137   5.922   0.352 -0.2677  0.1176  0.1613
 4392SOL    HW114226   5.194   5.860   0.306 -0.6267 -0.5130  0.5439
 4392SOL    HW214227   5.089   5.867   0.414 -0.6884  0.7696  0.4117
 4393SOL     OW14228   5.656   7.610   0.472 -0.1063 -0.0876  0.5789
 4393SOL    HW114229   5.567   7.621   0.440  0.5356 -1.8621 -2.2006
 4393SOL    HW214230   5.695   7.697   0.465 -1.5185  0.6817  1.7116
 4394SOL     OW14231   2.137   5.656   1.810  0.9465  0.0947  0.0593
 4394SOL    HW114232   2.055   5.706   1.805 -0.0016 -0.8111  3.8285
 4394SOL    HW214233   2.145   5.616   1.724 -2.0333  1.0367 -0.7871
 4395SOL     OW14234   5.223   3.777   5.714 -0.2948 -0.6970 -0.5098
 4395SOL    HW114235   5.132   3.745   5.708 -0.6272 -0.3846  1.7805
 4395SOL    HW214236   5.247   3.763   5.805  1.6916  0.0291 -0.8677
 4396SOL     OW14237   0.396   2.467   0.052 -0.5498  0.0770 -0.0444
 4396SOL    HW114238   0.391   2.551   0.098  0.0749 -0.3714  0.8794
 4396SOL    HW214239   0.459   2.416   0.102 -0.4997 -0.7553 -0.9134
 4397SOL     OW14240   5.499   6.791   4.838 -0.2909  0.3760  0.5356
 4397SOL    HW114241   5.586   6.828   4.823  1.3268 -3.0853  0.2810
 4397SOL    HW214242   5.465   6.771   4.751 -0.3585 -0.2098  0.6873
 4398SOL     OW14243   0.892   0.900   4.025 -0.0681  0.4424  0.2729
 4398SOL    HW114244   0.804   0.865   4.037  0.1811  0.0170  0.9296
 4398SOL    HW214245   0.922   0.860   3.943  0.0817 -0.6258  0.8376
 4399SOL     OW14246   1.639   0.338   0.443  0.5086 -0.0962  0.1830
 4399SOL    HW114247   1.683   0.393   0.508  0.2933 -1.6997  1.7546
 4399SOL    HW214248   1.563   0.302   0.489  0.2665 -1.1719 -0.9947
 4400SOL     OW14249   0.981   4.536   0.592  0.2777  0.4274  0.7143
 4400SOL    HW114250   1.037   4.459   0.582 -1.0876 -0.3040 -2.5008
 4400SOL    HW214251   0.988   4.558   0.685  1.4524 -2.9941  1.5995
 4401SOL     OW14252   7.899   1.365   1.965  0.5187  0.1897  0.1620
 4401SOL    HW114253   7.832   1.421   1.924  1.7942  1.5791 -0.0787
 4401SOL    HW214254   7.931   1.311   1.893 -1.0948 -1.3154  0.5008
 4402SOL     OW14255   0.246   3.641   7.374 -0.3945 -1.1564 -0.0895
 4402SOL    HW114256   0.328   3.645   7.423  0.1515 -1.2897 -0.9551
 4402SOL    HW214257   0.210   3.555   7.395  0.0949 -1.4245 -0.3128
 4403SOL     OW14258   0.483   7.918   3.083  0.3547 -0.4072  0.5413
 4403SOL    HW114259   0.520   7.843   3.038 -1.8791  0.6026 -3.5085
 4403SOL    HW214260   0.396   7.889   3.111  0.3177  0.0662  0.9408
 4404SOL     OW14261   1.331   5.796   0.026 -0.5206 -0.0189 -0.3385
 4404SOL    HW114262   1.258   5.836  -0.021 -0.6087  0.4852  0.2109
 4404SOL    HW214263   1.306   5.705   0.037 -0.8540  0.0429 -0.5616
 4405SOL     OW14264   5.616   5.273   4.372 -0.5235  0.0544 -0.1958
 4405SOL    HW114265   5.651   5.297   4.286  0.2981 -0.6199 -0.0637
 4405SOL    HW214266   5.547   5.209   4.352  0.0882 -0.5705 -0.3261
 4406SOL     OW14267   5.403   3.340   2.903 -0.6941 -0.1779  0.0328
 4406SOL    HW114268   5.435   3.430   2.899 -1.0367 -0.0904 -1.0339
 4406SOL    HW214269   5.385   3.325   2.995  2.2138 -0.1629  0.6986
 4407SOL     OW14270   5.704   2.874   3.247  0.5479  0.2869  0.9803
 4407SOL    HW114271   5.642   2.876   3.174  1.1067  1.3372  0.5072
 4407SOL    HW214272   5.724   2.782   3.258  0.3097  0.0860 -0.0833
 4408SOL     OW14273   2.844   4.367   0.636 -0.2913 -0.1601  0.1380
 4408SOL    HW114274   2.751   4.383   0.649  0.1261  2.1912  0.6686
 4408SOL    HW214275   2.875   4.335   0.721 -0.3095  0.7315  0.4870
 4409SOL     OW14276   4.950   7.854   3.310  0.5000  0.1219  0.1547
 4409SOL    HW114277   5.010   7.799   3.259  0.2602  2.6695 -3.2674
 4409SOL    HW214278   5.002   7.932   3.332 -0.6385  0.9601 -0.0284
 4410SOL     OW14279   7.498   4.570   7.120 -0.4668  0.4171  0.1539
 4410SOL    HW114280   7.554   4.647   7.134 -1.2893  0.8824  1.0112
 4410SOL    HW214281   7.431   4.577   7.187  0.2971 -1.8750  1.2886
 4411SOL     OW14282   0.541   4.599   2.757  0.1344 -0.1461  0.1007
 4411SOL    HW114283   0.467   4.644   2.797  0.8641  2.0967 -0.9350
 4411SOL    HW214284   0.530   4.613   2.663  1.8162  0.1506 -0.0821
 4412SOL     OW14285   7.724   7.793   0.169 -0.0921  0.3523 -0.0350
 4412SOL    HW114286   7.817   7.784   0.149  0.0570 -1.3324  1.1785
 4412SOL    HW214287   7.707   7.727   0.236 -1.8049  1.7704  1.0303
 4413SOL     OW14288   6.779   2.878   2.235 -0.5007  0.1202  0.0202
 4413SOL    HW114289   6.722   2.936   2.184 -1.9751 -0.8696  0.4578
 4413SOL    HW214290   6.830   2.830   2.169  0.1126  1.2737 -0.3685
 4414SOL     OW14291   7.049   1.206   4.336 -0.4569 -0.2922 -0.4426
 4414SOL    HW114292   6.976   1.252   4.378  0.1878  0.6564 -0.3362
 4414SOL    HW214293   7.088   1.271   4.278  1.1658 -0.3227  0.5444
 4415SOL     OW14294   3.547   6.580   4.423  0.5278 -0.1095 -0.3759
 4415SOL    HW114295   3.492   6.515   4.466  1.0149  0.5709  1.4050
 4415SOL    HW214296   3.615   6.529   4.378  0.2556 -0.8617  0.0507
 4416SOL     OW14297   5.246   3.835   7.637  0.0530  0.1682 -0.4155
 4416SOL    HW114298   5.217   3.777   7.566  1.1072 -0.4371 -0.3662
 4416SOL    HW214299   5.341   3.825   7.638  0.3384  2.4228 -0.8564
 4417SOL     OW14300   4.714   4.129   8.154  0.2287  0.1476  0.4550
 4417SOL    HW114301   4.684   4.169   8.073 -0.0937 -3.9809 -1.7158
 4417SOL    HW214302   4.805   4.107   8.138  0.2070 -0.5950  1.2510
 4418SOL     OW14303   5.172   4.090   6.964 -0.3499 -0.2360 -0.0762
 4418SOL    HW114304   5.117   4.165   6.942  0.9217  1.0182  0.8453
 4418SOL    HW214305   5.192   4.049   6.880  0.2642  1.4252 -0.7749
 4419SOL     OW14306   4.236   2.328   1.221  0.2543 -0.2556 -0.3122
 4419SOL    HW114307   4.182   2.407   1.215  0.3548 -0.1903 -0.3765
 4419SOL    HW214308   4.235   2.305   1.314 -0.5541 -0.7337 -0.4357
 4420SOL     OW14309   8.100   2.332   3.891 -0.3264  0.2324 -0.0370
 4420SOL    HW114310   8.084   2.389   3.815 -0.5878  0.4934  0.2124
 4420SOL    HW214311   8.027   2.349   3.950 -0.2267 -0.1152  0.1890
 4421SOL     OW14312   3.402   6.856   4.317  0.4604 -0.5048  0.2247
 4421SOL    HW114313   3.487   6.813   4.312  0.6284 -0.2263  0.5657
 4421SOL    HW214314   3.383   6.860   4.411  1.0270  1.2296  0.3158
 4422SOL     OW14315   0.025   4.915   6.292 -0.1027  0.0952  0.7201
 4422SOL    HW114316   0.004   4.902   6.200  1.0860  1.6760  0.1749
 4422SOL    HW214317  -0.036   4.983   6.321  0.7939  1.0001  0.5383
 4423SOL     OW14318   4.775   1.114   3.707  0.1315 -0.3283  0.0877
 4423SOL    HW114319   4.792   1.098   3.614  0.5510 -0.1861  0.1389
 4423SOL    HW214320   4.856   1.153   3.740  0.9521 -2.6979  1.0907
 4424SOL     OW14321   7.360   6.240   5.352  0.5212 -0.3909  0.2641
 4424SOL    HW114322   7.382   6.317   5.405  1.3124 -0.4805  0.0779
 4424SOL    HW214323   7.267   6.249   5.334  0.5537  0.3906  0.4638
 4425SOL     OW14324   4.653   5.155   6.714  0.1009  0.3743  0.3463
 4425SOL    HW114325   4.733   5.105   6.696 -0.3509 -0.5976  0.9086
 4425SOL    HW214326   4.649   5.220   6.644  0.0459 -1.2271 -1.2187
 4426SOL     OW14327   5.468   0.486   0.093  0.6551  0.3420  0.1605
 4426SOL    HW114328   5.424   0.405   0.067  0.9944  0.4759 -0.8998
 4426SOL    HW214329   5.542   0.458   0.147  0.5016 -0.0246  0.1797
 4427SOL     OW14330   4.075   5.946   6.415  0.6850  0.2443 -0.2245
 4427SOL    HW114331   4.010   5.916   6.351 -0.7923  2.0131  0.3712
 4427SOL    HW214332   4.082   5.874   6.477  0.0707 -0.3941 -0.8684
 4428SOL     OW14333   4.990   5.405   1.677 -0.2360 -0.2357  0.6440
 4428SOL    HW114334   5.014   5.378   1.765 -1.7121 -0.7636  0.9186
 4428SOL    HW214335   4.907   5.452   1.688 -1.0522 -1.3072 -0.5583
 4429SOL     OW14336   2.676   6.107   5.424  0.8000 -0.2374 -0.4727
 4429SOL    HW114337   2.663   6.079   5.514 -0.2869  0.4095 -0.4078
 4429SOL    HW214338   2.659   6.029   5.372 -0.3213 -0.1938 -0.1977
 4430SOL     OW14339   4.749   7.793   3.485  0.2448  0.1607 -0.5191
 4430SOL    HW114340   4.809   7.795   3.411  1.8127 -1.4136  0.6091
 4430SOL    HW214341   4.739   7.884   3.511  1.1908  0.5589 -1.4795
 4431SOL     OW14342   2.437   0.634   1.346  0.1723  0.2488  0.0708
 4431SOL    HW114343   2.449   0.549   1.389  0.2629  0.6767  0.9082
 4431SOL    HW214344   2.493   0.694   1.395 -1.5233  1.2396  0.8967
 4432SOL     OW14345   1.315   5.152   1.547 -0.0695  0.8707  0.1343
 4432SOL    HW114346   1.275   5.073   1.511 -0.0090  0.2656  1.3547
 4432SOL    HW214347   1.297   5.148   1.641 -2.1288  3.5261 -0.0415
 4433SOL     OW14348   0.286   4.828   2.598 -0.1660 -0.2078  0.2204
 4433SOL    HW114349   0.313   4.766   2.666  1.2327  0.1637  0.0437
 4433SOL    HW214350   0.232   4.776   2.538 -0.0495 -0.9425  0.7453
 4434SOL     OW14351   0.431   2.544   3.946  0.5945  0.4536 -0.8669
 4434SOL    HW114352   0.509   2.524   3.894 -0.5205 -0.5078 -2.2258
 4434SOL    HW214353   0.385   2.610   3.896 -0.5709 -0.5939 -1.2182
 4435SOL     OW14354   8.080   5.131   3.311 -0.0830 -0.2531 -0.2091
 4435SOL    HW114355   8.058   5.221   3.336  0.7598  0.6664 -2.4937
 4435SOL    HW214356   8.047   5.122   3.222  0.6923 -1.8989 -0.3751
 4436SOL     OW14357   4.369   6.794   4.996 -0.4740  0.3235  0.1268
 4436SOL    HW114358   4.288   6.750   5.021 -0.2464 -0.3798 -0.3401
 4436SOL    HW214359   4.393   6.846   5.073 -1.0529  0.0799  0.4789
 4437SOL     OW14360   0.993   0.439   5.242  0.0225  0.5463 -0.0457
 4437SOL    HW114361   1.029   0.486   5.167 -0.0316 -0.1105 -0.4949
 4437SOL    HW214362   1.069   0.414   5.294  0.5072 -2.3897 -1.8916
 4438SOL     OW14363   0.230   6.126   8.151 -0.2608 -0.1480  0.1651
 4438SOL    HW114364   0.161   6.172   8.199 -0.4396  1.2763 -1.4100
 4438SOL    HW214365   0.184   6.079   8.081  0.0431 -1.9402  1.0827
 4439SOL     OW14366   4.527   3.367   4.147 -0.0942 -0.0451 -0.3372
 4439SOL    HW114367   4.455   3.422   4.117  1.1842  0.9577 -1.6569
 4439SOL    HW214368   4.523   3.372   4.242 -2.2651 -0.7042 -0.3387
 4440SOL     OW14369   3.784   7.406   2.246  0.5820 -1.0020  0.2926
 4440SOL    HW114370   3.822   7.438   2.165 -1.9564 -0.0635 -0.6115
 4440SOL    HW214371   3.860   7.381   2.299  2.3665 -0.5278 -1.8602
 4441SOL     OW14372   5.414   1.916   7.487  0.1900 -0.4022 -0.1132
 4441SOL    HW114373   5.346   1.857   7.519  0.3213  0.4115  1.8244
 4441SOL    HW214374   5.494   1.885   7.530  1.2568 -1.7087 -2.8029
 4442SOL     OW14375   3.902   5.000   3.206  0.2519  0.1404 -0.2564
 4442SOL    HW114376   3.864   5.077   3.250 -0.1518  0.0397 -0.4192
 4442SOL    HW214377   3.988   5.030   3.176  0.4736  0.2484  0.4767
 4443SOL     OW14378   1.014   7.841   6.596  0.4839  0.4646  0.1100
 4443SOL    HW114379   1.108   7.860   6.586  0.7269  0.1703  1.6586
 4443SOL    HW214380   1.008   7.790   6.677 -0.9316 -0.2147 -0.3882
 4444SOL     OW14381   6.847   7.365   2.298 -0.2309  0.0224  0.8285
 4444SOL    HW114382   6.833   7.307   2.224  1.0683  0.9917 -0.2185
 4444SOL    HW214383   6.898   7.313   2.361 -0.9247 -0.6426  0.8491
 4445SOL     OW14384   0.405   3.652   1.169 -0.4733 -0.3345  0.1227
 4445SOL    HW114385   0.388   3.686   1.082  1.1162  1.7432  0.5428
 4445SOL    HW214386   0.322   3.614   1.197 -1.1419 -0.6107 -2.0762
 4446SOL     OW14387   4.568   4.088   6.720  0.2917  0.1555 -0.3254
 4446SOL    HW114388   4.614   4.081   6.636 -0.9100  0.6211 -1.0469
 4446SOL    HW214389   4.519   4.170   6.714 -0.5507 -0.2673  0.4429
 4447SOL     OW14390   5.572   4.447   0.108 -0.0185 -0.1589  0.5513
 4447SOL    HW114391   5.646   4.455   0.168  1.0616 -2.2231 -0.3833
 4447SOL    HW214392   5.495   4.443   0.164  0.7058  0.5569  1.6335
 4448SOL     OW14393   6.716   7.241   3.920 -0.4914  0.0231 -0.3816
 4448SOL    HW114394   6.666   7.181   3.977 -0.8433  0.1536 -0.5456
 4448SOL    HW214395   6.665   7.322   3.921  0.3443  0.5523  0.3800
 4449SOL     OW14396   7.126   4.946   0.481  0.5167  0.4568  0.1552
 4449SOL    HW114397   7.105   4.915   0.569  0.1467  1.0030  0.2650
 4449SOL    HW214398   7.050   4.999   0.455  1.7987  2.6503  0.6279
 4450SOL     OW14399   3.473   0.619   6.240  0.3810  0.5788 -0.3081
 4450SOL    HW114400   3.511   0.661   6.162 -0.5067 -0.4856 -1.3535
 4450SOL    HW214401   3.453   0.530   6.212  1.2636 -0.2659  1.5538
 4451SOL     OW14402   4.805   5.711   4.171 -0.4873  0.0526 -0.6173
 4451SOL    HW114403   4.822   5.629   4.218 -0.0094 -0.0198 -0.9082
 4451SOL    HW214404   4.840   5.778   4.230 -1.6642  0.1321  0.0223
 4452SOL     OW14405   5.787   5.846   1.132 -0.1349  0.5166 -0.0225
 4452SOL    HW114406   5.835   5.772   1.096 -0.2828 -1.2320  3.0201
 4452SOL    HW214407   5.850   5.890   1.189 -0.6679  1.4759 -0.1517
 4453SOL     OW14408   7.575   2.282   5.491 -0.5724  0.1695  0.3287
 4453SOL    HW114409   7.506   2.340   5.460  1.3202  1.7654 -1.1019
 4453SOL    HW214410   7.639   2.340   5.531  0.5125 -1.1541  0.5859
 4454SOL     OW14411   8.200   2.647   5.109 -0.0583 -0.3603 -0.0618
 4454SOL    HW114412   8.132   2.711   5.129  1.5580  1.7250 -0.8675
 4454SOL    HW214413   8.198   2.638   5.014  0.9786 -0.0418 -0.1207
 4455SOL     OW14414   4.247   4.332   1.411 -0.1892 -0.2186  0.1972
 4455SOL    HW114415   4.316   4.385   1.371 -0.7570  0.3801 -0.0191
 4455SOL    HW214416   4.270   4.242   1.391  0.2759  0.0013 -0.2756
 4456SOL     OW14417   0.309   1.014   3.353  0.3434 -0.3950  0.4646
 4456SOL    HW114418   0.337   0.943   3.295 -0.9269 -0.6380  0.1139
 4456SOL    HW214419   0.220   1.035   3.324  0.6982  1.3644  0.5496
 4457SOL     OW14420   1.942   0.570   2.375 -0.3478  0.9441 -0.0336
 4457SOL    HW114421   2.018   0.561   2.433 -1.0039 -0.1498  0.7016
 4457SOL    HW214422   1.943   0.489   2.323 -1.0549  0.8660  0.0604
 4458SOL     OW14423   4.937   4.268   0.470  0.1632 -0.3456  0.2195
 4458SOL    HW114424   4.877   4.203   0.508 -0.9731  0.2724 -0.4337
 4458SOL    HW214425   4.893   4.352   0.484 -0.0125 -0.0411 -1.8636
 4459SOL     OW14426   4.437   2.852   3.854 -0.1005 -0.4491  0.3911
 4459SOL    HW114427   4.362   2.838   3.912 -0.1611 -1.7045  0.0529
 4459SOL    HW214428   4.455   2.765   3.817  1.8652 -0.3111  0.8805
 4460SOL     OW14429   2.592   6.421   6.511  0.3296  0.0934 -0.6170
 4460SOL    HW114430   2.524   6.456   6.454 -1.2466  0.2859  1.2573
 4460SOL    HW214431   2.665   6.400   6.453 -1.1380  0.3691 -2.6409
 4461SOL     OW14432   6.330   1.154   0.179 -0.1409  0.1628  0.1910
 4461SOL    HW114433   6.244   1.160   0.138 -0.2604 -0.6658  0.3048
 4461SOL    HW214434   6.325   1.076   0.233  0.7575 -0.0083  0.0341
 4462SOL     OW14435   8.234   8.236   3.163 -0.4730 -0.3004 -0.0798
 4462SOL    HW114436   8.184   8.259   3.084 -1.1444  1.7202  0.8767
 4462SOL    HW214437   8.185   8.277   3.234  1.3479 -0.1913  1.1468
 4463SOL     OW14438   2.903   4.174   1.591  0.1306  0.1795 -0.1356
 4463SOL    HW114439   2.904   4.205   1.682 -0.0100 -1.4395  0.4427
 4463SOL    HW214440   2.837   4.228   1.548 -2.2179 -1.1699  1.5489
 4464SOL     OW14441   5.320   6.110   2.887  0.2234 -0.3338 -0.0688
 4464SOL    HW114442   5.288   6.039   2.831 -0.9696 -0.1327  0.3206
 4464SOL    HW214443   5.299   6.190   2.839  0.4606 -0.2057  0.0400
 4465SOL     OW14444   2.247   6.721   0.567 -0.1287 -0.0324 -0.2471
 4465SOL    HW114445   2.266   6.722   0.473  1.6936 -1.8435  0.0478
 4465SOL    HW214446   2.177   6.656   0.576  0.6754 -0.8933 -0.1968
 4466SOL     OW14447   4.370   1.781   2.838 -0.2975 -0.1723 -0.0650
 4466SOL    HW114448   4.421   1.700   2.837 -0.0902 -0.0405 -1.5869
 4466SOL    HW214449   4.310   1.770   2.912  0.5958 -1.1559  0.5488
 4467SOL     OW14450   3.703   6.599   5.127 -0.3335  0.3043 -0.3444
 4467SOL    HW114451   3.732   6.634   5.043 -1.4523  0.4101 -0.7045
 4467SOL    HW214452   3.677   6.677   5.177 -1.8026  0.1150 -0.7506
 4468SOL     OW14453   2.349   0.074   2.620 -0.7202  0.1932 -0.2624
 4468SOL    HW114454   2.323   0.123   2.698 -1.3614  1.0427 -0.9885
 4468SOL    HW214455   2.337   0.136   2.548 -1.0903 -0.8743 -1.1528
 4469SOL     OW14456   5.714   7.106   6.243  0.5617  0.1891  0.1142
 4469SOL    HW114457   5.743   7.195   6.264 -0.5104  0.3524  1.0604
 4469SOL    HW214458   5.793   7.060   6.214  1.7090  0.6651  2.2869
 4470SOL     OW14459   4.513   8.166   3.028 -0.1217  0.0423 -0.3131
 4470SOL    HW114460   4.530   8.227   3.100 -0.9232  1.0919 -0.9771
 4470SOL    HW214461   4.527   8.080   3.066  1.8776  0.6254  0.4469
 4471SOL     OW14462   4.974   4.146   4.137 -0.0542 -0.3321  0.0050
 4471SOL    HW114463   4.920   4.084   4.089  0.4511 -1.5494  0.9578
 4471SOL    HW214464   4.940   4.144   4.226  0.4998  0.1447  0.2352
 4472SOL     OW14465   4.313   2.547   6.522  0.0793 -0.3328 -0.4405
 4472SOL    HW114466   4.340   2.468   6.569 -1.4561 -1.8786 -2.0235
 4472SOL    HW214467   4.311   2.615   6.590  2.1779 -1.4333  0.8218
 4473SOL     OW14468   2.155   4.626   8.124 -0.4987 -0.5391 -0.1341
 4473SOL    HW114469   2.151   4.569   8.047 -1.4765 -0.3037 -0.2765
 4473SOL    HW214470   2.229   4.684   8.106 -1.5274  0.4108 -1.5777
 4474SOL     OW14471   5.200   2.154   6.246  0.1339  0.1583 -0.3859
 4474SOL    HW114472   5.113   2.192   6.256  0.0539  0.1293 -0.9014
 4474SOL    HW214473   5.219   2.111   6.329 -0.2721  0.3106 -0.2156
 4475SOL     OW14474   3.923   0.229   5.792  0.1181  0.3347  0.4536
 4475SOL    HW114475   3.876   0.149   5.814  0.5283  0.5046  2.1153
 4475SOL    HW214476   3.957   0.260   5.876  3.1772  0.2310 -0.6198
 4476SOL     OW14477   4.923   4.590   8.117  0.1891  0.0330 -0.1890
 4476SOL    HW114478   5.014   4.560   8.123 -0.4883 -2.6662 -1.7564
 4476SOL    HW214479   4.883   4.558   8.197  0.5408  1.1759  0.4767
 4477SOL     OW14480   1.533   1.307   5.825  0.0230  0.5599  0.1158
 4477SOL    HW114481   1.591   1.245   5.870 -1.0491  0.0053  0.7893
 4477SOL    HW214482   1.450   1.300   5.873 -0.1573  2.4619  0.1412
 4478SOL     OW14483   0.582   2.939   2.137 -0.0972 -0.1242  0.0137
 4478SOL    HW114484   0.516   2.916   2.072 -0.0079 -2.0592  0.5162
 4478SOL    HW214485   0.652   2.875   2.122  0.0269 -0.4771  1.8128
 4479SOL     OW14486   1.084   1.335   2.262 -0.1168  0.3328  0.1149
 4479SOL    HW114487   1.027   1.411   2.252 -1.1597  0.1805  3.5693
 4479SOL    HW214488   1.139   1.355   2.338  0.7257 -1.7226  0.1320
 4480SOL     OW14489   3.504   4.540   7.702 -0.5881 -0.0322 -0.2633
 4480SOL    HW114490   3.596   4.566   7.696 -0.7873  0.6200 -0.5259
 4480SOL    HW214491   3.482   4.551   7.794 -0.4046 -0.2005 -0.1978
 4481SOL     OW14492   1.028   2.453   5.458  0.2195  0.1475  0.1626
 4481SOL    HW114493   1.082   2.488   5.529  1.8445 -0.5160 -0.6884
 4481SOL    HW214494   1.020   2.360   5.478 -2.2116  0.4969  1.2299
 4482SOL     OW14495   4.983   1.023   0.629  0.3339 -0.4521  0.2762
 4482SOL    HW114496   4.944   1.076   0.698  0.0918  0.3946 -0.4854
 4482SOL    HW214497   5.035   1.085   0.578 -1.8982 -0.3661 -2.0989
 4483SOL     OW14498   1.575   2.658   7.127 -0.3512  0.0977  0.1965
 4483SOL    HW114499   1.623   2.736   7.156  0.1527  0.0033 -0.3553
 4483SOL    HW214500   1.497   2.693   7.085  0.7802  0.4373 -1.7687
 4484SOL     OW14501   4.519   3.077   6.060  0.4486 -0.2316 -0.1587
 4484SOL    HW114502   4.520   3.151   5.998 -0.7923 -1.0445 -1.2018
 4484SOL    HW214503   4.506   3.000   6.005 -1.7083 -0.8954  1.1888
 4485SOL     OW14504   0.833   6.238   0.785  0.2380 -0.4599  0.4738
 4485SOL    HW114505   0.790   6.158   0.814  1.0705 -0.8482  0.6367
 4485SOL    HW214506   0.772   6.308   0.810 -1.6473 -1.1478 -1.7328
 4486SOL     OW14507   7.458   0.581   5.800  0.0743  0.9206 -0.0343
 4486SOL    HW114508   7.488   0.497   5.835  0.7126  1.2052  0.1319
 4486SOL    HW214509   7.373   0.563   5.762  0.3381  0.1283 -0.2681
 4487SOL     OW14510   4.287   0.232   7.186  0.4493 -0.1252 -0.0299
 4487SOL    HW114511   4.331   0.147   7.187 -0.8013 -0.7961 -0.0089
 4487SOL    HW214512   4.274   0.254   7.278  0.4231 -0.1012 -0.0389
 4488SOL     OW14513   6.449   6.891   3.189  0.0891  0.3572 -0.4200
 4488SOL    HW114514   6.489   6.930   3.267  0.2339 -1.0511  0.2448
 4488SOL    HW214515   6.357   6.880   3.213  0.7348 -3.4019  1.0735
 4489SOL     OW14516   5.677   5.101   4.895 -0.1666 -0.0089  0.7277
 4489SOL    HW114517   5.695   5.165   4.964 -0.8965  1.0634 -0.0359
 4489SOL    HW214518   5.697   5.148   4.814  2.7599 -1.9153  0.1943
 4490SOL     OW14519   8.142   4.387   7.323 -0.1278 -0.0552 -0.3095
 4490SOL    HW114520   8.106   4.300   7.339 -0.3876  0.2481  0.8791
 4490SOL    HW214521   8.065   4.442   7.306 -0.0860  0.1948  0.2669
 4491SOL     OW14522   5.050   1.752   2.885  0.3312 -0.0038  0.1273
 4491SOL    HW114523   5.127   1.695   2.885 -1.1010 -2.0741  0.9167
 4491SOL    HW214524   4.985   1.705   2.833 -0.5003  1.5643 -0.3011
 4492SOL     OW14525   0.932   4.338   7.658  0.0785 -0.6172 -0.2062
 4492SOL    HW114526   0.961   4.247   7.649  0.1606 -0.6434  0.3213
 4492SOL    HW214527   1.002   4.381   7.707 -0.8965 -0.7473  1.3691
 4493SOL     OW14528   1.472   1.259   1.899  0.4318  0.0235  0.4327
 4493SOL    HW114529   1.429   1.330   1.852  1.8853  0.1945 -0.7367
 4493SOL    HW214530   1.454   1.181   1.847  1.3646  0.0703  0.0232
 4494SOL     OW14531   5.829   1.069   6.138 -0.0084 -0.0199  0.6932
 4494SOL    HW114532   5.831   1.150   6.188 -0.3424  0.6939 -0.4082
 4494SOL    HW214533   5.845   1.000   6.202 -1.9732  0.7130  2.0430
 4495SOL     OW14534   2.528   7.106   5.182  0.6196 -0.3155 -0.2667
 4495SOL    HW114535   2.439   7.078   5.161 -0.3604  1.8209  0.7835
 4495SOL    HW214536   2.571   7.025   5.212 -0.3797 -1.7355 -2.3668
 4496SOL     OW14537   8.061   0.086   3.782  0.2496  0.3310  0.4638
 4496SOL    HW114538   7.984   0.033   3.759 -0.2734  0.6447  1.4489
 4496SOL    HW214539   8.102   0.105   3.698 -0.4597 -0.2786 -0.0392
 4497SOL     OW14540   0.180   5.612   2.243  0.4241 -0.0048  0.0452
 4497SOL    HW114541   0.092   5.638   2.215  0.9611  0.0588 -1.7374
 4497SOL    HW214542   0.216   5.689   2.286 -0.9818 -0.5778  2.4299
 4498SOL     OW14543   6.984   5.891   1.764 -0.1152 -0.1237 -0.2905
 4498SOL    HW114544   6.981   5.978   1.802  0.1172  0.3482 -1.3036
 4498SOL    HW214545   6.961   5.904   1.672  0.0052 -1.1167 -0.4803
 4499SOL     OW14546   2.253   1.484   0.294  0.0102 -0.0591 -0.1156
 4499SOL    HW114547   2.274   1.573   0.265  1.0432 -0.2021  0.1640
 4499SOL    HW214548   2.295   1.476   0.379  0.3522 -0.9959 -0.3678
 4500SOL     OW14549   1.802   2.692   6.259  0.3561  0.3058 -0.0528
 4500SOL    HW114550   1.736   2.696   6.328 -0.7989  0.3606 -1.1287
 4500SOL    HW214551   1.882   2.723   6.301  0.5724 -2.7959  2.2403
 4501SOL     OW14552   6.718   0.262   1.212 -0.1568 -0.2171  0.5003
 4501SOL    HW114553   6.810   0.282   1.228  0.0432  1.7296 -2.4056
 4501SOL    HW214554   6.671   0.334   1.253 -0.1233  0.6186 -0.8805
 4502SOL     OW14555   5.099   3.886   7.881 -0.1873  0.5817 -0.8437
 4502SOL    HW114556   5.007   3.860   7.885 -0.3251  0.7988 -2.1915
 4502SOL    HW214557   5.118   3.893   7.788  0.8046  1.9160 -0.5686
 4503SOL     OW14558   2.517   0.590   3.860 -0.3331 -0.1937  0.1554
 4503SOL    HW114559   2.523   0.618   3.951 -0.3818 -0.0528  0.1152
 4503SOL    HW214560   2.481   0.666   3.814  2.9281  1.0505 -0.6158
 4504SOL     OW14561   0.083   0.121   3.873 -0.2803 -0.6923 -0.7450
 4504SOL    HW114562  -0.012   0.119   3.861 -0.2415 -0.0222 -1.2875
 4504SOL    HW214563   0.101   0.212   3.899  0.2393 -0.7381 -0.9444
 4505SOL     OW14564   0.888   7.325   0.157 -0.3052  0.4330  0.2329
 4505SOL    HW114565   0.826   7.278   0.214 -0.1550  0.2266  0.2296
 4505SOL    HW214566   0.922   7.396   0.212 -1.1884  1.0853 -0.0396
 4506SOL     OW14567   3.687   5.269   2.679 -0.2613  0.3104 -0.7792
 4506SOL    HW114568   3.769   5.226   2.705 -1.1548 -0.3812  1.0103
 4506SOL    HW214569   3.692   5.273   2.583  0.3344 -2.8303 -0.9762
 4507SOL     OW14570   1.414   5.318   3.705 -0.2454  0.1892  0.2784
 4507SOL    HW114571   1.433   5.229   3.676  0.5080  0.7093 -0.8506
 4507SOL    HW214572   1.322   5.315   3.732 -0.4485 -0.7402 -0.4850
 4508SOL     OW14573   3.522   3.295   5.525 -0.1498  0.0435 -0.0818
 4508SOL    HW114574   3.593   3.356   5.546  0.8194 -1.4935  1.3967
 4508SOL    HW214575   3.566   3.224   5.479 -0.6532 -1.0388  1.0640
 4509SOL     OW14576   1.667   5.528   2.557  0.2644  0.2326 -0.0595
 4509SOL    HW114577   1.619   5.561   2.481  0.2063  0.0683 -0.0936
 4509SOL    HW214578   1.665   5.601   2.620 -1.8697 -0.4809  0.7994
 4510SOL     OW14579   6.837   3.903   1.589 -0.0802  0.3032  0.2246
 4510SOL    HW114580   6.816   3.832   1.650  1.1395 -1.3828 -1.1883
 4510SOL    HW214581   6.773   3.971   1.608 -1.5949 -1.3358  1.3879
 4511SOL     OW14582   8.108   4.519   3.335 -0.5914 -0.0164 -0.1054
 4511SOL    HW114583   8.156   4.449   3.379 -0.0992 -0.2103 -0.9234
 4511SOL    HW214584   8.174   4.588   3.321 -0.7548  0.0578 -0.5052
 4512SOL     OW14585   7.714   6.457   0.660 -0.2612  0.3786  0.5482
 4512SOL    HW114586   7.636   6.405   0.681 -0.6356  0.7711  0.1645
 4512SOL    HW214587   7.681   6.526   0.602  0.6083 -0.2636 -0.7557
 4513SOL     OW14588   3.134   0.116   7.649 -0.0239 -0.4044 -0.2571
 4513SOL    HW114589   3.135   0.030   7.607  0.3892 -0.2662 -0.5351
 4513SOL    HW214590   3.092   0.174   7.585 -1.6263 -0.6719  0.4966
 4514SOL     OW14591   5.798   2.591   3.246  0.6524  0.1128 -0.3436
 4514SOL    HW114592   5.797   2.571   3.153 -0.4260 -0.3069 -0.2478
 4514SOL    HW214593   5.853   2.523   3.286  0.9548  0.1821 -0.6415
 4515SOL     OW14594   3.770   1.799   2.549 -0.0890 -0.1464  0.1215
 4515SOL    HW114595   3.786   1.819   2.456 -0.0551 -1.5349 -0.1949
 4515SOL    HW214596   3.790   1.881   2.595  1.7177  0.0477 -0.9062
 4516SOL     OW14597   8.002   3.249   2.830 -0.3270 -0.2206 -0.2848
 4516SOL    HW114598   8.014   3.247   2.925 -1.6256 -1.0723 -0.1153
 4516SOL    HW214599   8.027   3.161   2.800  0.5472  0.1862 -0.8237
 4517SOL     OW14600   0.973   4.156   2.054  0.4442  0.8745 -0.0248
 4517SOL    HW114601   0.943   4.246   2.041 -0.7430  0.3273 -1.3478
 4517SOL    HW214602   1.010   4.130   1.969  0.7819  0.1041  0.3409
 4518SOL     OW14603   1.027   3.674   7.114  0.4580  0.0388 -0.6817
 4518SOL    HW114604   1.005   3.589   7.153  1.1116  0.4116  0.5392
 4518SOL    HW214605   0.945   3.703   7.073  0.0755 -0.9131 -0.6240
 4519SOL     OW14606   0.629   0.028   6.250  0.8266  0.1002  0.4987
 4519SOL    HW114607   0.534   0.039   6.245  0.7236 -0.9342 -0.3307
 4519SOL    HW214608   0.658   0.032   6.159  1.5775  0.3570  0.7442
 4520SOL     OW14609   5.318   0.645   7.593  0.8194  0.1712 -0.2435
 4520SOL    HW114610   5.347   0.675   7.507  1.0629  0.8362  0.0606
 4520SOL    HW214611   5.400   0.628   7.641  0.6857 -0.2486 -0.1623
 4521SOL     OW14612   3.912   1.301   6.089 -0.2358 -0.3893 -0.0534
 4521SOL    HW114613   3.972   1.267   6.156  1.5551  1.4377 -0.6290
 4521SOL    HW214614   3.944   1.264   6.007 -0.5782 -0.2796 -0.2376
 4522SOL     OW14615   7.797   3.701   5.821  0.1061  0.2910 -0.3369
 4522SOL    HW114616   7.704   3.719   5.836 -0.0930 -1.5664  0.8909
 4522SOL    HW214617   7.837   3.788   5.820 -1.7185  1.1864 -1.6880
 4523SOL     OW14618   0.303   6.613   1.418 -0.3625  0.3144  0.1436
 4523SOL    HW114619   0.364   6.598   1.346  1.1693  3.3780  0.6207
 4523SOL    HW214620   0.236   6.670   1.381 -0.4458  0.6020  0.7237
 4524SOL     OW14621   7.915   4.063   0.666  0.2131  0.0401  0.2494
 4524SOL    HW114622   7.982   4.115   0.710  1.2978 -1.2751  0.2294
 4524SOL    HW214623   7.942   4.061   0.574  0.6398 -1.1803  0.3826
 4525SOL     OW14624   0.034   7.771   7.698 -0.0541 -0.1497 -0.3475
 4525SOL    HW114625  -0.010   7.847   7.661 -1.2489  0.5749  2.3244
 4525SOL    HW214626  -0.016   7.696   7.665  0.9531  0.1622 -2.7566
 4526SOL     OW14627   5.207   2.929   4.129  0.0712 -0.0973 -0.2377
 4526SOL    HW114628   5.280   2.869   4.112 -1.3763 -2.2668  0.6790
 4526SOL    HW214629   5.227   2.966   4.215  1.2438  1.2281 -1.0400
 4527SOL     OW14630   5.049   2.877   1.245  0.1851 -0.0808  0.7921
 4527SOL    HW114631   5.046   2.782   1.245 -0.3595 -0.0718 -0.1057
 4527SOL    HW214632   5.101   2.900   1.168 -0.6512  0.3534  0.3340
 4528SOL     OW14633   1.761   1.332   5.124  0.2371 -0.2721 -0.9361
 4528SOL    HW114634   1.729   1.417   5.093 -0.4846  0.1140  0.7587
 4528SOL    HW214635   1.837   1.354   5.178  0.2546 -0.7331 -0.7727
 4529SOL     OW14636   3.192   2.088   1.699  0.4304 -0.2534  0.4846
 4529SOL    HW114637   3.263   2.138   1.738 -0.4154  0.7605  0.7699
 4529SOL    HW214638   3.201   2.000   1.736  1.5460 -0.1581  0.4805
 4530SOL     OW14639   3.963   2.385   2.741  0.1046 -0.5228 -0.0583
 4530SOL    HW114640   3.914   2.354   2.665  0.0247  0.8461 -0.5939
 4530SOL    HW214641   3.897   2.397   2.809  0.0188 -0.7038 -0.1083
 4531SOL     OW14642   3.400   8.216   1.806 -0.6568 -0.9422 -0.2567
 4531SOL    HW114643   3.325   8.229   1.864 -1.2941  0.5516 -1.3252
 4531SOL    HW214644   3.437   8.132   1.832 -2.0109 -1.1712  1.0713
 4532SOL     OW14645   1.521   0.218   2.036  0.1751 -0.1434  0.3552
 4532SOL    HW114646   1.533   0.272   2.115  1.6653  2.0416 -1.2250
 4532SOL    HW214647   1.490   0.134   2.069 -0.8680  1.1912  3.1242
 4533SOL     OW14648   3.915   1.278   5.772  0.0135 -0.0439  0.1915
 4533SOL    HW114649   3.943   1.187   5.760  0.9445  0.4162 -1.5489
 4533SOL    HW214650   3.843   1.289   5.710 -0.6224  0.2021  0.9660
 4534SOL     OW14651   0.257   4.102   2.040 -0.1364 -0.3262  0.1950
 4534SOL    HW114652   0.286   4.059   1.959  0.3733  0.0988  0.1455
 4534SOL    HW214653   0.322   4.075   2.105  0.6499  0.9974 -0.0168
 4535SOL     OW14654   6.261   0.346   6.381 -0.4947  0.1268 -0.5084
 4535SOL    HW114655   6.336   0.405   6.386 -1.0318  0.7785 -0.0549
 4535SOL    HW214656   6.299   0.261   6.358  0.6226 -0.0064  1.5916
 4536SOL     OW14657   5.967   4.511   1.963 -0.5160  0.1962  0.1254
 4536SOL    HW114658   5.929   4.526   2.050  0.8767 -1.4051  1.0880
 4536SOL    HW214659   6.006   4.423   1.969 -0.2719  0.0846 -2.0974
 4537SOL     OW14660   4.433   4.184   1.132  0.2662  0.2134 -0.1593
 4537SOL    HW114661   4.468   4.155   1.048  0.6336 -0.8823  0.3573
 4537SOL    HW214662   4.350   4.226   1.110  0.8403  0.8613 -1.1636
 4538SOL     OW14663   3.598   6.052   7.586  0.0075 -0.1814  0.8604
 4538SOL    HW114664   3.689   6.032   7.605  0.1162 -0.0938  0.4364
 4538SOL    HW214665   3.600   6.137   7.543 -0.0128 -1.2612 -1.4626
 4539SOL     OW14666   4.597   7.900   7.912  0.1498 -0.0251  0.1825
 4539SOL    HW114667   4.683   7.885   7.951 -0.9884 -0.5705  2.6242
 4539SOL    HW214668   4.578   7.992   7.929 -0.3017 -0.2372  0.8730
 4540SOL     OW14669   2.825   3.274   5.689 -0.0707 -0.2395 -0.0246
 4540SOL    HW114670   2.871   3.282   5.605  1.0320  0.6402  0.6514
 4540SOL    HW214671   2.779   3.357   5.699  1.2935  0.4160  1.0913
 4541SOL     OW14672   5.044   4.397   7.709  0.3188 -0.1094  0.0972
 4541SOL    HW114673   5.118   4.444   7.747 -0.9563  1.2673  1.0092
 4541SOL    HW214674   4.970   4.418   7.767 -0.8391 -1.2476 -0.8981
 4542SOL     OW14675   0.369   3.426   6.838 -0.0736  0.2436  0.0583
 4542SOL    HW114676   0.440   3.364   6.852  0.9547  0.9080 -1.8727
 4542SOL    HW214677   0.315   3.419   6.917  1.6466 -0.9009  1.1896
 4543SOL     OW14678   5.910   6.577   0.056 -0.0912 -0.5770  0.4327
 4543SOL    HW114679   5.849   6.609  -0.010  2.0807  1.3055 -0.8025
 4543SOL    HW214680   5.989   6.553   0.006  0.7304 -1.5475  2.0970
 4544SOL     OW14681   6.811   6.576   8.053 -0.2765 -0.0212  0.2318
 4544SOL    HW114682   6.756   6.627   8.113 -0.1452 -0.9807  1.1902
 4544SOL    HW214683   6.748   6.528   7.999 -0.3901  0.6087 -0.2119
 4545SOL     OW14684   6.340   6.423   0.853 -0.3161  0.3412  0.4991
 4545SOL    HW114685   6.425   6.380   0.850 -0.4723  0.0650 -0.2357
 4545SOL    HW214686   6.280   6.357   0.890 -0.2387  0.4969  0.9106
 4546SOL     OW14687   3.941   0.994   1.957  0.1190  0.3216 -0.4492
 4546SOL    HW114688   3.985   1.060   1.903  2.0251 -0.7223 -0.2609
 4546SOL    HW214689   3.955   1.023   2.047  1.7390 -0.7271 -0.3211
 4547SOL     OW14690   2.000   3.313   8.178  0.0536  0.9618 -0.3182
 4547SOL    HW114691   2.045   3.229   8.183 -0.6399  0.6647  1.1076
 4547SOL    HW214692   2.070   3.378   8.187  0.4096  0.5278  0.0509
 4548SOL     OW14693   6.055   8.093   1.897  0.2518 -0.1100 -0.4402
 4548SOL    HW114694   5.990   8.157   1.868 -0.3044 -0.1594  0.6524
 4548SOL    HW214695   6.005   8.027   1.944  1.0180 -0.4975 -0.1519
 4549SOL     OW14696   8.131   1.466   4.553  0.4225  0.0824  0.3206
 4549SOL    HW114697   8.121   1.543   4.609  0.4062  0.7816 -0.6191
 4549SOL    HW214698   8.196   1.492   4.488  0.9586 -0.9564  0.4155
 4550SOL     OW14699   3.494   4.529   6.241  0.2449  0.2993 -0.4996
 4550SOL    HW114700   3.570   4.499   6.192  0.7162 -2.3094  1.6224
 4550SOL    HW214701   3.530   4.575   6.317 -0.0789 -2.3046  1.3674
 4551SOL     OW14702   1.320   1.128   1.530 -0.5040 -0.1244  0.0945
 4551SOL    HW114703   1.328   1.085   1.615  2.5336 -0.4535 -0.2242
 4551SOL    HW214704   1.301   1.219   1.550 -0.7161 -0.3786  1.0962
 4552SOL     OW14705   1.919   7.646   1.862  0.3487  0.1737  0.1907
 4552SOL    HW114706   1.941   7.557   1.838  1.6103  0.7065 -0.6740
 4552SOL    HW214707   1.999   7.696   1.849 -0.6837  1.6943 -0.6256
 4553SOL     OW14708   7.630   1.894   1.155 -0.3325  0.1387 -0.0112
 4553SOL    HW114709   7.632   1.799   1.138 -0.9133 -0.1345  1.3650
 4553SOL    HW214710   7.698   1.929   1.097  0.8308 -1.2769  0.4204
 4554SOL     OW14711   6.014   2.835   1.205  0.0811  0.3050  0.1312
 4554SOL    HW114712   6.052   2.842   1.293  0.7910  1.6078 -0.2493
 4554SOL    HW214713   6.025   2.744   1.181 -0.5088 -0.1810  1.5548
 4555SOL     OW14714   1.833   2.853   0.178 -0.3719  0.1512 -0.2158
 4555SOL    HW114715   1.793   2.845   0.091 -1.9761  0.6272  0.4300
 4555SOL    HW214716   1.767   2.817   0.237  0.5545  0.1593  0.8404
 4556SOL     OW14717   0.209   5.447   8.085 -0.4768 -0.2879 -0.6031
 4556SOL    HW114718   0.220   5.360   8.047  0.5369 -0.8449  0.8689
 4556SOL    HW214719   0.114   5.457   8.095 -0.5533 -2.3177  1.5100
 4557SOL     OW14720   4.335   2.953   2.499  0.2395 -1.1002  0.6152
 4557SOL    HW114721   4.257   2.909   2.532 -2.2766  2.3332 -0.2368
 4557SOL    HW214722   4.346   2.918   2.410 -1.6293 -0.2188 -0.0152
 4558SOL     OW14723   7.921   4.093   5.041  0.3426  0.5259  0.6072
 4558SOL    HW114724   7.927   4.086   5.136 -1.8522  0.7950  0.8180
 4558SOL    HW214725   7.844   4.041   5.018  3.1569 -3.1664 -1.5780
 4559SOL     OW14726   6.793   3.274   1.035 -0.2119 -0.2739  0.6365
 4559SOL    HW114727   6.751   3.300   0.954  1.7594 -0.9457 -0.6722
 4559SOL    HW214728   6.882   3.310   1.030  0.1015 -0.6872  2.3019
 4560SOL     OW14729   7.334   6.391   1.541  0.2520 -0.3857  0.5891
 4560SOL    HW114730   7.347   6.440   1.622 -1.3883  1.8722 -0.4055
 4560SOL    HW214731   7.334   6.299   1.568 -0.6432  0.3134  3.1991
 4561SOL     OW14732   3.650   1.845   1.977 -0.2337 -0.9802  0.3967
 4561SOL    HW114733   3.623   1.860   1.887 -0.4857 -1.6297  0.3620
 4561SOL    HW214734   3.627   1.926   2.023 -0.4879 -0.8082 -0.0317
 4562SOL     OW14735   5.808   4.400   5.492 -0.0984 -0.1900  0.4910
 4562SOL    HW114736   5.897   4.406   5.526 -0.2176  0.9397  0.6336
 4562SOL    HW214737   5.793   4.482   5.447 -0.0512 -1.5266 -2.1525
 4563SOL     OW14738   5.270   4.395   2.266 -0.3857  0.1787 -0.3011
 4563SOL    HW114739   5.292   4.480   2.227  0.7456  0.5073  0.9751
 4563SOL    HW214740   5.286   4.331   2.197 -0.5281  0.9286 -1.0411
 4564SOL     OW14741   0.285   0.957   3.980  0.1432  1.1067 -0.0057
 4564SOL    HW114742   0.221   0.927   4.044  0.0419  0.0440 -0.5716
 4564SOL    HW214743   0.276   0.895   3.907  1.2544  1.4209 -0.4279
 4565SOL     OW14744   6.911   7.497   5.380  0.2112  0.2882  0.1141
 4565SOL    HW114745   6.933   7.412   5.418  0.9152  0.5660  0.3361
 4565SOL    HW214746   6.816   7.504   5.391  0.0379 -0.8080 -0.6242
 4566SOL     OW14747   5.023   4.413   7.443 -0.0319  0.2483  0.1423
 4566SOL    HW114748   5.028   4.328   7.399 -2.2757  0.9652 -1.6746
 4566SOL    HW214749   5.023   4.391   7.536  1.8246 -1.5326 -0.1842
 4567SOL     OW14750   2.804   4.152   5.308  0.3722 -0.2037 -0.1453
 4567SOL    HW114751   2.736   4.094   5.273 -0.2303  0.7043 -0.5097
 4567SOL    HW214752   2.855   4.178   5.232  1.2453 -1.0050  0.1499
 4568SOL     OW14753   0.815   0.849   5.979 -0.3254  0.1588  0.2286
 4568SOL    HW114754   0.868   0.828   6.056  1.1058 -1.8180 -1.1943
 4568SOL    HW214755   0.726   0.825   6.004  0.0424 -0.0677  1.3948
 4569SOL     OW14756   6.025   6.655   4.428  0.1388  0.2951 -0.7909
 4569SOL    HW114757   5.998   6.734   4.381 -1.0282  0.3612 -0.0567
 4569SOL    HW214758   6.051   6.594   4.359 -1.0947  0.5505 -1.5184
 4570SOL     OW14759   4.273   3.461   6.586 -0.0034 -0.2079 -0.0449
 4570SOL    HW114760   4.218   3.518   6.533  2.4941  1.9178 -0.5278
 4570SOL    HW214761   4.287   3.510   6.667  1.2827 -0.6210  0.0035
 4571SOL     OW14762   1.422   8.189   2.416 -0.6398 -0.4087  0.1203
 4571SOL    HW114763   1.510   8.158   2.396 -1.4035 -2.8101  0.1689
 4571SOL    HW214764   1.395   8.236   2.338  0.3740 -0.3379 -0.2032
 4572SOL     OW14765   5.317   7.338   7.729 -0.5953  0.1925  0.0471
 4572SOL    HW114766   5.318   7.278   7.654 -0.5456  0.9566 -0.5748
 4572SOL    HW214767   5.299   7.282   7.804  1.7863 -0.9808 -0.1764
 4573SOL     OW14768   6.417   2.721   0.577 -0.3718 -0.4050 -0.1643
 4573SOL    HW114769   6.430   2.635   0.617 -1.1607 -1.1841 -1.5389
 4573SOL    HW214770   6.374   2.772   0.646  1.4924 -0.5673  1.2215
 4574SOL     OW14771   7.210   4.672   7.645 -0.0154  0.6227 -0.4055
 4574SOL    HW114772   7.148   4.677   7.718  2.0489  0.7845  1.4578
 4574SOL    HW214773   7.225   4.578   7.633  0.9621  0.6061  0.6671
 4575SOL     OW14774   3.890   3.824   0.959 -0.1242  0.8475 -0.1782
 4575SOL    HW114775   3.943   3.853   0.884 -0.6431  2.6374  0.1062
 4575SOL    HW214776   3.802   3.812   0.923  0.3438 -2.0016 -0.6211
 4576SOL     OW14777   4.772   6.245   1.563  0.0350  0.3208 -0.3131
 4576SOL    HW114778   4.724   6.307   1.508  0.2157  0.9319  0.2002
 4576SOL    HW214779   4.847   6.219   1.509 -0.7085 -0.4398 -1.0147
 4577SOL     OW14780   1.519   3.379   1.253  0.1860  0.2815  0.0978
 4577SOL    HW114781   1.600   3.402   1.299 -0.5455 -0.7460  1.9917
 4577SOL    HW214782   1.489   3.299   1.296 -1.2227 -0.0391 -1.3807
 4578SOL     OW14783   1.212   2.276   6.530  0.2552  0.4854  0.5239
 4578SOL    HW114784   1.117   2.279   6.521  0.3308  0.2086 -0.4423
 4578SOL    HW214785   1.245   2.292   6.442  1.0451 -3.3542 -0.0707
 4579SOL     OW14786   0.119   4.070   0.206 -0.1619 -0.5222 -0.0173
 4579SOL    HW114787   0.090   4.005   0.141  1.0552 -0.9345 -0.1645
 4579SOL    HW214788   0.197   4.109   0.168 -0.0053 -0.0529  0.7639
 4580SOL     OW14789   3.313   0.397   5.752 -0.2640 -0.3942  0.0241
 4580SOL    HW114790   3.369   0.472   5.772 -1.8520  1.0320 -0.6748
 4580SOL    HW214791   3.359   0.353   5.680  0.1549  0.5515 -0.3106
 4581SOL     OW14792   1.803   2.162   3.016  0.2487  0.3500  0.5895
 4581SOL    HW114793   1.748   2.178   3.093 -0.8790 -0.6155  0.0088
 4581SOL    HW214794   1.888   2.137   3.053 -0.3399 -0.3325  1.5412
 4582SOL     OW14795   5.722   2.403   4.908  0.1045  0.5482  0.0535
 4582SOL    HW114796   5.643   2.421   4.858  0.1415 -0.7229 -0.4766
 4582SOL    HW214797   5.703   2.323   4.956  0.6574  0.8696  0.8200
 4583SOL     OW14798   3.493   2.534   6.625  0.1543 -0.1782 -0.0394
 4583SOL    HW114799   3.427   2.555   6.692  0.1186  0.3898 -0.2457
 4583SOL    HW214800   3.550   2.469   6.666  1.5903  1.9065  1.4549
 4584SOL     OW14801   8.074   1.683   3.052  0.4691  0.3854  0.4376
 4584SOL    HW114802   8.162   1.646   3.054  0.3652  0.1491  0.7921
 4584SOL    HW214803   8.025   1.625   2.995  0.3061 -0.0385  0.9946
 4585SOL     OW14804   4.152   3.335   4.247  0.3274  0.0613  0.1407
 4585SOL    HW114805   4.059   3.339   4.270  0.7255  1.8243  1.6939
 4585SOL    HW214806   4.154   3.285   4.166 -1.9769  0.0302  0.0237
 4586SOL     OW14807   3.902   6.085   6.971  0.6385  0.0099  0.0237
 4586SOL    HW114808   3.940   6.159   6.924  0.3424 -0.5130 -1.0643
 4586SOL    HW214809   3.937   6.092   7.060 -1.8246  3.3396  0.9464
 4587SOL     OW14810   2.156   0.258   8.016 -0.8088  0.3313  0.1424
 4587SOL    HW114811   2.238   0.276   7.970 -0.6413  2.9837  1.2759
 4587SOL    HW214812   2.180   0.194   8.083 -0.0627 -0.1816 -0.5940
 4588SOL     OW14813   2.611   5.330   1.485 -0.0357 -0.3402  0.1346
 4588SOL    HW114814   2.648   5.353   1.400  1.3068  0.6055  0.9351
 4588SOL    HW214815   2.682   5.285   1.531 -0.3669  0.1435  1.1509
 4589SOL     OW14816   2.875   5.902   2.479 -0.0126  0.2170  0.2247
 4589SOL    HW114817   2.910   5.813   2.471 -0.0761 -0.1037  2.7374
 4589SOL    HW214818   2.935   5.946   2.539 -1.4555  1.0472  1.0950
 4590SOL     OW14819   7.305   1.307   0.578 -0.6124  0.0270  0.0150
 4590SOL    HW114820   7.339   1.238   0.520 -1.1916 -0.5643  0.3665
 4590SOL    HW214821   7.325   1.388   0.532  0.2989 -0.3561 -0.2962
 4591SOL     OW14822   0.981   1.265   0.704 -0.1593 -0.1879 -0.0565
 4591SOL    HW114823   1.073   1.252   0.681  0.3116  0.4736  1.3204
 4591SOL    HW214824   0.937   1.279   0.620  0.6488 -2.3560 -0.9019
 4592SOL     OW14825   6.693   6.153   6.887 -0.1236 -0.7087  0.3821
 4592SOL    HW114826   6.602   6.136   6.911  0.1027 -0.4757  1.4301
 4592SOL    HW214827   6.744   6.088   6.936  0.3449 -0.2593  0.5050
 4593SOL     OW14828   6.009   0.368   6.290 -0.1313 -0.4114 -0.1561
 4593SOL    HW114829   5.961   0.401   6.366  0.1449  0.4359 -0.3373
 4593SOL    HW214830   6.100   0.364   6.319  0.3127  1.8513 -1.0102
 4594SOL     OW14831   1.986   4.947   6.700  0.2407  0.1135 -0.3695
 4594SOL    HW114832   2.073   4.929   6.664  0.8731 -0.1389  1.2207
 4594SOL    HW214833   1.998   5.025   6.755 -0.6882  0.4699 -0.6448
 4595SOL     OW14834   4.113   0.249   6.248  0.1927 -0.3172 -0.0695
 4595SOL    HW114835   4.095   0.181   6.313  3.7901 -1.2744  0.1053
 4595SOL    HW214836   4.179   0.305   6.289 -2.0420  2.9713 -0.5272
 4596SOL     OW14837   3.748   6.735   7.632 -0.0316 -0.0582  0.1770
 4596SOL    HW114838   3.806   6.662   7.609  0.9798  1.1398 -1.2266
 4596SOL    HW214839   3.700   6.754   7.552 -2.8267 -1.3357  1.4291
 4597SOL     OW14840   1.079   3.900   3.145 -0.2400  0.3189 -0.6700
 4597SOL    HW114841   1.072   3.882   3.239  0.7293  0.2014 -0.6068
 4597SOL    HW214842   1.082   3.995   3.138 -3.4896  0.5238 -0.8594
 4598SOL     OW14843   1.378   6.748   7.694  0.5782 -0.2414 -0.3054
 4598SOL    HW114844   1.354   6.658   7.671 -0.2111 -0.2523  0.5239
 4598SOL    HW214845   1.399   6.789   7.610 -0.3338 -0.8310 -0.8440
 4599SOL     OW14846   1.602   5.386   5.476  0.0984  0.3220 -0.0282
 4599SOL    HW114847   1.617   5.442   5.401  0.3492 -0.3657 -0.5056
 4599SOL    HW214848   1.573   5.303   5.439  1.0988 -0.3269  0.5689
 4600SOL     OW14849   1.487   4.591   7.660  0.3474  0.0817  0.0891
 4600SOL    HW114850   1.474   4.568   7.752  2.6325 -0.4451  0.3426
 4600SOL    HW214851   1.518   4.510   7.619  2.2817  1.0128 -0.4277
 4601SOL     OW14852   3.218   1.262   3.162  0.5494  0.0544  0.1980
 4601SOL    HW114853   3.249   1.230   3.247  1.2029  1.5610  0.5565
 4601SOL    HW214854   3.225   1.357   3.168 -0.0231  0.2197 -1.3176
 4602SOL     OW14855   4.120   5.894   1.078  0.2314 -0.0815  0.0102
 4602SOL    HW114856   4.141   5.809   1.039 -1.1941  0.0014 -0.9913
 4602SOL    HW214857   4.147   5.957   1.011 -0.5990  0.1486 -0.1097
 4603SOL     OW14858   0.762   7.486   6.229 -0.4332  0.7037  0.3931
 4603SOL    HW114859   0.787   7.534   6.150  0.2842  0.0569  0.2112
 4603SOL    HW214860   0.742   7.554   6.293 -1.5210  1.2423 -0.4859
 4604SOL     OW14861   2.020   2.463   1.416  0.7304  0.1225 -0.0066
 4604SOL    HW114862   1.992   2.372   1.412  0.5885  0.2012 -1.1352
 4604SOL    HW214863   2.077   2.468   1.493  0.9430 -0.9687 -0.0886
 4605SOL     OW14864   1.123   3.422   3.810  0.2514  0.1473 -0.2862
 4605SOL    HW114865   1.183   3.409   3.736 -2.4830 -1.9168 -2.3573
 4605SOL    HW214866   1.074   3.501   3.787 -0.2109 -0.1697 -0.3866
 4606SOL     OW14867   6.270   4.510   1.382  0.0868 -0.1674  0.0699
 4606SOL    HW114868   6.286   4.512   1.477  0.0308  0.1237  0.0748
 4606SOL    HW214869   6.177   4.487   1.374  0.3680 -1.3682  0.0533
 4607SOL     OW14870   5.636   6.340   3.732  0.3477 -0.5664  0.4827
 4607SOL    HW114871   5.590   6.422   3.745  0.3777 -0.2084 -1.4436
 4607SOL    HW214872   5.723   6.365   3.699  0.2576 -1.3511 -0.3970
 4608SOL     OW14873   0.957   2.853   6.345 -0.3080 -0.3685 -0.1816
 4608SOL    HW114874   0.863   2.866   6.358 -0.3894 -0.7401 -0.4018
 4608SOL    HW214875   0.991   2.942   6.334 -0.6081 -0.2195  0.0393
 4609SOL     OW14876   7.349   1.042   1.174  0.0532 -0.2707 -0.4578
 4609SOL    HW114877   7.279   0.994   1.131  0.3206 -0.7775 -0.3329
 4609SOL    HW214878   7.352   1.126   1.128 -0.4553 -0.3455 -0.6344
 4610SOL     OW14879   6.144   2.521   6.844  0.2807 -0.1914  0.2201
 4610SOL    HW114880   6.197   2.595   6.814  0.4010 -0.8842 -1.3854
 4610SOL    HW214881   6.055   2.554   6.845  0.5017  0.4074  0.9946
 4611SOL     OW14882   6.264   2.198   1.086  0.7288 -0.5215 -0.5131
 4611SOL    HW114883   6.307   2.146   1.018 -0.2669 -1.0643 -0.7415
 4611SOL    HW214884   6.255   2.138   1.160 -0.9292 -0.8835 -0.9652
 4612SOL     OW14885   1.722   5.932   1.507  0.1380  0.1326  0.8352
 4612SOL    HW114886   1.737   5.891   1.421 -2.2179 -0.2175  0.5235
 4612SOL    HW214887   1.682   5.863   1.560 -2.3577  1.4325  0.8220
 4613SOL     OW14888   7.060   3.406   6.784  0.5513  0.3136 -0.6253
 4613SOL    HW114889   7.139   3.438   6.742 -0.0906  2.6470 -0.2167
 4613SOL    HW214890   7.084   3.396   6.877  0.7640 -0.5118 -0.7602
 4614SOL     OW14891   5.752   6.359   2.356  0.1033 -0.4084 -0.0682
 4614SOL    HW114892   5.766   6.362   2.450  0.4264 -1.0549 -0.0938
 4614SOL    HW214893   5.816   6.296   2.323  0.1009 -0.0729 -0.7411
 4615SOL     OW14894   8.043   7.219   5.169  0.0339 -0.0346  0.2193
 4615SOL    HW114895   8.103   7.170   5.225 -0.7906 -0.4652  0.7410
 4615SOL    HW214896   7.974   7.249   5.228 -0.7033 -0.2614 -0.5026
 4616SOL     OW14897   3.929   0.546   5.455  1.2465 -0.1409 -0.3433
 4616SOL    HW114898   3.840   0.520   5.434  1.1965  0.8291 -1.4108
 4616SOL    HW214899   3.956   0.485   5.523  0.2013 -1.2238 -0.8673
 4617SOL     OW14900   6.485   5.804   4.576  0.1312 -0.0811  0.2718
 4617SOL    HW114901   6.431   5.853   4.639  1.1923  0.4616  0.7851
 4617SOL    HW214902   6.478   5.853   4.495 -1.1696 -0.7280 -0.0315
 4618SOL     OW14903   4.937   0.044   7.425  0.0841  0.0212 -0.1998
 4618SOL    HW114904   4.946   0.123   7.372 -0.8808 -0.3434 -0.9220
 4618SOL    HW214905   4.878   0.069   7.496  2.0301  0.7554  1.2515
 4619SOL     OW14906   5.693   2.262   6.871 -0.4838 -0.2334 -0.4597
 4619SOL    HW114907   5.742   2.308   6.940  0.1659 -0.0204 -1.0534
 4619SOL    HW214908   5.739   2.178   6.861 -0.9582 -0.5300 -0.2016
 4620SOL     OW14909   5.597   6.000   6.614 -0.0826 -0.3195  0.2098
 4620SOL    HW114910   5.512   6.011   6.571  0.6297  2.1841 -0.7374
 4620SOL    HW214911   5.629   6.089   6.628  1.7453 -1.1602  1.8909
 4621SOL     OW14912   2.633   4.612   1.758  0.0660 -0.1326  0.3448
 4621SOL    HW114913   2.545   4.612   1.720  0.4684 -0.5486 -0.6319
 4621SOL    HW214914   2.684   4.669   1.701  0.8870 -1.4357 -0.2853
 4622SOL     OW14915   2.524   2.248   3.608 -0.4495 -0.3435  0.3709
 4622SOL    HW114916   2.522   2.343   3.612 -1.2673 -0.2441 -1.4234
 4622SOL    HW214917   2.435   2.221   3.630 -0.3797 -0.6517  0.2822
 4623SOL     OW14918   4.448   5.541   0.673 -0.3758 -0.2401  0.4207
 4623SOL    HW114919   4.542   5.534   0.655 -0.2428 -4.0264  1.5128
 4623SOL    HW214920   4.408   5.479   0.611 -2.6158  3.1215 -1.8031
 4624SOL     OW14921   0.204   2.823   1.384  0.2926 -0.2000  0.0160
 4624SOL    HW114922   0.162   2.760   1.442  0.4501  0.3060  0.6909
 4624SOL    HW214923   0.285   2.846   1.429  0.7095 -0.2527 -0.6988
 4625SOL     OW14924   7.094   0.362   5.457  0.9825 -0.3506 -0.2530
 4625SOL    HW114925   7.067   0.282   5.411 -2.6845  0.9538 -0.7776
 4625SOL    HW214926   7.078   0.432   5.393 -0.1147  1.1442  1.5482
 4626SOL     OW14927   7.194   6.088   7.603  0.2232 -0.1520  0.3141
 4626SOL    HW114928   7.219   6.180   7.611  1.7266 -0.6017  1.2108
 4626SOL    HW214929   7.145   6.083   7.522 -0.5271  1.5776  0.6321
 4627SOL     OW14930   2.573   0.619   5.576  0.5077  0.1359 -0.4191
 4627SOL    HW114931   2.609   0.534   5.601  0.3048  0.4284  0.9551
 4627SOL    HW214932   2.630   0.683   5.621 -0.9266  0.6320  0.7737
 4628SOL     OW14933   3.394   0.105   7.302 -0.1713  0.1530  0.1229
 4628SOL    HW114934   3.388   0.010   7.289  1.7465 -0.1661  1.2608
 4628SOL    HW214935   3.313   0.139   7.263 -1.2124 -1.9904  0.2509
 4629SOL     OW14936   6.058   6.227   3.272 -0.7487 -0.2582 -0.1920
 4629SOL    HW114937   6.068   6.171   3.194  1.3150  1.0979 -0.9802
 4629SOL    HW214938   6.112   6.186   3.339  1.1498  0.9541 -0.9145
 4630SOL     OW14939   1.308   4.935   7.425 -0.5190 -0.4509  0.4257
 4630SOL    HW114940   1.247   4.898   7.488  0.1572 -0.9302  0.8108
 4630SOL    HW214941   1.333   4.862   7.369  0.6018 -0.5367  1.0121
 4631SOL     OW14942   8.151   6.054   5.169  0.3874 -0.0702  0.5847
 4631SOL    HW114943   8.135   5.980   5.228 -1.8664  0.3854  0.6736
 4631SOL    HW214944   8.097   6.036   5.092  1.7262  0.3240 -0.4828
 4632SOL     OW14945   0.964   5.567   1.700  0.1747  0.4696 -0.4501
 4632SOL    HW114946   0.893   5.567   1.635  1.6095  0.0260 -2.1153
 4632SOL    HW214947   1.024   5.635   1.668  0.7648  0.4713  0.6306
 4633SOL     OW14948   0.422   0.829   1.343 -0.1239  0.3621  0.4057
 4633SOL    HW114949   0.427   0.790   1.430 -0.1098  2.3577  1.3692
 4633SOL    HW214950   0.367   0.907   1.355 -0.6863  0.3197 -1.5228
 4634SOL     OW14951   5.497   5.881   4.795 -0.1606 -0.2890 -0.0218
 4634SOL    HW114952   5.444   5.801   4.804 -1.0267  0.2464 -0.2964
 4634SOL    HW214953   5.535   5.894   4.882 -0.6010 -0.6046  0.2262
 4635SOL     OW14954   1.627   5.699   3.897 -0.4235  0.3633  0.0236
 4635SOL    HW114955   1.601   5.678   3.808  0.7846  2.1910 -0.8130
 4635SOL    HW214956   1.545   5.723   3.941 -0.9586 -0.0703 -0.7356
 4636SOL     OW14957   6.054   5.608   5.261 -0.2145  0.6912  0.3967
 4636SOL    HW114958   6.150   5.613   5.263 -0.0870 -1.2487  1.5457
 4636SOL    HW214959   6.026   5.650   5.342 -0.5962  3.7458 -1.1538
 4637SOL     OW14960   2.561   4.064   5.226  0.3812  0.6427 -0.0404
 4637SOL    HW114961   2.614   3.999   5.180  1.6370  0.9286  0.9401
 4637SOL    HW214962   2.472   4.029   5.223  1.0556 -1.2739  0.6769
 4638SOL     OW14963   6.737   5.664   7.696  0.0531 -0.5620 -0.2231
 4638SOL    HW114964   6.773   5.575   7.700  0.9802 -0.1778  0.4398
 4638SOL    HW214965   6.748   5.698   7.785 -1.1484 -0.0948 -0.2375
 4639SOL     OW14966   5.798   4.828   4.133 -0.1674  0.6432  0.4034
 4639SOL    HW114967   5.753   4.818   4.217  0.6115  1.6544  0.9627
 4639SOL    HW214968   5.889   4.844   4.156  0.0447  1.0391 -0.6388
 4640SOL     OW14969   5.094   2.212   1.768  0.3326 -0.0459 -0.5201
 4640SOL    HW114970   5.123   2.300   1.793 -1.8585  0.6755 -0.3406
 4640SOL    HW214971   5.115   2.206   1.675 -1.0459  1.3940 -0.9775
 4641SOL     OW14972   2.363   2.325   0.143 -0.0274  0.2556  0.3921
 4641SOL    HW114973   2.312   2.361   0.215 -0.1712  0.4522  0.1952
 4641SOL    HW214974   2.299   2.275   0.092  0.2514 -0.6118  0.8810
 4642SOL     OW14975   1.845   3.458   6.038  0.5438  0.0983  0.1446
 4642SOL    HW114976   1.916   3.402   6.008 -0.4561 -0.3220 -1.6228
 4642SOL    HW214977   1.774   3.398   6.061 -0.3317  0.5595 -1.2063
 4643SOL     OW14978   5.705   8.107   1.050  0.2156  0.4093  0.5214
 4643SOL    HW114979   5.788   8.116   1.097 -0.4324  0.2286  1.7214
 4643SOL    HW214980   5.678   8.017   1.067  0.6536 -0.1293 -1.3852
 4644SOL     OW14981   3.456   2.506   2.445 -0.1915 -0.1027 -0.4809
 4644SOL    HW114982   3.363   2.521   2.456 -0.2591 -0.7362 -0.1457
 4644SOL    HW214983   3.497   2.590   2.467 -0.7139  0.3617 -1.2497
 4645SOL     OW14984   5.351   7.141   5.982  0.4761  0.4580  0.1552
 4645SOL    HW114985   5.397   7.057   5.983  0.7518  0.6055  0.8294
 4645SOL    HW214986   5.269   7.123   5.937  0.6767 -0.0922 -0.0011
 4646SOL     OW14987   6.082   5.420   3.376  0.2043  0.2783  0.2596
 4646SOL    HW114988   6.066   5.467   3.457  0.7947 -1.4461  1.4457
 4646SOL    HW214989   6.085   5.488   3.309 -1.9555  1.6063  1.3902
 4647SOL     OW14990   2.740   3.710   1.558 -0.5663  0.4554 -0.6345
 4647SOL    HW114991   2.739   3.682   1.649 -2.3870 -0.4113 -0.8925
 4647SOL    HW214992   2.735   3.806   1.562 -3.9401  0.3429  0.2020
 4648SOL     OW14993   2.394   5.854   5.183  0.4250 -0.3099 -0.0589
 4648SOL    HW114994   2.329   5.925   5.181  1.4040  0.7012  1.4547
 4648SOL    HW214995   2.358   5.792   5.247 -0.3123 -1.0916 -1.2021
 4649SOL     OW14996   0.953   2.232   5.026  0.1750  0.0693 -0.3560
 4649SOL    HW114997   0.878   2.175   5.006 -0.0130  0.3598 -0.4804
 4649SOL    HW214998   0.945   2.305   4.966  0.3986  0.2467 -0.1732
 4650SOL     OW14999   6.439   3.027   1.014  0.0204 -0.2162 -0.1404
 4650SOL    HW115000   6.378   3.041   0.942  0.2666  2.6278  0.0932
 4650SOL    HW215001   6.523   3.011   0.973  0.1220  1.2019 -0.5337
 4651SOL     OW15002   3.916   4.809   1.936 -0.1560  0.5303  0.5330
 4651SOL    HW115003   3.947   4.818   1.845 -0.4174 -0.9315  0.2738
 4651SOL    HW215004   3.974   4.865   1.986  1.7256 -0.6658 -0.2030
 4652SOL     OW15005   4.116   5.589   0.306 -0.4837  0.0554  0.1307
 4652SOL    HW115006   4.081   5.676   0.286 -0.8698 -0.1232  0.0210
 4652SOL    HW215007   4.083   5.570   0.394  1.2684  0.8714  1.0271
 4653SOL     OW15008   6.304   0.869   1.782 -0.0404  0.0121  0.1417
 4653SOL    HW115009   6.311   0.775   1.763  0.7972 -0.1356  1.0348
 4653SOL    HW215010   6.217   0.879   1.821 -1.0273  0.0140 -1.9504
 4654SOL     OW15011   7.567   0.276   1.740  0.1220 -0.5384  0.4591
 4654SOL    HW115012   7.499   0.310   1.798 -0.1863 -0.9883  0.3656
 4654SOL    HW215013   7.565   0.182   1.754  0.2723 -0.6174 -0.0410
 4655SOL     OW15014   1.768   3.276   6.622 -0.0374  0.3502  0.0942
 4655SOL    HW115015   1.763   3.235   6.535 -0.0979  0.7282 -0.0833
 4655SOL    HW215016   1.694   3.336   6.623  0.7191  1.3059 -0.0915
 4656SOL     OW15017   7.976   6.741   3.596 -0.4640 -0.6367  0.4610
 4656SOL    HW115018   7.959   6.659   3.549 -0.0900 -0.3868 -0.1289
 4656SOL    HW215019   8.002   6.714   3.684  1.0545 -1.2395 -0.1375
 4657SOL     OW15020   6.871   2.774   4.479  0.0040  0.3692  0.1913
 4657SOL    HW115021   6.798   2.715   4.458  1.4914 -1.3877 -0.2932
 4657SOL    HW215022   6.927   2.723   4.537  1.3947  1.2688 -0.3052
 4658SOL     OW15023   6.616   7.563   0.655 -0.9556 -0.1067  0.3853
 4658SOL    HW115024   6.624   7.656   0.676 -0.4974  0.3185 -1.4662
 4658SOL    HW215025   6.528   7.555   0.616 -0.3500 -0.0512 -1.0807
 4659SOL     OW15026   4.974   3.594   6.274  0.1684 -0.2597 -0.4645
 4659SOL    HW115027   4.925   3.544   6.338  0.4004  1.0089  0.7440
 4659SOL    HW215028   4.913   3.606   6.201  0.2683 -2.6668 -1.0295
 4660SOL     OW15029   5.645   0.164   6.894  0.1774  0.0110 -0.2336
 4660SOL    HW115030   5.678   0.171   6.804  1.7639  0.9978  0.3700
 4660SOL    HW215031   5.564   0.114   6.886  1.5070 -2.0473 -1.9170
 4661SOL     OW15032   0.079   4.179   2.644  0.1085  0.2393  0.3226
 4661SOL    HW115033   0.149   4.245   2.643  0.4170 -0.0934 -0.3181
 4661SOL    HW215034   0.004   4.225   2.683  0.7586  0.5126  1.2735
 4662SOL     OW15035   5.943   7.873   0.967 -0.1452  0.2018  0.4722
 4662SOL    HW115036   5.898   7.835   1.042  0.1742  0.2278  0.6792
 4662SOL    HW215037   6.009   7.931   1.005 -0.7477  1.1062  0.1572
 4663SOL     OW15038   4.179   4.948   6.749 -0.0654 -0.0494  0.5295
 4663SOL    HW115039   4.228   4.889   6.806  1.6822  1.2013  0.3910
 4663SOL    HW215040   4.094   4.958   6.792  0.7991 -0.0443  2.3169
 4664SOL     OW15041   5.869   0.593   0.732  0.1059  0.0081  1.1559
 4664SOL    HW115042   5.913   0.508   0.734  1.3568  0.3678 -2.9520
 4664SOL    HW215043   5.898   0.634   0.650 -3.9342  2.5103  0.6952
 4665SOL     OW15044   7.432   5.647   6.231  0.2553  0.0033  0.2384
 4665SOL    HW115045   7.406   5.590   6.304  0.0821 -0.0746  0.1155
 4665SOL    HW215046   7.368   5.718   6.233 -0.4171 -0.5589 -0.5115
 4666SOL     OW15047   4.853   0.985   1.648  0.6373  0.1034  0.7218
 4666SOL    HW115048   4.866   0.936   1.567  0.7047 -0.7965  1.2618
 4666SOL    HW215049   4.841   0.918   1.715  0.6287  0.8303  1.4680
 4667SOL     OW15050   6.790   3.112   7.589  0.4014  0.2761 -0.0430
 4667SOL    HW115051   6.748   3.194   7.614  1.8413  0.9040  0.4090
 4667SOL    HW215052   6.727   3.044   7.612 -1.1398  1.2687 -1.1403
 4668SOL     OW15053   2.172   2.431   5.249 -0.0515  0.2005  0.2063
 4668SOL    HW115054   2.157   2.338   5.231 -0.1778  0.4579 -1.0863
 4668SOL    HW215055   2.120   2.477   5.184  1.1766  1.1595 -0.1468
 4669SOL     OW15056   6.728   7.375   0.491 -0.5564  0.6506 -0.0390
 4669SOL    HW115057   6.674   7.453   0.504 -0.0177  0.9675  0.3889
 4669SOL    HW215058   6.683   7.325   0.423 -1.5391  0.7456  0.5253
 4670SOL     OW15059   1.187   5.165   3.529  0.4430 -0.5749  0.2193
 4670SOL    HW115060   1.159   5.250   3.495 -3.7201 -2.0844 -0.6791
 4670SOL    HW215061   1.262   5.142   3.474 -0.0918  1.2870 -1.4424
 4671SOL     OW15062   5.484   1.617   3.139 -0.0914  0.5173 -0.2214
 4671SOL    HW115063   5.419   1.548   3.153  1.6305 -1.1869 -0.2342
 4671SOL    HW215064   5.446   1.671   3.069 -0.8276 -1.3546 -1.3480
 4672SOL     OW15065   7.789   0.547   8.260  0.9115  0.6495  0.5677
 4672SOL    HW115066   7.756   0.559   8.350  1.3038  0.0975  0.7878
 4672SOL    HW215067   7.848   0.621   8.247  0.3452  1.1002  0.5235
 4673SOL     OW15068   1.579   4.850   2.627  0.5792 -0.0322  0.0279
 4673SOL    HW115069   1.670   4.851   2.656  0.9382 -0.0516 -1.0555
 4673SOL    HW215070   1.540   4.777   2.675  0.8208  0.6632  1.3550
 4674SOL     OW15071   1.461   6.357   6.411 -0.5390  0.2612  0.2731
 4674SOL    HW115072   1.547   6.400   6.412 -0.3001 -0.2071  0.2738
 4674SOL    HW215073   1.441   6.347   6.318 -0.3527 -0.0988  0.2713
 4675SOL     OW15074   7.249   7.197   7.008  0.2526  0.1837 -0.0478
 4675SOL    HW115075   7.325   7.170   6.956  0.3695  0.7167 -0.1575
 4675SOL    HW215076   7.259   7.149   7.091  1.1947  0.9154  0.2778
 4676SOL     OW15077   6.899   6.728   6.024  0.0387  0.6507 -0.1101
 4676SOL    HW115078   6.907   6.668   6.098  3.4756  0.2107 -0.6842
 4676SOL    HW215079   6.827   6.693   5.972  0.7375 -1.8937  0.5241
 4677SOL     OW15080   7.648   5.706   1.645 -0.3208  0.0522 -0.3080
 4677SOL    HW115081   7.580   5.641   1.629 -1.9672  1.6128 -0.0635
 4677SOL    HW215082   7.624   5.746   1.728  1.6782 -0.2275  0.4537
 4678SOL     OW15083   5.780   0.665   8.166 -0.2908 -0.0971  0.1987
 4678SOL    HW115084   5.706   0.604   8.166 -0.1387 -0.3143 -1.1661
 4678SOL    HW215085   5.739   0.751   8.172 -0.8001 -0.1345 -1.8489
 4679SOL     OW15086   7.825   2.720   7.509  0.6728  0.4203 -0.5323
 4679SOL    HW115087   7.871   2.687   7.587  2.5233 -0.0636 -1.7536
 4679SOL    HW215088   7.807   2.642   7.458 -0.3740  0.7569 -0.7031
 4680SOL     OW15089   5.951   3.968   5.515 -0.4630  0.1797  0.0802
 4680SOL    HW115090   6.018   4.015   5.465  0.6547  0.1989  1.5330
 4680SOL    HW215091   5.911   3.909   5.452  0.5891  0.5261 -0.9448
 4681SOL     OW15092   1.078   2.328   1.712  0.0167  0.0877 -0.1823
 4681SOL    HW115093   1.133   2.379   1.653 -0.8138  0.9984 -0.2006
 4681SOL    HW215094   0.990   2.335   1.675 -0.2428 -0.7544  0.2324
 4682SOL     OW15095   2.512   7.217   0.331 -0.7289 -0.5875  0.2257
 4682SOL    HW115096   2.582   7.176   0.280 -0.6559  0.5361 -0.6289
 4682SOL    HW215097   2.459   7.144   0.363  0.6471 -1.4433  0.6349
 4683SOL     OW15098   5.091   6.444   4.032 -0.0618 -0.2522 -0.5910
 4683SOL    HW115099   5.005   6.401   4.031 -0.4133  0.3459  1.0881
 4683SOL    HW215100   5.098   6.484   3.945 -1.2824 -0.6643 -0.9065
 4684SOL     OW15101   7.857   5.984   7.441 -0.2671  0.0335 -0.0879
 4684SOL    HW115102   7.770   5.945   7.451 -0.2776 -0.4608 -1.7260
 4684SOL    HW215103   7.858   6.017   7.351  0.9800  0.7203  0.1490
 4685SOL     OW15104   3.697   7.487   1.660 -0.2901 -0.4588 -0.3419
 4685SOL    HW115105   3.713   7.550   1.730  1.5198 -0.8073 -0.3886
 4685SOL    HW215106   3.778   7.487   1.610 -0.1921 -2.9027 -0.2698
 4686SOL     OW15107   5.104   1.248   5.489  0.2546  0.1689  0.0422
 4686SOL    HW115108   5.093   1.185   5.559 -1.2451 -0.7285 -0.9459
 4686SOL    HW215109   5.149   1.199   5.419 -1.9762 -0.2435 -1.1920
 4687SOL     OW15110   0.614   4.557   0.286 -0.1976  0.3561 -0.1101
 4687SOL    HW115111   0.670   4.487   0.251 -0.4039 -0.8212  1.7841
 4687SOL    HW215112   0.671   4.608   0.343 -0.7247 -0.0206  0.7645
 4688SOL     OW15113   2.549   6.710   8.053  0.8059 -0.6218  0.1148
 4688SOL    HW115114   2.554   6.697   7.958  1.5625  1.4787 -0.1812
 4688SOL    HW215115   2.636   6.740   8.078  1.0786 -2.5722  1.7727
 4689SOL     OW15116   3.555   1.819   7.087 -0.8373 -0.0049  0.2071
 4689SOL    HW115117   3.580   1.902   7.048 -1.4037  0.9768  1.8032
 4689SOL    HW215118   3.588   1.824   7.177 -1.2621 -1.3253  0.4605
 4690SOL     OW15119   5.568   2.732   1.123  0.3242 -0.5247 -0.3228
 4690SOL    HW115120   5.608   2.788   1.189 -0.9732 -0.0155  0.0641
 4690SOL    HW215121   5.506   2.678   1.172 -0.2545 -0.5296 -1.0440
 4691SOL     OW15122   2.139   1.114   3.000 -0.0215  0.5506  0.3618
 4691SOL    HW115123   2.068   1.178   3.005 -2.1676 -1.5279 -0.8843
 4691SOL    HW215124   2.160   1.109   2.907  0.3865 -0.2307  0.4903
 4692SOL     OW15125   3.395   6.869   2.166  0.3744  0.5017  0.4553
 4692SOL    HW115126   3.467   6.845   2.109 -0.6676 -0.2531 -0.5875
 4692SOL    HW215127   3.432   6.934   2.226  2.4182 -1.2765  1.2254
 4693SOL     OW15128   5.529   2.485   1.846 -0.0785 -0.6148 -0.4978
 4693SOL    HW115129   5.586   2.546   1.799  0.9059 -0.9530  0.2282
 4693SOL    HW215130   5.575   2.466   1.927 -0.1046 -2.7401 -0.9207
 4694SOL     OW15131   4.759   2.028   4.607 -0.1260 -0.8292  0.1615
 4694SOL    HW115132   4.763   1.965   4.678  0.6559 -1.5911 -0.5310
 4694SOL    HW215133   4.846   2.025   4.567 -0.6114 -0.5895 -0.9615
 4695SOL     OW15134   7.293   1.041   3.874  0.0036 -0.0099 -0.4271
 4695SOL    HW115135   7.293   1.045   3.778  0.5294  1.0265 -0.4061
 4695SOL    HW215136   7.236   0.968   3.895 -1.6522  0.8927 -1.5006
 4696SOL     OW15137   5.929   6.486   7.535 -0.1150  0.5386 -0.1171
 4696SOL    HW115138   6.022   6.474   7.551 -0.0136  2.7444  1.4927
 4696SOL    HW215139   5.914   6.450   7.448  2.3424  0.5561 -0.6043
 4697SOL     OW15140   4.270   3.575   4.108  0.4641 -0.1858 -0.3724
 4697SOL    HW115141   4.231   3.520   4.177  3.5008 -3.2393 -0.7929
 4697SOL    HW215142   4.289   3.658   4.151 -2.0756 -0.2604  1.0559
 4698SOL     OW15143   0.767   1.054   2.959  0.1042 -0.5074  0.2006
 4698SOL    HW115144   0.755   1.061   2.865 -0.8097  1.4562  0.3973
 4698SOL    HW215145   0.822   1.129   2.982  0.9365 -1.3742  1.1486
 4699SOL     OW15146   2.245   6.532   3.823 -0.1317  0.5803 -0.2456
 4699SOL    HW115147   2.210   6.621   3.827 -1.1308  0.1850  0.1683
 4699SOL    HW215148   2.208   6.496   3.742  0.0763  0.4591 -0.2886
 4700SOL     OW15149   7.502   7.993   1.764  0.1276 -0.7349 -0.0852
 4700SOL    HW115150   7.587   7.969   1.727 -0.1631 -0.7871 -0.7295
 4700SOL    HW215151   7.512   7.978   1.858  0.7045 -1.1248 -0.2005
 4701SOL     OW15152   6.020   7.413   1.222 -0.1316 -0.3924 -0.3053
 4701SOL    HW115153   5.974   7.464   1.288  1.4430  0.9220 -0.1402
 4701SOL    HW215154   5.963   7.416   1.145 -0.7116  0.4390  0.1418
 4702SOL     OW15155   0.280   1.021   1.469 -0.0107 -0.3055 -0.1975
 4702SOL    HW115156   0.232   1.022   1.552 -0.0267 -0.1932 -0.2090
 4702SOL    HW215157   0.213   1.034   1.402 -0.2082 -1.8233 -0.3243
 4703SOL     OW15158   1.875   3.026   6.768 -0.1405  0.0582 -0.5454
 4703SOL    HW115159   1.919   3.106   6.798  0.6048 -0.4277 -0.2965
 4703SOL    HW215160   1.782   3.046   6.773  0.0443  1.2075 -1.3131
 4704SOL     OW15161   0.420   6.110   4.604  0.0364 -0.2554 -0.5451
 4704SOL    HW115162   0.382   6.024   4.588 -1.4407  0.3273 -0.3755
 4704SOL    HW215163   0.375   6.142   4.683 -0.2871  1.1129 -1.2427
 4705SOL     OW15164   2.305   4.685   2.490  0.2019  0.3984  0.0617
 4705SOL    HW115165   2.395   4.717   2.492  0.8953 -1.4221  1.6843
 4705SOL    HW215166   2.299   4.635   2.409  1.7579 -2.1360  1.3753
 4706SOL     OW15167   0.763   3.631   7.285  0.1947  0.4750  0.2793
 4706SOL    HW115168   0.712   3.712   7.290  1.3055  1.1727  0.9349
 4706SOL    HW215169   0.829   3.641   7.354 -0.8566 -1.8860  1.7749
 4707SOL     OW15170   4.550   3.418   3.707 -0.2165 -0.2012 -0.4792
 4707SOL    HW115171   4.458   3.438   3.694 -0.1493  0.5667  0.1241
 4707SOL    HW215172   4.587   3.413   3.619 -1.4348 -3.8248 -0.9705
 4708SOL     OW15173   5.286   7.676   3.779 -0.4634  0.1567 -0.6720
 4708SOL    HW115174   5.210   7.732   3.797  0.8261  1.0561  2.8439
 4708SOL    HW215175   5.327   7.714   3.701 -1.8391  1.6137 -0.7236
 4709SOL     OW15176   2.765   5.066   1.632 -0.0481 -0.2833 -0.4699
 4709SOL    HW115177   2.709   5.095   1.704  0.9355 -1.8670  1.0001
 4709SOL    HW215178   2.728   4.982   1.606  2.1506 -1.9097  1.2717
 4710SOL     OW15179   2.891   6.364   5.286  0.0836  0.3999 -0.1701
 4710SOL    HW115180   2.837   6.359   5.365  0.2472  0.2827 -0.0673
 4710SOL    HW215181   2.967   6.310   5.305  0.2837  0.6422 -0.2828
 4711SOL     OW15182   2.813   1.688   0.421 -0.0034  0.1616  0.4428
 4711SOL    HW115183   2.773   1.730   0.497 -0.0025 -0.4832  0.7978
 4711SOL    HW215184   2.826   1.597   0.447 -3.7382 -1.2108 -1.6760
 4712SOL     OW15185   3.984   4.274   5.564 -0.5316 -0.3955  0.0856
 4712SOL    HW115186   4.026   4.264   5.479 -1.1433  0.5939 -0.3480
 4712SOL    HW215187   3.954   4.186   5.586 -1.8457 -0.4031 -1.5131
 4713SOL     OW15188   3.576   1.732   1.269 -0.1759 -0.0604  0.3431
 4713SOL    HW115189   3.591   1.755   1.361  1.3614  0.9392 -0.1118
 4713SOL    HW215190   3.640   1.662   1.252  0.0559  0.2677 -0.1426
 4714SOL     OW15191   2.565   0.956   0.482 -0.4418 -0.3361  0.2724
 4714SOL    HW115192   2.563   1.007   0.563 -0.3318 -1.2516  0.8735
 4714SOL    HW215193   2.489   0.899   0.488 -0.0756 -0.8608  0.0324
 4715SOL     OW15194   0.455   7.889   1.198 -0.2947  0.0482  0.6085
 4715SOL    HW115195   0.426   7.976   1.171 -2.2768 -0.7257  0.1364
 4715SOL    HW215196   0.386   7.857   1.255  0.7172 -0.9840  1.2945
 4716SOL     OW15197   3.045   8.257   4.673  0.0869 -0.4444 -0.1562
 4716SOL    HW115198   3.024   8.350   4.675 -0.3559 -0.5448  1.8041
 4716SOL    HW215199   3.140   8.254   4.662  0.3027  0.3149  1.2337
 4717SOL     OW15200   6.516   4.767   7.445 -0.4251 -0.3759 -0.0359
 4717SOL    HW115201   6.509   4.722   7.529 -0.0308  1.4175  1.0199
 4717SOL    HW215202   6.566   4.707   7.390 -1.6632 -2.0924  0.6064
 4718SOL     OW15203   7.113   1.227   3.067  0.7118 -0.4867 -0.1399
 4718SOL    HW115204   7.151   1.139   3.071  0.9386 -0.3767  0.2552
 4718SOL    HW215205   7.028   1.215   3.024 -0.4084 -1.3127  2.1204
 4719SOL     OW15206   0.781   1.350   4.054  0.1920  0.1957 -0.8238
 4719SOL    HW115207   0.845   1.280   4.071  0.1268  0.5547  1.0767
 4719SOL    HW215208   0.834   1.428   4.037  0.4148  0.9154  2.4665
 4720SOL     OW15209   4.007   6.301   6.854  0.3037 -0.1706 -0.9092
 4720SOL    HW115210   4.094   6.261   6.847  0.5262  0.0539  0.3553
 4720SOL    HW215211   4.001   6.359   6.778  0.6364 -1.3425 -1.8476
 4721SOL     OW15212   1.875   2.195   1.581 -0.5755 -0.0903  0.0067
 4721SOL    HW115213   1.827   2.115   1.604 -2.1603  0.2737 -1.7481
 4721SOL    HW215214   1.833   2.263   1.633  0.2603 -0.2484  0.9182
 4722SOL     OW15215   7.060   4.781   0.070  0.4342 -0.0391  0.3689
 4722SOL    HW115216   7.097   4.754   0.154 -1.5408 -2.2091  0.6422
 4722SOL    HW215217   7.084   4.711   0.010 -0.9136 -0.1561 -0.0627
 4723SOL     OW15218   2.512   2.052   3.998 -0.4808  0.2711 -0.1257
 4723SOL    HW115219   2.468   2.009   3.925  2.9067 -0.4114 -1.9634
 4723SOL    HW215220   2.520   2.144   3.972 -0.8320  0.4106  0.2393
 4724SOL     OW15221   0.482   1.528   2.249  0.0740 -0.0081  0.3221
 4724SOL    HW115222   0.540   1.477   2.193 -0.6474  2.3033 -2.8561
 4724SOL    HW215223   0.394   1.505   2.218 -0.3757  0.9446  0.8533
 4725SOL     OW15224   7.438   0.042   0.492  0.3230  0.5317  0.1850
 4725SOL    HW115225   7.425  -0.033   0.434  1.2996  0.4505  0.0498
 4725SOL    HW215226   7.520   0.081   0.462  0.8284  0.5023  1.4991
 4726SOL     OW15227   1.780   6.568   3.078  0.1223 -0.1237 -0.4561
 4726SOL    HW115228   1.745   6.624   3.147 -0.8032 -0.2355 -0.8112
 4726SOL    HW215229   1.702   6.530   3.036  0.6565 -0.0633 -1.5452
 4727SOL     OW15230   0.711   0.540   7.901 -0.2531  0.3240  0.0381
 4727SOL    HW115231   0.635   0.554   7.844 -0.6913 -0.1319  0.5050
 4727SOL    HW215232   0.676   0.547   7.990 -0.0719 -1.4855  0.2744
 4728SOL     OW15233   0.358   0.472   7.715  0.1015 -0.1598  0.4032
 4728SOL    HW115234   0.283   0.519   7.750 -0.6507  2.2875 -3.7746
 4728SOL    HW215235   0.429   0.536   7.716  1.1695 -1.3117  1.0696
 4729SOL     OW15236   6.516   6.871   7.218 -0.0502 -0.1648  0.1220
 4729SOL    HW115237   6.460   6.884   7.295 -0.0463 -1.0489  0.2859
 4729SOL    HW215238   6.558   6.786   7.233  0.5021 -0.0158 -0.5217
 4730SOL     OW15239   6.911   4.658   4.268  0.0675  0.0562 -0.3775
 4730SOL    HW115240   6.992   4.671   4.317 -0.6405  0.0566  0.8454
 4730SOL    HW215241   6.886   4.746   4.240  0.6535  0.0162 -1.0677
 4731SOL     OW15242   4.221   7.899   4.167  0.5912  0.3653  0.0355
 4731SOL    HW115243   4.128   7.908   4.188  0.5283  1.5864 -0.7296
 4731SOL    HW215244   4.248   7.821   4.216 -0.9325 -0.2879 -0.0963
 4732SOL     OW15245   6.554   6.806   7.881 -0.5350  0.7690  0.0896
 4732SOL    HW115246   6.545   6.794   7.786 -0.5091 -0.3089  0.2193
 4732SOL    HW215247   6.623   6.872   7.890  0.0822  0.2404 -0.6287
 4733SOL     OW15248   8.187   2.727   3.924  0.7655 -0.0541  0.4475
 4733SOL    HW115249   8.236   2.693   3.849  0.1931 -0.0177  0.0576
 4733SOL    HW215250   8.102   2.753   3.889  0.5083  0.0147  1.0976
 4734SOL     OW15251   2.011   4.929   3.137 -0.0009 -0.0716 -0.2631
 4734SOL    HW115252   2.042   4.882   3.060 -0.2537  1.0696 -1.0791
 4734SOL    HW215253   2.015   5.021   3.113  0.6733  0.3589  1.3782
 4735SOL     OW15254   7.789   4.938   1.954 -0.5382 -0.5213  0.1163
 4735SOL    HW115255   7.718   4.947   1.890 -0.6979  0.0817  0.3633
 4735SOL    HW215256   7.752   4.883   2.023  0.2316 -2.6774 -1.1222
 4736SOL     OW15257   1.240   2.948   5.027 -0.5180 -0.0184  0.0689
 4736SOL    HW115258   1.205   2.861   5.046 -0.0510  0.2651  2.5300
 4736SOL    HW215259   1.171   3.009   5.054  0.4346  0.4324  1.6306
 4737SOL     OW15260   2.933   2.102   1.683  0.4165 -0.2678  0.0090
 4737SOL    HW115261   3.029   2.100   1.682  0.4383  0.5276 -0.2421
 4737SOL    HW215262   2.911   2.186   1.644 -0.4081 -0.9642 -1.0852
 4738SOL     OW15263   3.773   7.891   7.637 -0.3509 -0.5120  0.3009
 4738SOL    HW115264   3.828   7.963   7.668 -2.2105  1.5062 -0.7365
 4738SOL    HW215265   3.704   7.884   7.703 -0.6528 -0.7543 -0.0392
 4739SOL     OW15266   6.644   6.970   1.917 -0.0514 -0.6037 -0.0480
 4739SOL    HW115267   6.589   7.032   1.870  0.8442  1.2034  1.1515
 4739SOL    HW215268   6.624   6.885   1.878  1.4175  0.8150 -4.4676
 4740SOL     OW15269   2.690   0.572   4.430  0.2316  0.1882  0.3951
 4740SOL    HW115270   2.684   0.563   4.525 -0.9849  1.0952  0.4223
 4740SOL    HW215271   2.615   0.627   4.406  0.4247 -0.1615 -1.1080
 4741SOL     OW15272   5.162   1.774   4.654 -0.0564  0.4409 -0.2920
 4741SOL    HW115273   5.195   1.708   4.715  0.2228 -0.6346 -1.5815
 4741SOL    HW215274   5.231   1.840   4.650  0.5895 -0.2512 -0.6179
 4742SOL     OW15275   2.324   4.936   0.741 -0.8968  0.0926 -0.2043
 4742SOL    HW115276   2.366   5.017   0.772 -1.7519  0.1310  0.9295
 4742SOL    HW215277   2.299   4.890   0.821 -1.2525 -0.8675 -0.8469
 4743SOL     OW15278   6.204   3.271   6.843 -0.3520  0.0338 -0.3922
 4743SOL    HW115279   6.246   3.222   6.773  1.7351 -0.1008  0.8875
 4743SOL    HW215280   6.131   3.215   6.870  0.6562 -1.3614 -0.4429
 4744SOL     OW15281   1.613   4.296   6.171  0.0965  0.6408  0.2686
 4744SOL    HW115282   1.538   4.295   6.112  0.2382 -1.6773  0.0292
 4744SOL    HW215283   1.684   4.255   6.121  0.5938 -0.1663  1.5913
 4745SOL     OW15284   7.957   5.689   7.346  0.2104 -0.6943  0.0402
 4745SOL    HW115285   8.026   5.744   7.308  0.0063 -0.0209  0.6127
 4745SOL    HW215286   7.937   5.732   7.429 -2.1420  0.1440 -0.8831
 4746SOL     OW15287   2.387   0.240   0.291 -0.0751 -0.2866 -0.2347
 4746SOL    HW115288   2.380   0.332   0.315  2.4898 -0.0178 -0.2701
 4746SOL    HW215289   2.392   0.241   0.195  0.7316 -0.3757 -0.1987
 4747SOL     OW15290   2.280   0.581   5.308  0.1568 -0.2686  0.2333
 4747SOL    HW115291   2.350   0.520   5.330  1.2528  0.3868 -1.2930
 4747SOL    HW215292   2.294   0.603   5.216 -1.7634  0.2823  0.0163
 4748SOL     OW15293   5.842   5.021   1.449 -0.0989 -0.8049  0.2737
 4748SOL    HW115294   5.867   4.933   1.422 -0.1138 -0.9638  0.7532
 4748SOL    HW215295   5.821   5.067   1.368  1.6789 -0.6727 -0.1536
 4749SOL     OW15296   1.845   6.546   1.347  0.2909  0.0234  0.2472
 4749SOL    HW115297   1.862   6.590   1.264 -1.3803 -0.8361 -0.5871
 4749SOL    HW215298   1.809   6.461   1.323  1.8034 -1.1654  1.8479
 4750SOL     OW15299   6.925   6.734   7.664 -0.0669  0.3078  0.6184
 4750SOL    HW115300   6.834   6.726   7.636 -0.5751  1.7453  1.7079
 4750SOL    HW215301   6.959   6.808   7.615  0.2452  0.3244  0.8541
 4751SOL     OW15302   7.883   0.234   3.930 -0.5147 -0.1241  0.1675
 4751SOL    HW115303   7.863   0.216   4.021 -0.2052  0.3494  0.3328
 4751SOL    HW215304   7.968   0.193   3.915 -0.8658 -0.7800 -0.1013
 4752SOL     OW15305   5.725   3.652   2.001 -0.0213  0.6333  0.6810
 4752SOL    HW115306   5.805   3.684   2.043 -0.5809  0.7553  1.6813
 4752SOL    HW215307   5.700   3.721   1.940 -0.2544  1.3424  1.5568
 4753SOL     OW15308   0.870   5.294   6.727  0.2371  0.0524  0.7341
 4753SOL    HW115309   0.943   5.236   6.747  0.6802  0.2715 -0.1629
 4753SOL    HW215310   0.912   5.376   6.701 -0.2653 -0.1605 -0.8821
 4754SOL     OW15311   0.547   3.214   3.960 -0.3491 -0.0986 -0.4323
 4754SOL    HW115312   0.554   3.119   3.953  1.1679  0.0905 -1.9583
 4754SOL    HW215313   0.637   3.246   3.955 -0.9015  1.4674 -1.0677
 4755SOL     OW15314   3.868   2.307   8.154  0.3358 -0.4941 -0.4224
 4755SOL    HW115315   3.844   2.288   8.063 -2.3649  0.4910  0.0020
 4755SOL    HW215316   3.828   2.236   8.205 -1.5334  1.0190  0.2980
 4756SOL     OW15317   2.814   2.593   8.024 -0.6506 -0.0708  0.0552
 4756SOL    HW115318   2.823   2.518   8.083  0.3747 -0.6512 -0.7896
 4756SOL    HW215319   2.777   2.663   8.078 -0.9170 -0.9594  1.0473
 4757SOL     OW15320   0.448   6.500   4.918  0.0267  0.4238 -0.4644
 4757SOL    HW115321   0.447   6.585   4.875  0.5356  1.1961  0.9850
 4757SOL    HW215322   0.502   6.445   4.862  2.9304  2.1357  0.4437
 4758SOL     OW15323   8.145   1.685   5.713 -0.3741 -0.2700  0.3104
 4758SOL    HW115324   8.100   1.658   5.633  0.6877 -1.5418  0.1046
 4758SOL    HW215325   8.230   1.641   5.709  0.8995  1.9848  0.7083
 4759SOL     OW15326   7.607   0.123   7.065 -0.0567  0.2302 -0.2606
 4759SOL    HW115327   7.625   0.037   7.102  1.4487  0.0914 -1.2437
 4759SOL    HW215328   7.526   0.151   7.108 -0.0966 -1.2838  0.7198
 4760SOL     OW15329   0.703   6.429   7.546 -0.2041 -0.9775 -0.5693
 4760SOL    HW115330   0.745   6.359   7.497  0.8594 -1.0150  0.3466
 4760SOL    HW215331   0.760   6.442   7.622  0.0890  1.4458 -1.1345
 4761SOL     OW15332   7.339   6.516   1.795 -0.1618 -0.4354  0.5658
 4761SOL    HW115333   7.293   6.446   1.842  1.1900 -0.4958  1.8728
 4761SOL    HW215334   7.408   6.544   1.856 -0.9700  2.3934  0.3111
 4762SOL     OW15335   3.530   3.326   4.443  0.6398 -0.0441  0.3426
 4762SOL    HW115336   3.456   3.265   4.441 -0.1001  0.8279  0.5629
 4762SOL    HW215337   3.530   3.360   4.533  1.5328 -0.2928  0.4492
 4763SOL     OW15338   8.075   7.866   2.357 -0.1279 -0.3145  0.1963
 4763SOL    HW115339   8.042   7.890   2.444  2.9976 -1.0027  1.7247
 4763SOL    HW215340   8.146   7.928   2.341  0.1229 -0.9685 -1.3624
 4764SOL     OW15341   0.224   6.426   5.883 -0.7432 -0.0190 -0.0873
 4764SOL    HW115342   0.188   6.430   5.795  0.7262  1.3763 -0.6649
 4764SOL    HW215343   0.318   6.411   5.870 -0.3242  1.2838  1.1910
 4765SOL     OW15344   3.706   0.370   1.059  0.2700 -0.2365 -0.0297
 4765SOL    HW115345   3.788   0.419   1.062  0.3673 -0.2429 -1.4559
 4765SOL    HW215346   3.657   0.398   1.136  2.0255 -1.0081  1.4352
 4766SOL     OW15347   7.020   0.608   4.054 -0.4054  0.2562  0.5943
 4766SOL    HW115348   7.031   0.671   4.125  0.0157 -0.4306  1.1532
 4766SOL    HW215349   7.068   0.530   4.083 -0.6789 -0.2251 -0.2038
 4767SOL     OW15350   8.142   5.418   1.072  0.6754  0.5905  0.2421
 4767SOL    HW115351   8.217   5.396   1.017  0.3377  1.4507 -0.5882
 4767SOL    HW215352   8.075   5.354   1.048  1.1667 -0.2717  1.0899
 4768SOL     OW15353   4.461   0.471   4.755  0.5447  0.4242  0.1847
 4768SOL    HW115354   4.382   0.428   4.787  1.2238 -0.4914  0.7002
 4768SOL    HW215355   4.471   0.548   4.810  0.2133  0.3475  0.3528
 4769SOL     OW15356   4.121   4.161   4.221  0.5503 -0.1505  0.1898
 4769SOL    HW115357   4.178   4.127   4.152  3.0066 -1.3998  2.6694
 4769SOL    HW215358   4.181   4.200   4.284 -1.4710 -0.3479  2.3387
 4770SOL     OW15359   3.959   5.198   0.466 -0.2731  0.0504  0.8426
 4770SOL    HW115360   3.904   5.217   0.390 -0.3198  1.7069  1.2357
 4770SOL    HW215361   4.046   5.180   0.430  0.3318  3.2344  0.4071
 4771SOL     OW15362   5.435   3.096   6.369 -0.2128  0.4299 -0.0315
 4771SOL    HW115363   5.374   3.030   6.335 -1.7129  2.2203 -0.9985
 4771SOL    HW215364   5.391   3.131   6.447 -1.1891  2.6713 -1.4734
 4772SOL     OW15365   2.768   5.811   2.140  0.2252 -0.4519  0.0179
 4772SOL    HW115366   2.690   5.792   2.192 -0.7254  1.8204 -0.4536
 4772SOL    HW215367   2.839   5.816   2.203 -0.1454 -1.7189  0.5594
 4773SOL     OW15368   3.985   5.500   7.346 -0.4277  0.1283 -0.8557
 4773SOL    HW115369   4.024   5.423   7.303  0.3625  0.0066  0.0502
 4773SOL    HW215370   4.057   5.539   7.395 -1.0286  0.9741 -0.6292
 4774SOL     OW15371   0.675   2.326   2.630  0.0590 -0.3732  0.2257
 4774SOL    HW115372   0.599   2.356   2.580  0.8532  3.3991  0.9265
 4774SOL    HW215373   0.749   2.371   2.590  1.2644 -0.4119  2.2619
 4775SOL     OW15374   2.264   0.800   6.102 -0.2109 -0.0082 -0.1329
 4775SOL    HW115375   2.252   0.764   6.190  0.5655 -1.7489 -0.6916
 4775SOL    HW215376   2.358   0.816   6.095 -0.3162  0.4845 -0.5211
 4776SOL     OW15377   1.230   7.386   5.873 -0.4229  0.7707 -0.2345
 4776SOL    HW115378   1.192   7.310   5.916  1.9562  0.2079  0.9933
 4776SOL    HW215379   1.183   7.461   5.911 -0.1430  0.1276  1.4574
 4777SOL     OW15380   0.863   6.209   5.432  0.5827 -0.6898  0.4966
 4777SOL    HW115381   0.797   6.141   5.448  0.4952 -0.5645  0.6717
 4777SOL    HW215382   0.867   6.259   5.513  0.2907 -0.1775  0.2023
 4778SOL     OW15383   4.150   1.992   4.467 -0.5727 -0.1307 -0.2281
 4778SOL    HW115384   4.167   2.013   4.375  0.2158 -1.2623 -0.3658
 4778SOL    HW215385   4.079   1.928   4.464 -0.6200 -0.0870 -0.0427
 4779SOL     OW15386   5.122   0.841   0.414  0.1446  0.4261 -0.1395
 4779SOL    HW115387   5.073   0.923   0.425  0.6205  0.3668  3.3187
 4779SOL    HW215388   5.054   0.773   0.413 -0.1166  0.6784 -0.9894
 4780SOL     OW15389   3.420   1.947   7.795  0.5775  0.1792  0.1060
 4780SOL    HW115390   3.329   1.922   7.805  0.3672 -0.2087 -2.1527
 4780SOL    HW215391   3.417   2.041   7.775  0.6327  0.0780 -0.3866
 4781SOL     OW15392   0.090   6.632   4.859 -0.1611  0.2412  0.0994
 4781SOL    HW115393   0.148   6.581   4.803  0.2960 -0.7216  1.3919
 4781SOL    HW215394   0.148   6.674   4.923 -0.6936  1.0374  0.0764
 4782SOL     OW15395   6.676   0.005   1.046 -0.0124  0.0126 -0.3485
 4782SOL    HW115396   6.698   0.088   1.087 -0.6939  0.0953 -0.1331
 4782SOL    HW215397   6.741  -0.006   0.977  0.3894  0.4767 -0.0468
 4783SOL     OW15398   3.968   5.874   5.402  0.1251  0.2439  0.1365
 4783SOL    HW115399   4.017   5.917   5.332 -2.4631  0.9528 -1.3630
 4783SOL    HW215400   3.943   5.946   5.460  1.0888 -0.1683  1.1070
 4784SOL     OW15401   3.679   7.591   2.590 -0.0421  0.4610 -0.3438
 4784SOL    HW115402   3.632   7.673   2.609 -1.0592 -0.3689  0.8918
 4784SOL    HW215403   3.626   7.548   2.523 -0.5622 -0.0735  0.4117
 4785SOL     OW15404   2.240   2.962   1.267 -0.0132 -0.0385 -0.2379
 4785SOL    HW115405   2.335   2.954   1.276  0.2049  0.6953 -1.6724
 4785SOL    HW215406   2.219   2.915   1.186 -0.5596  1.6347 -1.1054
 4786SOL     OW15407   5.438   1.220   5.572 -0.6148 -0.3208  0.1919
 4786SOL    HW115408   5.452   1.129   5.596 -0.2856 -0.6907 -1.3141
 4786SOL    HW215409   5.425   1.218   5.477 -0.8499  1.1708  0.1698
 4787SOL     OW15410   2.854   3.284   7.246 -0.1394  0.7874 -0.3951
 4787SOL    HW115411   2.841   3.216   7.312  1.7159  0.6092 -0.1582
 4787SOL    HW215412   2.823   3.244   7.164  1.4309 -0.5907 -0.3633
 4788SOL     OW15413   0.292   6.303   3.484 -0.4585 -0.2824 -0.2264
 4788SOL    HW115414   0.219   6.246   3.456 -2.1427  1.1089  1.1089
 4788SOL    HW215415   0.362   6.283   3.423 -1.3500 -2.9743 -0.5050
 4789SOL     OW15416   6.227   2.601   6.499 -0.0782 -0.0008  0.5305
 4789SOL    HW115417   6.266   2.586   6.413  2.4774 -2.2543  1.9395
 4789SOL    HW215418   6.204   2.514   6.531  3.0115  0.1595  3.7754
 4790SOL     OW15419   6.246   1.653   4.382  0.7789 -0.4257 -0.2131
 4790SOL    HW115420   6.168   1.700   4.353  1.4748  0.3563 -0.8463
 4790SOL    HW215421   6.218   1.606   4.461 -0.8989 -1.8584 -1.5907
 4791SOL     OW15422   4.435   5.905   6.460  0.1198 -0.4992 -0.1763
 4791SOL    HW115423   4.483   5.902   6.377 -0.5627 -0.1969 -0.5925
 4791SOL    HW215424   4.343   5.899   6.435 -0.0785 -0.8550  0.5928
 4792SOL     OW15425   0.968   3.797   3.944 -0.5119 -0.5255  0.0214
 4792SOL    HW115426   0.986   3.847   4.024 -2.0414 -1.0304  0.7146
 4792SOL    HW215427   1.040   3.819   3.886  0.9613 -0.5830  1.7347
 4793SOL     OW15428   5.285   2.946   5.848  0.8878 -0.9220 -0.3980
 4793SOL    HW115429   5.247   3.014   5.903 -0.6329 -0.0578 -2.3736
 4793SOL    HW215430   5.366   2.985   5.814  0.1073 -0.1218 -1.3916
 4794SOL     OW15431   4.748   1.417   3.694  0.0555 -0.0357 -0.1039
 4794SOL    HW115432   4.680   1.468   3.739  1.1222  0.1024  1.4365
 4794SOL    HW215433   4.720   1.326   3.704 -0.0715  0.0407  0.2536
 4795SOL     OW15434   2.716   5.175   7.841 -0.3183 -0.1618  0.3303
 4795SOL    HW115435   2.794   5.230   7.841  0.1729 -0.8284  0.7474
 4795SOL    HW215436   2.719   5.129   7.757 -0.6810  0.3785  0.0204
 4796SOL     OW15437   3.309   1.014   7.604 -0.7358  0.1686  0.4421
 4796SOL    HW115438   3.303   0.951   7.676 -3.3358  1.1005  1.1374
 4796SOL    HW215439   3.280   0.966   7.527  0.3899 -0.3394  0.3110
 4797SOL     OW15440   7.673   1.234   4.419 -0.2256 -0.0758 -0.0455
 4797SOL    HW115441   7.583   1.257   4.395 -0.2822 -0.1264  0.1129
 4797SOL    HW215442   7.718   1.317   4.430 -0.2604 -0.0500 -0.0977
 4798SOL     OW15443   1.162   2.646   1.830  0.4883  0.3858 -0.4524
 4798SOL    HW115444   1.129   2.727   1.868  0.4609  0.3343 -0.3651
 4798SOL    HW215445   1.165   2.585   1.904 -0.4094  0.0226 -0.7026
 4799SOL     OW15446   7.498   0.697   8.215 -0.2675  0.8878 -1.1129
 4799SOL    HW115447   7.465   0.721   8.302  1.6039 -0.9301  0.1833
 4799SOL    HW215448   7.589   0.727   8.215 -0.5427  1.8840 -2.9343
 4800SOL     OW15449   1.973   8.176   5.341  1.1071  0.1802 -0.1094
 4800SOL    HW115450   2.003   8.266   5.357  2.3189 -0.1200 -0.5736
 4800SOL    HW215451   1.911   8.159   5.412  2.6725  0.5537  1.4199
 4801SOL     OW15452   4.208   5.497   2.865 -0.4715 -0.1545  0.1581
 4801SOL    HW115453   4.293   5.538   2.880 -0.7680 -0.2528  2.6990
 4801SOL    HW215454   4.147   5.571   2.859 -0.3843 -0.1136 -0.2205
 4802SOL     OW15455   5.453   4.490   7.131 -0.5687  0.6388  0.5692
 4802SOL    HW115456   5.541   4.463   7.103 -0.8285 -0.2193  0.5566
 4802SOL    HW215457   5.421   4.544   7.058 -0.2790  0.4590  0.3050
 4803SOL     OW15458   6.791   7.258   2.700  0.5569 -0.0266 -0.3800
 4803SOL    HW115459   6.732   7.184   2.712  1.9285 -0.8933  1.6325
 4803SOL    HW215460   6.733   7.334   2.699 -0.6735 -0.8743  1.1437
 4804SOL     OW15461   4.426   0.468   0.439 -0.2122  0.4286 -0.0777
 4804SOL    HW115462   4.352   0.474   0.378  0.2141  5.5481 -0.5928
 4804SOL    HW215463   4.402   0.527   0.511  2.1339 -0.1014  1.2548
 4805SOL     OW15464   2.488   5.320   3.561  0.0719 -0.1396 -0.4986
 4805SOL    HW115465   2.429   5.248   3.540  0.5414 -0.8528  0.5292
 4805SOL    HW215466   2.454   5.395   3.513 -2.4089 -0.1932  1.0234
 4806SOL     OW15467   2.476   2.618   2.318  0.0238  0.3786 -0.1659
 4806SOL    HW115468   2.424   2.657   2.388 -1.2819  1.1471 -1.4860
 4806SOL    HW215469   2.497   2.530   2.349 -2.0410  0.0569  0.4830
 4807SOL     OW15470   3.093   3.380   2.831 -0.5700  0.2846  0.6015
 4807SOL    HW115471   3.116   3.413   2.918 -2.4886 -0.4447  1.4408
 4807SOL    HW215472   3.024   3.316   2.847  0.0888 -0.9932 -1.3524
 4808SOL     OW15473   3.658   1.435   6.126  0.6755  0.1963  0.0302
 4808SOL    HW115474   3.739   1.384   6.119 -0.2430 -1.2256 -0.7386
 4808SOL    HW215475   3.647   1.451   6.220  0.0146 -2.7794  0.5906
 4809SOL     OW15476   6.807   0.323   3.646  0.1379 -0.1704 -0.2258
 4809SOL    HW115477   6.743   0.284   3.587  0.4612 -1.2148  0.0917
 4809SOL    HW215478   6.755   0.356   3.719 -0.0636 -0.8786 -0.0392
 4810SOL     OW15479   2.668   1.811   1.976  0.7197 -0.3076  0.5094
 4810SOL    HW115480   2.651   1.904   1.991  0.7507 -0.0809 -0.7493
 4810SOL    HW215481   2.761   1.807   1.955  0.8012 -0.6837  0.9208
 4811SOL     OW15482   3.075   5.865   8.143 -0.0677 -0.7500  0.1260
 4811SOL    HW115483   3.111   5.792   8.193 -0.4895  0.3334  2.1591
 4811SOL    HW215484   3.039   5.924   8.210 -2.1422  0.0498 -1.5666
 4812SOL     OW15485   7.241   7.010   1.979  0.2810 -0.2415 -0.4106
 4812SOL    HW115486   7.299   6.945   2.018 -0.8908 -1.6365 -0.9106
 4812SOL    HW215487   7.207   7.059   2.054  1.9510  0.5197 -0.0954
 4813SOL     OW15488   4.726   2.973   1.691  0.0531  0.3129  0.1196
 4813SOL    HW115489   4.657   2.923   1.648 -1.0770  0.0533  2.1030
 4813SOL    HW215490   4.806   2.923   1.675 -0.6069 -0.6683 -0.1867
 4814SOL     OW15491   0.969   1.814   0.774  0.0250 -0.2635  0.2427
 4814SOL    HW115492   0.999   1.774   0.856  0.1742 -0.8281 -0.0817
 4814SOL    HW215493   1.033   1.785   0.709 -0.8937 -1.0290 -0.3515
 4815SOL     OW15494   4.505   7.874   6.219  0.4100 -0.0716  0.3882
 4815SOL    HW115495   4.435   7.885   6.284  0.7602  1.4224  0.5473
 4815SOL    HW215496   4.533   7.963   6.199  0.1571 -0.4776 -2.0064
 4816SOL     OW15497   6.528   2.096   1.003 -0.3274  0.0626  0.4401
 4816SOL    HW115498   6.520   2.184   1.042 -0.3793 -0.1435  0.9043
 4816SOL    HW215499   6.605   2.102   0.947  0.7432 -0.1003  1.8590
 4817SOL     OW15500   3.553   2.091   4.142  0.0760  0.6441 -0.4754
 4817SOL    HW115501   3.512   2.014   4.104  0.2947 -0.2051  0.9217
 4817SOL    HW215502   3.524   2.091   4.234 -0.7634  2.8211 -0.6693
 4818SOL     OW15503   0.232   1.208   8.078 -0.0761  0.2299 -0.1043
 4818SOL    HW115504   0.213   1.242   7.991  2.1105 -0.1775 -0.8210
 4818SOL    HW215505   0.202   1.117   8.076  0.8139 -0.0703 -0.8134
 4819SOL     OW15506   1.819   6.490   0.404  0.0073  0.1820 -0.0791
 4819SOL    HW115507   1.909   6.513   0.427 -0.3542  0.8142  0.7480
 4819SOL    HW215508   1.806   6.530   0.318  0.2107  0.9176  0.2225
 4820SOL     OW15509   7.736   3.481   2.656  0.4590  0.3858 -0.3389
 4820SOL    HW115510   7.711   3.456   2.568  1.9184 -0.2586 -0.5979
 4820SOL    HW215511   7.698   3.414   2.712  0.1182  0.4109 -0.5376
 4821SOL     OW15512   3.571   6.841   6.507 -0.4440 -0.0846 -0.0310
 4821SOL    HW115513   3.658   6.875   6.487 -1.2596  1.0664 -1.8921
 4821SOL    HW215514   3.523   6.916   6.542 -0.8318 -0.5901  0.5343
 4822SOL     OW15515   1.788   7.059   0.324 -0.8112  0.4527  0.2211
 4822SOL    HW115516   1.734   7.084   0.249  1.7024  1.8081 -1.2688
 4822SOL    HW215517   1.782   6.963   0.326 -0.2682  0.2708 -2.3401
 4823SOL     OW15518   5.553   7.585   4.912 -0.3429  0.3289  0.6271
 4823SOL    HW115519   5.598   7.618   4.834 -0.1118  0.8415  0.9767
 4823SOL    HW215520   5.479   7.645   4.924  0.8146  1.5329  2.0209
 4824SOL     OW15521   1.643   5.869   7.125  0.0298 -0.2979  0.3616
 4824SOL    HW115522   1.708   5.824   7.180 -1.6737 -2.2409  0.9030
 4824SOL    HW215523   1.654   5.831   7.038  0.6914  0.5689  0.0578
 4825SOL     OW15524   5.330   2.257   5.772  0.3693 -0.2213  0.3124
 4825SOL    HW115525   5.358   2.340   5.811 -1.3228  0.2025  0.7163
 4825SOL    HW215526   5.404   2.229   5.718  1.4675  0.8833  1.1994
 4826SOL     OW15527   6.072   6.554   6.696 -0.0389 -0.4019 -0.7413
 4826SOL    HW115528   6.117   6.627   6.654 -0.0598 -0.8112 -1.4972
 4826SOL    HW215529   6.081   6.571   6.789 -1.1449  1.2382 -0.8860
 4827SOL     OW15530   5.109   1.745   6.420 -0.0495 -0.7825 -0.0744
 4827SOL    HW115531   5.118   1.658   6.459  0.7547 -1.0919 -0.9265
 4827SOL    HW215532   5.113   1.806   6.494 -1.1996 -1.4785  0.5967
 4828SOL     OW15533   7.140   7.648   4.364  0.2388 -0.3242  0.0260
 4828SOL    HW115534   7.146   7.554   4.352  0.2942 -0.2940 -0.1820
 4828SOL    HW215535   7.084   7.659   4.441  1.4281 -0.5558  0.9441
 4829SOL     OW15536   2.494   7.151   1.838 -0.1457 -0.5700  0.4351
 4829SOL    HW115537   2.451   7.131   1.921 -2.9469 -1.1335 -1.0549
 4829SOL    HW215538   2.480   7.245   1.826  0.4899 -0.4348  0.6775
 4830SOL     OW15539   2.308   4.216   3.913  0.2974 -0.4956 -0.6087
 4830SOL    HW115540   2.257   4.254   3.842 -0.0804 -0.1503 -0.1563
 4830SOL    HW215541   2.243   4.190   3.978  0.6959  0.0009 -0.0054
 4831SOL     OW15542   5.612   0.175   4.565 -0.3821  0.1392 -0.2260
 4831SOL    HW115543   5.676   0.244   4.547  0.9069 -1.0597 -0.4270
 4831SOL    HW215544   5.584   0.191   4.655  1.1290  0.0115  0.2955
 4832SOL     OW15545   5.006   1.206   1.193  0.4032 -0.3808  0.0065
 4832SOL    HW115546   5.021   1.294   1.226 -1.3453 -0.1605  0.3407
 4832SOL    HW215547   4.919   1.182   1.227  0.8770 -2.2797  0.0278
 4833SOL     OW15548   0.042   0.244   2.242  0.3137 -0.8872  0.1671
 4833SOL    HW115549   0.046   0.319   2.302  0.6113 -1.1537  0.4787
 4833SOL    HW215550   0.070   0.280   2.158 -3.1841  0.3027 -0.6554
 4834SOL     OW15551   4.635   0.269   1.228  0.2287  0.3180 -0.9235
 4834SOL    HW115552   4.699   0.199   1.238 -0.7240 -0.5646 -0.8750
 4834SOL    HW215553   4.552   0.231   1.258 -0.3439  1.4058 -1.0647
 4835SOL     OW15554   2.790   6.838   1.652 -0.0114 -0.2168  0.1345
 4835SOL    HW115555   2.758   6.912   1.600  0.3725  1.9293  2.7804
 4835SOL    HW215556   2.846   6.790   1.591 -0.3974  1.5569 -1.7464
 4836SOL     OW15557   6.380   2.238   7.289 -0.1353  0.4344 -0.1894
 4836SOL    HW115558   6.425   2.250   7.373 -2.6950 -2.3446  1.7686
 4836SOL    HW215559   6.405   2.150   7.260 -0.6203  0.6958 -1.5003
 4837SOL     OW15560   3.668   2.656   8.138  0.3276 -0.1328  0.3141
 4837SOL    HW115561   3.639   2.736   8.094  0.2332 -0.3511 -0.0225
 4837SOL    HW215562   3.763   2.666   8.147  0.1324  0.7365  1.7169
 4838SOL     OW15563   1.460   8.054   6.376  0.4487  0.0625 -0.0688
 4838SOL    HW115564   1.412   8.087   6.300  0.5120 -0.1895 -0.2210
 4838SOL    HW215565   1.471   7.960   6.358 -1.1053 -0.3727  1.0735
 4839SOL     OW15566   6.877   3.318   5.513 -0.3811  0.1146 -0.0560
 4839SOL    HW115567   6.930   3.240   5.498  1.0772  0.4885  2.5933
 4839SOL    HW215568   6.800   3.286   5.560 -1.4335 -0.0988 -1.8313
 4840SOL     OW15569   4.802   1.208   6.464 -0.2667  0.5224  0.0435
 4840SOL    HW115570   4.765   1.252   6.541 -0.5096  1.9516 -0.8502
 4840SOL    HW215571   4.726   1.180   6.413 -0.1057  0.1422  0.0065
 4841SOL     OW15572   2.009   7.954   1.506  0.3734 -0.7397 -0.2006
 4841SOL    HW115573   1.915   7.939   1.520  0.5340 -2.1736 -0.5461
 4841SOL    HW215574   2.013   8.014   1.432 -0.2716 -0.6059 -0.1329
 4842SOL     OW15575   1.554   3.089   7.356 -0.5265  0.3009  0.2748
 4842SOL    HW115576   1.566   3.174   7.313 -2.3092  0.5882  0.2442
 4842SOL    HW215577   1.575   3.105   7.448 -0.3710  0.6526  0.1778
 4843SOL     OW15578   2.906   5.964   6.345  0.3697 -0.3912 -0.3876
 4843SOL    HW115579   2.962   5.900   6.302  0.2471 -1.0964  0.4647
 4843SOL    HW215580   2.943   5.973   6.433 -0.2878 -0.1587 -0.1267
 4844SOL     OW15581   7.044   0.287   1.648 -0.0568  0.0257  0.2959
 4844SOL    HW115582   7.137   0.266   1.634  0.0090  0.6622 -0.2991
 4844SOL    HW215583   7.005   0.281   1.561 -0.5504 -0.1233  0.5266
 4845SOL     OW15584   4.924   1.334   5.305 -0.0445 -0.1918  0.1431
 4845SOL    HW115585   4.864   1.371   5.370  0.3216 -1.9835  1.5616
 4845SOL    HW215586   5.010   1.337   5.348  0.3589 -0.5555 -0.6317
 4846SOL     OW15587   4.287   2.510   5.761  0.1302  0.4845 -0.1363
 4846SOL    HW115588   4.262   2.600   5.742  0.6602  0.7313  0.3067
 4846SOL    HW215589   4.204   2.463   5.769 -0.1455  0.9160 -0.4496
 4847SOL     OW15590   0.057   1.407   3.580 -0.0993  0.2625 -0.0491
 4847SOL    HW115591   0.037   1.333   3.637 -2.0061  0.0665 -0.8872
 4847SOL    HW215592  -0.015   1.468   3.593  1.0065  1.6240 -0.0131
 4848SOL     OW15593   6.609   5.797   3.384  0.4972  0.3915 -0.6327
 4848SOL    HW115594   6.566   5.882   3.373 -0.4769 -0.2377 -1.8764
 4848SOL    HW215595   6.690   5.804   3.335  0.6560  0.7578 -0.3248
 4849SOL     OW15596   8.252   5.400   4.806  0.1979  0.1696  0.0991
 4849SOL    HW115597   8.171   5.440   4.836 -0.1799 -1.2746  1.1081
 4849SOL    HW215598   8.301   5.382   4.887  0.1752 -1.7219 -0.2697
 4850SOL     OW15599   3.246   1.808   4.309  0.4119 -0.1749  0.1493
 4850SOL    HW115600   3.210   1.854   4.385 -2.3696  0.0910 -1.2162
 4850SOL    HW215601   3.336   1.839   4.303 -0.4137  2.7138  1.1164
 4851SOL     OW15602   3.197   3.868   6.788  0.0061 -0.2015  0.6124
 4851SOL    HW115603   3.168   3.884   6.878  0.6579  0.2257  0.7547
 4851SOL    HW215604   3.206   3.773   6.782  0.4859 -0.1978  1.1684
 4852SOL     OW15605   6.541   0.994   7.197  0.5086  0.4694  0.5494
 4852SOL    HW115606   6.572   0.979   7.287 -0.3461  1.7322  1.0924
 4852SOL    HW215607   6.533   1.090   7.191  0.9513  0.4317 -1.0184
 4853SOL     OW15608   1.863   3.064   1.096  0.5737  0.2116  0.7370
 4853SOL    HW115609   1.798   2.997   1.114  0.2053  0.6413  1.0097
 4853SOL    HW215610   1.923   3.023   1.034  0.1917 -0.2709  0.6845
 4854SOL     OW15611   6.796   3.943   1.172  0.0463  0.6555  0.2967
 4854SOL    HW115612   6.755   3.963   1.088  0.0601  0.9751  0.3655
 4854SOL    HW215613   6.886   3.921   1.150 -0.1540 -0.0439  0.1441
 4855SOL     OW15614   6.939   3.968   2.806  0.0231  0.1376 -0.5608
 4855SOL    HW115615   6.980   3.896   2.759  0.6699 -0.0063  0.1950
 4855SOL    HW215616   6.904   3.928   2.886  1.5843  0.8443  0.5451
 4856SOL     OW15617   5.597   8.260   6.258  0.4598 -0.1594  0.3913
 4856SOL    HW115618   5.617   8.347   6.294 -0.8450  0.5791 -0.6158
 4856SOL    HW215619   5.631   8.262   6.169 -0.8361 -0.1588 -0.1221
 4857SOL     OW15620   3.261   3.462   3.028  0.4275  0.2054 -0.4023
 4857SOL    HW115621   3.203   3.533   3.056  1.6597 -0.1958  3.9936
 4857SOL    HW215622   3.344   3.506   3.009  2.1556  0.1962  5.2134
 4858SOL     OW15623   1.169   0.542   2.749 -1.1552  0.6137 -0.0637
 4858SOL    HW115624   1.082   0.564   2.783 -1.1668  0.7792 -0.1952
 4858SOL    HW215625   1.197   0.622   2.705 -0.7869  0.6789  0.2817
 4859SOL     OW15626   4.829   2.798   0.522  0.2915  0.2970 -0.0995
 4859SOL    HW115627   4.833   2.725   0.461 -1.1359 -0.2952  0.4742
 4859SOL    HW215628   4.900   2.856   0.495  0.3521 -0.4527 -1.6459
 4860SOL     OW15629   5.262   0.706   7.885  0.2006 -0.5518  0.0713
 4860SOL    HW115630   5.278   0.680   7.794  0.7443  0.0672 -0.0233
 4860SOL    HW215631   5.294   0.633   7.938  4.1971  0.8245 -0.0634
 4861SOL     OW15632   2.104   2.737   6.073 -0.0655 -0.1477 -0.2259
 4861SOL    HW115633   2.074   2.785   5.996  1.8692 -0.4629 -1.2282
 4861SOL    HW215634   2.105   2.802   6.144 -1.6206  0.2017 -0.4869
 4862SOL     OW15635   5.461   7.849   1.343 -0.4877 -0.2814  0.1144
 4862SOL    HW115636   5.399   7.908   1.387  0.8418  0.4035  1.1471
 4862SOL    HW215637   5.428   7.761   1.362 -0.8651  0.0552  1.0863
 4863SOL     OW15638   5.228   4.222   0.397  0.3066  0.2572 -0.3479
 4863SOL    HW115639   5.250   4.162   0.468 -0.2405  1.8154  1.2016
 4863SOL    HW215640   5.135   4.241   0.409 -0.2652 -0.7262 -2.5439
 4864SOL     OW15641   7.740   0.678   3.192  0.3448  0.3866 -0.7295
 4864SOL    HW115642   7.672   0.738   3.222 -1.3542 -1.3263 -0.9621
 4864SOL    HW215643   7.781   0.645   3.272  2.5204  3.0188 -0.5896
 4865SOL     OW15644   6.068   5.471   1.137 -0.0001  0.7038  0.1775
 4865SOL    HW115645   6.134   5.426   1.189  1.2614  1.7792 -0.4421
 4865SOL    HW215646   6.028   5.401   1.084  2.0813  0.2769 -0.9376
 4866SOL     OW15647   4.747   6.824   0.206 -0.6011  0.1679  0.2747
 4866SOL    HW115648   4.670   6.876   0.185 -1.9342 -1.1156  1.6799
 4866SOL    HW215649   4.760   6.838   0.300  0.4246 -0.2124  0.1955
 4867SOL     OW15650   2.009   2.410   6.735  0.1122 -0.3018  0.9405
 4867SOL    HW115651   2.007   2.337   6.796  0.5895 -1.7464 -0.7026
 4867SOL    HW215652   1.918   2.437   6.726 -0.2926 -1.8601  0.2243
 4868SOL     OW15653   2.651   2.521   6.144  0.0409  0.3639 -0.4343
 4868SOL    HW115654   2.581   2.534   6.080  0.4389 -0.0594 -0.9678
 4868SOL    HW215655   2.606   2.514   6.228 -0.6591 -1.0280 -0.9040
 4869SOL     OW15656   5.096   7.208   6.990  0.3795 -0.0928 -0.0083
 4869SOL    HW115657   5.190   7.227   6.984  0.2860 -0.0331 -2.4398
 4869SOL    HW215658   5.087   7.119   6.956 -0.4365 -0.1596  0.3545
 4870SOL     OW15659   5.035   3.575   7.759 -0.6398 -0.2666 -0.2940
 4870SOL    HW115660   5.097   3.642   7.787 -0.6221 -0.8963  1.2831
 4870SOL    HW215661   4.951   3.604   7.793 -1.3723  0.8577 -2.8844
 4871SOL     OW15662   2.942   0.612   0.246 -0.0104  0.5905 -0.1350
 4871SOL    HW115663   2.904   0.662   0.318 -0.2424  0.4199 -0.1387
 4871SOL    HW215664   2.989   0.540   0.288  1.9435  1.8565 -0.0120
 4872SOL     OW15665   1.986   5.900   6.410 -0.3912 -0.2861  0.6002
 4872SOL    HW115666   1.938   5.933   6.486 -1.2411  1.7155 -0.6991
 4872SOL    HW215667   1.920   5.856   6.357 -0.0625 -0.5932  0.4433
 4873SOL     OW15668   0.749   1.338   5.814 -0.0946  0.2067 -0.0672
 4873SOL    HW115669   0.660   1.336   5.849 -0.6334  0.5633 -1.3813
 4873SOL    HW215670   0.762   1.250   5.777 -1.2715  1.1689 -3.0750
 4874SOL     OW15671   7.500   6.524   4.827  0.1494 -0.1263  0.4138
 4874SOL    HW115672   7.449   6.562   4.898 -0.7328 -0.4759 -0.0251
 4874SOL    HW215673   7.509   6.432   4.851 -1.8874 -0.7252 -0.8703
 4875SOL     OW15674   3.994   0.161   0.177  0.3721  0.4288  0.5698
 4875SOL    HW115675   3.902   0.140   0.193  0.2452 -0.8417 -1.5026
 4875SOL    HW215676   4.040   0.125   0.254 -0.6917 -0.3780  0.8500
 4876SOL     OW15677   1.796   2.054   6.181 -0.0022 -0.0646 -0.1937
 4876SOL    HW115678   1.772   2.105   6.104 -0.4259 -0.9137 -0.6361
 4876SOL    HW215679   1.871   2.002   6.154 -1.7879 -2.4312 -0.9706
 4877SOL     OW15680   4.664   3.346   0.633  0.0009 -0.8932 -0.5766
 4877SOL    HW115681   4.670   3.387   0.547 -0.7574 -1.7451 -1.0534
 4877SOL    HW215682   4.616   3.265   0.618 -0.2299 -1.0121  0.6717
 4878SOL     OW15683   0.322   3.720   8.120 -0.4771 -0.3646 -0.3618
 4878SOL    HW115684   0.300   3.804   8.160  2.2708  0.8207 -1.1519
 4878SOL    HW215685   0.335   3.661   8.194  1.2218  0.9098  0.3997
 4879SOL     OW15686   7.371   6.955   2.674  0.4715  0.0069 -0.0523
 4879SOL    HW115687   7.458   6.985   2.702  0.9242 -0.8307 -0.5423
 4879SOL    HW215688   7.380   6.937   2.581  0.2247 -1.6490  0.2154
 4880SOL     OW15689   7.886   4.549   2.618  0.2635  0.0450  0.0863
 4880SOL    HW115690   7.955   4.615   2.625 -0.3021  1.1067 -3.0041
 4880SOL    HW215691   7.853   4.558   2.529 -1.4342 -2.8819  0.2944
 4881SOL     OW15692   5.439   3.960   2.187  0.2038  0.4348 -0.1633
 4881SOL    HW115693   5.487   3.878   2.184  1.8049  1.3722 -1.6475
 4881SOL    HW215694   5.348   3.936   2.169  0.1804 -1.2736  1.8974
 4882SOL     OW15695   2.981   6.230   2.963 -0.2822 -0.0384  0.6936
 4882SOL    HW115696   2.951   6.165   3.027 -0.8783 -0.1265  0.3354
 4882SOL    HW215697   2.904   6.285   2.948 -0.4510 -0.6051 -0.6655
 4883SOL     OW15698   3.743   4.356   2.274 -0.2339 -0.3016 -1.2528
 4883SOL    HW115699   3.826   4.309   2.285  0.2272  0.7674  0.2227
 4883SOL    HW215700   3.728   4.355   2.179  0.5581 -1.9948 -1.4048
 4884SOL     OW15701   2.072   6.508   8.208 -0.4314  0.4099 -0.1870
 4884SOL    HW115702   2.139   6.461   8.257  0.3012  1.1071 -0.4958
 4884SOL    HW215703   1.999   6.447   8.202  0.4172 -0.6070 -0.4149
 4885SOL     OW15704   5.878   2.422   4.698 -0.1671  0.1725 -0.3060
 4885SOL    HW115705   5.895   2.361   4.626 -3.2040  1.0832 -1.9400
 4885SOL    HW215706   5.857   2.365   4.772 -2.5240 -0.8960 -1.6881
 4886SOL     OW15707   2.279   5.694   5.360 -0.6090 -0.7097  0.8490
 4886SOL    HW115708   2.203   5.636   5.366 -0.8365 -0.6149 -0.7466
 4886SOL    HW215709   2.350   5.638   5.330 -0.5255 -0.4085  0.4798
 4887SOL     OW15710   0.917   1.030   1.848  0.4449 -0.2579 -0.1205
 4887SOL    HW115711   0.995   0.986   1.880  0.9195  1.6366  1.5649
 4887SOL    HW215712   0.884   1.078   1.924 -1.7539 -0.1568 -1.0708
 4888SOL     OW15713   3.210   4.955   7.896 -0.2947  0.0213  0.1560
 4888SOL    HW115714   3.248   4.952   7.808  1.1322 -0.9619  0.7700
 4888SOL    HW215715   3.280   4.923   7.953 -1.3759  0.1423  1.5915
 4889SOL     OW15716   5.246   5.103   8.108 -0.5188  0.2969  0.1254
 4889SOL    HW115717   5.188   5.152   8.049  1.3011 -0.2948 -2.3439
 4889SOL    HW215718   5.235   5.012   8.080  2.3776  0.2800 -1.3029
 4890SOL     OW15719   5.732   2.099   6.336  0.1168 -0.3520  0.3972
 4890SOL    HW115720   5.806   2.066   6.285 -1.9913 -0.8959 -2.6000
 4890SOL    HW215721   5.738   2.194   6.327  1.5127 -0.2586  1.9095
 4891SOL     OW15722   5.315   4.754   3.103 -0.3550 -0.2367 -0.0801
 4891SOL    HW115723   5.405   4.785   3.113 -1.1854  2.3992 -0.0071
 4891SOL    HW215724   5.324   4.660   3.085  2.2489 -0.6237  2.5041
 4892SOL     OW15725   4.376   2.839   1.231 -0.0181  0.4249  0.4169
 4892SOL    HW115726   4.309   2.867   1.168 -1.5124 -2.2186  0.7126
 4892SOL    HW215727   4.420   2.765   1.188 -0.0266 -0.4418  1.8362
 4893SOL     OW15728   2.736   0.888   6.471 -0.2598  0.1341  0.5710
 4893SOL    HW115729   2.789   0.920   6.544  0.3535 -0.5441  0.4420
 4893SOL    HW215730   2.782   0.919   6.393 -0.0730 -0.3999  0.4589
 4894SOL     OW15731   5.189   0.201   3.414 -0.0915  0.3382  0.3081
 4894SOL    HW115732   5.105   0.192   3.369 -1.6541  2.2941  2.5478
 4894SOL    HW215733   5.179   0.147   3.493  0.4966  1.0398  0.8735
 4895SOL     OW15734   6.492   2.431   0.339 -0.2773  0.0245 -0.0652
 4895SOL    HW115735   6.415   2.430   0.396  0.3671  0.7043  0.8557
 4895SOL    HW215736   6.548   2.362   0.374  0.8662  1.5436  1.2487
 4896SOL     OW15737   7.328   7.992   3.772 -0.2113  0.4119  0.3998
 4896SOL    HW115738   7.294   7.924   3.832  0.5902 -0.3605 -0.0064
 4896SOL    HW215739   7.287   8.073   3.803  0.2523  0.0529  2.0692
 4897SOL     OW15740   1.888   0.543   7.215 -0.0624 -0.4081 -0.1731
 4897SOL    HW115741   1.807   0.516   7.171 -0.3647 -0.2759  0.3021
 4897SOL    HW215742   1.859   0.587   7.295  0.4367  0.8405 -0.6520
 4898SOL     OW15743   2.394   7.753   1.347  0.6329  0.1477  0.4191
 4898SOL    HW115744   2.454   7.823   1.372 -0.4288  1.4763 -0.5689
 4898SOL    HW215745   2.427   7.721   1.263  0.5470  0.1772  0.3732
 4899SOL     OW15746   6.126   3.583   0.489 -0.0845  0.2799  0.7463
 4899SOL    HW115747   6.072   3.517   0.444  1.1415  0.9160 -1.8270
 4899SOL    HW215748   6.106   3.665   0.444  1.7446  0.8394  0.8910
 4900SOL     OW15749   5.654   3.411   7.572  0.0375  0.5735  0.1662
 4900SOL    HW115750   5.566   3.374   7.583  0.9624 -2.3286 -1.1478
 4900SOL    HW215751   5.676   3.447   7.658 -2.6128  1.9803  0.3656
 4901SOL     OW15752   6.232   6.378   4.989  0.1084  0.6546  0.0330
 4901SOL    HW115753   6.226   6.333   5.073 -2.0285  0.3491 -0.2471
 4901SOL    HW215754   6.198   6.315   4.925  1.4191  0.9936 -1.0516
 4902SOL     OW15755   4.261   4.543   6.649 -0.5183  0.0880  0.3624
 4902SOL    HW115756   4.222   4.623   6.615 -1.3971 -0.2395  0.5679
 4902SOL    HW215757   4.191   4.501   6.699  0.1968 -0.3524  1.0325
 4903SOL     OW15758   3.888   0.142   2.704  0.1120  0.3318  0.2204
 4903SOL    HW115759   3.857   0.092   2.779  0.6677 -0.5306 -0.1073
 4903SOL    HW215760   3.972   0.180   2.733  0.7462 -0.6921 -0.2208
 4904SOL     OW15761   1.770   1.212   0.276 -0.1172  0.3712  0.4650
 4904SOL    HW115762   1.854   1.255   0.291  0.2069 -1.2177  4.2329
 4904SOL    HW215763   1.792   1.120   0.261 -1.0870  0.4881 -2.3497
 4905SOL     OW15764   3.951   1.890   3.062  0.2410 -0.3443 -0.1392
 4905SOL    HW115765   3.961   1.798   3.037 -1.4435 -0.2565 -1.3197
 4905SOL    HW215766   3.863   1.896   3.099 -0.6073  1.1813 -2.2247
 4906SOL     OW15767   5.506   1.927   5.043 -0.2060  0.2011 -0.5054
 4906SOL    HW115768   5.510   2.009   4.993 -0.2288 -0.0221 -0.8791
 4906SOL    HW215769   5.416   1.898   5.035 -0.0051 -0.2911 -1.0876
 4907SOL     OW15770   5.286   0.579   1.436 -0.0232  0.0827  0.3237
 4907SOL    HW115771   5.335   0.585   1.355 -1.9477 -0.0931 -0.9317
 4907SOL    HW215772   5.304   0.491   1.470 -0.8684 -0.6702 -1.0914
 4908SOL     OW15773   4.476   6.956   3.280 -0.1650  0.3682  0.1224
 4908SOL    HW115774   4.511   7.044   3.290 -1.9574  1.1340  0.0952
 4908SOL    HW215775   4.502   6.930   3.192 -2.2582  2.2237 -1.1758
 4909SOL     OW15776   5.719   3.107   2.854 -0.3053  0.0588  0.2372
 4909SOL    HW115777   5.815   3.103   2.848 -0.3312  0.9130 -1.5099
 4909SOL    HW215778   5.701   3.198   2.878 -0.6694 -0.0771  0.4666
 4910SOL     OW15779   7.089   1.177   5.539 -0.1565 -0.1009  0.1906
 4910SOL    HW115780   7.172   1.142   5.507  0.3652  0.7591  0.5542
 4910SOL    HW215781   7.047   1.214   5.461  1.0151  1.8039  0.3831
 4911SOL     OW15782   7.750   4.092   7.430  0.2404  0.0356 -0.0819
 4911SOL    HW115783   7.680   4.043   7.385  1.1675 -1.2261 -0.2049
 4911SOL    HW215784   7.709   4.175   7.455 -0.8951 -0.0915 -1.4077
 4912SOL     OW15785   2.814   1.399   6.925  0.0178  0.2291 -0.6563
 4912SOL    HW115786   2.796   1.321   6.976  0.3467  0.1515 -0.6588
 4912SOL    HW215787   2.895   1.379   6.877  1.2947  1.3390  0.9376
 4913SOL     OW15788   0.162   2.623   0.358 -0.4135 -0.4731  0.4033
 4913SOL    HW115789   0.219   2.629   0.281 -2.9336 -0.6251 -1.6357
 4913SOL    HW215790   0.080   2.665   0.330 -1.5765 -0.8827  2.9063
 4914SOL     OW15791   4.910   7.912   4.905  0.7794  0.1776 -0.5619
 4914SOL    HW115792   4.826   7.949   4.875 -0.0467 -1.1628  0.0148
 4914SOL    HW215793   4.922   7.834   4.850  0.2944 -1.1280  1.1116
 4915SOL     OW15794   5.350   0.592   3.505  0.0586  0.0781  0.0801
 4915SOL    HW115795   5.257   0.603   3.482  0.3945  0.7536 -1.0561
 4915SOL    HW215796   5.385   0.681   3.506  0.7738 -0.1990  0.1703
 4916SOL     OW15797   2.540   3.741   4.946 -0.0578 -0.0138 -0.1755
 4916SOL    HW115798   2.530   3.648   4.924  1.6757 -1.2091  3.2933
 4916SOL    HW215799   2.452   3.776   4.944 -1.1904 -2.5057  1.1248
 4917SOL     OW15800   4.837   0.227   5.104  0.0390 -0.0442  0.2185
 4917SOL    HW115801   4.771   0.276   5.153  0.3042  0.7318 -0.1712
 4917SOL    HW215802   4.797   0.209   5.019  0.2638  0.2934  0.0367
 4918SOL     OW15803   5.783   3.163   7.465  0.0164  0.5256 -1.2050
 4918SOL    HW115804   5.782   3.257   7.484  1.1858  0.3282 -0.0822
 4918SOL    HW215805   5.709   3.128   7.513  0.2485  0.7115 -0.7084
 4919SOL     OW15806   7.219   3.656   2.109 -1.1345  0.2542 -0.0603
 4919SOL    HW115807   7.308   3.636   2.078 -1.3693 -1.8985  0.4763
 4919SOL    HW215808   7.194   3.734   2.060  1.3440  1.4336  0.3773
 4920SOL     OW15809   4.053   2.725   0.131  0.1185  0.0947 -0.7239
 4920SOL    HW115810   4.106   2.725   0.211 -0.0771 -0.9388 -0.5754
 4920SOL    HW215811   4.030   2.817   0.117 -2.2918  0.0791  2.0870
 4921SOL     OW15812   1.612   2.939   6.502 -0.3907 -0.4242  0.3751
 4921SOL    HW115813   1.624   2.844   6.509 -0.6936 -0.4350  0.8013
 4921SOL    HW215814   1.592   2.967   6.591  1.8852  0.3712  0.7095
 4922SOL     OW15815   5.138   7.914   3.633  0.2108 -0.1284  0.2809
 4922SOL    HW115816   5.151   7.962   3.551  0.4481 -0.5739  0.0534
 4922SOL    HW215817   5.043   7.905   3.641 -0.1896  3.6985  2.2756
 4923SOL     OW15818   3.010   5.043   0.421  0.0391  0.1765  0.3889
 4923SOL    HW115819   3.059   5.025   0.501  0.8015 -0.9920 -0.3047
 4923SOL    HW215820   2.998   5.138   0.421  1.6346  0.4084  0.9751
 4924SOL     OW15821   6.339   0.579   5.366  0.2490 -0.1187  0.0340
 4924SOL    HW115822   6.351   0.634   5.288  2.1225  0.4981  0.6955
 4924SOL    HW215823   6.298   0.636   5.430  3.5397  1.1682  1.2366
 4925SOL     OW15824   3.988   2.231   3.506 -0.0269 -0.0924  0.3313
 4925SOL    HW115825   4.051   2.295   3.538  2.4801 -2.1038 -0.3333
 4925SOL    HW215826   3.933   2.280   3.445  0.1276  1.9573  1.7181
 4926SOL     OW15827   4.147   0.004   0.359 -0.3832  0.7948  0.2002
 4926SOL    HW115828   4.235  -0.035   0.362 -0.1209  1.2056 -1.2358
 4926SOL    HW215829   4.102  -0.031   0.436  0.9763  0.4283  0.8533
 4927SOL     OW15830   7.492   6.867   7.493 -0.4863  0.1465  0.4074
 4927SOL    HW115831   7.434   6.792   7.505  0.9353 -0.7308  2.4715
 4927SOL    HW215832   7.557   6.837   7.430  1.2212 -1.2328  2.6320
 4928SOL     OW15833   0.560   3.198   4.877  0.3500 -0.1055  0.0371
 4928SOL    HW115834   0.543   3.151   4.960 -3.4711  0.8487 -0.0308
 4928SOL    HW215835   0.543   3.132   4.809 -0.8597  0.2172  0.0045
 4929SOL     OW15836   7.966   2.525   0.379  0.0852 -0.0488 -0.4762
 4929SOL    HW115837   7.894   2.554   0.324 -1.8154 -1.1357  1.2913
 4929SOL    HW215838   7.975   2.432   0.360  1.7034  0.2335 -1.3222
 4930SOL     OW15839   1.980   3.329   0.686  0.4974 -0.1879  0.2953
 4930SOL    HW115840   2.073   3.306   0.689  0.0856 -2.0647 -0.3545
 4930SOL    HW215841   1.955   3.340   0.778  2.0933  3.9095  0.4638
 4931SOL     OW15842   2.734   3.639   0.241 -0.3765 -0.1289  0.3927
 4931SOL    HW115843   2.676   3.710   0.269  1.1089  3.1016 -3.7780
 4931SOL    HW215844   2.822   3.677   0.246  0.6842 -2.3550 -0.2735
 4932SOL     OW15845   2.797   0.757   6.982  0.0622 -0.3638  0.0018
 4932SOL    HW115846   2.881   0.711   6.977  0.1278 -0.3679  0.9433
 4932SOL    HW215847   2.740   0.710   6.920  0.6348 -0.6084 -0.3436
 4933SOL     OW15848   6.072   2.696   5.835  0.6833  0.3100  0.1659
 4933SOL    HW115849   6.162   2.665   5.845  0.6786 -0.0706 -0.9506
 4933SOL    HW215850   6.021   2.641   5.895  1.1406  0.3560  0.6088
 4934SOL     OW15851   0.742   3.888   7.545  0.2403 -0.0993  0.5562
 4934SOL    HW115852   0.823   3.839   7.557  0.0374 -0.5905 -0.0222
 4934SOL    HW215853   0.759   3.973   7.585  1.3877  0.1607 -0.4387
 4935SOL     OW15854   6.279   1.676   5.541  0.0761  0.0218  0.6239
 4935SOL    HW115855   6.198   1.717   5.511  0.5368  1.7656  1.6059
 4935SOL    HW215856   6.250   1.596   5.584 -0.8573 -0.8123 -1.4297
 4936SOL     OW15857   1.202   3.583   2.159  0.2363  0.0850 -0.3438
 4936SOL    HW115858   1.164   3.658   2.113  1.2635  0.5816 -0.4043
 4936SOL    HW215859   1.248   3.622   2.233  1.2140 -0.4464 -0.6643
 4937SOL     OW15860   0.530   3.331   7.932  0.4387  0.3482  0.2036
 4937SOL    HW115861   0.535   3.242   7.900 -0.8932  0.3617 -0.1088
 4937SOL    HW215862   0.476   3.377   7.868 -0.3075  0.9502  1.2168
 4938SOL     OW15863   5.344   6.072   1.231  0.0068  0.1911 -0.7205
 4938SOL    HW115864   5.411   6.007   1.210 -1.8626 -1.8785 -0.6534
 4938SOL    HW215865   5.380   6.121   1.304  1.2216 -1.2450 -0.2939
 4939SOL     OW15866   5.572   3.829   7.752  0.4075 -0.5406  0.1953
 4939SOL    HW115867   5.515   3.752   7.745  0.3898 -0.4055 -2.2103
 4939SOL    HW215868   5.583   3.843   7.846 -1.7647 -1.8665  0.7228
 4940SOL     OW15869   4.140   2.956   8.132 -0.1304  0.2260 -0.2194
 4940SOL    HW115870   4.089   3.030   8.163 -0.8149 -0.3143 -0.0355
 4940SOL    HW215871   4.135   2.892   8.203 -0.3141 -0.3600 -0.7547
 4941SOL     OW15872   1.267   2.891   0.839 -0.0131 -0.7113  0.3543
 4941SOL    HW115873   1.298   2.840   0.914 -0.0075  0.0205  0.8665
 4941SOL    HW215874   1.172   2.878   0.839 -0.0995 -0.1748  0.9214
 4942SOL     OW15875   3.176   5.572   3.367  0.5099 -0.3822 -0.1023
 4942SOL    HW115876   3.196   5.595   3.458  0.0302  0.1382 -0.1218
 4942SOL    HW215877   3.149   5.481   3.370 -1.6642  0.2267  0.6289
 4943SOL     OW15878   1.547   5.593   0.261 -0.2259  0.4843  0.3170
 4943SOL    HW115879   1.605   5.517   0.257 -3.1479 -2.0377  2.3311
 4943SOL    HW215880   1.486   5.581   0.188 -1.1372  0.4972  1.0679
 4944SOL     OW15881   2.609   5.264   2.229 -0.0328  0.4901 -0.3955
 4944SOL    HW115882   2.577   5.175   2.216  1.0708  0.2444 -1.7255
 4944SOL    HW215883   2.539   5.321   2.196 -0.4499  0.0861 -0.2021
 4945SOL     OW15884   3.378   1.786   6.679 -0.1162  0.4888  0.1996
 4945SOL    HW115885   3.297   1.833   6.660 -0.3600 -0.3240 -0.8084
 4945SOL    HW215886   3.448   1.847   6.654 -0.4308  0.2043 -1.4884
 4946SOL     OW15887   1.950   6.326   3.444  0.1178 -0.2939  0.6286
 4946SOL    HW115888   1.983   6.236   3.447 -0.2718 -0.4194  1.4723
 4946SOL    HW215889   1.917   6.342   3.533 -0.0258  0.6020  0.4193
 4947SOL     OW15890   3.093   8.197   7.250  0.7331  0.0342 -0.2309
 4947SOL    HW115891   3.169   8.179   7.195  0.4816  0.7421 -0.8355
 4947SOL    HW215892   3.032   8.242   7.191  0.0323 -0.1323  0.3640
 4948SOL     OW15893   3.521   4.194   1.563 -0.1932 -0.2767  0.6913
 4948SOL    HW115894   3.508   4.122   1.625 -0.4716  1.2215  2.4760
 4948SOL    HW215895   3.445   4.251   1.576 -0.2006  0.1499 -0.9744
 4949SOL     OW15896   2.470   0.614   5.076 -0.3339 -0.2938  0.1820
 4949SOL    HW115897   2.507   0.629   5.163 -0.6188  0.1029  0.2396
 4949SOL    HW215898   2.516   0.676   5.019  1.7479 -2.3153 -0.4934
 4950SOL     OW15899   4.704   7.398   5.565 -0.2920  0.2776  0.1977
 4950SOL    HW115900   4.697   7.323   5.506 -0.8327 -0.1451  0.7865
 4950SOL    HW215901   4.625   7.449   5.550 -0.0763  0.5596  0.0240
 4951SOL     OW15902   4.329   0.629   7.659  0.2697  0.2173  0.6640
 4951SOL    HW115903   4.305   0.544   7.621  1.0411  0.9296 -1.5457
 4951SOL    HW215904   4.259   0.648   7.721 -1.0256 -1.0619 -0.3340
 4952SOL     OW15905   4.264   6.581   1.063  0.4964  0.0532 -0.2393
 4952SOL    HW115906   4.323   6.519   1.105  0.5401  0.8079  0.8479
 4952SOL    HW215907   4.256   6.653   1.125  0.7963  1.3479 -1.6557
 4953SOL     OW15908   0.058   7.398   2.017  0.3567  0.2420  0.3573
 4953SOL    HW115909   0.134   7.451   2.040  0.2509 -0.4477  2.4992
 4953SOL    HW215910   0.093   7.309   2.006  0.1201  0.2404 -0.3958
 4954SOL     OW15911   1.434   1.594   6.242  0.1166  0.3297  0.7433
 4954SOL    HW115912   1.410   1.506   6.273  1.8867 -0.8490 -1.0363
 4954SOL    HW215913   1.351   1.642   6.240 -1.1198 -1.7194  0.4674
 4955SOL     OW15914   7.112   3.195   5.393 -0.1788  0.4000  0.2698
 4955SOL    HW115915   7.171   3.183   5.467 -0.6026 -0.9430  0.4223
 4955SOL    HW215916   7.168   3.225   5.322  0.6854 -0.7031  0.4505
 4956SOL     OW15917   4.425   5.745   0.827 -0.0834  0.0506 -0.8574
 4956SOL    HW115918   4.425   5.662   0.780  0.0661  0.8009 -2.2247
 4956SOL    HW215919   4.334   5.758   0.854  0.3285 -1.8711  1.8530
 4957SOL     OW15920   5.426   4.893   0.060  0.6592 -0.1637  0.6459
 4957SOL    HW115921   5.415   4.828   0.130 -1.1018  0.1843  0.7561
 4957SOL    HW215922   5.503   4.943   0.086  0.9623 -1.0322  1.5166
 4958SOL     OW15923   3.699   0.184   5.157 -0.3186  0.4156  0.0143
 4958SOL    HW115924   3.772   0.134   5.195  0.2142  1.7666  0.8468
 4958SOL    HW215925   3.622   0.130   5.173  0.6404 -1.9245 -2.4616
 4959SOL     OW15926   5.979   2.045   5.565 -0.0674 -0.3250  0.0651
 4959SOL    HW115927   5.977   2.061   5.471  0.1764  0.4586  0.1896
 4959SOL    HW215928   6.065   2.005   5.581 -0.2348 -0.7540 -0.0837
 4960SOL     OW15929   2.629   3.270   6.671 -0.2462  0.1142 -0.2281
 4960SOL    HW115930   2.721   3.285   6.691 -0.3702 -0.9008  1.3541
 4960SOL    HW215931   2.629   3.220   6.590  0.5549  0.7151 -0.6054
 4961SOL     OW15932   6.111   1.032   6.167 -0.2363 -0.2186  0.1962
 4961SOL    HW115933   6.040   1.080   6.123 -1.4028 -1.3036  0.8283
 4961SOL    HW215934   6.082   0.941   6.168  1.1752 -0.6921  0.4875
 4962SOL     OW15935   0.622   4.657   4.848 -0.0047  0.0343 -0.1693
 4962SOL    HW115936   0.595   4.615   4.766 -0.4293 -0.9007  0.4318
 4962SOL    HW215937   0.623   4.586   4.912 -0.7617  0.9354  0.8823
 4963SOL     OW15938   6.722   8.083   0.113 -0.1053 -0.4388  0.1936
 4963SOL    HW115939   6.791   8.146   0.130 -1.5984  1.4115 -0.2677
 4963SOL    HW215940   6.764   8.014   0.062  1.4774  0.3845  0.3323
 4964SOL     OW15941   2.503   5.808   1.195  0.0584 -0.3661 -0.8369
 4964SOL    HW115942   2.420   5.782   1.236  0.1514 -1.7343 -1.4529
 4964SOL    HW215943   2.485   5.893   1.156 -0.4566  0.2916  0.7662
 4965SOL     OW15944   5.692   7.520   7.192 -0.1225  0.3255  0.0054
 4965SOL    HW115945   5.638   7.460   7.140  0.3685 -0.5450  0.4615
 4965SOL    HW215946   5.724   7.466   7.264 -0.0324  1.2731  0.6877
 4966SOL     OW15947   1.112   1.691   2.329  0.1255  0.2336  0.3133
 4966SOL    HW115948   1.062   1.772   2.342  0.2122  0.1155  1.4390
 4966SOL    HW215949   1.054   1.621   2.359  0.6085  0.0136  0.7482
 4967SOL     OW15950   2.355   4.045   7.655  0.0753 -0.0712  0.2155
 4967SOL    HW115951   2.287   4.110   7.636 -0.7864  0.1351  3.4734
 4967SOL    HW215952   2.335   3.972   7.597 -1.7368  0.7622 -0.2873
 4968SOL     OW15953   5.393   5.798   5.161  0.0115 -0.2059 -0.4642
 4968SOL    HW115954   5.483   5.823   5.143  0.7916 -1.4077  1.5095
 4968SOL    HW215955   5.349   5.880   5.181  0.8291  0.3081 -0.7321
 4969SOL     OW15956   2.240   7.885   6.591 -0.6709 -0.1489 -0.1192
 4969SOL    HW115957   2.325   7.852   6.561 -1.4950 -3.1087  0.4247
 4969SOL    HW215958   2.241   7.871   6.686 -1.7324 -0.2417 -0.1034
 4970SOL     OW15959   1.159   8.167   4.092 -0.0363  0.5365  0.0711
 4970SOL    HW115960   1.103   8.090   4.088  0.1976  0.4011 -0.6314
 4970SOL    HW215961   1.233   8.146   4.035  0.3093  1.0582  0.3170
 4971SOL     OW15962   5.541   6.227   7.080 -0.2481  0.1171  0.0349
 4971SOL    HW115963   5.631   6.206   7.105 -0.3939 -0.0949  0.3840
 4971SOL    HW215964   5.540   6.323   7.072 -0.3169  0.2462  1.3499
 4972SOL     OW15965   1.759   2.427   0.265 -0.4449 -0.4316  0.5875
 4972SOL    HW115966   1.839   2.389   0.229  0.3550  1.8074 -0.1317
 4972SOL    HW215967   1.721   2.356   0.317  0.4683 -2.4839 -1.3682
 4973SOL     OW15968   3.868   6.409   6.123  0.4337 -0.4404  0.2819
 4973SOL    HW115969   3.958   6.399   6.154  0.2653 -2.3249  0.2928
 4973SOL    HW215970   3.871   6.386   6.030  0.3943  2.1866 -0.4564
 4974SOL     OW15971   3.914   6.877   3.768  0.0860 -0.2550 -0.1781
 4974SOL    HW115972   3.889   6.944   3.832  0.1110  0.7624 -1.2103
 4974SOL    HW215973   4.009   6.884   3.761  0.0232  0.0614 -0.7734
 4975SOL     OW15974   2.540   1.778   6.574  0.3876  0.8596  0.4020
 4975SOL    HW115975   2.462   1.773   6.630 -1.0933 -1.2047 -1.6416
 4975SOL    HW215976   2.607   1.729   6.622 -0.0210  1.3206  1.4825
 4976SOL     OW15977   3.427   0.529   8.031 -0.3630  0.1542 -0.4193
 4976SOL    HW115978   3.403   0.602   8.088  0.5427  0.8938 -0.9473
 4976SOL    HW215979   3.345   0.506   7.985 -0.7071  0.6813 -0.0782
 4977SOL     OW15980   0.247   4.619   0.252 -0.0493 -0.1977  0.1225
 4977SOL    HW115981   0.177   4.645   0.312 -1.4039  0.0847 -1.5082
 4977SOL    HW215982   0.317   4.682   0.268 -0.5141  0.0852  1.1379
 4978SOL     OW15983   0.256   1.125   2.866 -0.0968 -0.2699  0.1848
 4978SOL    HW115984   0.281   1.177   2.942 -0.5330 -0.3759  0.4008
 4978SOL    HW215985   0.323   1.056   2.860  1.0282  0.8417 -0.6521
 4979SOL     OW15986   4.998   8.067   7.770 -0.1272 -0.4802  0.3332
 4979SOL    HW115987   5.041   7.999   7.718 -1.1667 -0.2499 -0.8887
 4979SOL    HW215988   5.067   8.130   7.789  0.3817 -0.8061 -0.3995
 4980SOL     OW15989   0.594   3.394   3.283  0.0068 -0.9215 -0.5005
 4980SOL    HW115990   0.518   3.370   3.335  1.1627 -1.2943  1.0873
 4980SOL    HW215991   0.653   3.318   3.290  1.9009  0.5826  1.0788
 4981SOL     OW15992   4.931   3.807   4.389 -0.1469  0.2913 -0.0774
 4981SOL    HW115993   4.877   3.732   4.413 -0.2319  0.2814 -0.2981
 4981SOL    HW215994   4.997   3.812   4.457 -1.5050  1.4028  1.2418
 4982SOL     OW15995   7.245   6.588   8.038 -0.0473  0.1958 -0.3427
 4982SOL    HW115996   7.160   6.612   8.001  0.5986  0.6313 -1.6301
 4982SOL    HW215997   7.308   6.615   7.971  1.0566 -0.7710  0.2698
 4983SOL     OW15998   3.672   1.394   2.946 -0.2556 -0.3297  0.2971
 4983SOL    HW115999   3.734   1.458   2.911  0.0281 -0.2519  0.9275
 4983SOL    HW216000   3.665   1.415   3.039 -0.0356 -1.3086  0.5473
 4984SOL     OW16001   0.886   6.604   7.686 -0.2032  0.0491 -0.4255
 4984SOL    HW116002   0.923   6.627   7.601  0.8589  0.3998  0.1184
 4984SOL    HW216003   0.954   6.553   7.729 -1.0672 -0.8678 -0.1151
 4985SOL     OW16004   0.150   8.249   2.288  0.2166  0.5486 -0.4940
 4985SOL    HW116005   0.106   8.334   2.277  0.9560  0.9910 -0.1575
 4985SOL    HW216006   0.175   8.223   2.200 -2.3978 -0.6727 -0.9726
 4986SOL     OW16007   0.860   1.411   3.160 -0.0545 -0.6656 -0.5973
 4986SOL    HW116008   0.897   1.487   3.206 -0.3999  1.0764 -2.9936
 4986SOL    HW216009   0.894   1.335   3.207  0.7863  0.9490  1.5644
 4987SOL     OW16010   2.864   7.127   7.334 -0.0082 -0.7729  0.0858
 4987SOL    HW116011   2.838   7.056   7.275 -1.3792 -0.6516  0.5047
 4987SOL    HW216012   2.804   7.120   7.408  0.1448  0.5184  0.3591
 4988SOL     OW16013   2.803   4.853   0.407 -0.4717 -0.1268  0.0247
 4988SOL    HW116014   2.887   4.895   0.424  1.1317 -3.9684  3.1851
 4988SOL    HW216015   2.745   4.886   0.475  0.1933 -1.3368  1.2379
 4989SOL     OW16016   2.605   4.696   6.335 -0.1922  0.0463  0.1552
 4989SOL    HW116017   2.518   4.695   6.374  0.1903  0.8014  1.0502
 4989SOL    HW216018   2.645   4.613   6.363 -0.3896 -0.0162  0.2528
 4990SOL     OW16019   0.886   2.798   5.813 -0.2370 -0.3047 -0.0292
 4990SOL    HW116020   0.832   2.874   5.790 -0.3524 -0.1291  0.7852
 4990SOL    HW216021   0.976   2.832   5.809 -0.1108 -0.7436 -1.9450
 4991SOL     OW16022   7.865   2.229   6.062 -0.2377 -0.0144  0.3695
 4991SOL    HW116023   7.854   2.193   5.974 -0.0971  1.0127 -0.0806
 4991SOL    HW216024   7.959   2.223   6.078 -0.0429  1.1935 -0.1860
 4992SOL     OW16025   3.240   2.875   5.439 -0.1921 -0.0013  0.4264
 4992SOL    HW116026   3.183   2.848   5.367  0.1080  0.3317  0.0571
 4992SOL    HW216027   3.328   2.848   5.411 -0.1601 -0.4914  0.9791
 4993SOL     OW16028   6.037   6.650   2.385 -0.0201  0.3455  0.2809
 4993SOL    HW116029   6.123   6.644   2.427 -0.2241 -2.0062  0.5138
 4993SOL    HW216030   6.042   6.588   2.312 -2.0734 -1.2795  1.4394
 4994SOL     OW16031   0.014   7.065   4.644 -0.4102  0.2154 -0.0436
 4994SOL    HW116032   0.076   7.127   4.605 -2.5116  0.7767 -2.7309
 4994SOL    HW216033  -0.064   7.117   4.663 -0.8997 -0.9135  1.2165
 4995SOL     OW16034   6.983   2.390   1.495 -0.3700  0.1498 -0.1600
 4995SOL    HW116035   7.058   2.332   1.510  0.1299  0.9251  0.4425
 4995SOL    HW216036   6.911   2.349   1.542  0.1033  0.2631  0.6969
 4996SOL     OW16037   0.845   4.661   7.792 -0.1655 -0.3538  0.1105
 4996SOL    HW116038   0.771   4.605   7.816  0.8543 -2.3948 -1.1855
 4996SOL    HW216039   0.922   4.606   7.809  1.2337  2.1064  2.6100
 4997SOL     OW16040   5.857   5.403   7.094  0.0695  0.4609  0.1605
 4997SOL    HW116041   5.806   5.484   7.087  0.7759  0.8404 -0.7097
 4997SOL    HW216042   5.921   5.409   7.024  0.6971 -0.4565  0.6436
 4998SOL     OW16043   0.945   4.439   2.014 -0.0400  0.1467 -0.5655
 4998SOL    HW116044   0.988   4.522   2.032 -0.5819  0.5679 -1.2050
 4998SOL    HW216045   0.860   4.462   1.977 -1.4221 -0.6455  1.8737
 4999SOL     OW16046   5.174   5.942   2.688  0.3019 -0.9047  0.7973
 4999SOL    HW116047   5.213   5.874   2.633 -3.4072 -2.0909 -0.6476
 4999SOL    HW216048   5.165   6.018   2.630 -0.9648 -1.1884  0.6087
 5000SOL     OW16049   3.348   1.572   2.514  0.6033 -0.6102  0.7921
 5000SOL    HW116050   3.429   1.614   2.486 -0.5904  0.2822 -1.6477
 5000SOL    HW216051   3.302   1.640   2.565 -0.0359  0.0993 -0.6721
 5001SOL     OW16052   1.182   1.447   0.511  0.1651 -0.2666  0.3397
 5001SOL    HW116053   1.092   1.479   0.514  0.9918  2.4481 -0.8940
 5001SOL    HW216054   1.205   1.449   0.418  1.3352 -1.5438  0.5627
 5002SOL     OW16055   4.801   6.075   5.225 -0.4557  0.8166  0.6488
 5002SOL    HW116056   4.742   6.143   5.256 -0.1817  0.7111  1.4261
 5002SOL    HW216057   4.785   6.001   5.283  0.4408  0.7946  0.8809
 5003SOL     OW16058   0.803   6.441   3.863 -0.5881  0.0181  0.0398
 5003SOL    HW116059   0.895   6.415   3.856 -0.9113 -0.7579 -1.6892
 5003SOL    HW216060   0.799   6.493   3.943  1.2851 -0.2258  0.3273
 5004SOL     OW16061   6.635   6.739   2.694  0.9226  0.5176 -0.5162
 5004SOL    HW116062   6.638   6.645   2.713 -0.8319  0.3690 -0.7950
 5004SOL    HW216063   6.585   6.777   2.765  1.3218  1.2071 -0.5903
 5005SOL     OW16064   1.720   1.679   0.413 -0.5842  0.3747 -0.0707
 5005SOL    HW116065   1.770   1.608   0.454 -1.8921 -0.2862  0.4227
 5005SOL    HW216066   1.762   1.691   0.328  1.7921  1.3457  1.1464
 5006SOL     OW16067   4.012   4.905   5.102 -0.0867  0.1099  0.0424
 5006SOL    HW116068   3.958   4.856   5.040  1.4932 -1.3302 -0.2764
 5006SOL    HW216069   4.098   4.863   5.097  0.8420  1.7687  1.1515
 5007SOL     OW16070   4.526   7.044   0.426  0.0427 -0.2589  0.4678
 5007SOL    HW116071   4.609   7.081   0.396  0.6311 -1.5813  0.3613
 5007SOL    HW216072   4.545   7.011   0.514 -0.4524 -0.3330  0.5510
 5008SOL     OW16073   0.159   3.859   2.217 -0.5696 -0.8934 -0.1989
 5008SOL    HW116074   0.099   3.786   2.235  0.1008 -1.3229  0.3364
 5008SOL    HW216075   0.152   3.915   2.293 -0.7520 -0.6186 -0.4153
 5009SOL     OW16076   4.371   2.894   4.580 -0.3584  0.0527 -0.0662
 5009SOL    HW116077   4.331   2.817   4.619 -0.6642  0.0577 -0.3718
 5009SOL    HW216078   4.311   2.921   4.511 -0.0857  0.3638 -0.1871
 5010SOL     OW16079   5.605   4.893   3.919  0.8741 -0.4840 -0.3055
 5010SOL    HW116080   5.696   4.900   3.887  1.1413 -0.2933  0.4783
 5010SOL    HW216081   5.612   4.843   4.000  0.1298 -1.4507 -0.8155
 5011SOL     OW16082   4.834   2.070   8.125  0.2413  0.1096 -0.0262
 5011SOL    HW116083   4.799   2.159   8.123  1.5263  0.6324 -1.7958
 5011SOL    HW216084   4.922   2.079   8.162  0.6876 -0.2823 -0.9554
 5012SOL     OW16085   5.431   5.944   3.429  0.4535 -0.5760 -0.1798
 5012SOL    HW116086   5.394   6.026   3.464  0.2974  0.0611 -1.7520
 5012SOL    HW216087   5.523   5.964   3.414  0.4036 -0.6552 -0.6123
 5013SOL     OW16088   6.953   7.743   6.723  0.3520  0.5110 -0.7133
 5013SOL    HW116089   6.859   7.740   6.742  0.2967 -0.7834 -1.0771
 5013SOL    HW216090   6.989   7.802   6.789 -0.7274  1.0760 -0.6114
 5014SOL     OW16091   6.193   6.459   3.585 -0.3624  0.1170 -0.3544
 5014SOL    HW116092   6.181   6.538   3.533  1.3671  1.5150  1.2452
 5014SOL    HW216093   6.288   6.451   3.596 -0.6131 -0.6764  1.6940
 5015SOL     OW16094   5.595   3.689   3.965  0.0783  0.0754 -0.1461
 5015SOL    HW116095   5.506   3.715   3.942  0.3842  0.6941 -0.7091
 5015SOL    HW216096   5.645   3.771   3.957  0.8959 -0.4865 -0.9590
 5016SOL     OW16097   7.023   7.208   4.041 -0.7661  0.6289  0.2632
 5016SOL    HW116098   7.024   7.290   3.990  1.0417  1.8239  2.0548
 5016SOL    HW216099   6.939   7.210   4.086 -1.0410  1.1435 -0.2479
 5017SOL     OW16100   0.709   4.639   5.901  0.1749 -0.3813 -0.0680
 5017SOL    HW116101   0.712   4.619   5.807  0.4117  0.5016 -0.2525
 5017SOL    HW216102   0.616   4.630   5.924 -0.4172  2.3150 -1.0697
 5018SOL     OW16103   6.277   7.534   6.701 -1.1374  0.1861  0.5447
 5018SOL    HW116104   6.286   7.629   6.700  1.9009  0.0221 -1.8542
 5018SOL    HW216105   6.227   7.514   6.621  0.6742 -0.2790 -0.5303
 5019SOL     OW16106   4.451   1.270   4.682  0.1621 -0.0012  0.0527
 5019SOL    HW116107   4.420   1.317   4.605 -1.0571 -1.2712 -0.2641
 5019SOL    HW216108   4.432   1.328   4.755  0.6505  0.8964 -0.5152
 5020SOL     OW16109   3.978   3.123   7.056 -0.0854  0.5139  0.2593
 5020SOL    HW116110   3.963   3.142   6.963  0.7901  2.7445  0.5065
 5020SOL    HW216111   4.060   3.074   7.057 -1.8262 -2.7435 -0.3107
 5021SOL     OW16112   6.821   4.701   3.636 -0.1684  0.5531  0.5718
 5021SOL    HW116113   6.885   4.675   3.570  0.3821  2.3548  0.3517
 5021SOL    HW216114   6.737   4.692   3.592  0.0656  0.0376  0.2161
 5022SOL     OW16115   2.786   7.621   0.088 -0.3185 -0.9016 -0.3883
 5022SOL    HW116116   2.856   7.557   0.077  0.0768 -0.3539 -1.1417
 5022SOL    HW216117   2.792   7.647   0.180  1.0518 -0.2268 -0.6332
 5023SOL     OW16118   6.018   5.031   2.344  0.3839 -0.5718  0.1511
 5023SOL    HW116119   6.077   5.015   2.270  0.6092 -1.6534  0.5359
 5023SOL    HW216120   5.934   5.055   2.304  0.4907 -1.1894 -0.4582
 5024SOL     OW16121   7.689   2.799   3.445 -0.1384  0.0399  0.2761
 5024SOL    HW116122   7.762   2.742   3.420  1.3603  1.9362  0.0966
 5024SOL    HW216123   7.701   2.813   3.539 -0.3681  0.2378  0.2761
 5025SOL     OW16124   2.832   5.228   7.032 -0.1119 -0.3505  0.2297
 5025SOL    HW116125   2.801   5.282   7.105 -0.3353 -1.7877  1.2440
 5025SOL    HW216126   2.921   5.203   7.057 -0.1718 -0.8149 -0.0124
 5026SOL     OW16127   7.626   5.218   1.165  0.1662 -0.3152  0.2225
 5026SOL    HW116128   7.606   5.150   1.230  1.3485  0.1722  1.1459
 5026SOL    HW216129   7.583   5.188   1.085 -0.4756 -1.4622  0.9623
 5027SOL     OW16130   6.946   6.520   6.202 -0.1369 -0.3037 -0.1729
 5027SOL    HW116131   6.890   6.481   6.270  0.7572 -0.4519  0.4906
 5027SOL    HW216132   6.948   6.455   6.132  0.0068 -0.7351  0.2250
 5028SOL     OW16133   5.505   7.996   5.994 -0.2122 -0.1447  0.2994
 5028SOL    HW116134   5.584   8.043   5.967 -0.3172 -0.7120 -1.0586
 5028SOL    HW216135   5.433   8.051   5.965 -0.3236 -0.5897 -0.2928
 5029SOL     OW16136   1.710   4.024   6.870  0.1005 -0.7579 -0.0622
 5029SOL    HW116137   1.765   3.986   6.938 -1.1546 -1.5606  0.5421
 5029SOL    HW216138   1.644   3.957   6.851 -0.4093 -0.0083 -1.0773
 5030SOL     OW16139   1.638   0.802   4.135 -0.7097 -0.5543  0.4766
 5030SOL    HW116140   1.663   0.845   4.217  1.5503 -0.1303 -0.3688
 5030SOL    HW216141   1.656   0.868   4.067  0.5558 -1.9748 -0.6359
 5031SOL     OW16142   5.383   2.116   4.835 -0.8023 -0.2409  0.2009
 5031SOL    HW116143   5.427   2.184   4.886 -0.8141 -0.2610  0.2382
 5031SOL    HW216144   5.377   2.152   4.747  0.2935 -0.6750 -0.0751
 5032SOL     OW16145   3.339   7.045   6.256  0.7425  0.0739  0.0099
 5032SOL    HW116146   3.378   6.958   6.245 -0.9354 -0.5222 -1.6168
 5032SOL    HW216147   3.340   7.083   6.168  0.2109  1.1736  0.4596
 5033SOL     OW16148   8.010   5.578   0.217  0.1807 -0.0213  0.0024
 5033SOL    HW116149   8.096   5.538   0.202 -0.3131 -0.4880 -1.8413
 5033SOL    HW216150   7.957   5.507   0.254  0.6047  0.3008  1.2566
 5034SOL     OW16151   6.875   4.428   0.151 -0.4724 -0.2056 -0.0425
 5034SOL    HW116152   6.946   4.383   0.104 -2.1699 -1.3241 -1.6944
 5034SOL    HW216153   6.832   4.359   0.201  0.4006  0.7221  2.1070
 5035SOL     OW16154   0.777   3.081   6.948  0.1651 -0.4497 -0.0629
 5035SOL    HW116155   0.858   3.119   6.982  0.0210  0.5812 -0.8250
 5035SOL    HW216156   0.796   2.988   6.940  1.1229 -0.2917  0.2122
 5036SOL     OW16157   0.759   3.485   0.590 -0.8546 -0.0111 -0.3284
 5036SOL    HW116158   0.751   3.581   0.589  1.4588  0.2649  0.4537
 5036SOL    HW216159   0.746   3.459   0.499 -2.4177  0.9140 -0.4086
 5037SOL     OW16160   2.903   4.427   0.376 -0.7321  0.0831 -0.0903
 5037SOL    HW116161   2.991   4.464   0.378 -1.8457  3.0463 -0.3548
 5037SOL    HW216162   2.882   4.409   0.468 -0.5191  1.1770  0.1833
 5038SOL     OW16163   4.298   6.588   0.777  0.8083 -0.2057 -0.2343
 5038SOL    HW116164   4.353   6.511   0.765  1.3904  0.2370 -0.4100
 5038SOL    HW216165   4.314   6.614   0.868  1.8797  0.6739 -0.6541
 5039SOL     OW16166   3.384   0.969   2.180  0.1756 -0.6546 -0.1179
 5039SOL    HW116167   3.474   0.993   2.160 -0.0669  0.3815 -0.0203
 5039SOL    HW216168   3.355   1.036   2.243 -0.0953 -1.9873  1.2388
 5040SOL     OW16169   4.581   4.390   1.445  0.4720  0.3051  0.0441
 5040SOL    HW116170   4.644   4.460   1.465  0.6600  0.0414  0.3801
 5040SOL    HW216171   4.515   4.433   1.390 -0.3829  1.2152  1.6969
 5041SOL     OW16172   6.085   2.288   1.747 -0.1570  0.7999 -0.6973
 5041SOL    HW116173   6.061   2.272   1.655 -2.1195  1.7611 -0.3958
 5041SOL    HW216174   6.073   2.382   1.759 -1.6486  0.4445  0.9905
 5042SOL     OW16175   1.447   2.215   3.848  0.2542  0.4283  0.2390
 5042SOL    HW116176   1.418   2.193   3.760 -1.4461 -0.2338  0.9231
 5042SOL    HW216177   1.461   2.130   3.891 -0.4440  0.7071  1.0525
 5043SOL     OW16178   4.579   1.512   5.976 -1.2312 -0.5519 -0.2184
 5043SOL    HW116179   4.492   1.477   5.962 -1.8554  0.3299  1.2654
 5043SOL    HW216180   4.595   1.501   6.069 -0.4581  0.8351 -0.1620
 5044SOL     OW16181   6.883   5.229   7.544  0.1946 -0.3573  0.8284
 5044SOL    HW116182   6.830   5.248   7.466 -0.9028 -2.7490  0.9228
 5044SOL    HW216183   6.886   5.312   7.592 -0.9956  0.5778 -0.6389
 5045SOL     OW16184   1.882   3.848   0.882 -0.2264 -0.8010 -0.2927
 5045SOL    HW116185   1.830   3.860   0.803 -1.6441  0.6591  0.8156
 5045SOL    HW216186   1.968   3.884   0.859 -1.1193  1.2504 -0.6813
 5046SOL     OW16187   1.458   6.403   0.039  0.4237 -0.4790 -0.0506
 5046SOL    HW116188   1.406   6.447  -0.028  1.1653 -2.0651 -1.7312
 5046SOL    HW216189   1.397   6.345   0.084 -0.5726  2.0314  2.1975
 5047SOL     OW16190   1.831   6.928   0.650  0.5538 -0.5732  0.0547
 5047SOL    HW116191   1.924   6.926   0.672  0.3127 -0.5022  1.1091
 5047SOL    HW216192   1.806   6.835   0.644  0.5129 -0.6024  0.5945
 5048SOL     OW16193   7.192   4.844   5.672 -0.0664  0.1557 -0.2684
 5048SOL    HW116194   7.216   4.793   5.594  0.2562 -0.9420  0.5242
 5048SOL    HW216195   7.269   4.898   5.690  0.8917 -1.4614  0.7497
 5049SOL     OW16196   4.849   0.851   3.808 -0.2521 -0.0927 -0.2052
 5049SOL    HW116197   4.815   0.940   3.796 -1.9838 -0.7749 -0.6958
 5049SOL    HW216198   4.916   0.859   3.876 -1.0570  1.4262  0.4450
 5050SOL     OW16199   3.590   4.324   6.863 -0.8491  0.0943  0.4655
 5050SOL    HW116200   3.627   4.314   6.775  0.1508  0.3069  0.8593
 5050SOL    HW216201   3.497   4.302   6.852 -0.2133 -2.6725 -0.0934
 5051SOL     OW16202   6.734   5.731   0.685  0.4468  0.2666  0.5397
 5051SOL    HW116203   6.784   5.691   0.613  0.2630  0.0806  0.5144
 5051SOL    HW216204   6.662   5.776   0.641  0.3820  0.2236  0.6034
 5052SOL     OW16205   1.390   1.503   4.572  0.1170 -0.2335 -0.2317
 5052SOL    HW116206   1.336   1.536   4.644 -0.0712  0.6393 -0.7585
 5052SOL    HW216207   1.329   1.452   4.518  0.5069 -1.9265  0.8375
 5053SOL     OW16208   6.527   4.264   1.973 -0.5767 -0.2387 -0.5639
 5053SOL    HW116209   6.493   4.342   1.928 -1.1220 -0.0044  0.2414
 5053SOL    HW216210   6.559   4.296   2.057  0.7707 -0.6190 -0.8982
 5054SOL     OW16211   0.147   1.310   0.353 -0.0864 -0.3852 -0.2972
 5054SOL    HW116212   0.194   1.238   0.313 -1.8777 -1.8153  0.0504
 5054SOL    HW216213   0.152   1.381   0.289 -0.2108 -1.5725 -1.6666
 5055SOL     OW16214   6.874   7.590   1.801  0.2749  0.5010  0.4643
 5055SOL    HW116215   6.937   7.564   1.869 -0.1217  1.0696  1.0535
 5055SOL    HW216216   6.797   7.620   1.850 -0.6064 -0.5070 -0.2485
 5056SOL     OW16217   2.188   4.011   7.241 -0.1300 -0.5578  0.1912
 5056SOL    HW116218   2.234   3.953   7.302 -0.0094 -1.5970 -0.8481
 5056SOL    HW216219   2.258   4.058   7.196 -0.1085 -1.2964 -0.5744
 5057SOL     OW16220   7.668   3.299   0.719  0.2937 -0.1210 -0.0697
 5057SOL    HW116221   7.604   3.276   0.787 -0.9739 -3.4353 -2.1678
 5057SOL    HW216222   7.739   3.236   0.730  1.7325  1.4349  0.1352
 5058SOL     OW16223   1.684   4.048   8.126  0.3695 -0.4363  0.3868
 5058SOL    HW116224   1.599   4.076   8.090  0.0385 -0.9313  0.7685
 5058SOL    HW216225   1.747   4.066   8.056 -0.1586 -0.7335 -0.1735
 5059SOL     OW16226   4.890   2.162   1.399  0.4508  0.0562  0.1677
 5059SOL    HW116227   4.849   2.127   1.478  0.4705  1.4061  0.8127
 5059SOL    HW216228   4.821   2.215   1.359  0.6132 -0.1863 -0.4400
 5060SOL     OW16229   1.116   2.828   7.877  0.1267  0.4550 -0.4676
 5060SOL    HW116230   1.169   2.886   7.823  2.0347 -0.9763 -0.2063
 5060SOL    HW216231   1.153   2.741   7.863 -2.2401 -0.6728 -0.3580
 5061SOL     OW16232   7.143   6.383   2.215  0.8018 -0.3020  0.3275
 5061SOL    HW116233   7.138   6.380   2.311  2.1858  1.7801  0.5304
 5061SOL    HW216234   7.102   6.466   2.191 -0.1741 -1.1259 -0.9783
 5062SOL     OW16235   4.880   7.237   0.649 -0.1030  0.1208  0.1567
 5062SOL    HW116236   4.884   7.319   0.601  0.8636 -0.8921 -1.5815
 5062SOL    HW216237   4.940   7.179   0.603  1.0392 -0.8801  2.7175
 5063SOL     OW16238   0.923   1.525   2.429 -0.2614 -0.0676 -0.2375
 5063SOL    HW116239   0.909   1.592   2.496 -0.3815  0.8215 -1.1222
 5063SOL    HW216240   0.868   1.451   2.457  1.6412 -0.7698  2.0155
 5064SOL     OW16241   3.561   4.409   3.030  0.3723  0.2330  0.3170
 5064SOL    HW116242   3.497   4.410   3.102  0.7492  0.6244  0.6512
 5064SOL    HW216243   3.509   4.387   2.953  0.1171 -1.2030  0.8501
 5065SOL     OW16244   2.374   2.611   0.955 -0.2566 -0.0961 -0.3216
 5065SOL    HW116245   2.313   2.637   1.024  0.4615 -0.5284  0.5084
 5065SOL    HW216246   2.345   2.523   0.929 -0.9284  0.3331 -1.0576
 5066SOL     OW16247   1.094   4.838   4.090 -0.3873  0.3198 -0.4174
 5066SOL    HW116248   1.070   4.927   4.066  1.0840  1.5285  2.1387
 5066SOL    HW216249   1.187   4.831   4.068  0.1801  0.3964  1.6987
 5067SOL     OW16250   0.649   2.251   2.161  0.1941 -0.1932 -0.2364
 5067SOL    HW116251   0.601   2.333   2.172 -1.6897 -1.0901 -1.3189
 5067SOL    HW216252   0.740   2.275   2.176 -0.3507  1.9953 -0.0339
 5068SOL     OW16253   6.940   4.438   1.809 -0.3810  0.5731  0.5561
 5068SOL    HW116254   6.929   4.533   1.806 -1.0347  0.5518  1.5689
 5068SOL    HW216255   6.951   4.418   1.902  1.6985 -0.1676  0.2013
 5069SOL     OW16256   2.294   7.294   6.544  0.4058  0.2156 -0.3987
 5069SOL    HW116257   2.353   7.311   6.471  0.0298  0.4076 -0.6648
 5069SOL    HW216258   2.221   7.245   6.504 -0.5099  1.5724 -0.4512
 5070SOL     OW16259   1.615   3.533   3.122 -0.2788 -0.4216 -0.2106
 5070SOL    HW116260   1.550   3.557   3.188 -1.0524 -2.8711  0.0092
 5070SOL    HW216261   1.692   3.507   3.173 -0.4843 -1.2295 -0.3051
 5071SOL     OW16262   6.189   0.519   0.066  0.2158 -0.1724  0.3866
 5071SOL    HW116263   6.167   0.532   0.158 -0.3911 -0.0797  0.2347
 5071SOL    HW216264   6.181   0.425   0.052 -2.1755  0.0533 -0.1584
 5072SOL     OW16265   6.708   1.934   5.709  0.2218 -0.0658 -0.0625
 5072SOL    HW116266   6.703   1.918   5.615  2.5681  0.7392 -0.3945
 5072SOL    HW216267   6.747   2.021   5.716 -0.9120  0.3618  1.6912
 5073SOL     OW16268   6.792   7.115   6.317  0.4887  0.1879  0.4748
 5073SOL    HW116269   6.858   7.047   6.335  0.8574  0.5355  0.4450
 5073SOL    HW216270   6.708   7.069   6.326  0.7026 -0.0451  1.4226
 5074SOL     OW16271   5.034   4.731   1.017 -0.5575  0.2524 -0.2319
 5074SOL    HW116272   5.010   4.769   0.933  0.8527  0.2138 -0.6860
 5074SOL    HW216273   5.102   4.789   1.051 -1.5604  0.6405  1.2164
 5075SOL     OW16274   6.488   3.784   5.201  0.1795  0.2293 -0.3994
 5075SOL    HW116275   6.400   3.821   5.202  0.3037  0.5538 -1.2515
 5075SOL    HW216276   6.489   3.725   5.126  0.9210  0.8006 -0.8506
 5076SOL     OW16277   7.061   7.868   2.203  0.2824 -0.0835  0.4878
 5076SOL    HW116278   7.111   7.863   2.122 -1.2234 -0.7316 -0.4529
 5076SOL    HW216279   7.077   7.784   2.246  0.3815 -0.0971  0.4247
 5077SOL     OW16280   7.078   5.014   2.719  0.1377  0.5066 -0.3977
 5077SOL    HW116281   7.120   5.097   2.742  1.2260  0.0231 -0.6001
 5077SOL    HW216282   7.129   4.948   2.765 -1.7428  0.0268  1.1751
 5078SOL     OW16283   6.677   3.636   7.795  0.0855 -0.6459 -0.7232
 5078SOL    HW116284   6.701   3.691   7.721 -2.2454  0.8382 -0.4770
 5078SOL    HW216285   6.752   3.641   7.854  1.4324 -0.7844 -2.3889
 5079SOL     OW16286   7.047   6.178   1.653 -0.5061 -0.1168 -0.4838
 5079SOL    HW116287   7.133   6.138   1.634 -0.5789 -1.1667  1.1749
 5079SOL    HW216288   7.068   6.263   1.692 -0.2173 -0.3058 -0.2214
 5080SOL     OW16289   0.100   3.052   2.688  0.2517 -0.2628  0.3049
 5080SOL    HW116290   0.176   3.067   2.632  0.2462 -1.6559 -0.1263
 5080SOL    HW216291   0.025   3.051   2.628  0.2115 -1.4523  0.3494
 5081SOL     OW16292   3.024   0.539   3.376 -0.2914 -0.3497 -0.2166
 5081SOL    HW116293   3.020   0.588   3.458  1.0157  0.4589 -0.5891
 5081SOL    HW216294   3.099   0.481   3.387 -0.2384 -0.3851 -0.7507
 5082SOL     OW16295   0.690   0.806   3.621 -0.1710 -0.3008  0.1631
 5082SOL    HW116296   0.752   0.815   3.548  0.0251  2.9784  0.5859
 5082SOL    HW216297   0.627   0.876   3.608  0.3570  1.0004  3.5157
 5083SOL     OW16298   4.350   4.070   2.839  0.0217  0.5125  0.0865
 5083SOL    HW116299   4.384   3.982   2.857 -0.8739  0.3227  0.9324
 5083SOL    HW216300   4.364   4.118   2.921  0.2507  1.0750 -0.2800
 5084SOL     OW16301   3.824   3.394   1.115  0.0677  0.1950 -0.3798
 5084SOL    HW116302   3.887   3.338   1.159  1.0115  2.0283  0.7000
 5084SOL    HW216303   3.784   3.445   1.185 -1.1806  0.4962 -1.2679
 5085SOL     OW16304   1.403   0.662   7.572 -0.0646  0.2670 -0.3177
 5085SOL    HW116305   1.350   0.702   7.502  0.7441 -0.3503 -1.3162
 5085SOL    HW216306   1.463   0.603   7.526 -0.1968 -0.9434  0.9876
 5086SOL     OW16307   0.128   2.131   5.081  0.6204 -0.3678 -0.4600
 5086SOL    HW116308   0.104   2.221   5.057  0.6209  0.1308  1.2831
 5086SOL    HW216309   0.192   2.142   5.152  0.5051 -1.7482 -0.1302
 5087SOL     OW16310   1.175   7.056   0.630  0.1704 -0.1553 -0.4376
 5087SOL    HW116311   1.109   7.125   0.628 -0.1853 -0.5097 -2.2591
 5087SOL    HW216312   1.130   6.979   0.596  0.5706 -1.3169  1.5157
 5088SOL     OW16313   6.097   3.670   6.235 -0.1988  0.0925 -0.6613
 5088SOL    HW116314   6.102   3.742   6.298 -1.3563  0.2670 -0.7538
 5088SOL    HW216315   6.188   3.642   6.224  0.0539  0.2260  0.8924
 5089SOL     OW16316   3.766   4.174   6.030  0.2689  0.1886 -0.3976
 5089SOL    HW116317   3.753   4.259   6.073  0.3073 -1.5257  3.3975
 5089SOL    HW216318   3.706   4.115   6.075  2.6378 -2.5010 -0.5052
 5090SOL     OW16319   0.421   1.676   7.196 -0.3127 -0.5017  0.1750
 5090SOL    HW116320   0.386   1.731   7.126  0.3466  0.9295  0.9206
 5090SOL    HW216321   0.433   1.590   7.156  0.0128  0.2661 -1.4626
 5091SOL     OW16322   1.357   7.481   4.353 -0.2088  0.1425 -0.0462
 5091SOL    HW116323   1.417   7.422   4.398 -0.3352 -1.1333 -1.4545
 5091SOL    HW216324   1.271   7.439   4.362 -0.6330  1.0757  0.4821
 5092SOL     OW16325   3.263   8.254   0.079 -0.0413  0.0194 -0.0909
 5092SOL    HW116326   3.298   8.339   0.106  0.1082  0.2164 -0.8623
 5092SOL    HW216327   3.242   8.266  -0.014  1.8569 -1.3631 -0.7657
 5093SOL     OW16328   1.239   4.525   0.030 -0.1448 -0.2602 -0.3681
 5093SOL    HW116329   1.162   4.533  -0.026  0.6412  1.8799 -1.2600
 5093SOL    HW216330   1.205   4.519   0.119 -1.3540 -1.3656 -0.8730
 5094SOL     OW16331   0.024   5.812   7.017  0.0388  0.4643 -0.3270
 5094SOL    HW116332   0.092   5.768   6.966  0.5302 -0.6326  1.2182
 5094SOL    HW216333  -0.028   5.742   7.056 -0.0769  1.2382  0.9992
 5095SOL     OW16334   3.493   4.224   4.311 -0.2694  0.5755  0.4135
 5095SOL    HW116335   3.541   4.149   4.345 -0.8760 -0.5908 -1.1567
 5095SOL    HW216336   3.404   4.213   4.342 -0.4654  0.3783 -0.2053
 5096SOL     OW16337   4.647   3.538   1.289 -0.4720  0.7745 -0.1790
 5096SOL    HW116338   4.617   3.451   1.266  0.5095  0.1216  0.9108
 5096SOL    HW216339   4.663   3.581   1.204  0.7359 -0.7305 -0.7657
 5097SOL     OW16340   7.444   5.689   6.649 -0.0550 -0.2386  0.0567
 5097SOL    HW116341   7.393   5.715   6.572  0.1745  0.9269  0.2674
 5097SOL    HW216342   7.378   5.662   6.713 -0.2334 -1.4187 -0.6092
 5098SOL     OW16343   3.368   7.412   4.192 -0.1676  0.3570 -0.1538
 5098SOL    HW116344   3.369   7.506   4.175 -0.9300  0.3293 -0.3918
 5098SOL    HW216345   3.419   7.402   4.273  0.1083  0.9426 -0.2465
 5099SOL     OW16346   8.135   6.540   4.997 -0.0155  0.5935 -0.4619
 5099SOL    HW116347   8.092   6.501   4.922 -0.6346  1.9925 -0.8737
 5099SOL    HW216348   8.222   6.563   4.966 -0.7602  2.5332 -1.2606
 5100SOL     OW16349   4.272   5.407   0.904  0.4945 -0.0133 -0.1613
 5100SOL    HW116350   4.352   5.358   0.920 -0.1204 -1.1766 -0.4849
 5100SOL    HW216351   4.268   5.417   0.809 -0.4045 -1.2043 -0.2861
 5101SOL     OW16352   7.090   5.594   0.128  0.2119  0.3378 -0.6384
 5101SOL    HW116353   7.115   5.595   0.036 -0.2448 -3.2483 -0.9445
 5101SOL    HW216354   7.168   5.561   0.174 -0.2510  0.0060 -0.0741
 5102SOL     OW16355   2.506   6.207   7.784 -0.7566 -0.6638  0.1923
 5102SOL    HW116356   2.462   6.127   7.754 -0.5786 -0.7055  0.0435
 5102SOL    HW216357   2.593   6.178   7.812  0.1149 -0.2281 -1.8663
 5103SOL     OW16358   3.189   8.194   3.569  0.5230 -0.2342  0.0581
 5103SOL    HW116359   3.115   8.255   3.572 -0.0144 -0.9308  1.8244
 5103SOL    HW216360   3.202   8.178   3.475 -1.7121 -0.2570 -0.3031
 5104SOL     OW16361   1.442   1.877   3.821  0.2371 -0.7599 -0.6172
 5104SOL    HW116362   1.495   1.797   3.811  1.8568  0.3559 -1.4600
 5104SOL    HW216363   1.464   1.930   3.744 -0.5900  0.6217  0.0614
 5105SOL     OW16364   0.034   0.430   3.802  0.0504 -0.7799  0.4744
 5105SOL    HW116365   0.060   0.422   3.894 -0.2215 -1.7750  0.4810
 5105SOL    HW216366   0.115   0.454   3.757 -0.1213  1.2210  1.1502
 5106SOL     OW16367   5.277   4.831   7.842 -0.0450 -0.4927 -0.5000
 5106SOL    HW116368   5.297   4.740   7.821  0.6226 -0.7884  1.2124
 5106SOL    HW216369   5.216   4.827   7.916  0.4371  0.4196 -0.0192
 5107SOL     OW16370   4.093   7.722   8.210  0.5582  0.4509  0.3003
 5107SOL    HW116371   4.083   7.816   8.221 -0.9942  0.6008 -1.6628
 5107SOL    HW216372   4.005   7.687   8.222  0.8979 -0.6014 -0.1420
 5108SOL     OW16373   1.918   5.093   7.637 -0.5530  0.5003  0.5306
 5108SOL    HW116374   2.010   5.114   7.655 -0.3332 -0.2550  0.3264
 5108SOL    HW216375   1.920   5.045   7.555 -1.0877  0.1434  0.7193
 5109SOL     OW16376   1.911   6.285   1.864  0.3675 -0.6612  0.1978
 5109SOL    HW116377   1.889   6.324   1.779  1.0067 -0.5310  0.0869
 5109SOL    HW216378   2.007   6.277   1.862  0.3474 -1.0475  0.7369
 5110SOL     OW16379   5.252   2.955   7.097 -0.2154 -0.1191  0.0708
 5110SOL    HW116380   5.303   2.875   7.086 -0.0733 -0.1246  0.7496
 5110SOL    HW216381   5.273   2.986   7.185 -0.6620  0.3892  0.0074
 5111SOL     OW16382   1.881   7.066   5.350  0.2820  0.1510  0.2758
 5111SOL    HW116383   1.890   7.129   5.279 -1.8104  0.6534  0.4065
 5111SOL    HW216384   1.971   7.040   5.370  0.9433 -1.3332 -3.6646
 5112SOL     OW16385   2.636   6.675   5.727 -0.3830  0.0850  0.4923
 5112SOL    HW116386   2.718   6.640   5.692 -0.4137  1.2264 -0.8160
 5112SOL    HW216387   2.663   6.733   5.798 -0.0903  0.1322  0.3439
 5113SOL     OW16388   5.536   6.814   3.687 -0.0461 -0.7672 -0.3721
 5113SOL    HW116389   5.569   6.902   3.668 -0.1271 -0.2977  1.5420
 5113SOL    HW216390   5.448   6.814   3.650  1.2947 -1.5125 -4.1162
 5114SOL     OW16391   7.656   2.923   7.498  0.0615 -1.0001  0.3300
 5114SOL    HW116392   7.726   2.858   7.504  2.2711  1.1929  0.4814
 5114SOL    HW216393   7.636   2.929   7.405  0.9738 -0.8494  0.1305
 5115SOL     OW16394   2.995   6.333   1.782 -0.5185  0.0428 -0.0143
 5115SOL    HW116395   2.955   6.268   1.724  0.4154 -1.6464  1.1453
 5115SOL    HW216396   2.928   6.401   1.791 -2.3588 -1.6902  0.2538
 5116SOL     OW16397   4.624   0.925   5.792 -0.1199 -0.2590 -0.1116
 5116SOL    HW116398   4.700   0.866   5.789 -0.5218 -0.8338  0.6718
 5116SOL    HW216399   4.550   0.868   5.771 -0.2900  0.4025 -1.3602
 5117SOL     OW16400   7.209   4.698   2.044  0.0235  0.3474  0.1286
 5117SOL    HW116401   7.239   4.773   1.994  0.5271 -0.3579 -0.6567
 5117SOL    HW216402   7.121   4.680   2.011  0.0563  0.3528  0.0390
 5118SOL     OW16403   2.075   2.271   4.437 -0.2788  0.6185 -0.5124
 5118SOL    HW116404   2.134   2.330   4.391 -1.0032  1.8560  0.0953
 5118SOL    HW216405   2.021   2.232   4.369 -1.0119  2.0556 -0.7818
 5119SOL     OW16406   6.582   0.965   3.568  0.8190  0.1617 -0.3347
 5119SOL    HW116407   6.491   0.939   3.552  0.6984  0.7236 -0.5667
 5119SOL    HW216408   6.614   0.901   3.631  0.8007 -1.1367 -1.5847
 5120SOL     OW16409   6.621   0.036   6.555  0.2071  0.2818 -0.2264
 5120SOL    HW116410   6.654   0.091   6.626 -2.0750 -0.2391  1.3554
 5120SOL    HW216411   6.675  -0.042   6.558  1.5392  1.1613 -0.5331
 5121SOL     OW16412   6.110   5.146   2.096  0.0533 -0.2338  0.0946
 5121SOL    HW116413   6.081   5.218   2.152  1.0011 -0.2375  0.6155
 5121SOL    HW216414   6.032   5.092   2.084 -0.7968  1.1258 -0.7029
 5122SOL     OW16415   1.824   7.225   7.954 -0.2106  0.2968  0.1119
 5122SOL    HW116416   1.770   7.299   7.981  2.8541  2.1712  1.6754
 5122SOL    HW216417   1.819   7.224   7.859 -1.9054  1.2202  0.1653
 5123SOL     OW16418   4.058   5.565   3.901  0.2962  0.0341 -0.2919
 5123SOL    HW116419   4.110   5.502   3.952  0.1918 -1.1799 -1.6075
 5123SOL    HW216420   4.069   5.537   3.810 -1.4240  0.6863 -0.7470
 5124SOL     OW16421   2.942   1.262   3.312  0.3246  0.4633 -0.4477
 5124SOL    HW116422   2.989   1.194   3.263  0.7901 -1.0597  1.9404
 5124SOL    HW216423   2.852   1.229   3.317 -0.0031  1.1937 -1.2147
 5125SOL     OW16424   1.301   7.423   7.965 -0.6150 -0.4596  0.0161
 5125SOL    HW116425   1.313   7.403   8.058 -1.8453 -2.5197 -0.2167
 5125SOL    HW216426   1.219   7.472   7.961 -1.3972 -1.7387 -0.1018
 5126SOL     OW16427   4.508   1.960   3.856 -0.3054  0.5772  0.5308
 5126SOL    HW116428   4.442   1.944   3.789  0.9025  1.4258 -0.9258
 5126SOL    HW216429   4.470   2.028   3.912 -0.4894  1.4398 -0.6052
 5127SOL     OW16430   3.590   3.433   7.613  0.1187  0.3224  0.7945
 5127SOL    HW116431   3.591   3.528   7.597  0.3020  0.2533  0.3966
 5127SOL    HW216432   3.498   3.408   7.604  0.3189  0.1277 -1.1232
 5128SOL     OW16433   2.779   3.910   3.244 -0.1665 -0.3757 -0.2069
 5128SOL    HW116434   2.703   3.950   3.285  0.9133 -0.3789  1.9227
 5128SOL    HW216435   2.745   3.832   3.200 -1.7597  0.9987 -1.5556
 5129SOL     OW16436   5.377   6.573   6.774 -0.8054  0.4419  0.7645
 5129SOL    HW116437   5.392   6.481   6.754 -1.0011  0.4098  0.7662
 5129SOL    HW216438   5.307   6.600   6.715 -0.8331  0.5580  0.8488
 5130SOL     OW16439   7.328   2.737   8.067 -0.1362  0.2914 -1.1157
 5130SOL    HW116440   7.405   2.768   8.114 -0.4964  0.8872 -0.9053
 5130SOL    HW216441   7.315   2.801   7.997  0.2823 -0.4832 -1.9188
 5131SOL     OW16442   1.281   7.307   0.316  0.0896 -0.3117  0.2435
 5131SOL    HW116443   1.330   7.283   0.395  0.7746 -2.2614 -0.7200
 5131SOL    HW216444   1.294   7.234   0.256 -1.3736  0.5942 -1.2694
 5132SOL     OW16445   1.555   4.843   5.218 -0.4002 -0.0868 -0.3453
 5132SOL    HW116446   1.462   4.849   5.237 -0.1613 -0.5696  1.0883
 5132SOL    HW216447   1.560   4.792   5.137 -1.3804  0.1305 -0.5514
 5133SOL     OW16448   0.328   6.541   2.720  0.4965  0.2317  0.2106
 5133SOL    HW116449   0.250   6.559   2.772  0.5871 -0.0614  0.4438
 5133SOL    HW216450   0.316   6.594   2.641  0.1272  0.2932  0.3064
 5134SOL     OW16451   4.296   6.203   4.402  0.2262 -0.0589 -0.0844
 5134SOL    HW116452   4.287   6.193   4.307 -3.7912 -0.0033  0.1062
 5134SOL    HW216453   4.255   6.288   4.421 -0.1668 -0.6060  1.7551
 5135SOL     OW16454   2.992   2.156   0.937 -0.6555 -0.2023  0.1175
 5135SOL    HW116455   3.052   2.100   0.986 -1.6673 -1.5439 -0.0977
 5135SOL    HW216456   2.914   2.161   0.991 -0.8545  0.3911 -0.2135
 5136SOL     OW16457   1.149   6.902   6.244 -0.6583 -0.3299 -0.6211
 5136SOL    HW116458   1.076   6.841   6.232 -0.4486 -0.6270 -0.4132
 5136SOL    HW216459   1.191   6.873   6.325 -0.4476 -0.0171 -0.6177
 5137SOL     OW16460   8.097   1.120   1.541 -0.0130  0.5135 -0.2539
 5137SOL    HW116461   8.122   1.155   1.455 -1.8589  0.4116 -0.8784
 5137SOL    HW216462   8.017   1.071   1.524 -0.3181  0.3416  1.5174
 5138SOL     OW16463   0.133   0.108   7.733  0.6367 -0.2684  0.7223
 5138SOL    HW116464   0.129   0.038   7.668  1.0863  0.6362 -0.3000
 5138SOL    HW216465   0.041   0.130   7.750  0.5145  1.2509 -1.5769
 5139SOL     OW16466   4.400   2.003   3.451  0.1906  0.4293 -0.1943
 5139SOL    HW116467   4.353   2.008   3.535  1.5593  1.6521  0.5470
 5139SOL    HW216468   4.373   2.083   3.405 -1.1038 -0.5854 -1.2571
 5140SOL     OW16469   2.402   7.811   2.108 -0.4837 -0.1641  0.1048
 5140SOL    HW116470   2.373   7.748   2.043  1.3620 -1.4331  0.4433
 5140SOL    HW216471   2.395   7.765   2.192  0.4138  0.2282  0.4121
 5141SOL     OW16472   4.603   5.629   5.293  0.1974  0.3803 -0.1209
 5141SOL    HW116473   4.587   5.716   5.256  0.5534  0.3632 -0.3194
 5141SOL    HW216474   4.688   5.636   5.335 -0.2287  0.4157  0.7633
 5142SOL     OW16475   5.267   7.968   2.379 -0.4449  0.5635  0.0211
 5142SOL    HW116476   5.201   7.899   2.368  1.2288 -1.2270  0.6513
 5142SOL    HW216477   5.278   7.976   2.473 -0.2362  1.3573 -0.0617
 5143SOL     OW16478   5.488   3.464   1.896  0.0268 -0.4508 -0.2852
 5143SOL    HW116479   5.523   3.462   1.807 -0.2257 -1.5390 -0.3642
 5143SOL    HW216480   5.549   3.521   1.944  0.4200 -0.2222 -1.0343
 5144SOL     OW16481   6.486   6.830   0.332 -0.2442  0.1138  0.3593
 5144SOL    HW116482   6.513   6.902   0.275 -0.7091 -0.3542 -0.4706
 5144SOL    HW216483   6.541   6.839   0.410  2.8243 -1.1853 -1.4911
 5145SOL     OW16484   5.744   1.243   6.494 -0.0743  0.4983  0.4743
 5145SOL    HW116485   5.707   1.322   6.533  0.3850  1.2941 -0.6721
 5145SOL    HW216486   5.763   1.267   6.404  0.8346 -0.6800  0.3284
 5146SOL     OW16487   6.169   4.426   4.629  0.3299 -0.6907 -0.2333
 5146SOL    HW116488   6.142   4.387   4.712  0.0291 -1.7662 -0.8227
 5146SOL    HW216489   6.139   4.517   4.634 -1.0404 -1.1493  0.2039
 5147SOL     OW16490   6.851   2.637   2.341 -0.0402  0.2760 -0.2413
 5147SOL    HW116491   6.945   2.645   2.329 -0.0586  0.6052 -0.1749
 5147SOL    HW216492   6.821   2.726   2.356  0.0011 -0.0962  2.5147
 5148SOL     OW16493   4.287   3.051   5.689  0.7143 -0.1920  0.2787
 5148SOL    HW116494   4.266   3.144   5.682  0.2509 -0.3047  0.0980
 5148SOL    HW216495   4.305   3.024   5.600 -1.8784 -0.8782 -0.1428
 5149SOL     OW16496   4.868   0.617   2.136 -0.0138 -0.0812 -0.2019
 5149SOL    HW116497   4.895   0.526   2.121 -0.9651 -0.9747  2.8946
 5149SOL    HW216498   4.787   0.626   2.086 -0.7134 -1.4534  0.6355
 5150SOL     OW16499   1.586   0.174   7.697 -0.2252  0.0518 -0.5727
 5150SOL    HW116500   1.523   0.242   7.674 -0.5268 -0.4476 -1.2981
 5150SOL    HW216501   1.661   0.221   7.731 -0.3226  0.7740 -1.3100
 5151SOL     OW16502   7.946   4.261   5.280 -0.1003  0.3656  0.0933
 5151SOL    HW116503   7.969   4.174   5.313  2.2864  1.2065  0.8676
 5151SOL    HW216504   8.008   4.320   5.323  0.3864  2.0818 -2.6814
 5152SOL     OW16505   2.822   1.967   3.463 -0.2172 -0.0386 -0.0413
 5152SOL    HW116506   2.733   1.971   3.497 -0.1923 -1.0641  0.1787
 5152SOL    HW216507   2.843   2.057   3.439 -0.6505  0.5276  1.6059
 5153SOL     OW16508   4.390   3.810   4.165  0.2051  0.1383  0.0204
 5153SOL    HW116509   4.477   3.845   4.180  0.6013 -0.1519 -1.4527
 5153SOL    HW216510   4.382   3.806   4.070 -1.1396 -0.5272  0.1417
 5154SOL     OW16511   4.516   0.439   5.696 -0.3871 -0.4429  0.2850
 5154SOL    HW116512   4.445   0.390   5.735  0.4392 -1.2536  0.8147
 5154SOL    HW216513   4.488   0.455   5.606 -1.1258 -0.9602  0.4176
 5155SOL     OW16514   4.461   3.410   6.392 -0.5464  0.2151  0.0334
 5155SOL    HW116515   4.414   3.452   6.320 -0.3420  1.5753  0.6605
 5155SOL    HW216516   4.404   3.420   6.468  0.3349  1.1004  0.6082
 5156SOL     OW16517   3.988   3.540   1.990  0.5665 -1.1280  0.0864
 5156SOL    HW116518   4.016   3.451   2.010  2.0312 -0.8208 -0.4733
 5156SOL    HW216519   4.061   3.595   2.016 -0.7120  0.0448  1.3622
 5157SOL     OW16520   3.560   2.964   6.350  0.2457 -0.4447 -0.2598
 5157SOL    HW116521   3.506   2.967   6.272  0.5046  0.6954 -0.4142
 5157SOL    HW216522   3.608   3.047   6.350  0.8453 -0.7637  0.6848
 5158SOL     OW16523   5.337   3.337   2.130  0.1992 -0.0590  0.1415
 5158SOL    HW116524   5.392   3.377   2.063  0.0144  0.0999  0.0866
 5158SOL    HW216525   5.394   3.271   2.171  0.2736 -0.2372 -0.2505
 5159SOL     OW16526   0.224   4.403   3.757  0.4763  0.0089  0.2927
 5159SOL    HW116527   0.217   4.434   3.847  2.0823 -0.9271  0.7845
 5159SOL    HW216528   0.259   4.478   3.709  1.0320  0.0673  0.7680
 5160SOL     OW16529   6.690   4.107   6.002  0.4710 -0.6720 -0.8190
 5160SOL    HW116530   6.688   4.072   5.913  0.1906 -0.4269 -0.9121
 5160SOL    HW216531   6.640   4.189   5.996 -0.6766 -1.3073 -0.1478
 5161SOL     OW16532   5.661   1.487   2.339 -0.1461  0.5628 -0.7808
 5161SOL    HW116533   5.657   1.485   2.435 -0.9401  0.5966 -0.8125
 5161SOL    HW216534   5.709   1.407   2.316 -0.2808  0.3618 -0.3739
 5162SOL     OW16535   7.216   6.003   2.106  0.0020 -0.5903 -0.2872
 5162SOL    HW116536   7.143   6.042   2.154  0.6982 -1.0505  1.2351
 5162SOL    HW216537   7.256   5.942   2.169  1.2310 -0.9155 -1.3314
 5163SOL     OW16538   6.417   6.217   3.116 -0.4177 -0.3869 -0.0527
 5163SOL    HW116539   6.364   6.177   3.048 -1.4562 -0.2524  0.6586
 5163SOL    HW216540   6.482   6.269   3.069 -0.6143 -0.9177 -0.9377
 5164SOL     OW16541   6.068   2.236   7.927 -0.0324 -0.2376  0.2011
 5164SOL    HW116542   6.066   2.209   8.019 -0.9097 -0.2799  0.1745
 5164SOL    HW216543   6.158   2.266   7.913 -0.1157  0.5859  1.3067
 5165SOL     OW16544   1.346   3.748   2.693  0.2202 -0.0009  0.8875
 5165SOL    HW116545   1.300   3.724   2.774 -1.3332  0.7211  0.2570
 5165SOL    HW216546   1.432   3.777   2.723 -0.1692 -0.1589  2.2442
 5166SOL     OW16547   0.138   3.037   6.922  0.0592 -0.1662 -0.4982
 5166SOL    HW116548   0.193   3.039   6.844  2.2518  1.2217  1.0085
 5166SOL    HW216549   0.183   2.978   6.982 -0.4325  0.5051  0.5530
 5167SOL     OW16550   1.892   5.811   7.249 -0.5074  0.3413  0.2730
 5167SOL    HW116551   1.898   5.821   7.344  1.8561  1.1584  0.1031
 5167SOL    HW216552   1.980   5.785   7.221 -0.8504  1.1710 -1.7891
 5168SOL     OW16553   5.333   0.177   2.855  0.6769 -0.0021  0.0063
 5168SOL    HW116554   5.395   0.236   2.812 -0.3137  0.7307 -0.4591
 5168SOL    HW216555   5.376   0.152   2.936  1.1305  1.3689  0.2180
 5169SOL     OW16556   6.566   7.744   3.063 -0.0456  0.0720  0.1339
 5169SOL    HW116557   6.629   7.692   3.113 -0.0271 -0.6067 -0.5803
 5169SOL    HW216558   6.609   7.760   2.979  0.8910  3.1351  1.0573
 5170SOL     OW16559   0.251   5.401   5.368 -0.1235  0.3074 -0.3113
 5170SOL    HW116560   0.196   5.345   5.313 -0.0870 -0.3122  0.2646
 5170SOL    HW216561   0.327   5.422   5.314 -1.1160  1.5626 -1.2885
 5171SOL     OW16562   0.058   4.718   1.425 -0.3276 -0.0434 -0.3368
 5171SOL    HW116563   0.153   4.718   1.434 -0.2211  0.4020 -1.2835
 5171SOL    HW216564   0.025   4.684   1.508  0.6681 -0.4846 -0.1169
 5172SOL     OW16565   6.050   2.140   8.183 -0.0529 -0.3944 -0.4614
 5172SOL    HW116566   6.006   2.093   8.254 -1.0438 -1.6904 -1.8529
 5172SOL    HW216567   6.133   2.168   8.220 -1.3617  0.7853  1.8236
 5173SOL     OW16568   2.477   3.538   7.171  0.0702 -0.0960  0.4175
 5173SOL    HW116569   2.547   3.499   7.117 -0.8863 -0.4445 -0.6148
 5173SOL    HW216570   2.522   3.569   7.249  0.8498 -4.1231  1.8362
 5174SOL     OW16571   1.749   7.387   6.042 -0.3095 -0.0969  0.0473
 5174SOL    HW116572   1.679   7.373   5.978  0.2568  0.4008 -0.7025
 5174SOL    HW216573   1.703   7.394   6.126 -1.1517  0.0923 -0.4138
 5175SOL     OW16574   3.391   4.298   6.397 -0.2185  0.0389  0.0659
 5175SOL    HW116575   3.421   4.364   6.334 -0.8701 -0.5659 -0.9205
 5175SOL    HW216576   3.323   4.343   6.448  0.1637  0.4774  0.1891
 5176SOL     OW16577   3.907   7.694   7.237  0.4625  0.0496 -0.2117
 5176SOL    HW116578   3.992   7.731   7.214  0.6909  0.4449  1.1775
 5176SOL    HW216579   3.866   7.761   7.292 -0.8540 -0.0363 -1.0454
 5177SOL     OW16580   3.090   2.955   8.123 -0.1243 -0.1776 -0.1148
 5177SOL    HW116581   3.027   2.915   8.063  0.3648 -1.3775  0.1587
 5177SOL    HW216582   3.171   2.907   8.110  0.0522 -0.3407  1.3562
 5178SOL     OW16583   1.386   2.678   5.306 -0.8380  1.0650  0.7433
 5178SOL    HW116584   1.408   2.749   5.246  1.5277 -0.7248 -0.6809
 5178SOL    HW216585   1.459   2.676   5.368 -0.1504 -0.8964 -0.0537
 5179SOL     OW16586   1.272   7.139   1.059 -0.1138 -0.1718  0.3298
 5179SOL    HW116587   1.346   7.188   1.093  0.3173 -0.7199  0.1885
 5179SOL    HW216588   1.256   7.070   1.124 -1.4542  0.8293  1.1169
 5180SOL     OW16589   5.725   1.390   0.289  0.2195 -0.1691 -0.0304
 5180SOL    HW116590   5.811   1.349   0.275  0.2765  0.1394 -0.6167
 5180SOL    HW216591   5.737   1.446   0.365  0.0567 -1.4785  0.9842
 5181SOL     OW16592   1.695   7.602   3.916  0.0222  0.0123 -0.0458
 5181SOL    HW116593   1.722   7.634   3.830  0.7654  1.1253  0.5776
 5181SOL    HW216594   1.761   7.537   3.940  0.3808  0.4201  0.0946
 5182SOL     OW16595   7.706   6.889   2.096 -0.4110 -0.3855 -1.2317
 5182SOL    HW116596   7.639   6.956   2.104 -1.4919 -1.3399 -1.9458
 5182SOL    HW216597   7.764   6.904   2.171 -1.7338  0.1116 -0.2669
 5183SOL     OW16598   4.286   3.186   2.878  0.2162  0.4578  0.3347
 5183SOL    HW116599   4.272   3.226   2.964  0.4568 -1.0809  1.1228
 5183SOL    HW216600   4.318   3.098   2.897  0.2465  0.0688 -1.3407
 5184SOL     OW16601   8.009   4.463   4.086 -0.6054  0.0337  1.0615
 5184SOL    HW116602   7.960   4.450   4.005  0.7461  0.6429  0.1176
 5184SOL    HW216603   8.066   4.537   4.068  1.2539 -1.1462  1.8261
 5185SOL     OW16604   3.954   2.668   3.930  0.4363  0.6275  0.0568
 5185SOL    HW116605   3.955   2.763   3.932 -0.3091  0.6395  0.2365
 5185SOL    HW216606   4.039   2.643   3.893  0.1725  1.3867 -1.1084
 5186SOL     OW16607   0.864   4.046   6.692 -0.1762  0.3169 -0.0606
 5186SOL    HW116608   0.892   4.055   6.601  2.5565  0.4285  0.7033
 5186SOL    HW216609   0.808   4.123   6.707 -0.4423  0.4444 -1.5260
 5187SOL     OW16610   7.785   4.458   5.436 -0.0724 -0.4847 -0.5016
 5187SOL    HW116611   7.831   4.410   5.366 -1.6510  0.5417 -2.3409
 5187SOL    HW216612   7.849   4.524   5.465  1.2076 -1.9951  0.2895
 5188SOL     OW16613   2.493   0.667   2.538 -0.1767 -0.2760 -0.1550
 5188SOL    HW116614   2.522   0.639   2.625 -0.8746 -0.5619 -0.0093
 5188SOL    HW216615   2.574   0.671   2.486  0.5809  1.9116  1.0237
 5189SOL     OW16616   4.926   6.813   1.312 -0.6932  0.1185  0.0559
 5189SOL    HW116617   5.000   6.865   1.342 -1.4445  1.4200 -0.2764
 5189SOL    HW216618   4.851   6.848   1.360 -0.9467 -2.0340  1.3797
 5190SOL     OW16619   1.780   2.371   4.266  0.2559  0.5626 -0.1300
 5190SOL    HW116620   1.699   2.320   4.264 -0.0732  1.1108 -1.1477
 5190SOL    HW216621   1.781   2.411   4.353  0.6183 -1.2943  0.7879
 5191SOL     OW16622   2.122   7.586   6.243  0.1853  0.4427 -0.4612
 5191SOL    HW116623   2.098   7.606   6.333  2.0876  2.3534 -0.2891
 5191SOL    HW216624   2.211   7.621   6.234  0.1942 -0.0371 -2.9698
 5192SOL     OW16625   4.873   3.059   5.289  0.0823 -0.2799 -0.0385
 5192SOL    HW116626   4.888   2.988   5.351  2.7761 -0.1725 -0.4490
 5192SOL    HW216627   4.811   3.022   5.226 -0.2115 -1.5124  0.9233
 5193SOL     OW16628   6.009   0.555   4.017  0.1944  0.0331  0.1966
 5193SOL    HW116629   6.072   0.525   4.083 -0.2033  1.1247  1.1001
 5193SOL    HW216630   6.062   0.603   3.953  0.4103  0.0535  0.3907
 5194SOL     OW16631   2.485   7.288   3.571 -0.4948  0.4116  0.1637
 5194SOL    HW116632   2.521   7.209   3.612  1.1292  0.9745 -0.0926
 5194SOL    HW216633   2.562   7.336   3.541 -1.4800  1.8989 -0.0686
 5195SOL     OW16634   3.378   4.501   7.005 -0.5021  0.0953 -0.3312
 5195SOL    HW116635   3.440   4.435   6.975  1.3363  1.2613  0.7696
 5195SOL    HW216636   3.347   4.469   7.090 -1.4790 -0.4975 -0.8901
 5196SOL     OW16637   0.918   5.898   3.414  0.2337 -0.6752 -0.3545
 5196SOL    HW116638   0.856   5.883   3.485  0.9585 -1.5973  0.1016
 5196SOL    HW216639   0.894   5.984   3.379 -0.8119 -0.6877  0.2998
 5197SOL     OW16640   6.636   6.914   6.980  0.1200 -0.3299  0.2152
 5197SOL    HW116641   6.614   6.917   7.073 -0.4528  1.3671  0.0545
 5197SOL    HW216642   6.573   6.851   6.943  0.0145 -0.6285  0.8798
 5198SOL     OW16643   3.137   5.638   1.157 -0.1718 -0.0137 -0.2167
 5198SOL    HW116644   3.207   5.581   1.189 -0.7134 -0.6022 -0.0878
 5198SOL    HW216645   3.105   5.683   1.235  0.5931  0.8624 -0.3851
 5199SOL     OW16646   7.818   5.774   5.123 -0.1597  0.4194  0.1378
 5199SOL    HW116647   7.798   5.706   5.058  0.7565 -0.2872  0.5815
 5199SOL    HW216648   7.739   5.827   5.126 -0.8488 -0.5408 -0.3317
 5200SOL     OW16649   6.997   6.874   8.252 -0.7583  0.6604  0.0812
 5200SOL    HW116650   7.076   6.903   8.298 -1.0107  0.5834  0.5673
 5200SOL    HW216651   7.023   6.791   8.210  0.2975  2.0583 -2.2302
 5201SOL     OW16652   1.992   5.188   8.060  0.1745 -0.3716 -0.2430
 5201SOL    HW116653   2.073   5.221   8.100  1.2751 -1.3496 -1.5664
 5201SOL    HW216654   1.964   5.260   8.003 -0.5941  0.4480  1.1219
 5202SOL     OW16655   3.089   2.869   5.666 -0.1263 -0.0410  0.0002
 5202SOL    HW116656   3.162   2.823   5.708 -1.3981 -1.2610  0.9467
 5202SOL    HW216657   3.128   2.907   5.587  1.4431 -0.9902  0.2651
 5203SOL     OW16658   1.016   4.672   5.227  0.7384  0.4295 -0.2997
 5203SOL    HW116659   0.934   4.721   5.224  1.3123  1.5807  1.2298
 5203SOL    HW216660   0.992   4.586   5.260  0.4709  1.8267  3.7427
 5204SOL     OW16661   3.970   3.031   7.851 -0.3529 -0.2524  0.1709
 5204SOL    HW116662   3.895   3.053   7.795 -1.1317 -0.9179  0.9244
 5204SOL    HW216663   3.977   3.105   7.911  0.9083  0.7891 -1.1863
 5205SOL     OW16664   3.844   3.744   6.620 -0.1338  0.6994  0.5946
 5205SOL    HW116665   3.844   3.738   6.524  0.2378 -0.5597  0.6600
 5205SOL    HW216666   3.875   3.833   6.638  0.7373  0.6320 -0.4477
 5206SOL     OW16667   8.103   3.965   3.062 -0.1290 -0.2587  0.2485
 5206SOL    HW116668   8.046   3.904   3.015 -0.0250 -1.7849  1.9968
 5206SOL    HW216669   8.067   4.051   3.041 -1.2055 -0.9816 -1.1032
 5207SOL     OW16670   5.935   4.007   3.776  0.3165  0.3579  0.1005
 5207SOL    HW116671   5.972   4.059   3.705  1.5219 -0.5402  0.0357
 5207SOL    HW216672   5.932   4.067   3.851 -2.3304  1.7562 -1.0041
 5208SOL     OW16673   2.747   3.374   2.753 -1.1008  0.1072 -0.7668
 5208SOL    HW116674   2.713   3.318   2.823  0.4262 -1.1563 -0.9873
 5208SOL    HW216675   2.750   3.317   2.676 -2.6508  1.4477 -1.8766
 5209SOL     OW16676   6.809   1.090   7.649  0.7355 -0.0686 -0.2862
 5209SOL    HW116677   6.868   1.136   7.708 -1.1720  0.1130  1.6033
 5209SOL    HW216678   6.723   1.126   7.668 -0.6418 -3.2202  0.1512
 5210SOL     OW16679   6.393   0.055   7.984  0.2020  0.3641  0.1426
 5210SOL    HW116680   6.435   0.129   7.940 -0.5653 -0.0608 -1.4009
 5210SOL    HW216681   6.463  -0.011   7.992  0.2631  0.2801 -0.9073
 5211SOL     OW16682   5.747   8.091   5.907 -0.0398  0.1372 -0.0985
 5211SOL    HW116683   5.751   8.170   5.960 -0.9681  0.1730 -0.0570
 5211SOL    HW216684   5.812   8.032   5.946 -0.5060  0.2683  0.9106
 5212SOL     OW16685   6.383   2.787   1.092 -0.2398 -0.3131 -0.2450
 5212SOL    HW116686   6.417   2.875   1.077  0.6067 -0.7080 -0.7323
 5212SOL    HW216687   6.335   2.793   1.175 -0.4468  0.6710 -0.4332
 5213SOL     OW16688   1.663   7.368   5.284  0.5101  0.0169  0.2832
 5213SOL    HW116689   1.636   7.300   5.222 -1.5443  0.1653  0.9188
 5213SOL    HW216690   1.685   7.320   5.364 -0.8093  0.0358  0.6885
 5214SOL     OW16691   0.666   7.346   4.496 -0.3469  0.1154  0.5177
 5214SOL    HW116692   0.736   7.411   4.509  0.6073 -1.0653  1.5216
 5214SOL    HW216693   0.711   7.262   4.495 -1.7697 -0.6925  1.3058
 5215SOL     OW16694   1.803   3.547   2.043 -0.1335  0.2112 -0.1866
 5215SOL    HW116695   1.749   3.558   1.964 -0.0600 -0.5520 -0.3434
 5215SOL    HW216696   1.807   3.635   2.080 -1.6901  0.2469 -0.0326
 5216SOL     OW16697   2.906   0.601   5.308  0.3289 -0.0718  0.2485
 5216SOL    HW116698   2.964   0.573   5.379  1.6839 -0.7127 -1.0562
 5216SOL    HW216699   2.965   0.624   5.236 -1.0255 -1.1079 -1.2751
 5217SOL     OW16700   0.202   2.427   4.427  0.3405 -0.7467  0.1889
 5217SOL    HW116701   0.218   2.491   4.357  2.5058 -1.2100  0.1925
 5217SOL    HW216702   0.143   2.472   4.487 -0.4192  0.1923 -1.2176
 5218SOL     OW16703   1.878   3.281   7.454 -0.1576  0.1157 -0.2226
 5218SOL    HW116704   1.864   3.284   7.548  0.6663  0.2603 -0.0949
 5218SOL    HW216705   1.888   3.188   7.433 -1.1762  0.0200 -0.3033
 5219SOL     OW16706   3.276   1.333   7.245  0.1235  0.0687  0.3641
 5219SOL    HW116707   3.323   1.253   7.267 -0.1199 -0.3932 -0.7149
 5219SOL    HW216708   3.346   1.396   7.225  0.3075 -0.1766  0.2254
 5220SOL     OW16709   3.553   1.695   0.492  0.5608 -0.6202 -0.2015
 5220SOL    HW116710   3.524   1.604   0.505 -0.5083 -0.2323  0.1666
 5220SOL    HW216711   3.546   1.708   0.398 -0.9773 -0.3878 -0.0853
 5221SOL     OW16712   8.146   5.773   1.879 -0.3294 -0.0355 -0.3999
 5221SOL    HW116713   8.171   5.689   1.841  0.1853  0.2300 -0.6533
 5221SOL    HW216714   8.165   5.763   1.973 -1.9216 -0.8088 -0.1133
 5222SOL     OW16715   6.800   6.627   2.964  0.3011  0.3612 -0.2812
 5222SOL    HW116716   6.894   6.623   2.982  0.5732 -0.7855 -1.7770
 5222SOL    HW216717   6.786   6.563   2.895 -1.5631  0.6675 -0.2385
 5223SOL     OW16718   1.947   6.409   2.142  0.2163 -0.3110  0.2296
 5223SOL    HW116719   2.028   6.374   2.104 -0.5250 -0.1692 -1.6230
 5223SOL    HW216720   1.888   6.417   2.067 -0.1797  3.5051  0.7700
 5224SOL     OW16721   6.017   1.890   2.184 -0.2292  0.1483  0.2484
 5224SOL    HW116722   5.960   1.965   2.171 -0.6813 -0.4714 -1.7921
 5224SOL    HW216723   5.967   1.816   2.151  0.9163 -0.7583  0.4749
 5225SOL     OW16724   1.612   3.118   0.769  0.1794  0.1962  0.6082
 5225SOL    HW116725   1.642   3.208   0.756  0.0676  0.2299  0.5913
 5225SOL    HW216726   1.662   3.088   0.846  0.8788 -0.0265  0.0747
 5226SOL     OW16727   7.866   7.655   2.861  0.4025  0.2600  0.2912
 5226SOL    HW116728   7.926   7.700   2.803 -0.5910  0.8493 -0.3184
 5226SOL    HW216729   7.908   7.657   2.947  0.3315  2.4873  0.3169
 5227SOL     OW16730   1.179   6.770   5.451  0.2757  0.2881 -0.6882
 5227SOL    HW116731   1.170   6.730   5.365  0.8404  0.2340 -0.7283
 5227SOL    HW216732   1.245   6.839   5.439  0.1551  0.4656 -0.3624
 5228SOL     OW16733   1.650   5.292   1.874  0.0441  0.2086  0.4457
 5228SOL    HW116734   1.733   5.305   1.919 -0.8861  1.1907  1.9802
 5228SOL    HW216735   1.630   5.199   1.886  0.5809  0.1197  0.6766
 5229SOL     OW16736   2.403   2.123   5.784  0.4198 -0.3770  0.3689
 5229SOL    HW116737   2.322   2.117   5.835  1.1103  0.9177  1.6924
 5229SOL    HW216738   2.440   2.208   5.807  1.5985 -0.4405 -1.0942
 5230SOL     OW16739   0.824   3.207   3.638  0.3620 -0.4231 -0.4017
 5230SOL    HW116740   0.909   3.165   3.650 -0.4829 -2.0916 -0.0968
 5230SOL    HW216741   0.812   3.260   3.717  1.0330 -0.3019 -0.3745
 5231SOL     OW16742   4.656   7.735   4.085  0.2394 -0.0709  0.2515
 5231SOL    HW116743   4.685   7.826   4.081 -0.3749  0.0995 -1.1290
 5231SOL    HW216744   4.603   7.724   4.006  1.0223 -1.8704 -0.0616
 5232SOL     OW16745   7.061   5.300   5.051 -0.0225 -0.1345  0.0106
 5232SOL    HW116746   7.083   5.298   4.958 -0.7901 -0.7497 -0.1708
 5232SOL    HW216747   6.995   5.231   5.062  1.4608 -1.4042  1.3861
 5233SOL     OW16748   0.980   2.102   3.234  0.2289  0.4236  0.4963
 5233SOL    HW116749   0.902   2.157   3.224 -0.5305  0.1782  3.7238
 5233SOL    HW216750   0.951   2.029   3.289  2.1942 -0.9809 -0.2240
 5234SOL     OW16751   2.748   2.389   0.593 -0.3490 -0.3978 -0.0313
 5234SOL    HW116752   2.676   2.326   0.603  0.5752 -1.3969  0.4176
 5234SOL    HW216753   2.790   2.365   0.511 -1.4706  1.2054 -1.1427
 5235SOL     OW16754   5.848   7.753   7.167 -0.2878 -0.2014  0.1889
 5235SOL    HW116755   5.784   7.824   7.155 -0.4460 -0.5443 -1.0816
 5235SOL    HW216756   5.794   7.674   7.175 -0.0205 -0.5609 -1.4050
 5236SOL     OW16757   3.431   0.967   6.214  0.1446  0.2194 -0.0086
 5236SOL    HW116758   3.491   0.939   6.283  0.3031  0.9377  0.1496
 5236SOL    HW216759   3.454   0.912   6.138  0.9704  0.4643  0.0604
 5237SOL     OW16760   1.204   5.462   0.964  0.2755  0.2732  0.4973
 5237SOL    HW116761   1.285   5.487   0.920  0.1667 -1.0956 -0.5483
 5237SOL    HW216762   1.218   5.372   0.992 -0.2247  0.6278  1.9795
 5238SOL     OW16763   3.557   7.033   5.426 -0.2554 -0.3397  0.4932
 5238SOL    HW116764   3.477   7.071   5.390  0.6941 -0.5405 -1.9835
 5238SOL    HW216765   3.532   7.005   5.515 -2.6021  0.5669  0.1909
 5239SOL     OW16766   5.725   4.243   4.958  0.1419 -0.4877  0.9770
 5239SOL    HW116767   5.770   4.172   5.005  1.3070  0.9033  2.0874
 5239SOL    HW216768   5.669   4.284   5.024 -2.4053 -1.8182 -0.2514
 5240SOL     OW16769   2.588   4.536   3.319  1.1264 -0.0144  0.2963
 5240SOL    HW116770   2.653   4.525   3.250  2.2571 -3.1529  1.6634
 5240SOL    HW216771   2.638   4.563   3.396 -0.0730  3.1444  0.1289
 5241SOL     OW16772   2.870   8.245   1.014  0.1988 -0.0865 -0.0795
 5241SOL    HW116773   2.790   8.295   0.994  1.5253  2.8134  1.3341
 5241SOL    HW216774   2.908   8.226   0.928 -1.0536  0.1432 -0.7162
 5242SOL     OW16775   7.169   0.667   0.315 -0.2226  0.1027 -0.2842
 5242SOL    HW116776   7.179   0.599   0.382  0.7403  1.1781  0.6899
 5242SOL    HW216777   7.088   0.643   0.269  1.2116 -3.0056 -1.5159
 5243SOL     OW16778   8.090   0.247   4.465  0.9236 -0.1428 -0.0426
 5243SOL    HW116779   8.115   0.249   4.372  1.6237  0.4782  0.1518
 5243SOL    HW216780   7.995   0.247   4.464  0.9171  0.8080 -0.7539
 5244SOL     OW16781   7.700   2.944   3.666  0.4606  0.1241  0.5574
 5244SOL    HW116782   7.680   3.003   3.593  1.7038 -1.4715 -1.1523
 5244SOL    HW216783   7.710   3.002   3.742 -0.0705  1.9111 -0.6785
 5245SOL     OW16784   3.017   6.675   4.789  0.6201  0.4518 -0.4917
 5245SOL    HW116785   3.080   6.621   4.741 -2.6078 -1.8550 -2.6019
 5245SOL    HW216786   2.985   6.618   4.859  0.0259  1.1039 -0.2152
 5246SOL     OW16787   0.616   0.478   0.319  0.2895  0.5911  0.4218
 5246SOL    HW116788   0.663   0.457   0.238 -0.0316  2.5519 -0.3309
 5246SOL    HW216789   0.678   0.456   0.389  1.3656  0.7813 -0.4436
 5247SOL     OW16790   0.724   6.678   6.432 -0.3921  0.0622 -0.3659
 5247SOL    HW116791   0.800   6.685   6.489 -0.8258 -0.1997  0.2544
 5247SOL    HW216792   0.649   6.686   6.491 -0.8714 -1.7604 -0.6754
 5248SOL     OW16793   3.203   0.988   4.167  0.0243 -0.3581 -0.2510
 5248SOL    HW116794   3.243   0.919   4.220 -0.9102 -1.9681 -1.5464
 5248SOL    HW216795   3.124   1.013   4.216 -0.3208 -1.1550 -0.3699
 5249SOL     OW16796   5.817   1.758   5.879  0.1067 -0.4336  0.1584
 5249SOL    HW116797   5.856   1.840   5.909 -0.5540 -0.2289  0.4869
 5249SOL    HW216798   5.791   1.713   5.959 -0.3292 -0.5546 -0.0485
 5250SOL     OW16799   0.938   5.959   1.192 -0.1877  0.2681 -0.1454
 5250SOL    HW116800   0.992   6.016   1.247  1.3232 -0.9784 -0.2546
 5250SOL    HW216801   0.956   5.987   1.103  1.8036 -1.2747 -0.3182
 5251SOL     OW16802   4.976   7.672   7.473  0.7802 -0.5768 -0.0310
 5251SOL    HW116803   4.912   7.734   7.436  1.3778  1.1838  1.7118
 5251SOL    HW216804   4.963   7.592   7.422 -1.7777  0.1649 -0.7379
 5252SOL     OW16805   0.278   5.579   5.115  0.1628 -0.1037 -0.0808
 5252SOL    HW116806   0.265   5.672   5.101  2.5552  0.4499  0.8623
 5252SOL    HW216807   0.366   5.572   5.153 -0.1642 -2.6921  0.4222
 5253SOL     OW16808   6.110   5.638   2.931  0.6677  0.5249 -0.3139
 5253SOL    HW116809   6.154   5.697   2.870 -0.4444  1.7974  0.0665
 5253SOL    HW216810   6.109   5.554   2.886  2.8004  0.6036 -0.6277
 5254SOL     OW16811   0.678   6.708   2.777 -0.3932  0.6722  0.3710
 5254SOL    HW116812   0.610   6.769   2.747 -2.1032 -0.8263  1.0031
 5254SOL    HW216813   0.695   6.734   2.868 -1.0909  0.2711  0.6274
 5255SOL     OW16814   5.927   2.614   2.649 -0.2117 -0.4665 -0.7022
 5255SOL    HW116815   5.969   2.602   2.735  0.5836 -2.6450 -1.3345
 5255SOL    HW216816   5.846   2.564   2.655 -1.4738  1.4936 -0.4183
 5256SOL     OW16817   4.751   5.163   2.579 -0.6208  0.1828 -0.2382
 5256SOL    HW116818   4.756   5.207   2.494 -1.2079 -1.3549 -1.1061
 5256SOL    HW216819   4.837   5.123   2.591  0.5114  2.8194  1.3390
 5257SOL     OW16820   6.631   2.538   1.815 -0.2301  0.5144 -0.3000
 5257SOL    HW116821   6.648   2.631   1.797 -1.5068  0.8220  0.0271
 5257SOL    HW216822   6.583   2.507   1.739  1.2685 -0.2262 -0.9861
 5258SOL     OW16823   4.858   7.285   2.416 -0.3266  0.4814 -0.1837
 5258SOL    HW116824   4.867   7.191   2.401 -0.0781  0.7010 -1.5894
 5258SOL    HW216825   4.778   7.294   2.467 -0.5078 -0.4743 -0.2883
 5259SOL     OW16826   3.374   6.627   6.435  0.1708  0.8225  0.4483
 5259SOL    HW116827   3.460   6.668   6.428  0.8484 -0.6145 -0.2214
 5259SOL    HW216828   3.339   6.632   6.346  0.4536 -0.3924  0.2530
 5260SOL     OW16829   4.102   0.543   6.412  0.1669  0.2099 -0.0088
 5260SOL    HW116830   4.061   0.457   6.421 -1.2746  1.0074  1.5982
 5260SOL    HW216831   4.196   0.525   6.407  0.0026 -1.3860  1.7658
 5261SOL     OW16832   1.424   5.948   6.302 -0.3223  0.5124  0.4161
 5261SOL    HW116833   1.447   5.861   6.270 -1.1206  0.2871  0.4211
 5261SOL    HW216834   1.344   5.935   6.353  0.2908  1.0392  1.5718
 5262SOL     OW16835   3.980   2.583   6.686  0.1764  0.6188  0.3426
 5262SOL    HW116836   3.908   2.641   6.662 -0.8037 -0.3388  0.8987
 5262SOL    HW216837   3.955   2.498   6.651  1.3401  0.3992  0.0137
 5263SOL     OW16838   6.885   1.253   4.575  0.2976  0.3778 -0.3518
 5263SOL    HW116839   6.978   1.266   4.597  0.2515  0.0959  0.0165
 5263SOL    HW216840   6.862   1.170   4.617 -0.2106  0.6110 -0.1709
 5264SOL     OW16841   4.433   1.928   4.494 -0.1821  0.4455  0.1813
 5264SOL    HW116842   4.414   2.020   4.514 -0.5866  0.4464 -0.1763
 5264SOL    HW216843   4.389   1.879   4.563  1.6685  0.5732  1.5154
 5265SOL     OW16844   6.939   5.103   7.301 -0.1514  0.2961  0.2422
 5265SOL    HW116845   6.955   5.118   7.208 -0.5092 -0.0626  0.1178
 5265SOL    HW216846   7.026   5.104   7.341 -0.0962  1.9185  0.1427
 5266SOL     OW16847   5.911   7.523   1.427  0.3365  0.3158 -0.0848
 5266SOL    HW116848   5.937   7.479   1.508 -1.2067 -0.5216 -0.0086
 5266SOL    HW216849   5.849   7.590   1.456  2.0285  2.0636 -0.2891
 5267SOL     OW16850   7.710   4.848   6.018 -0.3824  0.2550 -0.0647
 5267SOL    HW116851   7.635   4.901   5.991 -0.7979 -0.1488  0.2826
 5267SOL    HW216852   7.674   4.783   6.077 -0.5298 -2.6452 -3.0500
 5268SOL     OW16853   3.716   0.804   1.558 -0.0441  0.5418  0.2041
 5268SOL    HW116854   3.760   0.730   1.600  0.4603  0.3752 -0.5951
 5268SOL    HW216855   3.702   0.867   1.629  0.1559 -0.0276  0.7533
 5269SOL     OW16856   7.494   1.006   3.399 -0.6191 -0.1197  0.0447
 5269SOL    HW116857   7.505   1.089   3.354 -0.8831 -0.3011 -0.3652
 5269SOL    HW216858   7.578   0.990   3.442 -0.9597  0.9550  1.1642
 5270SOL     OW16859   2.937   2.897   3.316  0.2428  0.2613 -0.1417
 5270SOL    HW116860   2.996   2.853   3.256 -1.0871 -0.7966 -0.7280
 5270SOL    HW216861   2.860   2.839   3.321 -1.3464  2.2189 -0.5135
 5271SOL     OW16862   1.401   8.215   7.637  0.4365  0.2142 -0.2843
 5271SOL    HW116863   1.409   8.186   7.727  0.3588 -1.6617 -0.8398
 5271SOL    HW216864   1.434   8.305   7.637 -0.1637  0.4746  1.7052
 5272SOL     OW16865   1.911   1.594   4.734  0.4778  0.4272  0.1354
 5272SOL    HW116866   1.822   1.588   4.697 -0.0165 -0.0565  1.3682
 5272SOL    HW216867   1.951   1.666   4.686 -0.8485  1.1755  0.0922
 5273SOL     OW16868   6.890   3.389   7.722  0.4595  0.1077  0.4410
 5273SOL    HW116869   6.809   3.393   7.670  0.3178 -0.6362  0.6017
 5273SOL    HW216870   6.941   3.464   7.691 -1.2032  1.9615  1.9000
 5274SOL     OW16871   7.023   6.203   5.237  0.0567  0.2864  0.0652
 5274SOL    HW116872   6.981   6.240   5.159  0.6484 -0.4043 -0.5817
 5274SOL    HW216873   7.046   6.114   5.213 -0.8306 -0.3587  1.4320
 5275SOL     OW16874   5.081   7.583   2.800  0.0701 -0.1600 -0.4639
 5275SOL    HW116875   5.029   7.565   2.721  0.7497 -1.3839 -0.6506
 5275SOL    HW216876   5.031   7.546   2.872  0.5779 -1.1982 -0.6256
 5276SOL     OW16877   3.403   5.690   2.596  0.4004 -0.2766  0.5636
 5276SOL    HW116878   3.355   5.682   2.679 -1.1830  1.9186 -0.0416
 5276SOL    HW216879   3.350   5.643   2.532  1.0136 -0.9870  0.5716
 5277SOL     OW16880   6.113   5.197   6.076  0.3955  0.0889 -0.0700
 5277SOL    HW116881   6.075   5.247   6.148  2.1256  0.5375  0.5576
 5277SOL    HW216882   6.073   5.110   6.085 -1.4708  0.8720 -0.2517
 5278SOL     OW16883   3.965   4.948   0.099 -0.3577 -0.1856  0.0069
 5278SOL    HW116884   3.892   4.989   0.052  0.8456  0.9116 -0.9690
 5278SOL    HW216885   4.035   4.942   0.034  0.6677 -0.5494  1.1147
 5279SOL     OW16886   5.956   7.221   2.939  0.0153 -0.1342 -0.0493
 5279SOL    HW116887   6.044   7.259   2.939 -0.3590  0.9813 -2.7357
 5279SOL    HW216888   5.955   7.164   2.863 -1.0075 -1.7305  1.1107
 5280SOL     OW16889   7.979   4.357   7.742  0.5011 -0.2324  0.3368
 5280SOL    HW116890   7.907   4.412   7.771 -1.6902 -2.3334 -0.8087
 5280SOL    HW216891   7.993   4.382   7.651 -0.5890 -1.5469 -0.2289
 5281SOL     OW16892   0.080   7.865   6.630  1.0734  0.4119 -0.3411
 5281SOL    HW116893   0.079   7.865   6.534  1.5979  1.0756 -0.3600
 5281SOL    HW216894   0.170   7.889   6.653  1.0642 -0.1452  0.3253
 5282SOL     OW16895   1.465   0.502   3.066 -0.0882  0.2445  0.5509
 5282SOL    HW116896   1.469   0.437   2.996  1.1060 -0.3534  1.1590
 5282SOL    HW216897   1.440   0.453   3.144 -0.7488  0.7967  0.7018
 5283SOL     OW16898   1.575   6.239   7.637 -0.6761  0.7663  0.5797
 5283SOL    HW116899   1.532   6.323   7.622  0.9130  1.2834 -1.5328
 5283SOL    HW216900   1.543   6.182   7.568  0.9852  0.7797 -0.2437
 5284SOL     OW16901   5.412   1.650   6.330  0.6151 -0.2929  0.0027
 5284SOL    HW116902   5.421   1.623   6.239 -0.2669  1.1828 -0.5750
 5284SOL    HW216903   5.386   1.742   6.325 -1.6046 -0.7344  1.6742
 5285SOL     OW16904   4.104   2.912   0.375  0.2083 -0.1358 -0.8496
 5285SOL    HW116905   4.163   2.922   0.450 -1.2906  0.2505  0.3311
 5285SOL    HW216906   4.027   2.867   0.411 -1.5260  2.0307 -1.5567
 5286SOL     OW16907   6.368   8.133   5.458 -0.0449 -0.2003 -0.3152
 5286SOL    HW116908   6.408   8.115   5.373 -0.2168 -3.1492  0.1268
 5286SOL    HW216909   6.275   8.114   5.445  0.1225 -2.0103  0.7961
 5287SOL     OW16910   3.250   3.810   0.217 -0.2485 -0.4672  0.5887
 5287SOL    HW116911   3.240   3.814   0.121  2.5963  1.4328  0.2483
 5287SOL    HW216912   3.266   3.718   0.235 -0.8768 -0.8759 -0.7593
 5288SOL     OW16913   6.096   4.079   1.477 -0.0585  0.4962  0.1550
 5288SOL    HW116914   6.114   4.105   1.567 -1.5110 -0.1118  0.6549
 5288SOL    HW216915   6.172   4.026   1.452  1.1824  2.0965  0.3831
 5289SOL     OW16916   3.799   0.037   2.476  0.8443  0.6244  0.3646
 5289SOL    HW116917   3.834   0.077   2.556  1.0827  0.2983  0.4269
 5289SOL    HW216918   3.783   0.110   2.417  0.8765  0.8484  0.6342
 5290SOL     OW16919   4.647   4.058   5.158 -0.2782  0.1849 -0.1676
 5290SOL    HW116920   4.667   4.036   5.068 -0.0085 -0.9560  0.1613
 5290SOL    HW216921   4.697   4.139   5.175 -2.6267  2.1443 -1.9032
 5291SOL     OW16922   6.922   4.951   1.680  0.2174  0.2515  0.1940
 5291SOL    HW116923   6.863   5.026   1.692  1.4753  1.2452  0.3457
 5291SOL    HW216924   6.982   4.979   1.611  2.0936  0.2955  1.7525
 5292SOL     OW16925   5.719   4.742   2.788  0.9464 -0.4432  0.2448
 5292SOL    HW116926   5.707   4.724   2.695  0.6341  0.9094  0.0087
 5292SOL    HW216927   5.724   4.837   2.794 -0.7781 -0.3843  1.7972
 5293SOL     OW16928   2.526   0.944   3.948  0.0873 -0.1440  0.4134
 5293SOL    HW116929   2.482   0.979   4.026 -0.9558 -1.1852  0.3271
 5293SOL    HW216930   2.611   0.987   3.947 -0.7484  1.6029  0.8486
 5294SOL     OW16931   4.477   2.992   7.924  0.0594  0.4537  0.0540
 5294SOL    HW116932   4.453   2.902   7.901 -0.8006  0.8349 -0.5933
 5294SOL    HW216933   4.572   2.996   7.913 -0.0442 -0.0314 -1.1836
 5295SOL     OW16934   8.266   4.649   5.258 -0.2792  0.1109  0.2631
 5295SOL    HW116935   8.291   4.618   5.345 -0.3546  0.3465  0.3715
 5295SOL    HW216936   8.341   4.699   5.227 -0.0036 -0.4974 -0.0762
 5296SOL     OW16937   4.598   3.818   3.527 -1.0016 -0.4050 -0.6450
 5296SOL    HW116938   4.636   3.886   3.583 -0.4523 -0.2418 -1.2010
 5296SOL    HW216939   4.605   3.738   3.579 -0.0474 -0.3474 -0.6632
 5297SOL     OW16940   0.598   2.371   1.231 -0.1872  0.4402  0.3970
 5297SOL    HW116941   0.611   2.441   1.295 -1.4367  0.7932  0.3004
 5297SOL    HW216942   0.528   2.317   1.268  0.5855 -0.6101  0.3451
 5298SOL     OW16943   1.523   4.952   1.633 -0.1089 -0.2454  0.4947
 5298SOL    HW116944   1.444   4.980   1.678 -0.6665 -1.0308  0.0357
 5298SOL    HW216945   1.591   4.953   1.700 -0.1192  1.9755  0.5456
 5299SOL     OW16946   0.617   2.467   5.484  0.2852  0.0049  0.0375
 5299SOL    HW116947   0.621   2.525   5.560  0.9227 -0.3953  0.3133
 5299SOL    HW216948   0.526   2.437   5.482  0.2959 -0.0795  0.7121
 5300SOL     OW16949   6.461   6.389   7.485  0.4462 -0.3645 -0.2245
 5300SOL    HW116950   6.461   6.321   7.552 -5.8676  0.5316  1.3170
 5300SOL    HW216951   6.479   6.342   7.403 -1.0195 -3.4552  1.0536
 5301SOL     OW16952   6.560   0.046   0.136  0.5306  0.5422 -0.5137
 5301SOL    HW116953   6.544  -0.048   0.135 -0.1864  0.6546 -0.2324
 5301SOL    HW216954   6.653   0.055   0.113  0.6994 -0.2487 -0.1657
 5302SOL     OW16955   0.888   5.161   0.661 -0.1707  0.2107 -0.3620
 5302SOL    HW116956   0.811   5.198   0.704  0.1409  1.1633 -0.6173
 5302SOL    HW216957   0.948   5.139   0.733 -0.2610  0.4245 -0.2221
 5303SOL     OW16958   8.068   2.323   1.569 -0.1182  0.1124 -0.7538
 5303SOL    HW116959   8.072   2.236   1.528  1.0947  1.2000 -3.1487
 5303SOL    HW216960   8.123   2.316   1.647 -0.2611 -1.3017 -0.7530
 5304SOL     OW16961   2.774   7.825   1.816  0.0397 -0.0974 -0.5468
 5304SOL    HW116962   2.729   7.909   1.813 -2.3763 -1.2194  1.0507
 5304SOL    HW216963   2.705   7.760   1.804  1.2930 -1.9207  1.3283
 5305SOL     OW16964   7.074   5.487   2.899  0.3828  1.0467  0.3129
 5305SOL    HW116965   7.012   5.459   2.967 -1.0570  1.7261 -0.6752
 5305SOL    HW216966   7.072   5.582   2.903  1.0187  1.0836 -0.0740
 5306SOL     OW16967   0.502   7.653   0.831 -0.3803  0.9211  0.6819
 5306SOL    HW116968   0.595   7.662   0.812 -0.4781 -0.1808 -0.3876
 5306SOL    HW216969   0.467   7.742   0.824  0.5152  1.2843  0.7408
 5307SOL     OW16970   1.114   4.552   7.314  0.4295  0.3602  0.1785
 5307SOL    HW116971   1.157   4.473   7.347  1.8111  0.7684 -0.5665
 5307SOL    HW216972   1.068   4.523   7.235 -0.3922 -0.0068  0.7805
 5308SOL     OW16973   2.111   3.361   4.433 -0.3366 -0.0120  0.5388
 5308SOL    HW116974   2.179   3.294   4.432 -1.9329 -1.7080 -0.0994
 5308SOL    HW216975   2.151   3.437   4.392  0.5190 -1.6855 -1.9000
 5309SOL     OW16976   7.530   1.047   2.444  0.0724 -0.0204 -0.6777
 5309SOL    HW116977   7.534   1.117   2.510 -0.1594 -0.0836 -0.5947
 5309SOL    HW216978   7.588   1.077   2.374  0.5995 -0.1146 -0.2888
 5310SOL     OW16979   1.973   1.399   3.302  0.4340 -0.2496 -0.1606
 5310SOL    HW116980   1.997   1.307   3.290 -0.9600 -0.4783 -1.5547
 5310SOL    HW216981   1.995   1.418   3.393  0.2430 -2.1287  0.3186
 5311SOL     OW16982   7.367   1.290   5.285  0.4678  0.0882  0.0258
 5311SOL    HW116983   7.429   1.225   5.318 -0.1731 -0.2279  0.6308
 5311SOL    HW216984   7.307   1.240   5.229  0.3709  0.2713 -0.0361
 5312SOL     OW16985   7.308   5.323   0.885  0.0105 -0.2854 -0.3210
 5312SOL    HW116986   7.251   5.253   0.918  0.4979 -1.0400 -1.0306
 5312SOL    HW216987   7.269   5.403   0.919 -1.1486 -0.8233 -0.3075
 5313SOL     OW16988   1.202   6.804   1.838  0.1272  0.0121  0.2197
 5313SOL    HW116989   1.211   6.890   1.796 -0.9202 -0.4392 -0.9943
 5313SOL    HW216990   1.113   6.803   1.872  1.0003  0.4217  2.6691
 5314SOL     OW16991   7.366   7.218   3.342 -0.3346 -0.3517 -0.3751
 5314SOL    HW116992   7.291   7.159   3.335 -0.0217 -0.9673  1.0638
 5314SOL    HW216993   7.379   7.251   3.253 -0.3523 -2.6645 -1.3133
 5315SOL     OW16994   7.481   4.515   2.264  0.3767 -0.1509  0.0273
 5315SOL    HW116995   7.491   4.537   2.172 -0.6468  0.4034  0.0339
 5315SOL    HW216996   7.425   4.585   2.299 -1.4975 -1.7796  0.4602
 5316SOL     OW16997   0.824   6.505   4.720 -0.0896  0.2242  0.2241
 5316SOL    HW116998   0.815   6.560   4.642  1.6728 -1.6525 -1.3889
 5316SOL    HW216999   0.742   6.455   4.724  0.5292 -1.0066 -1.5576
 5317SOL     OW17000   4.972   6.761   4.195 -0.1515  0.0513 -0.0573
 5317SOL    HW117001   4.880   6.748   4.173 -0.9332 -0.3095  3.0012
 5317SOL    HW217002   5.009   6.672   4.195 -0.1307  0.0601 -0.0845
 5318SOL     OW17003   1.177   4.220   4.771 -0.0834 -0.3482  0.3324
 5318SOL    HW117004   1.134   4.141   4.802 -1.7652  0.7957  1.1072
 5318SOL    HW217005   1.263   4.220   4.812 -0.1822 -1.6060  0.5575
 5319SOL     OW17006   1.805   0.252   5.654  0.1947  0.2155 -0.4023
 5319SOL    HW117007   1.764   0.321   5.602 -0.7281 -0.9213 -1.2196
 5319SOL    HW217008   1.896   0.281   5.665 -0.1300  1.4675 -0.8733
 5320SOL     OW17009   8.269   5.087   5.038  0.7554  0.0356  0.2510
 5320SOL    HW117010   8.192   5.141   5.017  0.9056 -0.2068 -1.0071
 5320SOL    HW217011   8.258   5.008   4.985  1.1375 -0.6633  1.1830
 5321SOL     OW17012   1.349   5.675   2.089  0.1176 -0.7914 -0.1884
 5321SOL    HW117013   1.257   5.694   2.107  0.7834  1.5122  1.0867
 5321SOL    HW217014   1.368   5.721   2.007 -0.2987 -2.9483 -1.5984
 5322SOL     OW17015   3.861   2.878   0.497  0.2056  0.5318  0.1971
 5322SOL    HW117016   3.841   2.789   0.526  0.1936  0.4736  0.0095
 5322SOL    HW217017   3.777   2.923   0.497  0.6310  1.7622  4.2978
 5323SOL     OW17018   2.791   7.321   5.972 -0.8570 -0.1371  0.5269
 5323SOL    HW117019   2.698   7.322   5.952 -0.7066  0.6285 -0.1823
 5323SOL    HW217020   2.817   7.413   5.971  0.4239 -0.4532 -1.8531
 5324SOL     OW17021   6.757   7.359   7.246  0.3017 -0.4235 -0.2093
 5324SOL    HW117022   6.781   7.270   7.271 -0.1632 -1.0924 -2.0304
 5324SOL    HW217023   6.738   7.354   7.153 -3.0428  0.8802  0.2695
 5325SOL     OW17024   0.821   0.762   3.394 -0.0751  0.1919 -0.0152
 5325SOL    HW117025   0.909   0.798   3.384 -0.1091  1.3397  3.0146
 5325SOL    HW217026   0.773   0.795   3.318  1.6759  0.8777 -0.8812
 5326SOL     OW17027   1.358   5.112   3.983 -0.1864  0.2879 -0.5366
 5326SOL    HW117028   1.321   5.182   3.929  1.5142  1.1875 -0.5878
 5326SOL    HW217029   1.376   5.154   4.067 -0.2690 -0.4032 -0.1722
 5327SOL     OW17030   0.628   0.801   4.062  0.4081 -1.0737 -0.5343
 5327SOL    HW117031   0.570   0.877   4.063 -0.3638 -1.6383 -1.1893
 5327SOL    HW217032   0.573   0.729   4.032  1.0541 -1.9701  0.3664
 5328SOL     OW17033   0.597   3.867   1.246  0.1057 -0.5701 -0.0750
 5328SOL    HW117034   0.572   3.882   1.337  0.2306 -1.4222  0.1093
 5328SOL    HW217035   0.518   3.830   1.206 -0.0612  0.1246 -0.4113
 5329SOL     OW17036   1.022   0.237   2.119 -0.3279 -0.3415 -0.5954
 5329SOL    HW117037   0.964   0.313   2.127 -0.3775 -0.4956  0.7614
 5329SOL    HW217038   1.068   0.233   2.203 -0.1665 -1.6857 -0.7274
 5330SOL     OW17039   5.435   6.520   2.089  0.2536 -0.1903  0.1580
 5330SOL    HW117040   5.478   6.559   2.165 -1.6549  0.0097  1.2098
 5330SOL    HW217041   5.373   6.587   2.060  0.3832 -0.5868 -1.0824
 5331SOL     OW17042   4.960   0.918   6.954 -0.4144  0.3920 -0.3769
 5331SOL    HW117043   4.875   0.879   6.932  0.1836 -0.1438 -1.8128
 5331SOL    HW217044   4.954   1.008   6.921 -0.6262  0.5338  0.0422
 5332SOL     OW17045   1.155   0.106   0.862  0.2115  0.0158 -0.1266
 5332SOL    HW117046   1.195   0.043   0.922 -1.6961  0.1514  1.3764
 5332SOL    HW217047   1.069   0.069   0.842  0.3393  0.5693 -1.8692
 5333SOL     OW17048   3.753   7.595   5.519 -0.3516 -0.1171  0.7549
 5333SOL    HW117049   3.849   7.600   5.523 -0.3289 -1.0646  2.5950
 5333SOL    HW217050   3.735   7.522   5.461 -0.0057  0.6603 -0.3644
 5334SOL     OW17051   5.366   6.013   6.442 -0.0675 -0.0600  0.0571
 5334SOL    HW117052   5.342   6.103   6.460  1.4986  0.1662  1.2141
 5334SOL    HW217053   5.425   6.019   6.366 -0.8090 -0.2405 -0.5438
 5335SOL     OW17054   1.594   6.018   2.881  0.1915 -0.0634 -0.4526
 5335SOL    HW117055   1.498   6.016   2.870 -0.1541  0.3785  1.9010
 5335SOL    HW217056   1.608   5.997   2.973  2.4388 -0.7927 -0.9020
 5336SOL     OW17057   6.806   7.334   1.156 -0.3931 -0.0337  0.3539
 5336SOL    HW117058   6.894   7.303   1.177  0.7510  2.7189  0.0825
 5336SOL    HW217059   6.772   7.368   1.238 -0.4798  0.5213  0.0926
 5337SOL     OW17060   1.612   6.358   5.237  0.0022  0.1626  0.2581
 5337SOL    HW117061   1.584   6.408   5.160 -0.2697  0.4917  0.5666
 5337SOL    HW217062   1.622   6.268   5.205  0.0871  0.3361 -0.2059
 5338SOL     OW17063   7.810   2.042   5.366  0.1224  0.5536  0.2331
 5338SOL    HW117064   7.760   2.049   5.285 -0.8880 -0.1762  0.7575
 5338SOL    HW217065   7.845   2.129   5.380  0.7695  0.5557 -1.2581
 5339SOL     OW17066   7.299   1.319   5.747 -0.2308 -0.1805 -0.2422
 5339SOL    HW117067   7.328   1.292   5.659 -0.4338 -0.5680 -0.1917
 5339SOL    HW217068   7.380   1.325   5.797 -0.1002  0.1735 -0.4926
 5340SOL     OW17069   4.132   5.573   1.796 -0.3051 -0.8781 -0.3661
 5340SOL    HW117070   4.075   5.540   1.866 -1.5979  0.1040 -0.9009
 5340SOL    HW217071   4.082   5.645   1.757  1.3314  0.0408 -0.8687
 5341SOL     OW17072   1.118   1.155   6.499 -0.3693  0.2066  0.1537
 5341SOL    HW117073   1.087   1.239   6.533  0.1574  0.3527  0.2836
 5341SOL    HW217074   1.066   1.090   6.547 -0.0557  0.4304  0.8183
 5342SOL     OW17075   7.896   3.914   4.318 -0.6222  0.1312 -0.3368
 5342SOL    HW117076   7.899   3.989   4.377  3.6551  0.5419 -0.7733
 5342SOL    HW217077   7.896   3.952   4.230 -0.1894 -0.4155 -0.5761
 5343SOL     OW17078   1.562   7.452   1.096 -0.0586  0.0650  0.0791
 5343SOL    HW117079   1.591   7.525   1.150  0.9374 -0.1103 -0.1944
 5343SOL    HW217080   1.468   7.467   1.084 -0.0403  0.8160  0.7493
 5344SOL     OW17081   1.136   0.998   5.522  0.7441  0.2577  0.7142
 5344SOL    HW117082   1.195   0.991   5.447  1.3055  0.7499  1.0962
 5344SOL    HW217083   1.137   0.910   5.561 -2.7563 -1.2656 -2.1344
 5345SOL     OW17084   5.358   3.341   1.336 -0.6656  0.0043  0.1058
 5345SOL    HW117085   5.321   3.426   1.362  0.2902  0.8358 -1.1289
 5345SOL    HW217086   5.442   3.363   1.296 -0.0658 -1.6080  0.4169
 5346SOL     OW17087   6.550   7.137   4.099  1.3248 -0.6442  0.1356
 5346SOL    HW117088   6.495   7.060   4.116  0.9195 -0.7750 -1.6095
 5346SOL    HW217089   6.499   7.210   4.135  0.1367 -0.8123 -1.1093
 5347SOL     OW17090   2.675   3.853   5.812 -0.3493  0.5017  0.0077
 5347SOL    HW117091   2.591   3.870   5.854 -0.2115 -0.2343  0.5927
 5347SOL    HW217092   2.652   3.821   5.724 -0.6462  1.3997 -0.2562
 5348SOL     OW17093   7.699   1.746   5.075  0.2696  0.5981  0.7625
 5348SOL    HW117094   7.633   1.785   5.132  0.5880  1.7011  0.4129
 5348SOL    HW217095   7.654   1.732   4.992 -0.5443 -2.1569  1.5677
 5349SOL     OW17096   1.802   5.403   8.077  0.2839  0.0592 -0.0630
 5349SOL    HW117097   1.798   5.385   7.983 -0.1743  1.2958 -0.3035
 5349SOL    HW217098   1.718   5.446   8.096  0.3690 -0.1961  0.9115
 5350SOL     OW17099   1.091   2.162   4.717 -0.0352 -0.0550 -0.0447
 5350SOL    HW117100   1.147   2.147   4.640 -1.0678  0.1027 -0.8487
 5350SOL    HW217101   1.055   2.076   4.737  0.0866 -0.0603  0.1542
 5351SOL     OW17102   4.919   2.447   2.313 -0.5083  0.1284  0.0753
 5351SOL    HW117103   4.963   2.485   2.236  0.7862 -2.5686 -0.6187
 5351SOL    HW217104   4.856   2.385   2.276  0.1782 -1.2541  1.1289
 5352SOL     OW17105   5.427   6.163   4.672  0.4997 -0.1541 -0.1485
 5352SOL    HW117106   5.448   6.090   4.730 -1.5342  0.1363  1.0685
 5352SOL    HW217107   5.394   6.121   4.593  0.0641 -0.5782  0.2470
 5353SOL     OW17108   6.762   2.926   4.792  0.3107  0.3990  0.3195
 5353SOL    HW117109   6.794   2.925   4.702  0.4233 -1.4937  0.3308
 5353SOL    HW217110   6.825   2.980   4.840  2.5420 -1.7166 -0.0294
 5354SOL     OW17111   0.985   5.348   5.431 -0.2595 -0.6533  0.0985
 5354SOL    HW117112   1.007   5.432   5.471 -0.7645 -0.0933 -0.7730
 5354SOL    HW217113   0.943   5.298   5.500  2.0806 -1.0754  1.3061
 5355SOL     OW17114   1.646   0.901   1.331  0.3634  0.3426 -0.1423
 5355SOL    HW117115   1.698   0.868   1.403  1.1551 -1.1221 -1.3283
 5355SOL    HW217116   1.555   0.888   1.358  0.6023  1.4260  1.2696
 5356SOL     OW17117   1.616   4.536   4.642  0.6890 -0.2366  0.0097
 5356SOL    HW117118   1.550   4.563   4.706  0.9178 -0.5933  0.4091
 5356SOL    HW217119   1.695   4.583   4.669  0.9641 -0.9091  0.4178
 5357SOL     OW17120   3.490   4.650   7.335  0.1652  0.0608  0.0675
 5357SOL    HW117121   3.414   4.626   7.282 -2.1553  0.0495  3.1384
 5357SOL    HW217122   3.541   4.569   7.342 -0.7581 -0.5586 -0.2157
 5358SOL     OW17123   5.734   3.287   4.626  0.2282 -0.4849 -0.0177
 5358SOL    HW117124   5.684   3.359   4.587 -0.2994 -0.9333 -0.1944
 5358SOL    HW217125   5.814   3.281   4.573  1.0649  1.0223  1.0160
 5359SOL     OW17126   0.432   2.815   1.089  0.0021 -0.1757  0.9163
 5359SOL    HW117127   0.351   2.771   1.115 -0.4065  0.5962  0.9677
 5359SOL    HW217128   0.404   2.881   1.025  0.6690 -0.3075  0.4786
 5360SOL     OW17129   4.732   0.107   4.179  0.0424  0.8369 -0.1705
 5360SOL    HW117130   4.827   0.105   4.189 -0.0672 -1.2143  0.8697
 5360SOL    HW217131   4.718   0.137   4.089  1.6312  1.6716 -0.1713
 5361SOL     OW17132   1.849   0.300   5.362 -0.8212 -0.0408  0.4919
 5361SOL    HW117133   1.876   0.315   5.271  0.0034  0.9023  0.8699
 5361SOL    HW217134   1.927   0.265   5.404 -1.3372 -0.8975  0.7413
 5362SOL     OW17135   2.597   3.415   3.301 -0.5908 -0.0080 -0.3295
 5362SOL    HW117136   2.586   3.510   3.291  0.8827  0.0549 -1.7848
 5362SOL    HW217137   2.638   3.404   3.386  0.2001  0.7821 -0.5867
 5363SOL     OW17138   3.758   5.980   0.442  0.3151 -0.2780 -0.4712
 5363SOL    HW117139   3.837   5.963   0.493  0.4131  0.7067 -0.2778
 5363SOL    HW217140   3.729   6.067   0.470  0.0327  0.0294 -1.6453
 5364SOL     OW17141   1.363   7.623   2.470  0.5128  0.1013 -0.1826
 5364SOL    HW117142   1.438   7.568   2.449  2.5591  2.9724 -1.0834
 5364SOL    HW217143   1.401   7.707   2.495 -2.3715  2.2032 -2.1093
 5365SOL     OW17144   7.566   5.566   6.853  0.1131  0.1346  0.4230
 5365SOL    HW117145   7.539   5.598   6.767 -0.7830 -0.9708  0.2695
 5365SOL    HW217146   7.519   5.622   6.915 -1.4588 -0.8253  0.1588
 5366SOL     OW17147   5.556   2.379   0.682  0.4606  0.1247  0.6275
 5366SOL    HW117148   5.505   2.323   0.740  0.3870  0.5086  0.9403
 5366SOL    HW217149   5.515   2.465   0.690 -1.3310 -0.3531 -2.1282
 5367SOL     OW17150   0.657   5.265   0.743  0.1798  0.5915 -0.5604
 5367SOL    HW117151   0.575   5.262   0.694  0.0797  0.6291 -0.3956
 5367SOL    HW217152   0.636   5.226   0.827  0.3894  0.3901 -0.6015
 5368SOL     OW17153   1.738   0.970   1.968 -0.9442  0.0640  0.3015
 5368SOL    HW117154   1.818   0.945   2.014  0.3048  2.2349 -0.4967
 5368SOL    HW217155   1.688   1.019   2.033 -0.3313  1.0048  0.0924
 5369SOL     OW17156   7.593   3.161   3.501  0.3098 -0.1073 -0.4533
 5369SOL    HW117157   7.528   3.117   3.446  3.0722 -2.2103 -2.3843
 5369SOL    HW217158   7.610   3.244   3.456 -0.8431  0.3787 -0.0270
 5370SOL     OW17159   7.401   3.477   3.571  0.4226 -0.6091 -0.5751
 5370SOL    HW117160   7.436   3.565   3.554  0.6586 -0.4865  0.4379
 5370SOL    HW217161   7.479   3.425   3.593  0.0914 -0.5478  0.8602
 5371SOL     OW17162   1.040   3.271   0.536 -0.2610  0.5526 -0.2540
 5371SOL    HW117163   0.949   3.275   0.506 -0.6155  1.2389  0.8646
 5371SOL    HW217164   1.053   3.179   0.559 -0.7573  0.4998 -0.1755
 5372SOL     OW17165   5.912   2.397   7.578  0.6641  0.2686 -0.1043
 5372SOL    HW117166   5.967   2.384   7.656 -1.6802 -2.6397  1.3119
 5372SOL    HW217167   5.965   2.363   7.506  1.4829 -0.6827  0.8913
 5373SOL     OW17168   3.878   1.734   6.606 -0.0289  0.1015  0.2687
 5373SOL    HW117169   3.802   1.763   6.555 -1.0457 -0.1532  1.6063
 5373SOL    HW217170   3.883   1.795   6.679  0.5864 -0.3611  0.6188
 5374SOL     OW17171   2.247   6.945   0.003  0.2515  0.1165  0.3681
 5374SOL    HW117172   2.286   6.866   0.041 -2.1935 -2.1513 -1.4755
 5374SOL    HW217173   2.312   6.975  -0.061  1.4651 -0.0016  1.5045
 5375SOL     OW17174   2.719   7.266   5.630 -0.3670 -0.0234 -0.3007
 5375SOL    HW117175   2.638   7.264   5.579  0.0666  2.2397 -1.2090
 5375SOL    HW217176   2.786   7.291   5.566  0.7919 -0.4181  0.7282
 5376SOL     OW17177   6.418   8.066   0.035  0.1796 -0.1925  0.1064
 5376SOL    HW117178   6.471   8.119  -0.024 -1.0409  1.4694  0.4435
 5376SOL    HW217179   6.351   8.027  -0.022 -0.8644  1.2353  0.3156
 5377SOL     OW17180   0.559   6.529   1.731  0.2539 -0.1771  1.2446
 5377SOL    HW117181   0.469   6.555   1.748  0.2231 -0.1200  0.9993
 5377SOL    HW217182   0.582   6.572   1.648  0.0307 -1.3160  0.5659
 5378SOL     OW17183   5.771   1.057   2.838  0.4958  0.0242  0.7049
 5378SOL    HW117184   5.789   1.098   2.754  0.2185  0.3101  0.7806
 5378SOL    HW217185   5.844   1.084   2.894  1.2112 -0.9853  0.2886
 5379SOL     OW17186   8.276   2.110   2.831  0.0083 -0.3070 -0.0956
 5379SOL    HW117187   8.208   2.167   2.795 -0.0785  1.1574  2.1855
 5379SOL    HW217188   8.343   2.170   2.865  1.8423 -1.6875 -1.0893
 5380SOL     OW17189   0.384   2.478   3.576 -0.4950  0.2608 -0.2477
 5380SOL    HW117190   0.308   2.529   3.604 -0.6070  0.1371 -0.3238
 5380SOL    HW217191   0.435   2.464   3.656 -0.6695  0.1505 -0.1566
 5381SOL     OW17192   2.256   6.467   0.795 -0.0112 -0.4599 -0.3771
 5381SOL    HW117193   2.317   6.538   0.815 -0.7003 -0.1907  0.8918
 5381SOL    HW217194   2.268   6.451   0.701  2.9588 -1.3605  0.0563
 5382SOL     OW17195   6.930   1.181   1.498 -0.0828 -0.7234  0.5008
 5382SOL    HW117196   6.959   1.139   1.417 -1.6457 -0.0196 -0.4730
 5382SOL    HW217197   6.900   1.268   1.471  1.4846  0.4263  2.2001
 5383SOL     OW17198   5.076   3.980   3.399 -0.2750  0.3596  0.4004
 5383SOL    HW117199   5.014   4.017   3.463 -1.0633 -0.9928  0.4621
 5383SOL    HW217200   5.145   4.046   3.392 -2.1736  2.4076 -0.3856
 5384SOL     OW17201   5.984   1.859   3.453 -0.3561 -0.1155 -0.0534
 5384SOL    HW117202   5.902   1.822   3.420 -1.1653  1.2217  0.3708
 5384SOL    HW217203   5.992   1.944   3.409  0.3945  0.1149  0.5051
 5385SOL     OW17204   1.703   3.192   5.016  0.3642 -0.1506 -0.6668
 5385SOL    HW117205   1.635   3.124   5.014  0.8923 -0.6848 -0.9239
 5385SOL    HW217206   1.754   3.172   5.094  0.2543  0.2271 -0.4953
 5386SOL     OW17207   6.403   6.565   0.305 -0.6207 -0.2618  0.2917
 5386SOL    HW117208   6.440   6.548   0.392  1.8685 -1.6690 -0.9282
 5386SOL    HW217209   6.412   6.659   0.292  3.0192 -0.5046  0.0114
 5387SOL     OW17210   3.352   3.641   1.254 -0.0191  0.1536 -0.2698
 5387SOL    HW117211   3.269   3.622   1.211 -0.1753  0.1324  0.0360
 5387SOL    HW217212   3.381   3.724   1.215 -0.4465  0.4347 -0.0008
 5388SOL     OW17213   5.140   3.127   2.205  0.6281 -0.1499  0.2707
 5388SOL    HW117214   5.093   3.211   2.200  0.9931  0.0339 -0.1866
 5388SOL    HW217215   5.181   3.128   2.291  0.4852  0.0626  0.3393
 5389SOL     OW17216   7.815   0.385   0.482 -0.0680  0.1224 -0.3132
 5389SOL    HW117217   7.809   0.452   0.551 -3.1205  2.2837 -2.4352
 5389SOL    HW217218   7.835   0.434   0.403 -0.2885 -1.8092 -1.6321
 5390SOL     OW17219   7.963   3.326   3.114 -0.5641  0.0086  0.1408
 5390SOL    HW117220   7.954   3.262   3.185 -0.1263 -0.2686 -0.0542
 5390SOL    HW217221   7.947   3.411   3.157 -0.8879 -0.2034  0.4479
 5391SOL     OW17222   3.506   1.132   7.202 -0.3343 -0.0354 -0.3468
 5391SOL    HW117223   3.540   1.043   7.210  1.8932  0.8808  1.9116
 5391SOL    HW217224   3.521   1.156   7.111  0.0592 -1.5897 -0.7130
 5392SOL     OW17225   7.500   5.234   2.670 -0.0053  0.3781 -0.4207
 5392SOL    HW117226   7.492   5.326   2.696 -2.8580 -0.1301  0.8943
 5392SOL    HW217227   7.424   5.219   2.613  0.6638 -1.0656 -0.9791
 5393SOL     OW17228   2.454   0.047   1.261 -0.2883  0.2236  0.0928
 5393SOL    HW117229   2.444  -0.001   1.342 -1.4944  0.8145  0.3114
 5393SOL    HW217230   2.424  -0.013   1.193 -1.0470  0.3804  0.2837
 5394SOL     OW17231   5.071   5.340   1.118  0.2098 -0.1347  0.3904
 5394SOL    HW117232   5.143   5.402   1.115 -2.2552  2.9561 -1.0171
 5394SOL    HW217233   5.097   5.270   1.058  1.8948  1.0628 -0.3596
 5395SOL     OW17234   4.235   0.076   1.698  0.6287 -0.2367 -0.0979
 5395SOL    HW117235   4.290   0.039   1.767  0.2965 -0.2979  0.1347
 5395SOL    HW217236   4.255   0.170   1.699 -0.2300 -0.0536  0.8651
 5396SOL     OW17237   5.811   3.947   6.127 -0.2512 -0.3377 -0.6067
 5396SOL    HW117238   5.739   3.960   6.065  0.2308  0.3666 -1.0412
 5396SOL    HW217239   5.798   4.014   6.193 -0.3649 -0.6333 -0.3284
 5397SOL     OW17240   2.740   5.388   1.269  0.2497 -0.4139 -0.4889
 5397SOL    HW117241   2.827   5.407   1.235  2.7978 -2.6359  3.8991
 5397SOL    HW217242   2.702   5.329   1.204  2.4434 -0.2125 -2.0795
 5398SOL     OW17243   2.312   4.000   4.497 -0.4849 -0.1491  0.0545
 5398SOL    HW117244   2.217   4.013   4.494 -0.4771  0.3275  1.1901
 5398SOL    HW217245   2.348   4.088   4.493 -0.1872 -0.1609  1.7512
 5399SOL     OW17246   1.642   2.768   8.280 -0.3593 -0.0630 -0.0201
 5399SOL    HW117247   1.646   2.674   8.261 -3.0241  0.2747 -3.1016
 5399SOL    HW217248   1.577   2.776   8.349 -0.1156 -0.4689  0.2617
 5400SOL     OW17249   5.261   7.696   5.651 -0.8249  0.2077 -0.1593
 5400SOL    HW117250   5.340   7.721   5.698 -2.4120 -0.2164  3.0065
 5400SOL    HW217251   5.276   7.724   5.561  2.9948 -0.1146  0.2339
 5401SOL     OW17252   8.000   7.370   2.786 -0.4104  0.1964  0.1247
 5401SOL    HW117253   8.064   7.355   2.717  0.0317  0.1041  0.5521
 5401SOL    HW217254   7.985   7.465   2.784  0.0574  0.2768  0.3010
 5402SOL     OW17255   4.951   6.197   3.021  0.2163 -0.4359  0.1895
 5402SOL    HW117256   4.860   6.196   2.991  0.6866 -1.8372 -1.3275
 5402SOL    HW217257   4.989   6.116   2.987  1.9139 -0.1283  1.2138
 5403SOL     OW17258   5.839   7.835   5.091  0.1490  0.2163  0.0998
 5403SOL    HW117259   5.786   7.756   5.103 -0.2877  0.3724 -0.7172
 5403SOL    HW217260   5.799   7.879   5.016  0.8218  0.8588  0.1105
 5404SOL     OW17261   5.947   2.319   0.404  0.3706 -0.2116  0.2424
 5404SOL    HW117262   5.888   2.248   0.380  1.4421 -1.7481  1.9661
 5404SOL    HW217263   5.896   2.372   0.466  0.1211 -0.3853  0.1869
 5405SOL     OW17264   2.517   3.016   5.268  0.1761  0.1288  0.1852
 5405SOL    HW117265   2.455   3.007   5.341  1.3338 -0.4273  1.1477
 5405SOL    HW217266   2.462   3.025   5.190 -1.1399 -1.3540  0.8799
 5406SOL     OW17267   0.712   1.722   8.107  0.5053  0.0370 -1.0940
 5406SOL    HW117268   0.752   1.728   8.194 -2.2095  0.1001  0.2339
 5406SOL    HW217269   0.701   1.628   8.092  1.3330  0.0047 -1.5975
 5407SOL     OW17270   5.037   1.352   6.319  0.4072 -0.3116 -0.2132
 5407SOL    HW117271   5.093   1.423   6.351  0.2587  0.1473 -0.9452
 5407SOL    HW217272   4.979   1.333   6.392  0.5463  0.2252  0.0456
 5408SOL     OW17273   4.530   6.975   2.375 -0.0879 -0.4471  0.0778
 5408SOL    HW117274   4.572   7.039   2.318  2.4081 -0.4213  1.7835
 5408SOL    HW217275   4.438   6.978   2.351  0.2173  2.4625 -1.1150
 5409SOL     OW17276   0.207   5.664   6.860 -0.1924  0.6856  0.4850
 5409SOL    HW117277   0.217   5.606   6.936  2.0246  0.2620 -0.0629
 5409SOL    HW217278   0.270   5.631   6.796 -1.5152  1.4524 -1.3153
 5410SOL     OW17279   2.450   8.036   0.201 -0.1657  0.3389 -0.6123
 5410SOL    HW117280   2.536   8.063   0.232 -0.0157  0.3831 -1.0638
 5410SOL    HW217281   2.422   7.969   0.264 -1.3712  2.7843  1.6838
 5411SOL     OW17282   4.223   5.380   8.194 -0.2451 -0.5917  0.4365
 5411SOL    HW117283   4.209   5.375   8.099  0.5112 -1.2460  0.3513
 5411SOL    HW217284   4.295   5.443   8.204  0.6863 -1.6414  0.4652
 5412SOL     OW17285   5.617   7.523   7.905 -0.8337 -0.7307  0.6404
 5412SOL    HW117286   5.697   7.482   7.872  0.0769  0.4420  1.3386
 5412SOL    HW217287   5.594   7.472   7.983  1.0181  0.7756  2.2638
 5413SOL     OW17288   0.399   0.664   0.818 -0.4246 -0.6777  0.3197
 5413SOL    HW117289   0.399   0.731   0.749  0.4863 -1.0235 -0.0219
 5413SOL    HW217290   0.481   0.677   0.864 -0.7237 -0.8905  0.9204
 5414SOL     OW17291   4.375   7.203   1.366  0.1516  0.4295  0.2434
 5414SOL    HW117292   4.326   7.221   1.286  0.2064 -0.5645 -0.0272
 5414SOL    HW217293   4.310   7.170   1.428  0.4473 -0.8345 -0.0963
 5415SOL     OW17294   0.217   6.998   8.226  0.1257  0.1630  0.2360
 5415SOL    HW117295   0.310   6.987   8.242 -0.1051 -1.7375  0.5457
 5415SOL    HW217296   0.203   7.092   8.228  1.8388  0.4349  1.3076
 5416SOL     OW17297   4.905   1.969   6.261 -0.0158 -0.2150  0.1498
 5416SOL    HW117298   4.911   2.032   6.189 -0.2037  1.0643  1.2239
 5416SOL    HW217299   4.987   1.980   6.309 -0.2501 -0.4774  0.6132
 5417SOL     OW17300   7.970   7.237   3.025  0.2198  0.5471  0.2275
 5417SOL    HW117301   7.997   7.297   2.955  0.5112  0.0444 -0.0924
 5417SOL    HW217302   8.052   7.217   3.071  0.0691  0.6601  0.5474
 5418SOL     OW17303   6.916   7.833   3.478 -0.4884  0.1220  0.0695
 5418SOL    HW117304   6.844   7.868   3.426  0.1536  2.6563  0.7537
 5418SOL    HW217305   6.994   7.855   3.427 -0.0580 -0.4062  0.4975
 5419SOL     OW17306   8.270   3.067   5.733 -0.7812  0.0880 -0.1672
 5419SOL    HW117307   8.355   3.042   5.769 -1.6157 -0.6990  1.3531
 5419SOL    HW217308   8.215   2.990   5.748 -1.6697  0.4353 -1.4974
 5420SOL     OW17309   3.474   2.663   0.476 -0.2289 -0.1156  0.0807
 5420SOL    HW117310   3.527   2.584   0.487  1.3650  0.9161  0.1496
 5420SOL    HW217311   3.384   2.633   0.486  0.3102 -1.9849 -0.3035
 5421SOL     OW17312   4.130   0.047   6.002  0.0470  0.0823  0.0812
 5421SOL    HW117313   4.102  -0.043   6.020  1.2998 -0.3999 -0.2511
 5421SOL    HW217314   4.052   0.099   6.015 -0.6053 -1.0039  0.7309
 5422SOL     OW17315   6.655   0.404   0.330 -0.1218 -0.1448  0.3210
 5422SOL    HW117316   6.570   0.363   0.322  0.7253 -1.6876 -1.6802
 5422SOL    HW217317   6.636   0.494   0.358 -2.4781 -0.1419 -1.0179
 5423SOL     OW17318   3.983   6.993   5.994  0.0387  0.0004  0.0534
 5423SOL    HW117319   4.018   7.003   5.905 -1.3068 -0.0395 -0.5066
 5423SOL    HW217320   3.930   7.071   6.008 -1.6709 -1.0879 -0.1184
 5424SOL     OW17321   3.325   1.420   1.233 -0.8779  0.1161 -0.3022
 5424SOL    HW117322   3.389   1.448   1.168 -1.1460  0.6918 -0.3297
 5424SOL    HW217323   3.329   1.488   1.301  2.2584 -2.3790  2.3629
 5425SOL     OW17324   0.993   5.134   2.347  0.2560  0.7496  0.5869
 5425SOL    HW117325   0.915   5.171   2.389 -1.3611 -0.2728 -1.3017
 5425SOL    HW217326   1.034   5.080   2.415 -2.2495 -0.8700  0.9484
 5426SOL     OW17327   2.383   1.536   5.408 -0.9153 -0.6818  0.4040
 5426SOL    HW117328   2.361   1.524   5.315  1.2442 -2.3752  0.0282
 5426SOL    HW217329   2.452   1.602   5.407 -1.8697  0.3533  0.9897
 5427SOL     OW17330   6.247   3.635   7.267 -0.3268 -0.1364  0.0223
 5427SOL    HW117331   6.184   3.564   7.253  0.3812 -0.6726 -0.5273
 5427SOL    HW217332   6.328   3.592   7.292  0.0175  0.5051  0.0495
 5428SOL     OW17333   6.407   3.378   0.976  0.6586 -0.5645  0.3993
 5428SOL    HW117334   6.497   3.373   0.943  0.4528  0.6442 -0.4243
 5428SOL    HW217335   6.353   3.350   0.902  0.1842  2.3131 -0.4702
 5429SOL     OW17336   0.131   4.700   2.393  0.6692  0.3764 -0.4562
 5429SOL    HW117337   0.114   4.723   2.301  0.7263  0.3338 -0.4769
 5429SOL    HW217338   0.173   4.614   2.389  1.4793  0.7600 -0.4403
 5430SOL     OW17339   7.585   6.382   7.061  0.3152 -0.0136 -0.2076
 5430SOL    HW117340   7.677   6.359   7.049  0.4645 -1.2792  2.5305
 5430SOL    HW217341   7.580   6.410   7.152 -1.7311  1.7803 -0.7909
 5431SOL     OW17342   8.154   1.737   4.603  0.1868  0.2696  0.4709
 5431SOL    HW117343   8.203   1.772   4.529 -0.1637  0.9245  0.5429
 5431SOL    HW217344   8.167   1.801   4.673 -1.9207  1.2336  0.0605
 5432SOL     OW17345   8.232   0.982   1.962  0.5701 -0.1346  0.1778
 5432SOL    HW117346   8.244   0.941   2.047 -0.8948  0.6149  0.7746
 5432SOL    HW217347   8.315   0.967   1.917  0.1078 -3.8977  0.2404
 5433SOL     OW17348   1.825   2.038   2.012 -0.4737  0.2359  0.1221
 5433SOL    HW117349   1.766   1.983   1.961 -0.7463  0.4994  0.1516
 5433SOL    HW217350   1.793   2.127   1.997 -0.4729  0.3266  0.6473
 5434SOL     OW17351   6.974   2.530   6.382 -0.0818  0.0564 -0.0088
 5434SOL    HW117352   6.884   2.546   6.408 -0.4155 -1.4378 -0.1299
 5434SOL    HW217353   6.977   2.555   6.289  0.1179  1.7525  0.4154
 5435SOL     OW17354   1.149   1.607   7.023 -0.1926 -0.0399 -0.0771
 5435SOL    HW117355   1.054   1.608   7.036 -0.0845  0.0244  0.7983
 5435SOL    HW217356   1.174   1.699   7.020  0.0387 -0.0191  1.4438
 5436SOL     OW17357   7.997   4.060   3.490  0.2363  0.5371 -0.1502
 5436SOL    HW117358   8.022   3.971   3.466 -0.2809 -0.1545  1.6731
 5436SOL    HW217359   8.076   4.112   3.473  1.3142 -0.6957  0.8457
 5437SOL     OW17360   7.861   2.700   3.982  0.4723  0.0520  0.1045
 5437SOL    HW117361   7.900   2.621   4.021  0.8713  0.7979  1.2541
 5437SOL    HW217362   7.886   2.696   3.890  1.7176 -0.4276  0.4456
 5438SOL     OW17363   4.006   8.184   7.953 -0.2070  0.5257  0.2712
 5438SOL    HW117364   4.008   8.277   7.929  0.2278  0.5739  0.4873
 5438SOL    HW217365   3.935   8.177   8.017  0.8892  1.0378  1.5767
 5439SOL     OW17366   7.722   0.922   3.503 -0.2719  0.1266  0.3966
 5439SOL    HW117367   7.801   0.879   3.471  0.2805  1.5686 -0.2945
 5439SOL    HW217368   7.750   0.967   3.583 -0.2879  0.8818 -0.0079
 5440SOL     OW17369   4.323   0.994   2.181  0.3297 -0.2940 -0.3673
 5440SOL    HW117370   4.383   0.944   2.236 -0.0641 -1.8882 -1.3380
 5440SOL    HW217371   4.378   1.031   2.112  0.2940 -1.5044 -1.0836
 5441SOL     OW17372   2.467   3.030   7.480 -0.1650  0.1071 -0.0788
 5441SOL    HW117373   2.406   2.979   7.427 -0.0077 -0.7467  0.5332
 5441SOL    HW217374   2.514   2.965   7.532  1.5316  0.7165 -0.7898
 5442SOL     OW17375   5.347   1.486   0.970  0.3595  0.1347  0.1473
 5442SOL    HW117376   5.396   1.567   0.953  2.1904 -0.7928  0.7222
 5442SOL    HW217377   5.315   1.460   0.884 -0.1958  1.4004 -0.0602
 5443SOL     OW17378   4.735   5.470   6.914  0.2137  0.1094 -0.1773
 5443SOL    HW117379   4.809   5.428   6.868  2.2219  3.2522 -0.1269
 5443SOL    HW217380   4.754   5.455   7.007  0.4943  0.4496 -0.1783
 5444SOL     OW17381   3.856   7.342   6.836  0.2426  0.6254  0.3255
 5444SOL    HW117382   3.787   7.355   6.900  0.3654  0.2208  0.5399
 5444SOL    HW217383   3.820   7.279   6.773 -0.3222  1.8884 -0.6700
 5445SOL     OW17384   5.804   5.476   4.420 -0.0801 -0.1767  0.1067
 5445SOL    HW117385   5.794   5.390   4.378  0.6838 -0.2668  0.0913
 5445SOL    HW217386   5.867   5.522   4.364  0.2486  0.0413  0.6557
 5446SOL     OW17387   2.594   8.239   2.586 -0.4637 -0.0272 -0.0253
 5446SOL    HW117388   2.653   8.308   2.558  0.3881 -0.4251  0.7253
 5446SOL    HW217389   2.507   8.279   2.586  0.0262  1.0726  0.4921
 5447SOL     OW17390   5.779   0.229   2.864 -0.4120 -0.3317  0.3125
 5447SOL    HW117391   5.786   0.324   2.867  0.0172 -0.2950 -1.2020
 5447SOL    HW217392   5.726   0.211   2.786 -1.0332 -1.3173  0.9387
 5448SOL     OW17393   3.569   7.515   0.681  0.2447 -0.3984 -0.0964
 5448SOL    HW117394   3.614   7.450   0.734 -0.5001 -0.0867  0.9675
 5448SOL    HW217395   3.634   7.583   0.665 -0.0370  0.5090  2.2241
 5449SOL     OW17396   6.775   6.582   5.126  0.2259 -0.1117  0.2572
 5449SOL    HW117397   6.717   6.617   5.193 -1.3163  1.3576 -1.7278
 5449SOL    HW217398   6.820   6.659   5.091  2.6710 -1.0949  1.0071
 5450SOL     OW17399   4.645   0.783   2.029 -0.2058 -0.2635 -0.0997
 5450SOL    HW117400   4.612   0.823   2.110 -0.2675  0.9253 -0.6976
 5450SOL    HW217401   4.598   0.828   1.959  0.6776 -0.4762 -0.8494
 5451SOL     OW17402   1.890   2.830   0.771 -0.0102  0.1475 -0.0119
 5451SOL    HW117403   1.862   2.800   0.685  0.0453  0.0999 -0.0131
 5451SOL    HW217404   1.887   2.751   0.826 -1.2070  0.4037  0.3246
 5452SOL     OW17405   3.781   3.248   4.522 -0.4561  1.3597 -0.0886
 5452SOL    HW117406   3.689   3.249   4.494 -0.3153 -1.5887 -0.9976
 5452SOL    HW217407   3.831   3.242   4.441  0.4006  0.6226  0.4730
 5453SOL     OW17408   1.800   6.895   6.278 -0.2460 -0.3367 -0.2849
 5453SOL    HW117409   1.885   6.861   6.250 -0.2195 -0.4926 -0.0188
 5453SOL    HW217410   1.737   6.852   6.221 -0.1393 -0.1211 -0.5722
 5454SOL     OW17411   2.523   3.411   5.756 -0.5558 -0.3528  0.0149
 5454SOL    HW117412   2.518   3.484   5.694 -0.0394  0.3029  0.7237
 5454SOL    HW217413   2.483   3.446   5.836  2.9515  0.4911  1.5801
 5455SOL     OW17414   6.326   1.053   6.544  0.2882  0.8311  0.0456
 5455SOL    HW117415   6.346   0.962   6.567 -0.2572  1.1978  2.1718
 5455SOL    HW217416   6.407   1.087   6.506  0.4062 -0.6023 -1.0873
 5456SOL     OW17417   5.445   3.100   0.930 -0.0971 -0.2335 -0.0003
 5456SOL    HW117418   5.502   3.027   0.905  1.5165  1.1396 -0.4310
 5456SOL    HW217419   5.502   3.176   0.934 -1.9872  1.3317 -0.9917
 5457SOL     OW17420   2.543   2.595   0.023 -0.4463  0.4462 -0.3181
 5457SOL    HW117421   2.586   2.511   0.009 -1.1699 -0.2495  1.4251
 5457SOL    HW217422   2.452   2.573   0.042 -0.1486  1.3648  2.6921
 5458SOL     OW17423   7.892   0.096   1.943 -0.4037 -0.7516 -0.3762
 5458SOL    HW117424   7.970   0.133   1.984 -1.4677  1.1867  0.0283
 5458SOL    HW217425   7.892   0.133   1.855 -3.7002  4.1771  1.2591
 5459SOL     OW17426   0.397   8.106   4.041  0.3522 -0.6022 -0.2113
 5459SOL    HW117427   0.312   8.087   4.000 -0.2040 -0.1471  0.7138
 5459SOL    HW217428   0.377   8.166   4.112  1.6238  0.5649 -0.7797
 5460SOL     OW17429   6.334   4.504   2.989 -0.0546 -0.7652 -0.7378
 5460SOL    HW117430   6.315   4.572   2.924 -0.1474 -0.0883 -0.0150
 5460SOL    HW217431   6.251   4.459   3.002  0.1684 -1.5080 -1.7509
 5461SOL     OW17432   3.042   0.793   4.632 -0.4308 -0.1935  0.0218
 5461SOL    HW117433   2.983   0.754   4.696  1.2833 -0.8415  1.2833
 5461SOL    HW217434   3.072   0.874   4.673 -1.0622  0.5627 -0.9702
 5462SOL     OW17435   1.328   2.354   0.942 -0.6761 -0.0552  0.1765
 5462SOL    HW117436   1.269   2.359   0.867  1.1930  0.9781 -1.3184
 5462SOL    HW217437   1.283   2.402   1.012 -1.3666  1.1792 -1.0805
 5463SOL     OW17438   5.742   1.994   6.826 -0.1755  0.1501  0.4109
 5463SOL    HW117439   5.825   1.951   6.849 -0.5642 -0.8825 -0.0589
 5463SOL    HW217440   5.739   1.991   6.731 -0.4843  0.7284  0.3936
 5464SOL     OW17441   0.110   4.448   4.932  0.4591 -0.4945  0.4298
 5464SOL    HW117442   0.080   4.367   4.890  0.4710 -1.1353  1.5996
 5464SOL    HW217443   0.029   4.489   4.964  0.4655 -0.1100 -0.0421
 5465SOL     OW17444   5.315   5.647   4.506 -0.0977  0.0500 -0.1391
 5465SOL    HW117445   5.386   5.711   4.498  0.3656 -0.4929 -0.3944
 5465SOL    HW217446   5.325   5.589   4.430 -0.4422 -0.4024  0.1523
 5466SOL     OW17447   5.010   0.696   4.481  0.0635  0.0612  0.1773
 5466SOL    HW117448   4.964   0.708   4.564  0.7192 -0.7599  0.6738
 5466SOL    HW217449   5.038   0.605   4.482 -1.6759 -0.5677 -1.8773
 5467SOL     OW17450   1.387   4.858   5.565  0.8429 -0.5841  0.6870
 5467SOL    HW117451   1.367   4.916   5.639 -1.3789 -0.8082  0.3357
 5467SOL    HW217452   1.332   4.781   5.579  0.4013 -0.6613 -1.1478
 5468SOL     OW17453   5.204   1.616   0.450 -0.0161 -0.1497  0.0502
 5468SOL    HW117454   5.261   1.539   0.444  0.5409  0.1609  1.1586
 5468SOL    HW217455   5.219   1.663   0.368  0.1609 -0.8600 -0.3345
 5469SOL     OW17456   4.142   0.024   3.258  0.3183 -0.0325 -0.5317
 5469SOL    HW117457   4.142  -0.040   3.187  2.6028  0.8565 -1.4390
 5469SOL    HW217458   4.184  -0.021   3.331 -0.7246 -0.4776 -0.1886
 5470SOL     OW17459   1.658   6.641   4.958 -0.7870 -0.1682  0.0774
 5470SOL    HW117460   1.603   6.562   4.953  1.4041 -1.7199 -0.9760
 5470SOL    HW217461   1.713   6.637   4.880  0.9983  1.1745  1.1999
 5471SOL     OW17462   2.675   7.073   2.108  0.4372 -0.1994  0.5847
 5471SOL    HW117463   2.719   7.052   2.025 -0.4198  0.0658  0.0570
 5471SOL    HW217464   2.721   7.020   2.173  0.3777 -1.2789 -0.2336
 5472SOL     OW17465   4.269   1.599   1.192  0.7892 -0.5542  0.2480
 5472SOL    HW117466   4.265   1.545   1.113 -0.2463 -1.3491  0.8278
 5472SOL    HW217467   4.352   1.575   1.233  1.4564  0.0354 -0.6858
 5473SOL     OW17468   3.787   2.254   3.160  0.4304  0.2142 -0.1816
 5473SOL    HW117469   3.736   2.174   3.149  0.3622  0.2939 -0.4506
 5473SOL    HW217470   3.752   2.314   3.094  0.3613  0.5280  0.1338
 5474SOL     OW17471   1.279   4.932   5.326 -0.2570  0.3552 -0.2034
 5474SOL    HW117472   1.300   4.908   5.417  0.3121  0.7410 -0.2280
 5474SOL    HW217473   1.233   4.856   5.291 -0.1227  0.0454  0.2839
 5475SOL     OW17474   5.611   7.048   2.583  0.4472  1.1313 -0.4872
 5475SOL    HW117475   5.698   7.023   2.615  0.7471  1.3522 -1.1272
 5475SOL    HW217476   5.582   7.116   2.644  1.7929  2.8951 -1.7175
 5476SOL     OW17477   5.015   8.230   6.852  0.1525  0.4590  0.5126
 5476SOL    HW117478   5.001   8.305   6.910  0.1977 -1.1339  2.6963
 5476SOL    HW217479   4.980   8.155   6.901 -0.6585 -0.8603 -1.9371
 5477SOL     OW17480   4.440   0.181   5.353  0.3252  0.5043 -0.6398
 5477SOL    HW117481   4.368   0.243   5.357  0.8961  1.1974 -0.9014
 5477SOL    HW217482   4.410   0.106   5.404  0.0753  1.4562  0.6557
 5478SOL     OW17483   6.944   3.729   1.944  0.5350  0.0163  0.3301
 5478SOL    HW117484   7.004   3.713   1.871  0.6979 -0.7593  0.6189
 5478SOL    HW217485   6.915   3.819   1.933  1.3032  0.2101 -0.1519
 5479SOL     OW17486   2.951   1.128   4.540 -0.2784  0.1640 -0.2998
 5479SOL    HW117487   2.860   1.102   4.553 -0.1424 -0.4557 -0.5646
 5479SOL    HW217488   2.996   1.101   4.620 -0.4663  1.1848  0.1740
 5480SOL     OW17489   1.822   1.383   6.883  0.8994 -0.2981 -0.2566
 5480SOL    HW117490   1.878   1.330   6.940  1.0448 -1.2186 -1.2240
 5480SOL    HW217491   1.794   1.323   6.813  1.1367  0.9151 -1.4450
 5481SOL     OW17492   3.264   0.222   5.984  0.0967  0.2196 -0.2383
 5481SOL    HW117493   3.301   0.240   5.898  1.2080 -1.1661 -0.0980
 5481SOL    HW217494   3.304   0.138   6.010  0.4506  1.0048  1.9798
 5482SOL     OW17495   7.153   6.974   7.195 -0.0881  1.0478 -0.0567
 5482SOL    HW117496   7.238   6.952   7.233  0.5517  1.4593 -1.2191
 5482SOL    HW217497   7.135   6.903   7.134 -1.5244 -0.0738  1.5579
 5483SOL     OW17498   0.771   0.213   3.995 -0.1171  0.2114 -0.3465
 5483SOL    HW117499   0.848   0.211   3.938 -0.8957  0.8926 -1.4673
 5483SOL    HW217500   0.756   0.306   4.012 -0.3861  0.0572  0.2916
 5484SOL     OW17501   7.025   5.791   2.551 -0.0197 -0.4354 -0.0054
 5484SOL    HW117502   7.040   5.725   2.483 -0.2959 -0.2999 -0.2003
 5484SOL    HW217503   7.110   5.833   2.563 -0.3531  0.7637 -1.5515
 5485SOL     OW17504   6.500   6.488   5.698  0.6483  0.0879  0.5723
 5485SOL    HW117505   6.489   6.405   5.651  3.7587  0.3244 -0.7985
 5485SOL    HW217506   6.468   6.555   5.638  1.7428  0.1369  0.0145
 5486SOL     OW17507   5.599   1.071   3.926  0.2353  0.5718  0.4598
 5486SOL    HW117508   5.593   1.152   3.876  1.0210  0.6324  0.4521
 5486SOL    HW217509   5.508   1.048   3.946  0.0116  1.5466  0.6109
 5487SOL     OW17510   2.145   0.447   6.612 -0.7740 -0.3437  0.2088
 5487SOL    HW117511   2.057   0.483   6.601  0.2880  2.4318 -0.1809
 5487SOL    HW217512   2.173   0.481   6.697 -0.0965 -1.2174  0.3383
 5488SOL     OW17513   5.033   6.355   4.363 -0.4625  0.3634  0.1181
 5488SOL    HW117514   5.040   6.277   4.418  0.2846 -0.7116 -1.4091
 5488SOL    HW217515   5.053   6.428   4.421 -1.1990 -0.5735  1.5924
 5489SOL     OW17516   0.337   3.885   4.533  0.7222  0.5254 -0.0033
 5489SOL    HW117517   0.246   3.914   4.542  0.8985  1.8391 -1.8722
 5489SOL    HW217518   0.386   3.937   4.597  0.1673 -0.4414  1.2664
 5490SOL     OW17519   1.997   5.435   8.281  0.1863 -0.0471 -0.0519
 5490SOL    HW117520   2.022   5.343   8.279 -0.6522 -0.2871  0.3783
 5490SOL    HW217521   1.918   5.440   8.227 -0.5088  0.1860  0.9622
 5491SOL     OW17522   5.762   1.351   5.219  0.0230  0.0821 -0.5466
 5491SOL    HW117523   5.771   1.291   5.145 -0.3333 -0.1491 -0.4072
 5491SOL    HW217524   5.841   1.404   5.217 -1.0337  1.7309 -2.5637
 5492SOL     OW17525   1.051   7.288   3.015 -0.5990 -0.0153 -0.2168
 5492SOL    HW117526   1.031   7.235   3.092 -2.3235 -0.3173 -0.8200
 5492SOL    HW217527   1.085   7.226   2.951  0.7506  0.2216  0.2293
 5493SOL     OW17528   2.086   5.930   0.382  0.4011  0.6065  0.2473
 5493SOL    HW117529   2.088   6.010   0.435  0.9479  1.4296 -0.9697
 5493SOL    HW217530   2.177   5.915   0.357  0.1676  0.1796 -0.3759
 5494SOL     OW17531   0.630   5.581   2.890  0.1874  0.1879 -0.3289
 5494SOL    HW117532   0.655   5.670   2.865 -0.3522  0.2056 -0.8226
 5494SOL    HW217533   0.687   5.525   2.837 -1.5322  0.2125 -2.3269
 5495SOL     OW17534   6.841   5.444   0.138  0.2110  0.0820 -0.3451
 5495SOL    HW117535   6.864   5.377   0.202 -0.7073  1.1779  1.1872
 5495SOL    HW217536   6.924   5.490   0.121  0.6439 -0.7964 -0.6714
 5496SOL     OW17537   0.818   1.252   2.471 -0.5532 -0.3530  0.1821
 5496SOL    HW117538   0.753   1.183   2.457 -0.4222 -0.2641 -0.9944
 5496SOL    HW217539   0.898   1.218   2.429 -0.0335 -0.1583  0.9932
 5497SOL     OW17540   6.825   0.634   6.683  0.1938 -0.0939 -0.2778
 5497SOL    HW117541   6.869   0.693   6.745 -2.1651  1.8807 -0.2901
 5497SOL    HW217542   6.786   0.566   6.738  0.7419 -0.1459  0.0480
 5498SOL     OW17543   1.907   0.242   6.556 -0.3949 -0.0746  0.1179
 5498SOL    HW117544   1.952   0.165   6.521  0.5069  0.8903 -0.9605
 5498SOL    HW217545   1.857   0.209   6.631  0.4909 -1.5691  0.0994
 5499SOL     OW17546   6.440   7.964   4.407 -0.2683 -0.5602 -0.3845
 5499SOL    HW117547   6.485   8.007   4.335 -0.4408 -0.2647 -0.3175
 5499SOL    HW217548   6.449   8.024   4.481 -1.4344 -0.1221 -0.5709
 5500SOL     OW17549   7.439   6.893   7.209 -0.0343  0.3013 -0.5253
 5500SOL    HW117550   7.511   6.841   7.245 -0.1709 -0.2909 -1.0905
 5500SOL    HW217551   7.477   6.981   7.197  0.6042 -0.0094 -0.8492
 5501SOL     OW17552   6.265   5.699   6.097  0.8855 -0.3963  0.2608
 5501SOL    HW117553   6.197   5.670   6.036  1.3478 -0.2635 -0.3250
 5501SOL    HW217554   6.242   5.789   6.118  0.8931 -0.3412  0.0362
 5502SOL     OW17555   4.543   8.027   1.447 -0.2325 -0.3755 -0.2332
 5502SOL    HW117556   4.560   8.121   1.442  0.0001 -0.3886  0.2628
 5502SOL    HW217557   4.470   8.019   1.507 -0.2892 -0.5084 -0.3201
 5503SOL     OW17558   1.713   7.933   1.540  0.1893 -0.1322 -0.0436
 5503SOL    HW117559   1.684   7.842   1.535 -0.6030  0.1441 -0.8074
 5503SOL    HW217560   1.654   7.980   1.481  0.1098  1.0015  0.9068
 5504SOL     OW17561   7.933   5.542   6.083 -0.2755  0.0783 -0.4733
 5504SOL    HW117562   7.841   5.554   6.107 -0.6753  1.0980 -2.3015
 5504SOL    HW217563   7.978   5.615   6.124  0.1170 -1.4253  1.9932
 5505SOL     OW17564   1.186   2.761   1.442 -0.0054 -0.1820 -0.4334
 5505SOL    HW117565   1.182   2.778   1.536 -2.0470 -0.1294 -0.4911
 5505SOL    HW217566   1.230   2.839   1.406 -1.6754  1.1165  0.2039
 5506SOL     OW17567   8.187   3.799   2.380  0.4005  0.0238 -0.2079
 5506SOL    HW117568   8.250   3.856   2.423  1.8239  0.2279 -2.4122
 5506SOL    HW217569   8.102   3.842   2.395  0.6967 -0.2186  2.7443
 5507SOL     OW17570   3.789   6.870   5.171  0.7681  0.2728 -0.0891
 5507SOL    HW117571   3.701   6.907   5.166  0.1244 -1.1222  0.4411
 5507SOL    HW217572   3.826   6.885   5.084  0.3988  1.7752 -0.0123
 5508SOL     OW17573   2.445   6.075   3.541 -0.5072 -0.1680  0.2074
 5508SOL    HW117574   2.381   6.044   3.605 -1.5375  2.0204  0.3137
 5508SOL    HW217575   2.528   6.078   3.590 -0.5369 -1.7961  0.4223
 5509SOL     OW17576   3.770   1.121   4.777  0.1972 -0.3756 -0.7041
 5509SOL    HW117577   3.762   1.140   4.684 -2.5194  1.3743 -0.2361
 5509SOL    HW217578   3.719   1.041   4.790  0.6858 -0.6942 -0.7154
 5510SOL     OW17579   4.895   3.112   6.305  0.3396  0.1010  0.3498
 5510SOL    HW117580   4.802   3.134   6.299 -0.1584 -1.5860  1.0300
 5510SOL    HW217581   4.941   3.193   6.286 -1.2699  0.8848 -0.3782
 5511SOL     OW17582   0.595   7.422   0.239  0.1922  0.5561  0.7903
 5511SOL    HW117583   0.550   7.354   0.290  1.2170 -0.8440 -0.0686
 5511SOL    HW217584   0.646   7.471   0.303 -0.3298  0.3147  1.3946
 5512SOL     OW17585   5.836   5.683   7.052 -0.4472  0.0369  0.1539
 5512SOL    HW117586   5.825   5.680   6.957 -1.6879 -0.0793  0.2922
 5512SOL    HW217587   5.813   5.773   7.076 -1.9409 -0.4280  0.5411
 5513SOL     OW17588   2.490   3.269   0.747 -0.1188 -0.1015  0.0814
 5513SOL    HW117589   2.557   3.271   0.678  0.6598  1.1097  0.8355
 5513SOL    HW217590   2.515   3.195   0.803  0.8743  0.6126  0.6081
 5514SOL     OW17591   3.150   5.320   5.353 -0.2438 -0.4722  0.1923
 5514SOL    HW117592   3.128   5.341   5.444  1.9030 -0.3382  0.7422
 5514SOL    HW217593   3.244   5.305   5.354  0.1338  1.0583 -2.2988
 5515SOL     OW17594   3.077   7.725   5.314 -0.8457  0.1031 -0.6080
 5515SOL    HW117595   3.138   7.651   5.315  0.1885  0.9170  1.4472
 5515SOL    HW217596   3.016   7.708   5.385 -1.0198  0.8693 -0.5629
 5516SOL     OW17597   1.411   2.745   7.832 -0.1858 -0.4947 -0.1450
 5516SOL    HW117598   1.460   2.730   7.913 -0.0830 -0.1929 -0.1492
 5516SOL    HW217599   1.411   2.840   7.821  1.8209 -0.5887 -1.7104
 5517SOL     OW17600   6.785   1.777   1.654  0.2180  0.3037 -0.4991
 5517SOL    HW117601   6.722   1.811   1.718 -1.1594 -1.6687 -0.7174
 5517SOL    HW217602   6.806   1.689   1.686  1.9836  0.4713 -1.0880
 5518SOL     OW17603   3.146   4.239   7.430  0.0877 -0.2467  0.0679
 5518SOL    HW117604   3.100   4.317   7.399 -0.2351 -0.0540  0.9961
 5518SOL    HW217605   3.206   4.272   7.498  0.5404 -0.6971 -0.1073
 5519SOL     OW17606   6.499   5.412   4.383 -0.1057  0.4002 -0.3595
 5519SOL    HW117607   6.404   5.406   4.386 -0.0947 -1.3135 -2.0166
 5519SOL    HW217608   6.517   5.461   4.302  0.4282 -1.6285 -1.5200
 5520SOL     OW17609   3.887   4.163   1.683  0.7328 -0.3453  0.3951
 5520SOL    HW117610   3.810   4.137   1.632  0.3731  1.8485 -0.3016
 5520SOL    HW217611   3.958   4.107   1.651 -0.0841 -0.8405 -0.5892
 5521SOL     OW17612   5.101   5.672   1.149 -0.4086 -0.1097  0.4439
 5521SOL    HW117613   5.021   5.707   1.109  0.7432  1.6876 -0.4208
 5521SOL    HW217614   5.121   5.733   1.220  1.2947  0.7145 -0.6744
 5522SOL     OW17615   1.234   1.811   4.259 -0.0609 -0.0506  0.0546
 5522SOL    HW117616   1.313   1.852   4.222  0.5275 -0.1922  1.1430
 5522SOL    HW217617   1.226   1.849   4.346 -0.8036 -0.5760  0.2194
 5523SOL     OW17618   4.078   1.360   1.571 -0.4108  0.2030  0.2505
 5523SOL    HW117619   4.090   1.453   1.549 -1.8496  0.6728  1.2437
 5523SOL    HW217620   4.126   1.313   1.503 -2.1269  1.6116 -2.1331
 5524SOL     OW17621   7.511   3.429   5.297  0.1235  0.0604  0.1629
 5524SOL    HW117622   7.602   3.454   5.282  0.6877 -1.3707  0.9914
 5524SOL    HW217623   7.491   3.460   5.385  0.8635 -2.2834  1.2434
 5525SOL     OW17624   3.765   1.022   5.659  0.7807 -0.1152  0.3583
 5525SOL    HW117625   3.727   1.095   5.611 -1.0655 -1.4953 -0.4118
 5525SOL    HW217626   3.822   0.978   5.596 -0.5474 -1.1011 -0.2187
 5526SOL     OW17627   3.079   3.194   5.135  0.0631  0.7129  0.1765
 5526SOL    HW117628   3.154   3.195   5.195  0.2254  0.3468 -0.0178
 5526SOL    HW217629   3.083   3.108   5.093 -0.5571  0.6319  0.2776
 5527SOL     OW17630   5.285   4.111   7.763 -0.0986  0.3876 -0.2874
 5527SOL    HW117631   5.339   4.083   7.836  1.5302  0.1871 -1.5025
 5527SOL    HW217632   5.265   4.031   7.715 -0.1984  0.6354 -0.6673
 5528SOL     OW17633   4.880   1.102   3.443 -0.1889 -0.0748  0.0517
 5528SOL    HW117634   4.811   1.035   3.440 -1.1409  0.9228 -2.0788
 5528SOL    HW217635   4.892   1.128   3.352  2.3599  0.4914  0.4875
 5529SOL     OW17636   6.148   5.236   7.662  0.8432  0.0883 -0.5483
 5529SOL    HW117637   6.142   5.330   7.679 -1.7800  0.0024 -0.6530
 5529SOL    HW217638   6.173   5.230   7.570 -1.0832  0.7626 -1.1607
 5530SOL     OW17639   6.305   0.922   3.553  0.6526  0.5670 -0.0796
 5530SOL    HW117640   6.259   0.842   3.526 -0.9538  0.5012  2.4385
 5530SOL    HW217641   6.241   0.969   3.607  1.1102  4.2605 -2.4514
 5531SOL     OW17642   6.219   6.984   4.021 -0.0711  0.3626  0.5444
 5531SOL    HW117643   6.219   7.077   4.044 -0.3349  0.6855 -0.6942
 5531SOL    HW217644   6.208   6.939   4.105 -0.9619  1.4720  1.0613
 5532SOL     OW17645   1.063   2.059   4.125  0.0993  0.5574 -0.4178
 5532SOL    HW117646   1.072   1.999   4.051  1.4525 -1.3012  1.1352
 5532SOL    HW217647   1.137   2.119   4.117 -0.2707  0.9387 -1.0368
 5533SOL     OW17648   5.764   0.083   6.044  0.4455  0.4164  0.2649
 5533SOL    HW117649   5.859   0.087   6.040  0.5530 -1.3235  0.4388
 5533SOL    HW217650   5.741   0.143   6.115  1.5165 -0.0775  1.0535
 5534SOL     OW17651   1.394   6.617   5.543  0.3278 -0.1411 -0.4705
 5534SOL    HW117652   1.380   6.523   5.537  0.9362 -0.1760 -1.7552
 5534SOL    HW217653   1.308   6.656   5.527 -0.0493 -0.4762  0.6947
 5535SOL     OW17654   6.291   4.753   0.493  0.0314  0.2034 -0.5035
 5535SOL    HW117655   6.222   4.760   0.427  0.7554 -0.6274 -1.3581
 5535SOL    HW217656   6.370   4.781   0.449  0.2795  1.1052  0.4622
 5536SOL     OW17657   1.052   6.989   2.117  0.4440  0.2460 -0.3089
 5536SOL    HW117658   1.140   6.954   2.102  0.3201 -0.5261  0.6970
 5536SOL    HW217659   0.996   6.940   2.057  0.5153 -0.1073 -0.0853
 5537SOL     OW17660   1.100   2.356   2.711  0.0394 -0.0770  1.0055
 5537SOL    HW117661   1.128   2.431   2.764  0.1786  0.5446  0.0620
 5537SOL    HW217662   1.137   2.280   2.757 -1.0309  0.3092  2.5993
 5538SOL     OW17663   4.925   6.998   2.262 -0.5997 -0.0525  0.6229
 5538SOL    HW117664   4.914   6.909   2.294  0.1542  0.6970  3.1733
 5538SOL    HW217665   5.012   7.025   2.292  0.0412  0.9005 -1.8435
 5539SOL     OW17666   5.408   7.431   2.609 -0.6133  0.1308  0.1757
 5539SOL    HW117667   5.330   7.468   2.569 -0.5040  2.1199  1.6261
 5539SOL    HW217668   5.481   7.471   2.561 -0.4717 -0.5969 -0.2281
 5540SOL     OW17669   4.477   4.104   0.872 -0.3508 -0.4329 -0.0823
 5540SOL    HW117670   4.469   4.140   0.784 -1.6459  1.0260  0.5898
 5540SOL    HW217671   4.571   4.094   0.885 -0.0486  0.9401 -1.0219
 5541SOL     OW17672   3.684   4.496   1.113 -0.0179  0.3105 -0.2593
 5541SOL    HW117673   3.644   4.460   1.034 -0.4905  0.1834  0.0355
 5541SOL    HW217674   3.772   4.458   1.114 -0.6383 -1.2054  0.2559
 5542SOL     OW17675   3.930   5.518   4.450  0.5056 -0.2960  0.6480
 5542SOL    HW117676   4.007   5.548   4.500  0.6541  0.5320 -0.0514
 5542SOL    HW217677   3.908   5.592   4.393 -0.5255 -0.7013  0.4945
 5543SOL     OW17678   7.728   0.466   1.257  0.3283 -0.3594 -0.1788
 5543SOL    HW117679   7.729   0.441   1.164  1.3985  0.9645 -0.5546
 5543SOL    HW217680   7.814   0.504   1.273 -0.2232  0.4469  1.0666
 5544SOL     OW17681   1.097   5.721   2.095  0.3935 -0.8930 -0.3253
 5544SOL    HW117682   1.059   5.804   2.124  1.0914 -0.1726 -1.4136
 5544SOL    HW217683   1.023   5.661   2.090  0.0262 -0.6640  1.4927
 5545SOL     OW17684   0.114   7.716   0.608 -0.8400  1.0463 -0.0158
 5545SOL    HW117685   0.161   7.800   0.609  1.3833 -0.1173 -0.0153
 5545SOL    HW217686   0.144   7.671   0.687  0.8184 -1.1147 -1.7280
 5546SOL     OW17687   7.425   7.885   0.907  0.1361 -0.3207  0.4027
 5546SOL    HW117688   7.424   7.881   0.811 -1.6931 -1.9261  0.4318
 5546SOL    HW217689   7.334   7.900   0.931  0.8471  1.9819  1.8894
 5547SOL     OW17690   0.374   1.453   3.060 -0.6709  0.5334 -0.2467
 5547SOL    HW117691   0.407   1.476   2.973 -3.1137 -1.6885 -1.9041
 5547SOL    HW217692   0.339   1.536   3.095  0.3389  1.4619 -1.3532
 5548SOL     OW17693   7.491   1.956   7.871 -0.2246 -0.2022  0.1989
 5548SOL    HW117694   7.561   1.914   7.821 -0.3258  0.3064 -0.3756
 5548SOL    HW217695   7.500   2.049   7.852 -1.6437 -0.2102 -0.6770
 5549SOL     OW17696   0.257   3.312   4.597  0.2652 -0.1794 -0.4196
 5549SOL    HW117697   0.255   3.324   4.502  0.4298  2.7296 -0.1615
 5549SOL    HW217698   0.274   3.400   4.632 -1.3690 -0.8340  2.3764
 5550SOL     OW17699   8.158   4.364   2.601  0.6380 -0.0076  0.4779
 5550SOL    HW117700   8.139   4.361   2.507  0.7701  0.4527  0.4321
 5550SOL    HW217701   8.182   4.455   2.617 -1.3649  0.4173  1.3488
 5551SOL     OW17702   0.244   3.355   3.433 -0.0996  0.3656 -0.0784
 5551SOL    HW117703   0.198   3.402   3.363 -4.1090 -1.3191  1.1518
 5551SOL    HW217704   0.176   3.304   3.477  2.8843 -1.6764  2.6543
 5552SOL     OW17705   5.372   4.268   4.623 -0.1076 -0.6745 -0.1000
 5552SOL    HW117706   5.283   4.279   4.590 -0.1591  0.8295  0.4561
 5552SOL    HW217707   5.393   4.352   4.664  2.1812 -0.4066 -1.6421
 5553SOL     OW17708   7.425   3.452   3.990 -0.2627 -0.6417 -0.4375
 5553SOL    HW117709   7.330   3.457   3.993 -0.2640 -0.8378  0.0171
 5553SOL    HW217710   7.455   3.536   4.025 -0.2362  1.0099 -4.0418
 5554SOL     OW17711   7.104   4.302   4.871  0.5666  0.1214 -0.0695
 5554SOL    HW117712   7.137   4.228   4.819  0.1113 -0.1828  0.0732
 5554SOL    HW217713   7.065   4.361   4.806 -1.1092 -0.8316  0.0209
 5555SOL     OW17714   6.592   5.314   0.172 -0.1553  0.3980 -0.1111
 5555SOL    HW117715   6.672   5.306   0.120 -0.8148 -1.6858 -0.9038
 5555SOL    HW217716   6.524   5.335   0.108 -0.5685  0.2323  0.2700
 5556SOL     OW17717   6.704   0.794   3.360 -0.2429  0.0208 -0.4061
 5556SOL    HW117718   6.720   0.719   3.416  1.6915  0.0122 -0.8950
 5556SOL    HW217719   6.611   0.815   3.373 -0.0709 -0.4844  2.1319
 5557SOL     OW17720   0.170   4.901   3.633 -0.0579  0.0392  0.0907
 5557SOL    HW117721   0.085   4.935   3.605 -0.4286 -0.5223  0.4978
 5557SOL    HW217722   0.200   4.963   3.700 -0.8630 -0.5541  1.0401
 5558SOL     OW17723   8.127   0.098   2.467 -0.4203  0.1164 -0.0519
 5558SOL    HW117724   8.187   0.169   2.487 -1.2015  0.0773  3.0804
 5558SOL    HW217725   8.045   0.123   2.512 -1.2106 -1.9795 -0.2143
 5559SOL     OW17726   4.568   0.712   3.935  0.3067  0.3392 -0.2792
 5559SOL    HW117727   4.586   0.719   3.841 -1.2437  1.8799 -0.5147
 5559SOL    HW217728   4.476   0.736   3.943  0.5540  0.7376  1.6983
 5560SOL     OW17729   6.968   6.683   3.353  0.2371  0.0988 -0.2604
 5560SOL    HW117730   6.907   6.688   3.427  0.1908 -1.5369 -0.1704
 5560SOL    HW217731   7.054   6.695   3.393  0.1520  0.0831 -0.0693
 5561SOL     OW17732   4.897   6.084   2.550 -0.2483 -0.1888 -0.5112
 5561SOL    HW117733   4.882   6.163   2.499  0.1977 -0.6289 -1.3630
 5561SOL    HW217734   4.872   6.107   2.640  1.2669  1.3839 -0.4392
 5562SOL     OW17735   5.307   6.413   4.202 -0.2990  0.3323 -0.1043
 5562SOL    HW117736   5.213   6.416   4.185 -0.0696  1.3502 -1.4008
 5562SOL    HW217737   5.347   6.448   4.122  1.2392 -1.1392 -0.0490
 5563SOL     OW17738   4.596   1.495   6.245 -0.0950  0.4452  0.1910
 5563SOL    HW117739   4.633   1.411   6.274 -1.7136 -0.3718  0.0123
 5563SOL    HW217740   4.634   1.559   6.305 -0.1360 -0.6474  1.4443
 5564SOL     OW17741   1.574   4.722   4.315 -0.1241 -0.1583  0.4284
 5564SOL    HW117742   1.561   4.633   4.283 -1.7782  0.7260 -1.5824
 5564SOL    HW217743   1.634   4.762   4.252 -2.1487  1.1365 -0.7891
 5565SOL     OW17744   3.428   5.625   6.541 -0.3884  0.0156  0.0984
 5565SOL    HW117745   3.396   5.701   6.492  0.3598  0.5514  0.4240
 5565SOL    HW217746   3.474   5.572   6.477 -0.0175  0.3644  0.0719
 5566SOL     OW17747   7.196   7.962   6.808  0.1479 -0.2191 -0.2123
 5566SOL    HW117748   7.226   8.052   6.821 -0.2674 -0.1862  0.5920
 5566SOL    HW217749   7.113   7.958   6.856  1.0410 -1.5468  1.3311
 5567SOL     OW17750   0.560   5.701   1.489 -0.2039 -0.0030 -0.2489
 5567SOL    HW117751   0.589   5.615   1.456  1.4895  0.2802  0.4477
 5567SOL    HW217752   0.466   5.689   1.504 -0.1312 -1.5436 -0.7736
 5568SOL     OW17753   1.611   6.217   5.887  0.2702 -0.2711  0.2546
 5568SOL    HW117754   1.703   6.191   5.887  0.2610 -0.3360 -0.6966
 5568SOL    HW217755   1.610   6.302   5.841 -0.0384  0.1383  1.0013
 5569SOL     OW17756   3.013   3.409   7.788 -0.0891  0.2540  0.1387
 5569SOL    HW117757   3.014   3.324   7.831 -0.9533  0.8959  1.5184
 5569SOL    HW217758   2.961   3.464   7.846  0.4874  1.7386 -0.6981
 5570SOL     OW17759   7.273   8.067   3.072 -0.2617 -0.2405 -0.2169
 5570SOL    HW117760   7.212   8.108   3.134  0.2808  0.1161  0.0846
 5570SOL    HW217761   7.349   8.044   3.125  0.0773 -0.2193 -0.6923
 5571SOL     OW17762   4.945   4.700   5.803  0.0956 -0.1602  0.3038
 5571SOL    HW117763   4.880   4.646   5.849 -0.3254  0.2695  0.2205
 5571SOL    HW217764   4.927   4.686   5.710  1.3407 -1.5055  0.2424
 5572SOL     OW17765   3.708   7.697   3.389 -0.0212  0.0797  0.6323
 5572SOL    HW117766   3.621   7.732   3.407  0.1202 -0.3169  2.1909
 5572SOL    HW217767   3.766   7.772   3.399  0.0031 -0.0365  1.3959
 5573SOL     OW17768   4.024   7.642   4.144 -0.6404  0.2265  0.2738
 5573SOL    HW117769   4.005   7.736   4.148  1.0879  0.6858 -0.7693
 5573SOL    HW217770   3.946   7.603   4.105 -0.6613  1.5492 -1.1284
 5574SOL     OW17771   3.327   2.657   1.858 -0.1242 -0.5967  0.3389
 5574SOL    HW117772   3.248   2.635   1.809 -1.2258  0.4362  1.5903
 5574SOL    HW217773   3.333   2.592   1.927 -0.6860  0.1277  1.0915
 5575SOL     OW17774   3.120   1.602   6.022  0.2022 -0.2420  0.0214
 5575SOL    HW117775   3.105   1.556   5.939 -0.3225 -0.6618  0.3423
 5575SOL    HW217776   3.207   1.640   6.013 -0.1181  0.2972 -0.9974
 5576SOL     OW17777   6.181   5.853   0.392  0.3028 -0.3687  0.6283
 5576SOL    HW117778   6.135   5.896   0.320  0.5467 -0.4082  0.4453
 5576SOL    HW217779   6.134   5.772   0.407 -0.0309 -0.1420  0.8291
 5577SOL     OW17780   0.239   1.708   7.483 -0.4954 -1.1813  0.8595
 5577SOL    HW117781   0.293   1.629   7.477 -0.1075 -0.9547  1.2722
 5577SOL    HW217782   0.175   1.688   7.552 -0.2277 -1.0424  1.1521
 5578SOL     OW17783   3.339   0.278   2.285 -0.0582 -0.2065 -0.2655
 5578SOL    HW117784   3.311   0.278   2.376 -0.1904 -1.3448 -0.2833
 5578SOL    HW217785   3.263   0.309   2.236  0.1766  0.8784  0.0464
 5579SOL     OW17786   2.252   3.095   3.579 -0.0652 -0.0791 -0.5186
 5579SOL    HW117787   2.194   3.050   3.640 -0.6220 -0.6819 -1.4773
 5579SOL    HW217788   2.248   3.187   3.606 -2.1438  0.0468 -1.0773
 5580SOL     OW17789   7.011   2.684   4.988  0.1489  1.3921  0.1200
 5580SOL    HW117790   6.959   2.748   5.038  1.0839  0.5586  2.2923
 5580SOL    HW217791   7.012   2.607   5.044  0.5968  0.0938 -1.6203
 5581SOL     OW17792   2.334   2.739   7.671 -0.3818 -0.0265  0.4963
 5581SOL    HW117793   2.419   2.739   7.626 -1.2186  1.3299 -1.1968
 5581SOL    HW217794   2.304   2.649   7.665 -0.6918  0.1864 -2.2495
 5582SOL     OW17795   1.499   6.241   7.953 -0.2536 -0.3251 -0.1105
 5582SOL    HW117796   1.469   6.256   7.863 -0.6157  0.3744  0.1235
 5582SOL    HW217797   1.437   6.177   7.988  0.3545 -1.2058 -0.6013
 5583SOL     OW17798   4.704   6.944   2.056 -0.3111  0.2259 -0.0169
 5583SOL    HW117799   4.711   6.851   2.075  0.0320  0.0466 -0.9452
 5583SOL    HW217800   4.757   6.987   2.123  1.8519 -0.4561 -1.1921
 5584SOL     OW17801   1.120   5.118   0.300 -0.1332 -0.1955  0.0065
 5584SOL    HW117802   1.143   5.025   0.294 -1.4020 -0.5221 -0.0913
 5584SOL    HW217803   1.041   5.127   0.248  0.3563  1.0982 -0.5596
 5585SOL     OW17804   1.420   5.417   4.538  0.0471 -0.0607 -0.5260
 5585SOL    HW117805   1.499   5.369   4.510 -0.4168 -0.8268 -0.5446
 5585SOL    HW217806   1.399   5.473   4.464 -0.8030 -1.6111 -1.5097
 5586SOL     OW17807   5.519   4.141   6.102 -0.0404 -0.1501  0.0769
 5586SOL    HW117808   5.475   4.170   6.182  1.0943  0.9494  0.3486
 5586SOL    HW217809   5.602   4.190   6.102 -0.3582  0.5083 -2.1743
 5587SOL     OW17810   7.353   0.795   2.128  0.1281 -0.5891  0.1642
 5587SOL    HW117811   7.379   0.875   2.083 -1.5202 -1.8254 -3.4071
 5587SOL    HW217812   7.435   0.753   2.153  1.0926  0.9609 -0.3229
 5588SOL     OW17813   3.609   5.768   1.761 -0.5135  0.0943  0.5312
 5588SOL    HW117814   3.625   5.862   1.750 -1.3097  0.3564  1.4023
 5588SOL    HW217815   3.525   5.753   1.718  0.5404 -0.6463 -1.3650
 5589SOL     OW17816   8.245   2.255   4.161  0.2337  0.8701 -0.6047
 5589SOL    HW117817   8.313   2.207   4.209  0.8459  0.9595 -1.3667
 5589SOL    HW217818   8.166   2.243   4.214  1.1001  1.8475  0.9825
 5590SOL     OW17819   5.825   4.048   7.112  0.5386  0.0545 -0.4618
 5590SOL    HW117820   5.890   4.090   7.169  0.0078  0.1505  0.0773
 5590SOL    HW217821   5.773   4.120   7.077 -1.2014 -0.2009  1.4750
 5591SOL     OW17822   3.149   3.636   1.722  0.1469  0.5905 -0.2753
 5591SOL    HW117823   3.104   3.712   1.685 -0.8745 -0.7290 -1.8894
 5591SOL    HW217824   3.122   3.634   1.814 -2.9174  0.0954 -1.0734
 5592SOL     OW17825   7.525   6.580   5.130  0.0696  0.3974  0.5708
 5592SOL    HW117826   7.446   6.541   5.167  0.0217  1.2761  1.4295
 5592SOL    HW217827   7.594   6.516   5.148 -0.3352 -0.1181  0.3184
 5593SOL     OW17828   1.259   8.093   0.444 -0.4186  0.1825 -1.0594
 5593SOL    HW117829   1.178   8.141   0.430  0.4305  1.8094 -0.6565
 5593SOL    HW217830   1.268   8.088   0.539 -0.1879 -0.2624 -1.1014
 5594SOL     OW17831   2.274   3.395   1.472  0.2496  0.0179  0.0118
 5594SOL    HW117832   2.365   3.427   1.472  1.1904 -2.2893  2.3166
 5594SOL    HW217833   2.270   3.336   1.397  0.2478  0.9757 -0.7744
 5595SOL     OW17834   5.217   7.258   6.404  0.4789  0.0699 -0.0090
 5595SOL    HW117835   5.123   7.250   6.387  0.6433 -1.0625 -0.5397
 5595SOL    HW217836   5.253   7.296   6.324  0.1321  3.3804  1.2909
 5596SOL     OW17837   3.762   3.844   7.445 -1.0518 -0.1749 -0.8225
 5596SOL    HW117838   3.722   3.855   7.359 -3.2449  0.7891  0.2194
 5596SOL    HW217839   3.837   3.903   7.445 -2.3119  1.5040 -1.3746
 5597SOL     OW17840   5.471   3.831   3.154 -0.0083  0.0895 -0.1431
 5597SOL    HW117841   5.497   3.876   3.235 -2.2944 -0.6131  1.0725
 5597SOL    HW217842   5.414   3.760   3.184 -1.2604  0.0573 -2.3892
 5598SOL     OW17843   1.145   6.294   2.022 -0.5232 -0.5574  0.0417
 5598SOL    HW117844   1.154   6.221   2.083 -1.2654 -0.6734  0.0224
 5598SOL    HW217845   1.164   6.256   1.936  0.7069 -0.3531  0.2086
 5599SOL     OW17846   0.774   2.582   6.528  0.5133  0.5820 -0.3427
 5599SOL    HW117847   0.759   2.676   6.516  1.0927  0.8392  0.8258
 5599SOL    HW217848   0.801   2.551   6.442  1.0045  1.6234 -0.5818
 5600SOL     OW17849   1.258   2.249   4.077 -0.5414 -0.4966 -0.6094
 5600SOL    HW117850   1.217   2.250   3.991  0.8411  2.1664 -1.3234
 5600SOL    HW217851   1.211   2.316   4.127 -1.2236 -1.8900  0.7248
 5601SOL     OW17852   7.464   5.332   6.592 -0.1914 -0.3683  0.3437
 5601SOL    HW117853   7.483   5.318   6.685  1.2757 -1.6254 -0.1079
 5601SOL    HW217854   7.521   5.270   6.546  1.1823  2.0940 -1.5148
 5602SOL     OW17855   4.373   2.934   2.954 -0.7048 -0.2877 -1.1940
 5602SOL    HW117856   4.423   2.907   3.031 -1.6028 -0.2198 -0.5714
 5602SOL    HW217857   4.436   2.931   2.882  0.1577 -0.3340 -0.4572
 5603SOL     OW17858   0.484   2.772   7.517 -0.6524 -0.1768  0.1283
 5603SOL    HW117859   0.530   2.820   7.586 -1.0700  0.0696  0.2374
 5603SOL    HW217860   0.544   2.701   7.494  0.6231  1.2260 -1.0737
 5604SOL     OW17861   6.634   6.862   4.863  0.4706  0.1124  0.2950
 5604SOL    HW117862   6.579   6.798   4.909 -0.3967 -1.0549 -2.2210
 5604SOL    HW217863   6.723   6.833   4.881  0.1330 -0.7777  0.6037
 5605SOL     OW17864   2.452   2.371   2.426 -0.1978 -0.7832  0.4581
 5605SOL    HW117865   2.457   2.291   2.477 -0.5005 -0.5896  0.8015
 5605SOL    HW217866   2.360   2.398   2.433 -0.0057 -0.1738  0.7098
 5606SOL     OW17867   5.561   2.942   0.619 -0.0402 -0.4417 -0.8115
 5606SOL    HW117868   5.597   2.941   0.708  0.2889 -1.8559 -0.9267
 5606SOL    HW217869   5.607   2.871   0.574  0.1025  0.5210 -2.2469
 5607SOL     OW17870   5.303   6.205   5.408 -0.3207 -0.1747  0.0853
 5607SOL    HW117871   5.217   6.214   5.450  0.4838 -1.0023  2.0312
 5607SOL    HW217872   5.285   6.160   5.325 -1.9410  1.2063 -0.3777
 5608SOL     OW17873   7.243   5.556   4.699 -0.4372 -0.4799  0.0664
 5608SOL    HW117874   7.309   5.619   4.727  0.0610 -0.2608 -1.5033
 5608SOL    HW217875   7.171   5.611   4.668 -0.4291 -0.6915 -0.3252
 5609SOL     OW17876   0.003   1.449   5.575  0.2862  0.3087 -0.1014
 5609SOL    HW117877  -0.071   1.502   5.548 -0.7549 -0.3550  1.3343
 5609SOL    HW217878   0.080   1.495   5.541 -0.6425  2.1312  0.1703
 5610SOL     OW17879   4.990   7.067   7.448  0.4039  0.4147  0.4327
 5610SOL    HW117880   4.988   7.050   7.542  2.6367  1.4764  0.7330
 5610SOL    HW217881   4.994   6.980   7.409  2.4680 -0.0591  1.5136
 5611SOL     OW17882   2.306   0.173   1.871 -0.0472  1.0517  0.2949
 5611SOL    HW117883   2.237   0.206   1.813  0.4449  1.7676  0.1125
 5611SOL    HW217884   2.386   0.176   1.817 -0.2684 -2.4339 -0.5171
 5612SOL     OW17885   2.856   5.045   1.221 -0.2322 -0.4432 -0.5862
 5612SOL    HW117886   2.860   5.058   1.316 -0.1629 -2.1347 -0.3291
 5612SOL    HW217887   2.923   5.103   1.186  1.7965 -1.9174  0.6594
 5613SOL     OW17888   7.026   1.578   0.098 -0.2450  0.1243 -0.5415
 5613SOL    HW117889   6.961   1.608   0.162 -0.6345 -0.5584 -0.6029
 5613SOL    HW217890   7.012   1.634   0.022  0.7515  1.4770  0.2279
 5614SOL     OW17891   4.368   4.606   0.628  0.1060  0.5405 -0.1725
 5614SOL    HW117892   4.378   4.679   0.566 -0.3893  0.5205 -0.2766
 5614SOL    HW217893   4.454   4.565   0.631 -0.1401 -0.1147 -1.6656
 5615SOL     OW17894   7.685   5.659   3.383 -0.0159  0.8172 -0.0400
 5615SOL    HW117895   7.727   5.610   3.313 -0.2087  0.1114  0.3254
 5615SOL    HW217896   7.701   5.751   3.362 -0.6323  0.6431 -1.3541
 5616SOL     OW17897   6.452   2.571   2.017  0.0095 -0.6295  0.6362
 5616SOL    HW117898   6.394   2.499   1.991 -1.7362  1.0706 -0.4359
 5616SOL    HW217899   6.532   2.557   1.966 -1.0927 -0.7102 -1.1649
 5617SOL     OW17900   2.332   4.749   0.339 -0.1329  0.1869 -0.0211
 5617SOL    HW117901   2.290   4.718   0.260 -1.5574  1.0238  0.3691
 5617SOL    HW217902   2.321   4.678   0.402  0.1448 -0.0918 -0.2865
 5618SOL     OW17903   5.754   4.706   7.719 -0.1364 -0.7592  0.3797
 5618SOL    HW117904   5.706   4.652   7.656  2.1645 -0.8052 -1.4891
 5618SOL    HW217905   5.764   4.790   7.675 -0.3657 -0.0497  1.6550
 5619SOL     OW17906   4.032   3.261   5.913  0.0532 -0.3259 -0.0685
 5619SOL    HW117907   4.018   3.289   6.004  1.3823  0.2307 -0.0204
 5619SOL    HW217908   4.013   3.168   5.913 -3.7030  0.2815 -0.0528
 5620SOL     OW17909   5.255   4.590   4.129 -0.4326 -0.3993 -0.1096
 5620SOL    HW117910   5.197   4.549   4.194  0.6838  0.8092  1.7333
 5620SOL    HW217911   5.312   4.646   4.180 -0.4145  1.7291 -2.3064
 5621SOL     OW17912   7.684   3.699   4.745  0.3603  0.1030  0.5248
 5621SOL    HW117913   7.712   3.790   4.750  1.5919 -0.3150  2.0326
 5621SOL    HW217914   7.647   3.690   4.657 -0.7778  2.3145  0.7031
 5622SOL     OW17915   6.525   3.245   4.289 -0.1500  0.1956 -0.2116
 5622SOL    HW117916   6.564   3.327   4.259 -1.2697  1.1361  0.8299
 5622SOL    HW217917   6.452   3.230   4.229  0.8791 -0.8065 -1.2642
 5623SOL     OW17918   0.680   5.768   0.276 -0.3180 -0.1215  0.1452
 5623SOL    HW117919   0.623   5.773   0.199  0.7754  1.8709 -0.6214
 5623SOL    HW217920   0.732   5.689   0.263 -1.3444 -0.7366 -0.2773
 5624SOL     OW17921   3.813   7.932   6.281  0.2303 -0.1229  0.1021
 5624SOL    HW117922   3.808   8.009   6.337  0.9134 -0.2074  0.2872
 5624SOL    HW217923   3.805   7.965   6.192  0.8743  0.2073  0.1610
 5625SOL     OW17924   0.263   4.442   1.043 -0.0450  0.5249  0.3326
 5625SOL    HW117925   0.358   4.448   1.055 -0.0378  1.1789 -0.0196
 5625SOL    HW217926   0.231   4.406   1.126  0.3666  1.7143  1.0284
 5626SOL     OW17927   6.757   0.254   0.820 -0.0958  0.3007  0.4001
 5626SOL    HW117928   6.807   0.247   0.739  0.0775 -1.5950  0.6140
 5626SOL    HW217929   6.813   0.303   0.879  0.0296  1.1706 -0.4236
 5627SOL     OW17930   2.894   0.064   6.452  0.1504  0.0568 -0.1265
 5627SOL    HW117931   2.850   0.145   6.477 -0.3384  0.0093 -0.7868
 5627SOL    HW217932   2.986   0.080   6.470 -0.0123  0.5564  0.2729
 5628SOL     OW17933   2.225   1.870   1.700 -0.0983  0.3304 -0.0624
 5628SOL    HW117934   2.205   1.913   1.783  1.0928 -0.9579  0.9258
 5628SOL    HW217935   2.320   1.870   1.695  0.0208 -2.9077  0.4259
 5629SOL     OW17936   2.693   6.257   7.319 -0.0267  0.5230 -0.6034
 5629SOL    HW117937   2.714   6.333   7.373  1.5861  0.4838 -1.1194
 5629SOL    HW217938   2.663   6.295   7.236 -1.4426  0.5746 -0.0987
 5630SOL     OW17939   4.411   3.193   2.216 -0.1459  0.1139 -0.5896
 5630SOL    HW117940   4.420   3.286   2.198  1.5048  0.0338 -0.3511
 5630SOL    HW217941   4.489   3.171   2.267 -0.4852 -1.4063 -0.6789
 5631SOL     OW17942   8.149   0.738   7.514 -0.3212 -0.2137  0.1016
 5631SOL    HW117943   8.183   0.778   7.434 -1.2162 -0.0606 -0.2173
 5631SOL    HW217944   8.168   0.645   7.504  0.1407 -0.1109  0.0042
 5632SOL     OW17945   2.758   6.711   1.330  0.0931  0.2816  0.5432
 5632SOL    HW117946   2.840   6.685   1.287 -0.6217 -0.1777 -0.6018
 5632SOL    HW217947   2.705   6.631   1.330 -1.2922  1.1465 -0.9912
 5633SOL     OW17948   2.626   5.105   5.249 -0.3276  0.0919  0.2333
 5633SOL    HW117949   2.572   5.173   5.289 -0.4120 -0.2322  0.6800
 5633SOL    HW217950   2.566   5.032   5.235 -0.0986 -0.1223  0.3613
 5634SOL     OW17951   1.592   3.895   0.468  0.3883 -0.0504 -0.2693
 5634SOL    HW117952   1.613   3.986   0.486  0.2676  0.5242 -2.7608
 5634SOL    HW217953   1.529   3.872   0.536  1.5475  1.2262  1.3096
 5635SOL     OW17954   3.935   0.503   8.008 -0.5504  0.2808 -0.4028
 5635SOL    HW117955   3.841   0.516   8.008 -0.7016 -0.5978  0.8937
 5635SOL    HW217956   3.970   0.579   8.056 -0.4740  1.1490 -1.7758
 5636SOL     OW17957   1.059   4.860   0.815  0.8607 -0.1713 -0.6754
 5636SOL    HW117958   0.969   4.840   0.790  0.3656  0.4959  0.4773
 5636SOL    HW217959   1.057   4.952   0.843  1.3258 -0.8180  1.7365
 5637SOL     OW17960   2.955   4.517   4.792  0.0215 -0.1056 -0.2445
 5637SOL    HW117961   2.937   4.426   4.769  0.6767  0.0588 -1.4829
 5637SOL    HW217962   2.975   4.560   4.709  0.3361  1.0379  0.3921
 5638SOL     OW17963   8.098   8.265   4.046  0.3985  0.1674  0.3824
 5638SOL    HW117964   8.101   8.285   3.953 -0.6743  1.4017  0.5720
 5638SOL    HW217965   8.015   8.217   4.058 -0.7732  2.2178  1.0233
 5639SOL     OW17966   2.435   2.460   5.111  0.3544  0.7613  0.5608
 5639SOL    HW117967   2.506   2.512   5.147  1.0781 -1.1680  2.0981
 5639SOL    HW217968   2.375   2.447   5.184 -0.0383 -0.1462  0.0931
 5640SOL     OW17969   7.505   1.677   6.159 -0.3543 -0.1954 -0.1780
 5640SOL    HW117970   7.580   1.734   6.176  1.0677 -1.9698 -0.1073
 5640SOL    HW217971   7.447   1.729   6.105  1.2214  1.0532 -0.7561
 5641SOL     OW17972   1.604   2.180   2.480 -0.1038 -0.3968 -0.5499
 5641SOL    HW117973   1.606   2.231   2.561 -0.4412  1.1830 -1.4871
 5641SOL    HW217974   1.696   2.167   2.458 -0.0102  0.2793 -0.5745
 5642SOL     OW17975   3.466   6.076   3.466 -0.7733  1.3571 -0.5048
 5642SOL    HW117976   3.551   6.038   3.487 -1.7423 -1.3354 -0.9924
 5642SOL    HW217977   3.484   6.138   3.395  0.5650 -0.9402 -2.3367
 5643SOL     OW17978   3.560   7.467   2.376  0.3568  0.6542 -0.3182
 5643SOL    HW117979   3.638   7.435   2.331 -0.2340  0.2683 -1.0780
 5643SOL    HW217980   3.489   7.451   2.315 -0.7940 -1.7451  1.4914
 5644SOL     OW17981   5.674   5.815   3.244 -0.3891 -0.0412  0.0637
 5644SOL    HW117982   5.734   5.863   3.186 -0.4976  1.0183  0.7818
 5644SOL    HW217983   5.671   5.869   3.323 -0.8226 -1.0693  0.7661
 5645SOL     OW17984   4.263   0.637   4.270  0.2733 -0.2609  0.1184
 5645SOL    HW117985   4.175   0.601   4.259  0.3739 -0.3736 -0.3781
 5645SOL    HW217986   4.287   0.616   4.360  0.6178 -2.1035 -0.3643
 5646SOL     OW17987   5.060   2.973   0.910 -0.0454  0.2173 -0.1904
 5646SOL    HW117988   5.145   2.999   0.947  1.2868 -1.6871 -1.6940
 5646SOL    HW217989   5.047   3.032   0.836  0.7360 -0.4007 -0.8449
 5647SOL     OW17990   3.017   5.179   6.058  0.4528  0.5586  0.1301
 5647SOL    HW117991   2.983   5.099   6.098 -1.6355  0.4646 -1.6235
 5647SOL    HW217992   3.039   5.235   6.131 -2.4666  0.1247  1.4915
 5648SOL     OW17993   0.153   0.326   2.011 -0.1647  0.5603 -0.0487
 5648SOL    HW117994   0.128   0.417   2.027 -0.0366  0.4954  0.5298
 5648SOL    HW217995   0.246   0.330   1.987  0.0686  0.5062  0.8108
 5649SOL     OW17996   7.855   3.569   3.187 -0.5479  0.0443 -0.2132
 5649SOL    HW117997   7.897   3.616   3.114  1.5608 -1.0625  0.2110
 5649SOL    HW217998   7.771   3.540   3.151 -0.1516  0.6975 -1.7566
 5650SOL     OW17999   0.593   1.937   7.468  0.5505 -0.3721 -0.4165
 5650SOL    HW118000   0.629   2.012   7.516  2.5602 -1.0547 -0.7738
 5650SOL    HW218001   0.507   1.967   7.438  0.6350  1.2154  0.8021
 5651SOL     OW18002   1.399   6.625   1.964  0.1397  0.1890 -0.4922
 5651SOL    HW118003   1.480   6.606   1.915 -0.6959 -1.6338 -1.2514
 5651SOL    HW218004   1.372   6.711   1.932  0.3398 -0.3691 -2.3235
 5652SOL     OW18005   4.207   3.516   2.458  0.0760 -0.2132  0.0029
 5652SOL    HW118006   4.297   3.533   2.487 -0.1350  1.4644 -0.2099
 5652SOL    HW218007   4.157   3.592   2.488 -1.0730 -0.6352 -0.7640
 5653SOL     OW18008   3.220   3.547   3.872 -0.1648  0.3635  0.2965
 5653SOL    HW118009   3.133   3.537   3.834  0.5903 -1.3902 -1.1170
 5653SOL    HW218010   3.259   3.460   3.865  1.7910  1.1684  0.6737
 5654SOL     OW18011   7.942   6.254   3.368 -0.3961  0.6004  0.1649
 5654SOL    HW118012   8.022   6.272   3.318 -0.4494  0.2001 -0.0631
 5654SOL    HW218013   7.871   6.271   3.306 -0.5014  1.1718  0.4319
 5655SOL     OW18014   5.241   7.611   1.299 -0.2903  0.7040 -0.3287
 5655SOL    HW118015   5.307   7.600   1.367 -0.9767 -1.1587  0.0983
 5655SOL    HW218016   5.179   7.540   1.313  0.2676 -0.6725 -3.7402
 5656SOL     OW18017   6.976   4.435   2.078 -0.6212 -0.3685 -0.8710
 5656SOL    HW118018   7.042   4.370   2.103 -0.5900 -0.0746 -0.1453
 5656SOL    HW218019   6.918   4.440   2.155 -0.2041  0.9789 -0.6289
 5657SOL     OW18020   8.127   1.388   7.217 -0.7039  0.3765  0.3780
 5657SOL    HW118021   8.157   1.442   7.290 -1.0729  1.6995 -0.4289
 5657SOL    HW218022   8.033   1.377   7.232 -0.6680  0.1237  0.4263
 5658SOL     OW18023   5.609   7.547   5.693 -0.8412  0.0922 -0.2102
 5658SOL    HW118024   5.572   7.620   5.742  0.1969  0.1640  0.5224
 5658SOL    HW218025   5.615   7.476   5.758  0.0170  0.0004 -0.3815
 5659SOL     OW18026   7.637   6.134   7.884 -0.1925  0.4562  0.0031
 5659SOL    HW118027   7.620   6.190   7.808  1.4108  0.6279 -0.2654
 5659SOL    HW218028   7.599   6.182   7.958 -0.4481  1.0119 -0.4807
 5660SOL     OW18029   2.428   3.167   5.608  0.4245 -0.1286 -0.2725
 5660SOL    HW118030   2.444   3.076   5.633 -2.0952 -1.3950 -2.7572
 5660SOL    HW218031   2.509   3.195   5.565  0.9227 -1.4863 -0.2594
 5661SOL     OW18032   7.120   0.950   2.629 -0.1410  0.6260 -0.4106
 5661SOL    HW118033   7.083   0.866   2.603 -1.2008  1.2667 -1.0653
 5661SOL    HW218034   7.169   0.979   2.552  0.4599  0.4894 -0.0871
 5662SOL     OW18035   0.299   2.402   0.923  0.0376 -0.5715 -0.7588
 5662SOL    HW118036   0.290   2.315   0.962 -1.4936 -0.6440 -1.1809
 5662SOL    HW218037   0.344   2.454   0.989 -2.5985 -0.6437  1.2882
 5663SOL     OW18038   0.128   6.753   4.558 -0.7212 -0.0714  0.2107
 5663SOL    HW118039   0.138   6.835   4.606  0.0793 -0.7350  1.2219
 5663SOL    HW218040   0.053   6.768   4.500 -1.1880  1.0501  1.0641
 5664SOL     OW18041   6.955   1.980   4.411 -0.1907  0.1707 -0.1594
 5664SOL    HW118042   6.984   1.921   4.341 -1.4473 -1.1231  0.3731
 5664SOL    HW218043   6.874   2.019   4.377 -1.1258 -0.9043  0.7783
 5665SOL     OW18044   5.525   2.686   2.682  0.3781  0.3891  0.3532
 5665SOL    HW118045   5.573   2.767   2.697  0.8149  0.0640  0.7387
 5665SOL    HW218046   5.441   2.714   2.647  0.2024  1.0635  1.2736
 5666SOL     OW18047   6.158   0.112   7.377 -0.3059  0.5586 -0.3602
 5666SOL    HW118048   6.092   0.050   7.346  0.3525  0.9757 -2.8042
 5666SOL    HW218049   6.241   0.079   7.342  0.8457  0.1148  2.5426
 5667SOL     OW18050   4.845   1.238   2.895  1.0129 -0.3404  0.6506
 5667SOL    HW118051   4.857   1.143   2.896  2.0843 -0.2755 -1.0057
 5667SOL    HW218052   4.902   1.268   2.824  1.0733  1.6001  1.4576
 5668SOL     OW18053   1.078   1.399   6.597 -0.4584 -0.5182  0.3473
 5668SOL    HW118054   1.116   1.486   6.609  0.7290 -1.0457  0.4914
 5668SOL    HW218055   1.001   1.398   6.655  0.4755 -0.1353  1.6393
 5669SOL     OW18056   4.935   8.193   3.822  0.1468  0.0732 -0.5679
 5669SOL    HW118057   4.853   8.230   3.855  0.4358 -0.6028  1.0219
 5669SOL    HW218058   4.975   8.153   3.899  1.6830 -0.1461 -1.4490
 5670SOL     OW18059   0.847   0.809   7.929  0.3802  0.3599 -0.2390
 5670SOL    HW118060   0.796   0.730   7.946  0.1819  0.9832  2.3583
 5670SOL    HW218061   0.901   0.786   7.853  0.5443 -2.3834  0.5958
 5671SOL     OW18062   0.735   2.152   7.557  0.0925  0.6891  0.2163
 5671SOL    HW118063   0.813   2.179   7.507  0.3873  1.6047  1.1339
 5671SOL    HW218064   0.683   2.232   7.564 -1.1508 -0.0060 -0.7249
 5672SOL     OW18065   4.476   3.106   4.293 -0.2903  0.2094  0.1261
 5672SOL    HW118066   4.520   3.189   4.273 -0.9158  0.2950 -0.9676
 5672SOL    HW218067   4.491   3.052   4.215  0.9687 -1.1053  1.2144
 5673SOL     OW18068   7.883   5.162   0.092  0.2415 -0.3362  0.1827
 5673SOL    HW118069   7.872   5.257   0.090  1.5392 -0.1698 -1.7010
 5673SOL    HW218070   7.827   5.130   0.022  1.9776 -0.6167 -1.1655
 5674SOL     OW18071   0.819   3.295   1.720  0.3607 -0.0185 -0.0755
 5674SOL    HW118072   0.897   3.282   1.667 -1.2456 -3.2552 -1.9643
 5674SOL    HW218073   0.848   3.280   1.810  1.9447 -1.1057 -0.7198
 5675SOL     OW18074   7.405   4.916   3.950  0.3055 -0.2095  0.0806
 5675SOL    HW118075   7.320   4.953   3.928  0.1063 -0.4470  0.4360
 5675SOL    HW218076   7.409   4.834   3.901 -0.1991 -0.8102  1.0113
 5676SOL     OW18077   3.075   1.148   3.629  0.4801  0.2869 -0.0474
 5676SOL    HW118078   3.144   1.082   3.623 -0.2172 -0.4273 -0.5326
 5676SOL    HW218079   3.078   1.193   3.545  2.1346  2.1372  0.9292
 5677SOL     OW18080   8.000   5.774   7.651  0.7172 -0.0786  0.3119
 5677SOL    HW118081   7.965   5.735   7.731  0.1585 -1.1304 -0.4244
 5677SOL    HW218082   7.954   5.857   7.643 -0.3757 -0.6734  0.2628
 5678SOL     OW18083   6.782   7.529   2.928 -0.2850 -0.1762  0.3353
 5678SOL    HW118084   6.864   7.541   2.977  0.0465 -0.1373 -0.2261
 5678SOL    HW218085   6.736   7.461   2.977 -0.2456  0.3034  1.0704
 5679SOL     OW18086   5.526   3.555   7.366  0.1764 -0.1268  0.3806
 5679SOL    HW118087   5.593   3.570   7.299 -0.3169  1.8230  0.2536
 5679SOL    HW218088   5.567   3.495   7.428  0.7604 -1.7538 -1.4691
 5680SOL     OW18089   2.900   8.165   4.083  1.0714 -0.2595 -0.0501
 5680SOL    HW118090   2.835   8.134   4.020 -1.0631  0.7615  1.5063
 5680SOL    HW218091   2.915   8.091   4.142  2.5962 -1.0125 -1.3339
 5681SOL     OW18092   0.687   7.879   1.046 -0.3633  0.2347  0.2461
 5681SOL    HW118093   0.609   7.896   1.099 -0.2608  0.8953  0.2051
 5681SOL    HW218094   0.677   7.938   0.971 -0.1660 -0.1887 -0.1167
 5682SOL     OW18095   5.048   2.675   7.389  0.0717  0.5924  0.5397
 5682SOL    HW118096   4.977   2.617   7.413  1.0441 -0.1553  1.7559
 5682SOL    HW218097   5.123   2.644   7.440  1.0972  1.7666 -0.1784
 5683SOL     OW18098   3.335   4.315   0.349  0.3662  0.4382  0.0685
 5683SOL    HW118099   3.305   4.366   0.425 -0.0084  0.2213  0.0687
 5683SOL    HW218100   3.295   4.229   0.360 -0.2418  0.6092 -0.7250
 5684SOL     OW18101   4.975   4.967   0.505 -0.0327  0.0113 -0.1628
 5684SOL    HW118102   5.061   4.981   0.465 -0.1940 -0.1540 -0.5726
 5684SOL    HW218103   4.946   4.883   0.469  0.1768 -0.5518  0.9245
 5685SOL     OW18104   7.780   4.772   0.269 -0.0910  0.3551 -0.0787
 5685SOL    HW118105   7.834   4.784   0.347 -1.6097 -1.6558  1.3761
 5685SOL    HW218106   7.825   4.705   0.218  0.0684  0.5304 -0.1752
 5686SOL     OW18107   6.747   1.127   1.258 -0.0803 -0.1310 -0.4270
 5686SOL    HW118108   6.690   1.066   1.304  0.0710  0.9439  1.2574
 5686SOL    HW218109   6.832   1.082   1.253 -0.1044 -0.2685  0.3364
 5687SOL     OW18110   0.099   1.747   8.193 -0.5318 -0.1318  0.7667
 5687SOL    HW118111   0.063   1.665   8.159  1.6792 -0.5594 -0.7324
 5687SOL    HW218112   0.127   1.795   8.115  1.2327  0.5664  1.7792
 5688SOL     OW18113   4.227   7.131   2.955  0.8039  0.2302 -0.0966
 5688SOL    HW118114   4.229   7.189   3.031  1.2209  0.7630 -0.5093
 5688SOL    HW218115   4.139   7.143   2.918  1.1701  1.2387 -0.6626
 5689SOL     OW18116   5.997   6.025   7.016  0.4951  0.7302  0.1653
 5689SOL    HW118117   6.041   6.069   6.943 -1.4024 -2.8276 -3.5002
 5689SOL    HW218118   6.066   5.974   7.058  1.1221  0.2517 -1.3534
 5690SOL     OW18119   5.583   1.016   1.512 -0.3010  0.0988 -0.6752
 5690SOL    HW118120   5.496   0.989   1.482 -0.9937  1.2345  0.2379
 5690SOL    HW218121   5.607   1.088   1.454 -1.3732  1.8842  1.0060
 5691SOL     OW18122   6.357   2.895   7.784  0.3088 -0.0415 -0.3468
 5691SOL    HW118123   6.379   2.822   7.842 -1.7934 -0.0854  0.4775
 5691SOL    HW218124   6.321   2.962   7.842 -0.1260  0.6580 -1.3904
 5692SOL     OW18125   1.376   3.700   2.357  0.0191 -0.5159  0.7370
 5692SOL    HW118126   1.437   3.660   2.295 -1.8128 -1.0391 -0.8196
 5692SOL    HW218127   1.432   3.749   2.417  1.9137 -0.1871 -1.1664
 5693SOL     OW18128   1.173   2.719   4.419  0.1661  0.4060 -0.1610
 5693SOL    HW118129   1.103   2.769   4.378  0.4308  0.5308 -0.4730
 5693SOL    HW218130   1.253   2.766   4.395  0.6136 -1.1817 -2.0749
 5694SOL     OW18131   6.620   3.730   3.398 -0.4788  0.3292 -0.5568
 5694SOL    HW118132   6.642   3.698   3.486  1.5709  0.0303 -1.1357
 5694SOL    HW218133   6.650   3.662   3.339 -1.6784  0.6118 -1.5351
 5695SOL     OW18134   6.304   0.827   4.734 -0.2563  0.0267  0.1707
 5695SOL    HW118135   6.264   0.906   4.695 -0.0389  0.3897  0.6726
 5695SOL    HW218136   6.321   0.770   4.659 -1.0804  0.1516 -0.1255
 5696SOL     OW18137   4.817   1.334   1.031  0.0243 -0.1465  0.3838
 5696SOL    HW118138   4.742   1.393   1.020 -0.1798 -0.0811  1.8881
 5696SOL    HW218139   4.890   1.392   1.054  0.1762 -0.3539  0.4211
 5697SOL     OW18140   0.991   8.226   6.411  0.3649 -0.1964  0.0420
 5697SOL    HW118141   1.038   8.148   6.381  0.5269  0.4344 -1.4148
 5697SOL    HW218142   1.019   8.237   6.502 -0.3204 -2.3110  0.5591
 5698SOL     OW18143   0.512   6.531   6.825  0.1852 -0.7439  0.2341
 5698SOL    HW118144   0.582   6.493   6.773  0.2992  0.4605 -0.5356
 5698SOL    HW218145   0.452   6.459   6.842  1.5010 -1.7602  0.7558
 5699SOL     OW18146   1.583   3.217   5.782 -0.6230  0.1585  0.0149
 5699SOL    HW118147   1.524   3.147   5.813  0.1477 -0.0118  1.1516
 5699SOL    HW218148   1.632   3.243   5.860  0.9797  0.1294 -0.9367
 5700SOL     OW18149   1.724   4.346   4.891 -0.6498 -0.5629 -0.1979
 5700SOL    HW118150   1.661   4.413   4.919 -0.5607  0.5308 -2.4166
 5700SOL    HW218151   1.696   4.266   4.936 -2.1597  0.4371  0.7253
 5701SOL     OW18152   0.748   7.714   0.714  0.5221 -0.2726  0.1211
 5701SOL    HW118153   0.789   7.686   0.632 -3.3719 -1.9969 -1.4944
 5701SOL    HW218154   0.754   7.810   0.713  1.5552 -0.3167 -1.6227
 5702SOL     OW18155   2.436   0.716   7.559 -0.0754  0.1493 -0.5194
 5702SOL    HW118156   2.367   0.782   7.553 -0.9585 -0.7254 -0.1158
 5702SOL    HW218157   2.512   0.757   7.516 -0.1845  1.9683  0.9198
 5703SOL     OW18158   4.952   2.548   7.643  0.3066  0.2237  0.0761
 5703SOL    HW118159   4.873   2.593   7.672 -1.2281 -1.9785 -0.4146
 5703SOL    HW218160   5.003   2.533   7.722 -1.1616 -0.8278  0.8534
 5704SOL     OW18161   5.931   3.491   6.651  0.3039  0.3601 -0.0065
 5704SOL    HW118162   5.861   3.446   6.699 -0.2621  1.0679 -0.1641
 5704SOL    HW218163   5.935   3.446   6.567 -1.2169  1.4758 -0.7084
 5705SOL     OW18164   4.312   6.581   6.050  0.2161  0.6219  0.3960
 5705SOL    HW118165   4.320   6.649   5.984 -3.1360 -0.7530 -1.6675
 5705SOL    HW218166   4.323   6.499   6.002  2.3194 -0.4485  2.4752
 5706SOL     OW18167   2.539   8.117   3.266 -0.0362 -0.4689 -0.5185
 5706SOL    HW118168   2.462   8.112   3.323 -1.6858  1.1319 -2.4565
 5706SOL    HW218169   2.525   8.049   3.200  2.4295 -3.1216  1.4004
 5707SOL     OW18170   1.935   6.962   4.546  0.1125 -0.4464 -0.3283
 5707SOL    HW118171   1.895   7.040   4.585  0.1817 -0.5477 -0.0566
 5707SOL    HW218172   1.961   6.908   4.620  1.3356 -0.0895 -0.4760
 5708SOL     OW18173   3.390   2.895   3.301  0.4633 -0.1862 -0.1147
 5708SOL    HW118174   3.454   2.868   3.367 -0.9319 -1.0074  0.9726
 5708SOL    HW218175   3.393   2.990   3.303 -0.2213 -0.1595  1.8773
 5709SOL     OW18176   3.718   2.310   4.694  0.0780 -0.2550 -0.1125
 5709SOL    HW118177   3.792   2.328   4.752  0.0712 -0.1752 -0.1284
 5709SOL    HW218178   3.716   2.215   4.686 -1.4930 -0.4751  2.0887
 5710SOL     OW18179   2.903   4.244   5.540  0.2656  0.0587 -0.3332
 5710SOL    HW118180   2.882   4.201   5.457  3.1553 -2.7087  0.1659
 5710SOL    HW218181   2.957   4.319   5.515  0.7451 -0.4938 -0.9887
 5711SOL     OW18182   7.719   5.466   3.853 -1.0027 -0.3417  0.9813
 5711SOL    HW118183   7.689   5.396   3.911 -1.7759 -1.2037 -0.4019
 5711SOL    HW218184   7.670   5.543   3.882  0.4345 -0.1269  3.0330
 5712SOL     OW18185   4.164   3.223   4.000 -0.0860  0.1466  0.4897
 5712SOL    HW118186   4.080   3.269   3.995 -0.2123  0.0266  1.4201
 5712SOL    HW218187   4.197   3.225   3.910 -1.0882  0.1758  0.1100
 5713SOL     OW18188   4.800   2.913   2.641 -0.0991  0.2149  0.2246
 5713SOL    HW118189   4.790   2.818   2.651  0.2634  0.3222  1.8529
 5713SOL    HW218190   4.846   2.923   2.557 -4.0804 -0.7560 -2.3248
 5714SOL     OW18191   7.477   7.070   8.276  0.1352 -0.2763  0.1897
 5714SOL    HW118192   7.433   7.153   8.258  0.5071 -0.5379 -2.3307
 5714SOL    HW218193   7.406   7.010   8.299 -0.4827  0.1075 -0.6437
 5715SOL     OW18194   1.891   7.219   0.570  0.1579 -0.3072  0.0630
 5715SOL    HW118195   1.869   7.139   0.618  0.1999 -0.4911 -0.2234
 5715SOL    HW218196   1.874   7.197   0.478  0.6353 -0.1444 -0.0642
 5716SOL     OW18197   1.456   2.167   2.929  0.7588  0.2227 -0.3933
 5716SOL    HW118198   1.369   2.164   2.967  1.5877 -1.0546  1.5652
 5716SOL    HW218199   1.483   2.258   2.939 -0.0399  0.4577 -0.3037
 5717SOL     OW18200   6.690   5.001   8.169 -0.5410 -0.1879 -0.1716
 5717SOL    HW118201   6.693   4.944   8.246  1.0462  0.5713  0.3728
 5717SOL    HW218202   6.764   5.062   8.181 -0.6374  0.3489 -1.9852
 5718SOL     OW18203   4.412   0.731   1.554 -0.5520  0.1486 -0.5155
 5718SOL    HW118204   4.413   0.696   1.465  0.6925 -1.5079  0.0859
 5718SOL    HW218205   4.330   0.699   1.591  0.4343 -2.0882 -0.0697
 5719SOL     OW18206   3.928   1.664   3.253 -1.0472 -0.5966 -0.0331
 5719SOL    HW118207   3.846   1.711   3.239 -0.8302  0.6284  2.2816
 5719SOL    HW218208   3.906   1.595   3.317 -0.6716 -1.5870 -0.9396
 5720SOL     OW18209   8.216   1.701   6.127 -0.2110 -0.1374  0.2670
 5720SOL    HW118210   8.309   1.708   6.107 -0.1009 -1.8948  0.0046
 5720SOL    HW218211   8.214   1.686   6.222 -0.2118 -0.3938  0.2258
 5721SOL     OW18212   6.636   2.076   3.456 -0.2046  0.1031 -0.3398
 5721SOL    HW118213   6.627   2.039   3.369  1.2051  0.6345 -0.7369
 5721SOL    HW218214   6.641   2.001   3.514 -1.4690 -0.2510 -0.6623
 5722SOL     OW18215   4.358   7.478   2.790 -0.6669  0.1451  0.0911
 5722SOL    HW118216   4.390   7.405   2.844 -1.1536  0.6358  1.0556
 5722SOL    HW218217   4.432   7.538   2.785 -0.8413  0.4267  0.8070
 5723SOL     OW18218   4.183   4.363   4.466  0.2116 -0.1507 -0.5063
 5723SOL    HW118219   4.107   4.421   4.462  1.3842  1.3887 -2.9210
 5723SOL    HW218220   4.207   4.362   4.558 -1.9343  0.3509  0.1253
 5724SOL     OW18221   7.295   7.831   4.241 -0.7266  0.9034  0.2488
 5724SOL    HW118222   7.380   7.805   4.276 -0.1761 -0.2307 -1.7928
 5724SOL    HW218223   7.233   7.768   4.279 -0.1887 -0.1139 -0.5122
 5725SOL     OW18224   6.176   2.044   1.316 -0.1298  0.1919 -0.1908
 5725SOL    HW118225   6.209   2.053   1.405  0.1653 -2.6323  0.0581
 5725SOL    HW218226   6.155   1.951   1.306 -0.4529  0.4520 -2.9791
 5726SOL     OW18227   0.423   4.787   8.214 -0.5170 -0.5623 -0.2218
 5726SOL    HW118228   0.348   4.831   8.253 -0.9425 -1.2546 -0.2476
 5726SOL    HW218229   0.424   4.816   8.123  0.2349  0.7351  0.1759
 5727SOL     OW18230   6.288   1.778   7.163  0.9692  0.2082 -0.2091
 5727SOL    HW118231   6.206   1.732   7.146  1.8498 -0.6467 -2.5500
 5727SOL    HW218232   6.261   1.861   7.202 -0.8681 -0.8279  0.8325
 5728SOL     OW18233   5.447   5.770   3.661 -0.4784  0.1596 -0.0752
 5728SOL    HW118234   5.445   5.688   3.611 -0.2068  1.0291 -1.5619
 5728SOL    HW218235   5.452   5.838   3.594  1.4543  1.3216  1.1608
 5729SOL     OW18236   7.316   0.204   1.572  0.3257  0.2361  0.0588
 5729SOL    HW118237   7.368   0.241   1.644  2.1394  0.4064 -1.2785
 5729SOL    HW218238   7.355   0.241   1.493  0.2469 -2.1554 -1.1769
 5730SOL     OW18239   8.092   1.715   1.399 -0.1139  0.0687 -0.4763
 5730SOL    HW118240   8.041   1.782   1.353  0.2265  0.3480 -0.4567
 5730SOL    HW218241   8.104   1.645   1.335 -2.0487 -0.8288  0.0615
 5731SOL     OW18242   0.484   4.940   7.091  0.2796 -0.0540 -0.1061
 5731SOL    HW118243   0.460   4.851   7.118  1.3256 -0.8217 -1.5694
 5731SOL    HW218244   0.567   4.957   7.135 -0.8945  1.0445  1.7967
 5732SOL     OW18245   1.959   3.119   4.466 -0.2827  0.3305 -0.1180
 5732SOL    HW118246   1.965   3.047   4.404  0.3345  0.4151 -0.1680
 5732SOL    HW218247   1.997   3.194   4.420  0.1869  0.3944  0.3506
 5733SOL     OW18248   3.357   5.851   6.344 -0.6110 -0.0547  0.4870
 5733SOL    HW118249   3.425   5.903   6.387 -0.9543  2.0668 -1.3601
 5733SOL    HW218250   3.288   5.915   6.324 -1.3889 -1.3587 -1.2119
 5734SOL     OW18251   2.474   1.176   8.007 -0.2628 -0.6414  0.5489
 5734SOL    HW118252   2.497   1.086   8.030  1.0257 -0.8517 -1.3074
 5734SOL    HW218253   2.480   1.178   7.911  2.9970  2.1818  0.6123
 5735SOL     OW18254   5.054   7.950   6.944  0.0140 -0.1134 -1.2831
 5735SOL    HW118255   5.077   7.862   6.971 -0.9259  0.7779  3.3045
 5735SOL    HW218256   5.004   7.938   6.863  1.2310 -3.5753 -1.6678
 5736SOL     OW18257   4.359   1.233   7.647 -0.3298  0.0992  0.4194
 5736SOL    HW118258   4.265   1.221   7.633 -0.1006 -0.6654 -0.5670
 5736SOL    HW218259   4.392   1.147   7.672  0.1970  0.2364  0.2142
 5737SOL     OW18260   0.783   6.423   3.584 -0.8463 -0.1312 -0.0298
 5737SOL    HW118261   0.778   6.460   3.672 -1.7962 -0.9299  0.2671
 5737SOL    HW218262   0.728   6.345   3.587  0.1212 -0.8876 -0.9866
 5738SOL     OW18263   3.381   6.617   5.090 -0.2417  0.7133 -0.1764
 5738SOL    HW118264   3.453   6.638   5.031 -0.7134  2.6651 -0.1382
 5738SOL    HW218265   3.335   6.545   5.048 -0.5944  2.0710 -2.2808
 5739SOL     OW18266   2.690   3.472   7.917 -0.4582 -0.2581 -0.0296
 5739SOL    HW118267   2.639   3.512   7.987  0.3451 -1.3412  1.2191
 5739SOL    HW218268   2.773   3.519   7.918 -0.5136 -0.1457 -0.4094
 5740SOL     OW18269   7.687   5.246   8.011 -0.6228  0.0886  0.0712
 5740SOL    HW118270   7.681   5.167   8.065  0.1076 -0.1573 -0.2004
 5740SOL    HW218271   7.765   5.234   7.959 -0.9168  0.6658 -0.5182
 5741SOL     OW18272   4.332   5.579   3.681 -0.7121  0.9057  0.4161
 5741SOL    HW118273   4.381   5.587   3.762 -2.4679  2.4290  1.4215
 5741SOL    HW218274   4.286   5.495   3.689  1.7462 -0.6679 -0.6548
 5742SOL     OW18275   4.887   0.151   4.581 -0.2161 -0.2442 -0.1490
 5742SOL    HW118276   4.895   0.216   4.512 -0.5508  1.0340  0.9777
 5742SOL    HW218277   4.930   0.191   4.657 -1.5215 -0.7913  0.9139
 5743SOL     OW18278   6.445   4.062   6.894  0.0630  0.3731 -0.3505
 5743SOL    HW118279   6.522   4.107   6.859  0.0590 -0.6529 -1.7809
 5743SOL    HW218280   6.478   3.976   6.921 -0.0933  0.8717  1.5161
 5744SOL     OW18281   5.962   6.550   3.154  0.0343 -0.3539 -0.1303
 5744SOL    HW118282   6.040   6.498   3.176  0.5628  0.5429  0.1820
 5744SOL    HW218283   5.888   6.495   3.179  0.5902 -0.3605  1.6619
 5745SOL     OW18284   2.826   3.473   2.060  0.4518 -0.2068 -0.1456
 5745SOL    HW118285   2.842   3.556   2.105 -0.1924 -0.8286  1.3021
 5745SOL    HW218286   2.753   3.491   2.001  0.7804  0.4282 -0.3664
 5746SOL     OW18287   2.669   7.391   7.407 -0.3004  0.2047  0.3442
 5746SOL    HW118288   2.641   7.302   7.385 -0.4820  0.0769  1.0583
 5746SOL    HW218289   2.606   7.420   7.473 -1.0570  1.3724 -0.8504
 5747SOL     OW18290   5.732   5.034   2.243  0.6522  0.1389 -0.0797
 5747SOL    HW118291   5.665   5.010   2.307 -0.8325  0.7842 -1.3476
 5747SOL    HW218292   5.715   5.127   2.224 -0.1264 -0.4658 -2.7255
 5748SOL     OW18293   0.916   2.193   7.085  0.7719  0.2693  0.1186
 5748SOL    HW118294   0.857   2.161   7.016  1.2413 -0.0161 -0.1602
 5748SOL    HW218295   1.004   2.174   7.051  1.0175  0.5261  0.6074
 5749SOL     OW18296   2.782   3.056   7.760 -0.5205 -0.1134  0.3599
 5749SOL    HW118297   2.863   3.093   7.796 -1.2643  0.5020  1.4449
 5749SOL    HW218298   2.740   3.130   7.716 -1.7645  0.2800  2.0945
 5750SOL     OW18299   7.534   3.787   3.112  0.2585  0.0490 -0.0848
 5750SOL    HW118300   7.534   3.870   3.064 -0.2721 -0.3517 -0.8021
 5750SOL    HW218301   7.441   3.767   3.124  0.1917 -2.5119 -3.6151
 5751SOL     OW18302   0.472   7.778   4.993 -0.1533 -0.3623 -0.1807
 5751SOL    HW118303   0.458   7.781   5.088  0.6495 -0.4951 -0.0439
 5751SOL    HW218304   0.469   7.869   4.965  0.7780 -0.2036  0.1744
 5752SOL     OW18305   6.374   2.019   4.336 -0.1347  0.4797  0.0124
 5752SOL    HW118306   6.374   2.033   4.242 -1.0206  0.6902  0.0339
 5752SOL    HW218307   6.449   1.962   4.352 -1.5269 -1.8359 -1.1907
 5753SOL     OW18308   1.837   3.322   7.721  0.1582  0.0212 -0.2501
 5753SOL    HW118309   1.896   3.397   7.714 -0.9799  0.8892 -0.6802
 5753SOL    HW218310   1.813   3.318   7.814  0.6242 -0.1411 -0.1325
 5754SOL     OW18311   7.313   2.180   0.657  0.0675  0.4122  0.0454
 5754SOL    HW118312   7.290   2.095   0.620  1.4035 -0.1759  0.4908
 5754SOL    HW218313   7.229   2.221   0.679 -0.5756 -1.0023  0.3051
 5755SOL     OW18314   2.933   7.470   6.852 -0.4369 -0.4587 -0.0926
 5755SOL    HW118315   2.849   7.514   6.855  0.6437  1.6499  1.9518
 5755SOL    HW218316   2.926   7.399   6.916 -0.3240  0.3999  0.8848
 5756SOL     OW18317   6.283   7.068   0.332  0.2070 -0.3831  0.2992
 5756SOL    HW118318   6.291   7.059   0.237 -0.1603 -0.5026  0.2784
 5756SOL    HW218319   6.248   7.156   0.345 -1.5451 -1.0274  0.2212
 5757SOL     OW18320   6.557   1.258   0.094  0.0137  0.1598 -0.3271
 5757SOL    HW118321   6.478   1.219   0.133 -0.5512 -0.5224 -2.0370
 5757SOL    HW218322   6.603   1.185   0.054 -0.2430  0.9741 -2.2401
 5758SOL     OW18323   1.835   7.731   5.347 -0.2891  0.0760 -0.5290
 5758SOL    HW118324   1.837   7.654   5.404  0.2682  0.0358 -0.5981
 5758SOL    HW218325   1.828   7.805   5.406  0.3540  0.0380 -0.4037
 5759SOL     OW18326   0.982   7.996   4.386  0.5695 -0.1118 -0.0794
 5759SOL    HW118327   0.900   8.030   4.422  1.3067 -0.1170  1.7498
 5759SOL    HW218328   0.968   7.992   4.292 -0.4765  2.8008 -0.1409
 5760SOL     OW18329   5.842   4.576   3.220 -0.0167 -0.2061  0.0184
 5760SOL    HW118330   5.935   4.552   3.226  0.3677  0.8882 -0.9963
 5760SOL    HW218331   5.824   4.577   3.126 -0.1502  2.6993 -0.0090
 5761SOL     OW18332   5.983   3.842   7.457  0.4469  0.5299 -0.2434
 5761SOL    HW118333   6.021   3.840   7.369 -3.8643 -0.9603 -2.3661
 5761SOL    HW218334   5.958   3.933   7.471 -2.0105  0.2762 -2.2997
 5762SOL     OW18335   5.827   4.275   4.503 -0.3356  0.6613  0.2411
 5762SOL    HW118336   5.780   4.343   4.551 -0.3684  0.2983  0.7281
 5762SOL    HW218337   5.776   4.263   4.422 -0.0490  1.5628 -0.0905
 5763SOL     OW18338   2.221   4.979   3.876  0.1158 -0.0453  0.0126
 5763SOL    HW118339   2.277   5.057   3.875 -2.0427  1.6723  1.6669
 5763SOL    HW218340   2.174   4.982   3.793 -0.9460  1.2732  0.6219
 5764SOL     OW18341   1.634   6.635   0.053 -0.7320 -0.4293 -0.4693
 5764SOL    HW118342   1.588   6.551   0.048 -1.3660 -0.1053 -0.2174
 5764SOL    HW218343   1.605   6.683  -0.024 -0.7417 -0.2561 -0.3570
 5765SOL     OW18344   6.539   0.958   2.782  0.1546 -0.6634  0.1492
 5765SOL    HW118345   6.553   0.960   2.877  0.2920 -1.7910  0.1667
 5765SOL    HW218346   6.578   1.040   2.750 -3.1324  1.5882  1.4298
 5766SOL     OW18347   7.555   2.178   3.011 -0.0921  0.1747  0.1549
 5766SOL    HW118348   7.602   2.112   3.061  0.1738  1.0370  1.0815
 5766SOL    HW218349   7.499   2.222   3.075  0.1023  1.1741 -0.3338
 5767SOL     OW18350   2.694   4.616   0.502 -0.5324 -0.0766 -0.5963
 5767SOL    HW118351   2.712   4.709   0.485 -1.2706 -0.0155 -1.1033
 5767SOL    HW218352   2.768   4.570   0.463  0.8420  0.3692  1.3286
 5768SOL     OW18353   3.126   6.653   3.472  0.9367  0.0136  0.3003
 5768SOL    HW118354   3.114   6.587   3.540  2.4987 -0.5775  0.0339
 5768SOL    HW218355   3.176   6.723   3.514 -2.0717  1.8897  1.0599
 5769SOL     OW18356   0.201   3.663   3.353  0.1059 -0.3825 -0.2667
 5769SOL    HW118357   0.241   3.623   3.276 -1.7684  0.0006 -1.5130
 5769SOL    HW218358   0.261   3.733   3.378  0.9163 -0.7361 -1.1808
 5770SOL     OW18359   3.544   4.089   6.178  0.4019 -0.6424  0.5562
 5770SOL    HW118360   3.523   4.181   6.193  2.2864 -0.3601  1.8059
 5770SOL    HW218361   3.473   4.041   6.220  0.5937  0.2539  1.9667
 5771SOL     OW18362   7.074   4.139   4.326  0.4907 -0.0975 -0.7912
 5771SOL    HW118363   7.047   4.169   4.239 -0.6348 -0.2631 -0.5133
 5771SOL    HW218364   7.053   4.213   4.384 -2.2657 -1.3144 -0.1047
 5772SOL     OW18365   6.783   6.817   5.466  0.2893 -0.2754 -0.1021
 5772SOL    HW118366   6.753   6.906   5.485  1.5940  0.0628  0.5009
 5772SOL    HW218367   6.781   6.772   5.551 -0.8227 -0.9965 -0.4788
 5773SOL     OW18368   1.386   4.409   2.560  0.1559  0.2886  0.1726
 5773SOL    HW118369   1.374   4.370   2.647  0.0263 -0.7226 -0.2876
 5773SOL    HW218370   1.352   4.344   2.499 -0.6967  1.4220 -0.5946
 5774SOL     OW18371   4.216   2.588   1.869  0.0877  0.4831  0.1377
 5774SOL    HW118372   4.139   2.575   1.924 -0.9817  1.1326 -1.1506
 5774SOL    HW218373   4.290   2.564   1.925 -0.9226  1.3448  1.9238
 5775SOL     OW18374   7.759   3.917   0.447 -0.4441  0.5352  0.4978
 5775SOL    HW118375   7.811   3.909   0.367  1.1632  0.3339  1.5106
 5775SOL    HW218376   7.744   3.826   0.474  2.0029  0.5309  2.2011
 5776SOL     OW18377   6.547   0.687   7.557  0.3236 -0.7872 -0.7067
 5776SOL    HW118378   6.617   0.637   7.600  1.9271  0.9032 -1.2404
 5776SOL    HW218379   6.473   0.681   7.619  1.3762 -1.4316  0.5500
 5777SOL     OW18380   3.858   4.933   0.523 -0.7054 -0.3291 -0.3910
 5777SOL    HW118381   3.917   4.909   0.594  0.4811  0.0745 -1.2087
 5777SOL    HW218382   3.902   5.005   0.478  0.0304 -2.4315 -3.3184
 5778SOL     OW18383   1.791   0.744   7.936  0.0878 -0.1349  0.8115
 5778SOL    HW118384   1.819   0.653   7.946 -1.3550 -0.4828  2.0825
 5778SOL    HW218385   1.744   0.746   7.852 -1.3529 -1.0024  1.5602
 5779SOL     OW18386   0.407   1.960   0.260  0.0202  0.2660  0.1862
 5779SOL    HW118387   0.426   1.867   0.271 -0.9156  0.1296  0.8030
 5779SOL    HW218388   0.434   1.980   0.171  2.6096  0.0366  0.8372
 5780SOL     OW18389   2.369   5.061   6.031  1.0566 -0.6000 -0.3506
 5780SOL    HW118390   2.305   4.998   6.064  1.1686 -1.3620 -1.5167
 5780SOL    HW218391   2.432   5.071   6.102 -0.3196  0.1640  0.8244
 5781SOL     OW18392   7.732   7.961   1.598  0.4208  0.2475 -0.0764
 5781SOL    HW118393   7.753   7.871   1.622 -0.5584  0.4848  1.9030
 5781SOL    HW218394   7.816   8.008   1.604  0.6611 -0.2334  0.4652
 5782SOL     OW18395   3.976   6.725   2.329 -0.6477 -0.1738 -0.1587
 5782SOL    HW118396   3.980   6.821   2.337 -0.7719 -0.0318 -1.5013
 5782SOL    HW218397   4.068   6.698   2.329 -0.5994 -0.0140 -0.1926
 5783SOL     OW18398   6.631   6.505   6.044  0.1847 -0.0326 -0.3766
 5783SOL    HW118399   6.698   6.439   6.025 -0.9716 -1.3989  0.1144
 5783SOL    HW218400   6.548   6.460   6.030 -0.6742  0.6976  1.8809
 5784SOL     OW18401   3.686   4.102   1.986  0.0179  0.0045  0.7537
 5784SOL    HW118402   3.757   4.074   1.928  1.3808 -0.5410  2.5646
 5784SOL    HW218403   3.690   4.197   1.986 -0.0548  0.0091 -0.0990
 5785SOL     OW18404   0.655   7.566   1.975 -0.4073 -0.1897 -0.2009
 5785SOL    HW118405   0.664   7.494   2.037 -0.2968 -1.2724 -1.4292
 5785SOL    HW218406   0.674   7.527   1.890  0.8034  1.5486 -0.7854
 5786SOL     OW18407   8.140   3.407   5.401 -0.4982 -0.5723  0.2847
 5786SOL    HW118408   8.160   3.457   5.480  0.4397  0.4331 -0.5536
 5786SOL    HW218409   8.208   3.339   5.397  0.5623  0.4847 -0.5569
 5787SOL     OW18410   1.004   0.518   0.955  0.4441 -0.1665  0.5740
 5787SOL    HW118411   0.939   0.482   1.015  0.2898 -1.5309 -0.3604
 5787SOL    HW218412   1.084   0.523   1.007  0.3068 -1.3087  0.9205
 5788SOL     OW18413   2.764   6.481   2.269  0.5218 -0.2654 -0.0514
 5788SOL    HW118414   2.811   6.460   2.189 -0.8291  1.0759 -1.2414
 5788SOL    HW218415   2.812   6.554   2.307 -0.9649  1.6715 -1.7111
 5789SOL     OW18416   3.821   2.149   0.798  0.2481 -0.1004  0.0271
 5789SOL    HW118417   3.897   2.206   0.794  0.7196 -0.2947  3.3539
 5789SOL    HW218418   3.750   2.200   0.758  1.2070  1.8091  0.6788
 5790SOL     OW18419   7.328   0.592   1.269  0.0609 -0.2911 -0.1337
 5790SOL    HW118420   7.410   0.641   1.265  0.6650 -1.1585  1.0282
 5790SOL    HW218421   7.287   0.607   1.184  1.4139  0.1663 -0.7342
 5791SOL     OW18422   1.342   7.268   3.211 -0.8616  0.0947 -0.3419
 5791SOL    HW118423   1.283   7.196   3.187 -0.5272 -0.5257  0.6603
 5791SOL    HW218424   1.423   7.249   3.163 -0.6119 -0.4757  0.2842
 5792SOL     OW18425   0.055   3.380   0.109  0.2850  0.0333  0.1358
 5792SOL    HW118426   0.123   3.367   0.042  0.4571 -1.1156  0.5115
 5792SOL    HW218427  -0.007   3.440   0.068  1.3775  0.8802 -0.3207
 5793SOL     OW18428   4.921   4.720   2.202  0.3496 -0.1697 -0.1085
 5793SOL    HW118429   4.962   4.805   2.211  0.4336 -0.2238  0.0279
 5793SOL    HW218430   4.876   4.723   2.118  0.3592  0.0055 -0.1068
 5794SOL     OW18431   4.036   1.962   0.559 -0.5362 -0.0477 -0.3313
 5794SOL    HW118432   3.943   1.949   0.573 -0.6077 -0.2679 -0.9873
 5794SOL    HW218433   4.047   1.960   0.464  0.1677 -0.2670 -0.2546
 5795SOL     OW18434   0.445   5.732   3.067  0.1541  0.3646 -0.2148
 5795SOL    HW118435   0.479   5.678   2.995 -1.4779  1.3783 -1.8067
 5795SOL    HW218436   0.519   5.787   3.092  1.1801 -1.0172 -0.0765
 5796SOL     OW18437   8.253   5.770   4.091 -0.9075  0.2647 -0.5254
 5796SOL    HW118438   8.180   5.715   4.117 -0.5027 -0.3547 -0.6873
 5796SOL    HW218439   8.213   5.854   4.066 -1.6944 -0.4616 -1.8129
 5797SOL     OW18440   0.056   2.529   4.034  0.7156  0.5325 -0.0495
 5797SOL    HW118441   0.013   2.612   4.013  2.1626  1.5473  0.8036
 5797SOL    HW218442   0.110   2.549   4.110  1.0014 -1.2497  0.2564
 5798SOL     OW18443   1.874   7.013   7.729  0.0002 -0.3859  0.0141
 5798SOL    HW118444   1.964   7.046   7.725  0.1716 -0.7568  0.6668
 5798SOL    HW218445   1.861   6.989   7.820 -0.7213 -0.4612 -0.1020
 5799SOL     OW18446   2.014   4.496   5.670 -0.4490 -0.0852 -0.6699
 5799SOL    HW118447   2.094   4.519   5.718 -1.0420  1.8395 -0.5043
 5799SOL    HW218448   2.043   4.431   5.605  1.1111  0.0794 -0.1895
 5800SOL     OW18449   3.375   0.583   3.716 -0.0579 -0.2491 -0.2686
 5800SOL    HW118450   3.297   0.538   3.749 -0.1435  0.2668  0.2514
 5800SOL    HW218451   3.416   0.620   3.794  0.5824 -0.3158 -0.5679
 5801SOL     OW18452   0.029   2.856   3.123 -0.6290  0.0092 -0.3439
 5801SOL    HW118453   0.048   2.783   3.182 -0.5353  0.7784  0.6071
 5801SOL    HW218454   0.067   2.830   3.040 -0.6805 -1.0653 -0.0420
 5802SOL     OW18455   1.150   0.306   3.499 -0.1742 -1.0688  0.3232
 5802SOL    HW118456   1.080   0.242   3.480 -1.3656  0.0294  0.8398
 5802SOL    HW218457   1.105   0.377   3.543  1.0006  0.4699 -0.8597
 5803SOL     OW18458   7.307   4.272   1.643  0.1147  0.7775  0.1046
 5803SOL    HW118459   7.343   4.189   1.612 -3.0315 -0.3151 -1.0693
 5803SOL    HW218460   7.320   4.333   1.570 -0.1254  0.4764 -0.1937
 5804SOL     OW18461   2.781   7.265   5.216 -0.4033  0.1743 -0.0999
 5804SOL    HW118462   2.697   7.220   5.208 -1.0873  1.6629 -2.0915
 5804SOL    HW218463   2.828   7.244   5.135  1.0167 -0.3307  0.8160
 5805SOL     OW18464   1.864   2.320   5.664  0.4772 -1.0980 -0.0479
 5805SOL    HW118465   1.922   2.282   5.730 -1.0252 -0.7461  1.5376
 5805SOL    HW218466   1.792   2.258   5.656 -0.2055 -0.3132 -0.0827
 5806SOL     OW18467   5.012   3.065   7.350 -0.3358  0.2541  0.5453
 5806SOL    HW118468   5.098   3.102   7.332 -0.8739  1.1100 -0.3931
 5806SOL    HW218469   5.030   2.983   7.395  1.0650 -0.7974 -1.7375
 5807SOL     OW18470   7.546   7.060   3.054  0.7897 -0.6413 -0.7326
 5807SOL    HW118471   7.628   7.099   3.084  0.5605 -0.2258 -0.6327
 5807SOL    HW218472   7.529   6.989   3.116  1.0527 -0.7037 -0.7306
 5808SOL     OW18473   4.829   0.877   0.986  0.0549 -0.6053 -0.4473
 5808SOL    HW118474   4.782   0.806   1.030 -1.7900  2.0587  2.2661
 5808SOL    HW218475   4.761   0.925   0.939  0.7934  0.7642 -0.1830
 5809SOL     OW18476   0.420   7.445   2.480  0.4466 -0.3656 -0.0326
 5809SOL    HW118477   0.454   7.527   2.515 -0.8696 -0.4276  1.5420
 5809SOL    HW218478   0.410   7.461   2.386 -0.6985  1.6397  0.3653
 5810SOL     OW18479   2.284   5.651   4.750  0.0580  0.0558  0.1279
 5810SOL    HW118480   2.225   5.725   4.740 -0.5060 -0.3904  0.1248
 5810SOL    HW218481   2.364   5.688   4.788 -0.1848  0.6772  0.0271
 5811SOL     OW18482   0.603   1.676   0.989  0.5660 -0.2551  0.0678
 5811SOL    HW118483   0.681   1.726   1.013  0.0004 -0.0570  1.5574
 5811SOL    HW218484   0.616   1.656   0.896  2.3218 -0.1140  0.2466
 5812SOL     OW18485   1.002   5.619   6.097 -0.5793  0.5740 -0.3360
 5812SOL    HW118486   1.058   5.695   6.114 -1.0355  0.4207  2.3783
 5812SOL    HW218487   0.916   5.645   6.130 -1.0455 -0.6964 -0.5031
 5813SOL     OW18488   4.720   3.472   0.381 -0.9430 -0.5263 -0.6950
 5813SOL    HW118489   4.781   3.512   0.320 -0.8145 -2.2083 -1.7230
 5813SOL    HW218490   4.636   3.514   0.362 -0.3025  1.3051  0.2630
 5814SOL     OW18491   7.407   4.012   1.531  0.5278  0.3229 -0.6828
 5814SOL    HW118492   7.408   3.916   1.523 -1.1103  0.0800  1.2687
 5814SOL    HW218493   7.493   4.034   1.565  0.1432 -0.7357  1.0864
 5815SOL     OW18494   1.535   3.837   1.090 -0.5554  0.0406  0.0661
 5815SOL    HW118495   1.537   3.866   0.998 -0.4568  1.2181  0.4185
 5815SOL    HW218496   1.487   3.754   1.089  1.2353 -1.0630 -1.3413
 5816SOL     OW18497   6.447   5.048   3.342  0.3177  0.1027  0.6316
 5816SOL    HW118498   6.397   5.130   3.341  1.1192  0.6073  1.1805
 5816SOL    HW218499   6.447   5.019   3.251 -3.1241 -1.2721  0.9100
 5817SOL     OW18500   5.907   4.229   1.359  0.2104  0.0063 -0.1187
 5817SOL    HW118501   5.972   4.176   1.405 -0.5896  1.3886  2.8209
 5817SOL    HW218502   5.825   4.181   1.370  0.1347 -0.0331 -0.8244
 5818SOL     OW18503   4.857   3.131   1.231  0.0438  0.1163 -0.3493
 5818SOL    HW118504   4.836   3.176   1.149  1.4801  0.0502 -0.7787
 5818SOL    HW218505   4.790   3.064   1.239 -0.6817  0.7442 -0.9756
 5819SOL     OW18506   2.222   2.972   3.069  0.2846 -0.1690  0.3914
 5819SOL    HW118507   2.182   2.953   2.983  4.1380 -0.5665 -1.5078
 5819SOL    HW218508   2.264   3.057   3.057  2.2181 -0.9441  1.2920
 5820SOL     OW18509   7.744   0.771   7.953 -0.0107 -0.2785 -0.1138
 5820SOL    HW118510   7.780   0.806   7.872 -0.6570 -0.7240 -0.6034
 5820SOL    HW218511   7.801   0.805   8.022  1.1949 -0.7696 -0.8432
 5821SOL     OW18512   2.117   7.817   1.802  0.1929  0.0669 -0.2659
 5821SOL    HW118513   2.066   7.889   1.838 -0.6636 -0.0698 -1.1864
 5821SOL    HW218514   2.140   7.845   1.714  0.1117 -0.6653 -0.5244
 5822SOL     OW18515   5.212   3.294   4.019  0.4057  0.5480 -0.2136
 5822SOL    HW118516   5.254   3.212   4.044 -1.2547 -0.4171 -0.4773
 5822SOL    HW218517   5.263   3.361   4.064  2.1407 -0.5505 -0.4347
 5823SOL     OW18518   4.826   6.768   7.816 -0.4455 -0.2645 -0.0149
 5823SOL    HW118519   4.907   6.725   7.843 -0.4233 -0.6294 -0.6252
 5823SOL    HW218520   4.791   6.711   7.747 -0.5771  0.5363 -0.6339
 5824SOL     OW18521   3.018   7.339   0.087 -0.0500 -0.1359  0.0597
 5824SOL    HW118522   3.017   7.360  -0.007  2.6735 -0.1509 -0.0672
 5824SOL    HW218523   3.085   7.271   0.095 -0.7691 -0.6695  1.9442
 5825SOL     OW18524   3.783   7.072   3.967 -0.4248  0.3626  0.0722
 5825SOL    HW118525   3.720   7.002   3.986 -0.0427 -0.4961 -1.6398
 5825SOL    HW218526   3.729   7.150   3.956 -0.8472  0.4088  2.1431
 5826SOL     OW18527   5.664   0.693   2.011  0.3774  0.1167  0.2344
 5826SOL    HW118528   5.663   0.789   2.018 -0.0310  0.0305  1.9277
 5826SOL    HW218529   5.603   0.674   1.940 -0.3851  1.0877  0.6010
 5827SOL     OW18530   5.602   3.191   1.567  0.7379  0.1945 -0.5531
 5827SOL    HW118531   5.522   3.144   1.544  0.0883  1.4687 -1.0089
 5827SOL    HW218532   5.667   3.164   1.502  0.2002  0.3868 -1.1718
 5828SOL     OW18533   1.309   1.380   6.336  0.0859 -0.1778  0.3792
 5828SOL    HW118534   1.325   1.404   6.427  0.2587 -1.3067  0.6566
 5828SOL    HW218535   1.239   1.315   6.340 -0.7408  0.6341 -0.3993
 5829SOL     OW18536   0.653   0.844   1.135  0.0596 -0.7798 -0.0092
 5829SOL    HW118537   0.602   0.863   1.213  2.0307 -0.7270  1.3387
 5829SOL    HW218538   0.670   0.929   1.095  0.7131 -0.6047  0.6269
 5830SOL     OW18539   7.324   2.882   1.169  0.2056 -0.3830  0.0465
 5830SOL    HW118540   7.340   2.865   1.262  1.4579  0.0294 -0.0759
 5830SOL    HW218541   7.325   2.977   1.161  2.2114 -0.4109 -0.6878
 5831SOL     OW18542   1.004   5.060   1.151  0.4025 -0.2964  0.0857
 5831SOL    HW118543   1.028   5.147   1.185  0.1824 -0.3658  0.4296
 5831SOL    HW218544   0.976   5.012   1.229  0.1149 -0.5377 -0.1670
 5832SOL     OW18545   2.618   4.681   8.253  0.1177  0.6739 -0.1615
 5832SOL    HW118546   2.704   4.723   8.250  0.6090 -0.0238  2.2156
 5832SOL    HW218547   2.561   4.747   8.292 -0.5042  1.1534 -1.7801
 5833SOL     OW18548   0.724   4.289   3.898 -0.2233 -0.3931 -0.0396
 5833SOL    HW118549   0.665   4.277   3.824  0.6699  1.5200 -1.1313
 5833SOL    HW218550   0.666   4.302   3.973 -1.1925 -0.0260 -0.8300
 5834SOL     OW18551   7.660   3.673   8.134 -0.0500 -0.8575 -0.1629
 5834SOL    HW118552   7.630   3.586   8.109  0.7539 -0.9641 -0.7926
 5834SOL    HW218553   7.682   3.716   8.051 -0.9553  0.1544  0.0840
 5835SOL     OW18554   0.453   0.286   4.062 -0.0391  0.1005 -0.3740
 5835SOL    HW118555   0.533   0.334   4.080  1.0312 -1.3669 -1.0314
 5835SOL    HW218556   0.470   0.240   3.980 -2.9870  2.7662 -2.7362
 5836SOL     OW18557   0.581   2.815   4.867  0.0577 -0.1500  0.3381
 5836SOL    HW118558   0.627   2.741   4.906  0.7084 -0.0199 -0.1546
 5836SOL    HW218559   0.587   2.885   4.932  0.0686 -0.3088  0.5079
 5837SOL     OW18560   6.117   5.313   4.669  0.0183  0.2992  0.0165
 5837SOL    HW118561   6.133   5.235   4.616  1.5116  0.5105  0.1280
 5837SOL    HW218562   6.097   5.279   4.757 -0.9046  0.0064 -0.2950
 5838SOL     OW18563   1.563   6.869   0.873 -0.2903 -0.0745  0.6061
 5838SOL    HW118564   1.624   6.943   0.870 -1.1604  0.6239 -0.6068
 5838SOL    HW218565   1.477   6.909   0.882 -0.6462 -1.0258  1.6322
 5839SOL     OW18566   6.852   6.232   2.020  0.4294  0.0878 -0.5781
 5839SOL    HW118567   6.797   6.214   1.943  0.8178 -1.2254 -0.5798
 5839SOL    HW218568   6.833   6.160   2.080  0.1718  1.0718  0.5547
 5840SOL     OW18569   2.522   6.422   4.411  0.1905 -0.4806  0.1814
 5840SOL    HW118570   2.600   6.410   4.357  0.4274 -1.8106  0.7903
 5840SOL    HW218571   2.527   6.513   4.440  1.8301 -0.6989  0.6913
 5841SOL     OW18572   3.910   5.863   3.578 -0.2912 -0.4066  0.5799
 5841SOL    HW118573   3.873   5.777   3.556 -0.3914  0.0598 -1.2951
 5841SOL    HW218574   3.994   5.844   3.619 -0.2919 -1.4152  0.1396
 5842SOL     OW18575   7.906   0.583   1.792  0.4817  0.2832 -0.3318
 5842SOL    HW118576   8.000   0.604   1.792  0.5634  0.0139  1.3320
 5842SOL    HW218577   7.886   0.563   1.883 -1.1820  0.2075 -0.6927
 5843SOL     OW18578   5.084   2.066   3.445  0.4638  0.6524 -0.7075
 5843SOL    HW118579   5.155   2.005   3.425  0.6634  1.0407 -1.1936
 5843SOL    HW218580   5.047   2.089   3.360 -0.0510  0.6859 -0.4775
 5844SOL     OW18581   6.452   6.179   7.647 -0.2596 -0.0473 -0.1460
 5844SOL    HW118582   6.532   6.158   7.695  0.0401  1.8282  0.2328
 5844SOL    HW218583   6.383   6.131   7.694  0.4000 -0.3250  0.5586
 5845SOL     OW18584   3.879   2.413   1.269  0.6328  0.2813  0.0411
 5845SOL    HW118585   3.923   2.409   1.354  1.6982 -0.4685 -0.5216
 5845SOL    HW218586   3.851   2.322   1.253  1.9829  0.0377 -1.1686
 5846SOL     OW18587   7.834   4.801   3.347 -0.2688  0.1063 -0.4870
 5846SOL    HW118588   7.862   4.887   3.377  2.2891 -1.1828  1.2276
 5846SOL    HW218589   7.869   4.794   3.257  0.9726  0.2894 -0.0383
 5847SOL     OW18590   5.137   2.778   7.825  0.0088 -0.1036 -0.2282
 5847SOL    HW118591   5.067   2.765   7.889 -0.8074 -0.4603 -1.1611
 5847SOL    HW218592   5.185   2.696   7.825  0.3747  0.1047  0.3392
 5848SOL     OW18593   0.000   3.682   5.465  0.3489 -0.7691  0.2272
 5848SOL    HW118594   0.007   3.777   5.455  0.2122 -0.9479 -1.8573
 5848SOL    HW218595   0.033   3.646   5.383 -0.0003 -2.5369  0.8094
 5849SOL     OW18596   2.724   2.698   5.776 -0.5330  0.5965  1.2998
 5849SOL    HW118597   2.703   2.787   5.804 -1.1242  0.1773  2.2358
 5849SOL    HW218598   2.639   2.657   5.757 -0.3054  0.0585  1.4185
 5850SOL     OW18599   4.882   3.793   2.158 -0.6432  0.3096  0.2272
 5850SOL    HW118600   4.844   3.867   2.206 -0.3359 -0.8252  2.3396
 5850SOL    HW218601   4.929   3.743   2.225  1.3288 -0.4369 -1.5984
 5851SOL     OW18602   5.163   0.759   6.745  0.6258 -0.3884  0.1313
 5851SOL    HW118603   5.154   0.720   6.832  1.4308  0.2531  0.5116
 5851SOL    HW218604   5.081   0.805   6.731 -0.5648 -2.5857 -0.5380
 5852SOL     OW18605   2.044   4.560   3.951  0.4984 -0.2210  0.5251
 5852SOL    HW118606   1.969   4.619   3.944 -0.3958 -1.1951  1.6305
 5852SOL    HW218607   2.082   4.560   3.863 -0.8601  0.2180 -0.0884
 5853SOL     OW18608   1.247   1.547   1.027 -0.1911  0.1138  0.2887
 5853SOL    HW118609   1.268   1.453   1.029  0.0810  0.1784  1.5699
 5853SOL    HW218610   1.286   1.578   0.946 -2.0292 -1.2464 -1.2284
 5854SOL     OW18611   5.392   6.299   6.804 -0.6502 -0.5292  0.5301
 5854SOL    HW118612   5.299   6.277   6.813 -0.2657 -1.5444  2.8582
 5854SOL    HW218613   5.437   6.230   6.853  1.1014  1.7572  2.3762
 5855SOL     OW18614   7.088   0.251   3.016  0.0281  0.1165  0.0161
 5855SOL    HW118615   7.164   0.192   3.013 -0.5439 -0.7463  1.1926
 5855SOL    HW218616   7.126   0.338   3.028  0.8568 -0.2974  0.5697
 5856SOL     OW18617   4.181   6.823   3.849 -0.0273 -0.4085  0.3014
 5856SOL    HW118618   4.193   6.917   3.838 -0.3412 -0.5914 -2.0925
 5856SOL    HW218619   4.230   6.802   3.929 -0.2400  1.8039  1.0990
 5857SOL     OW18620   5.221   0.898   2.290 -0.0422  0.2640 -0.2790
 5857SOL    HW118621   5.256   0.901   2.379 -0.6124 -1.1844  0.0232
 5857SOL    HW218622   5.262   0.972   2.245  1.6815 -0.0801  0.6604
 5858SOL     OW18623   5.863   7.127   7.886  0.7968  0.5164  0.0385
 5858SOL    HW118624   5.909   7.054   7.843  1.6095  1.1677 -0.2281
 5858SOL    HW218625   5.814   7.169   7.816  0.6965  0.4997  0.1002
 5859SOL     OW18626   4.916   2.562   6.317 -0.2143 -0.4241  1.0157
 5859SOL    HW118627   4.948   2.642   6.358  1.8340  0.4668 -1.9879
 5859SOL    HW218628   4.875   2.592   6.235 -1.3185 -2.3003  0.8236
 5860SOL     OW18629   4.369   2.491   2.087 -0.1441 -0.2874 -0.1497
 5860SOL    HW118630   4.344   2.405   2.118  1.0582 -1.0535 -1.1823
 5860SOL    HW218631   4.450   2.511   2.134 -0.4869  0.3506  0.1854
 5861SOL     OW18632   1.333   7.074   5.738 -0.6597 -0.0269  0.4286
 5861SOL    HW118633   1.289   6.990   5.752 -4.1408  1.3582 -1.0986
 5861SOL    HW218634   1.324   7.119   5.822 -0.4157 -0.4662  0.6977
 5862SOL     OW18635   7.671   1.029   5.636  0.4531 -0.2233  0.8272
 5862SOL    HW118636   7.760   1.055   5.611  0.0026  1.0761  0.4995
 5862SOL    HW218637   7.671   1.030   5.731  0.7335 -0.0236  0.8266
 5863SOL     OW18638   1.551   3.698   4.835  0.4239 -0.3865  0.2163
 5863SOL    HW118639   1.522   3.727   4.921  0.7769 -0.4302  0.3545
 5863SOL    HW218640   1.560   3.603   4.843 -2.7503 -0.9010 -0.8270
 5864SOL     OW18641   1.983   0.358   6.887  0.6872  0.2858 -0.2624
 5864SOL    HW118642   1.947   0.446   6.872  1.3149  0.2726 -2.0235
 5864SOL    HW218643   1.913   0.299   6.860  0.1218  0.2074  1.2804
 5865SOL     OW18644   2.478   3.840   2.466 -0.4919  0.4700 -0.1309
 5865SOL    HW118645   2.556   3.886   2.436 -1.6501  2.6366  0.0603
 5865SOL    HW218646   2.480   3.850   2.562  1.3775 -3.4857  0.4535
 5866SOL     OW18647   2.666   8.100   0.408  0.1520 -0.0383 -0.2918
 5866SOL    HW118648   2.700   8.044   0.477  0.4670  0.0966 -0.3375
 5866SOL    HW218649   2.574   8.114   0.431  0.0719 -0.5797 -0.2853
 5867SOL     OW18650   5.802   0.322   3.573 -0.0552  0.1498  0.1311
 5867SOL    HW118651   5.756   0.248   3.612 -0.3084 -0.1353 -0.6894
 5867SOL    HW218652   5.741   0.396   3.582  0.4372  0.4092  1.4819
 5868SOL     OW18653   2.712   2.584   0.769 -0.3930 -0.2942  0.2307
 5868SOL    HW118654   2.723   2.546   0.857 -0.1091  0.9536  0.7568
 5868SOL    HW218655   2.686   2.510   0.715  1.4783 -1.5516  0.9098
 5869SOL     OW18656   4.319   0.002   5.126  0.0869 -0.9028 -0.2090
 5869SOL    HW118657   4.306  -0.093   5.129  1.7212 -1.1196  1.1408
 5869SOL    HW218658   4.413   0.013   5.117  0.0788  0.5915  1.1608
 5870SOL     OW18659   3.638   4.259   6.589 -0.1597 -0.0332 -0.0852
 5870SOL    HW118660   3.555   4.245   6.543 -0.8348  0.4003  0.9607
 5870SOL    HW218661   3.705   4.248   6.522 -1.1595  2.0620 -1.5327
 5871SOL     OW18662   0.147   4.169   7.655  0.5191  0.2386  0.2599
 5871SOL    HW118663   0.089   4.245   7.652  0.6807  0.3384 -0.7334
 5871SOL    HW218664   0.156   4.149   7.748  0.2709  1.2787  0.5166
 5872SOL     OW18665   0.369   0.240   7.369  0.0036 -0.2650  0.1125
 5872SOL    HW118666   0.397   0.269   7.282  1.8669 -0.4375  0.6183
 5872SOL    HW218667   0.445   0.256   7.425 -0.8022 -1.1464  1.5067
 5873SOL     OW18668   6.370   4.774   3.959 -0.2876  0.6396  0.4141
 5873SOL    HW118669   6.328   4.765   3.874 -0.5971 -0.0400  0.6297
 5873SOL    HW218670   6.348   4.863   3.987  0.6229  1.2132 -0.6271
 5874SOL     OW18671   0.056   2.522   7.077  0.5186  0.1918 -0.0222
 5874SOL    HW118672   0.015   2.597   7.033 -0.3737 -0.1195  0.2517
 5874SOL    HW218673   0.150   2.539   7.072  0.2934  1.9470  1.1164
 5875SOL     OW18674   0.842   3.108   7.311 -0.3853  0.0348 -0.0793
 5875SOL    HW118675   0.938   3.111   7.320 -0.4642 -0.6650  1.2835
 5875SOL    HW218676   0.812   3.191   7.346 -0.3238 -0.1138  0.3277
 5876SOL     OW18677   2.547   4.914   1.973  0.0326  0.2102 -0.0454
 5876SOL    HW118678   2.512   4.980   1.914 -0.8040  0.1482  0.3617
 5876SOL    HW218679   2.639   4.936   1.982 -0.0090  0.6998 -0.7287
 5877SOL     OW18680   7.623   1.314   3.165 -0.1361 -0.2913  0.4223
 5877SOL    HW118681   7.533   1.285   3.173 -0.9333  1.7773 -0.4674
 5877SOL    HW218682   7.641   1.359   3.248 -0.1429 -0.1718  0.3602
 5878SOL     OW18683   1.395   1.918   5.130  0.1661  0.0652 -0.2872
 5878SOL    HW118684   1.344   1.955   5.058 -0.6138  0.7919  0.6065
 5878SOL    HW218685   1.415   1.993   5.186  2.4607 -0.1519 -0.7201
 5879SOL     OW18686   3.593   6.963   2.652 -0.0860  0.3660  0.3471
 5879SOL    HW118687   3.635   6.919   2.578 -0.3920  0.5319  0.0726
 5879SOL    HW218688   3.665   7.000   2.702  0.1456 -0.0783  0.3412
 5880SOL     OW18689   0.847   0.402   5.822 -0.5199  0.4550 -0.2890
 5880SOL    HW118690   0.888   0.473   5.873 -3.0300  2.4633 -0.8850
 5880SOL    HW218691   0.809   0.344   5.888  0.6771  0.1727  0.1832
 5881SOL     OW18692   5.699   1.472   1.143  0.3036  0.1101 -0.5617
 5881SOL    HW118693   5.645   1.547   1.167  1.0524  1.3013 -2.3637
 5881SOL    HW218694   5.779   1.481   1.195  0.3865  0.5792 -0.7636
 5882SOL     OW18695   2.388   0.538   5.976  0.2203 -0.0255 -0.3478
 5882SOL    HW118696   2.424   0.460   5.935  1.8938  1.3226 -1.5677
 5882SOL    HW218697   2.402   0.525   6.070 -0.3981 -1.5786 -0.4484
 5883SOL     OW18698   5.606   6.455   6.109 -1.3016 -0.0578  0.7248
 5883SOL    HW118699   5.611   6.523   6.041 -0.4978  0.9427  1.7412
 5883SOL    HW218700   5.541   6.393   6.076 -0.5806  0.1338 -1.1864
 5884SOL     OW18701   2.248   3.340   3.694 -0.2712  0.1523  0.3178
 5884SOL    HW118702   2.176   3.351   3.756 -0.2765  1.5630  0.1005
 5884SOL    HW218703   2.327   3.357   3.745 -0.1919  0.0809  0.2190
 5885SOL     OW18704   0.230   5.811   1.449 -0.0360 -0.1353  0.2750
 5885SOL    HW118705   0.174   5.813   1.372  1.1628  0.7996 -0.5990
 5885SOL    HW218706   0.203   5.732   1.496  0.2640 -1.6104 -1.9050
 5886SOL     OW18707   6.669   3.985   0.751 -0.4889 -0.4077  0.0102
 5886SOL    HW118708   6.663   4.058   0.690  3.0381  1.8696  2.0258
 5886SOL    HW218709   6.610   4.008   0.823  1.0657  0.9504  0.9339
 5887SOL     OW18710   7.420   4.226   7.506 -0.1054 -0.1528 -0.1557
 5887SOL    HW118711   7.429   4.145   7.455 -2.0866 -1.3659  1.2835
 5887SOL    HW218712   7.418   4.197   7.597 -1.1846  1.4640  0.3784
 5888SOL     OW18713   6.391   2.928   6.181 -0.4465 -0.2111 -0.2139
 5888SOL    HW118714   6.320   2.985   6.151  0.5579  0.7203 -0.9181
 5888SOL    HW218715   6.448   2.986   6.231  0.3791 -0.6886 -0.5816
 5889SOL     OW18716   4.884   7.454   4.566  0.0473  0.7318 -0.5977
 5889SOL    HW118717   4.920   7.437   4.479 -0.4490  2.4859 -1.1897
 5889SOL    HW218718   4.800   7.408   4.567 -0.0350  0.8631 -1.1242
 5890SOL     OW18719   7.979   6.328   5.152  0.2524 -0.3077 -0.0937
 5890SOL    HW118720   7.988   6.382   5.230  1.1866 -1.1148  0.3852
 5890SOL    HW218721   8.040   6.367   5.089  0.1938 -0.2207 -0.0976
 5891SOL     OW18722   0.650   1.290   7.673  0.3277  0.0044  0.3975
 5891SOL    HW118723   0.698   1.239   7.608 -1.4984 -1.7869  0.3539
 5891SOL    HW218724   0.695   1.273   7.756  2.0613  1.4965 -0.1759
 5892SOL     OW18725   0.190   2.469   5.835 -0.2130 -0.1940 -0.2939
 5892SOL    HW118726   0.197   2.402   5.903  1.7371 -0.2487 -0.4929
 5892SOL    HW218727   0.219   2.549   5.877  0.3652 -0.0977 -0.8534
 5893SOL     OW18728   3.674   2.717   6.919  0.8780 -0.0832 -0.4367
 5893SOL    HW118729   3.627   2.635   6.929 -0.8069  0.9966  0.9117
 5893SOL    HW218730   3.608   2.780   6.891  1.6665  1.3043  0.7011
 5894SOL     OW18731   7.450   2.103   2.432 -0.3451  0.3605  0.6286
 5894SOL    HW118732   7.508   2.060   2.495  1.1869  0.2626 -0.8084
 5894SOL    HW218733   7.395   2.033   2.398  1.1550 -0.2513 -0.6266
 5895SOL     OW18734   0.248   3.570   0.701  0.7001 -0.1395  0.2351
 5895SOL    HW118735   0.233   3.627   0.626 -1.0174 -1.6575 -0.6371
 5895SOL    HW218736   0.326   3.519   0.678  0.2868 -0.4684 -0.4505
 5896SOL     OW18737   0.162   6.746   7.182  0.1820  0.2782  0.4410
 5896SOL    HW118738   0.221   6.731   7.108 -2.1087  1.0299 -1.7138
 5896SOL    HW218739   0.113   6.665   7.190 -1.0314  0.8923 -0.3617
 5897SOL     OW18740   7.880   7.820   8.115 -0.1247  0.3856  0.4975
 5897SOL    HW118741   7.809   7.760   8.138 -0.4879  1.0829  1.2545
 5897SOL    HW218742   7.864   7.898   8.169  1.3354  0.4783  0.8403
 5898SOL     OW18743   7.196   7.032   4.926 -0.0759  0.3102  0.6455
 5898SOL    HW118744   7.117   7.062   4.880  0.1647 -1.6126 -1.1726
 5898SOL    HW218745   7.163   6.993   5.007 -0.9474  0.1437  0.2268
 5899SOL     OW18746   2.369   7.335   2.728  0.2083  0.1639 -0.1103
 5899SOL    HW118747   2.282   7.318   2.763  0.1251 -0.6904 -0.6999
 5899SOL    HW218748   2.424   7.347   2.805 -0.2325 -0.3244  0.2833
 5900SOL     OW18749   2.043   2.580   5.080 -0.3487  0.0205  0.0890
 5900SOL    HW118750   2.099   2.592   5.003  0.0138 -1.9105 -0.0060
 5900SOL    HW218751   1.956   2.605   5.051  0.0009  0.4662 -0.5963
 5901SOL     OW18752   0.007   1.672   3.362  0.1909 -0.2231 -0.2992
 5901SOL    HW118753   0.002   1.657   3.268  0.8198 -2.4677 -0.0424
 5901SOL    HW218754  -0.065   1.620   3.398  0.6705 -0.3366  0.5170
 5902SOL     OW18755   4.890   0.593   5.631 -0.1204 -0.2923 -0.3417
 5902SOL    HW118756   4.869   0.682   5.604 -2.4167 -1.1711 -1.7570
 5902SOL    HW218757   4.982   0.597   5.658  0.0931  2.2848 -1.1743
 5903SOL     OW18758   8.052   8.204   3.414  0.2688 -0.0361  0.1943
 5903SOL    HW118759   7.998   8.217   3.336  2.1708 -2.2182 -1.6435
 5903SOL    HW218760   8.044   8.111   3.433  1.2145  0.1320  1.5350
 5904SOL     OW18761   5.924   1.646   2.085 -0.1568  0.8263  0.2923
 5904SOL    HW118762   5.845   1.618   2.039  0.5602 -1.8711  0.5652
 5904SOL    HW218763   5.986   1.669   2.016  0.1135 -0.9014 -0.0775
 5905SOL     OW18764   5.399   7.798   3.550  0.4253  0.3351  0.5538
 5905SOL    HW118765   5.401   7.890   3.575 -0.7087  0.1556  1.3578
 5905SOL    HW218766   5.411   7.798   3.455  0.2611  1.3102  0.5309
 5906SOL     OW18767   6.384   3.315   8.223  0.0477  0.3417 -0.2561
 5906SOL    HW118768   6.409   3.397   8.181 -0.0986 -0.5159 -2.0900
 5906SOL    HW218769   6.407   3.247   8.160 -0.7842 -0.9607  0.7860
 5907SOL     OW18770   2.933   4.734   3.086  0.7449  0.3086 -0.6100
 5907SOL    HW118771   2.899   4.691   3.008  0.2543 -0.6648  0.1255
 5907SOL    HW218772   2.919   4.671   3.156  2.3232  0.6654  0.0571
 5908SOL     OW18773   1.549   1.993   3.609  0.7629 -0.4183 -0.4325
 5908SOL    HW118774   1.616   2.061   3.600  0.4309 -0.0015  0.2002
 5908SOL    HW218775   1.469   2.034   3.578  0.1916  0.0890  1.5722
 5909SOL     OW18776   6.218   3.903   2.897 -0.1636  0.1886  0.1825
 5909SOL    HW118777   6.300   3.901   2.848  0.1054  1.6804  0.5212
 5909SOL    HW218778   6.150   3.884   2.832  0.4131 -0.6756 -0.1746
 5910SOL     OW18779   8.000   2.490   7.120  0.0470  0.3561 -0.4799
 5910SOL    HW118780   7.928   2.445   7.163 -0.6826  1.4903 -0.4693
 5910SOL    HW218781   7.978   2.487   7.027  0.2513  0.2728 -0.5279
 5911SOL     OW18782   5.961   3.096   0.752 -0.1881  0.3591 -0.2352
 5911SOL    HW118783   5.985   3.006   0.729 -1.7014 -0.2817  0.5545
 5911SOL    HW218784   6.043   3.145   0.745  1.4286 -1.6814  2.3817
 5912SOL     OW18785   2.551   5.237   4.253  1.1131  0.1688  0.0758
 5912SOL    HW118786   2.604   5.184   4.313  1.5990  0.1399 -0.3679
 5912SOL    HW218787   2.504   5.174   4.199 -0.8928  0.1597  1.7197
 5913SOL     OW18788   5.474   0.631   7.066 -0.7069 -0.3143 -0.3760
 5913SOL    HW118789   5.513   0.545   7.079 -0.5839 -0.3817 -1.1563
 5913SOL    HW218790   5.471   0.642   6.971 -0.9845  0.4228 -0.2872
 5914SOL     OW18791   2.942   4.237   4.742  0.0267  0.3710 -0.0670
 5914SOL    HW118792   2.904   4.246   4.654 -0.0166  0.8424 -0.0050
 5914SOL    HW218793   2.984   4.151   4.742 -2.0249 -0.6852  0.2390
 5915SOL     OW18794   4.477   3.747   7.417 -0.1440 -0.2644 -0.0486
 5915SOL    HW118795   4.387   3.781   7.414  0.2679  0.7805 -1.1016
 5915SOL    HW218796   4.525   3.809   7.471  0.1470 -0.3213 -0.2385
 5916SOL     OW18797   0.330   4.708   7.286  0.4282 -0.9922  0.0151
 5916SOL    HW118798   0.275   4.779   7.320  0.2632 -1.5908  1.0196
 5916SOL    HW218799   0.275   4.664   7.221 -0.1283 -1.3069  0.6871
 5917SOL     OW18800   2.579   0.188   4.959 -0.6539  0.2454 -0.1641
 5917SOL    HW118801   2.527   0.265   4.937  2.3177  1.8483 -2.2740
 5917SOL    HW218802   2.572   0.132   4.882  0.2902  0.2564 -0.2695
 5918SOL     OW18803   4.918   6.600   6.047  0.2502 -0.1543 -0.0849
 5918SOL    HW118804   4.924   6.538   6.120  0.0358  0.3644  0.3774
 5918SOL    HW218805   4.869   6.553   5.980 -1.1627 -0.0001  0.7956
 5919SOL     OW18806   7.191   1.395   4.204 -0.0497  0.0054 -0.1584
 5919SOL    HW118807   7.233   1.334   4.143 -0.5972  1.0109 -1.6020
 5919SOL    HW218808   7.161   1.466   4.148 -0.4294  1.0511  1.3418
 5920SOL     OW18809   1.706   7.403   2.114 -0.2151 -0.2200 -0.0945
 5920SOL    HW118810   1.681   7.399   2.022 -1.4930  0.2247  0.2159
 5920SOL    HW218811   1.792   7.360   2.117 -0.4354 -0.8119 -1.3806
 5921SOL     OW18812   0.419   6.734   0.597 -0.0145 -0.2139 -0.1135
 5921SOL    HW118813   0.447   6.721   0.506 -0.6926 -1.5090 -0.1648
 5921SOL    HW218814   0.325   6.749   0.590 -0.3009 -1.5642  0.4272
 5922SOL     OW18815   5.835   5.323   1.474 -0.2460  0.8309  0.0582
 5922SOL    HW118816   5.886   5.258   1.426  1.0348  0.7442  1.4798
 5922SOL    HW218817   5.800   5.381   1.406  1.6480  0.8253 -0.9775
 5923SOL     OW18818   7.399   7.341   8.215  0.2430 -0.1827  0.0186
 5923SOL    HW118819   7.418   7.407   8.282  0.8424 -0.5555  0.2239
 5923SOL    HW218820   7.434   7.379   8.134  1.0814 -0.4739  0.2336
 5924SOL     OW18821   4.548   3.378   7.088 -0.2009  0.0862 -0.0073
 5924SOL    HW118822   4.540   3.406   7.179  0.4825  0.0677  0.0700
 5924SOL    HW218823   4.560   3.283   7.093  0.7517  0.1912 -0.0433
 5925SOL     OW18824   0.545   7.190   2.846 -0.4612 -0.0134  0.2948
 5925SOL    HW118825   0.605   7.251   2.803  0.6691  1.2160  3.3386
 5925SOL    HW218826   0.464   7.239   2.856 -0.9124 -0.4935 -0.8100
 5926SOL     OW18827   0.875   3.588   1.318  0.0812 -0.2181  0.0946
 5926SOL    HW118828   0.839   3.666   1.276  1.7875  0.0168 -1.0905
 5926SOL    HW218829   0.818   3.572   1.393 -0.8010  1.6801 -0.0964
 5927SOL     OW18830   6.142   7.764   2.990  0.0385 -0.5863  0.3989
 5927SOL    HW118831   6.092   7.844   2.970 -0.2680 -0.5625  1.1957
 5927SOL    HW218832   6.132   7.753   3.085 -0.7023 -2.1014  0.1705
 5928SOL     OW18833   6.010   5.057   7.795 -0.2279  0.3849 -0.1152
 5928SOL    HW118834   6.090   5.008   7.776 -1.1523 -0.2595 -2.7272
 5928SOL    HW218835   6.026   5.144   7.758 -0.7086  0.2594 -0.6285
 5929SOL     OW18836   1.369   0.857   5.849 -0.3184  0.0916  0.1325
 5929SOL    HW118837   1.374   0.949   5.825  1.2874  0.1011  0.3715
 5929SOL    HW218838   1.454   0.821   5.822 -0.9204 -1.3117  0.0390
 5930SOL     OW18839   0.038   1.188   3.765 -0.4339 -0.1509  0.4514
 5930SOL    HW118840  -0.009   1.142   3.835 -0.0411 -0.1610  0.7170
 5930SOL    HW218841   0.040   1.125   3.692 -1.6587  0.2089  0.0890
 5931SOL     OW18842   6.297   2.533   5.881  0.0236  0.8601 -0.1740
 5931SOL    HW118843   6.338   2.575   5.956  1.8403  0.0755 -0.6559
 5931SOL    HW218844   6.297   2.439   5.903  1.8693  0.4435 -1.6400
 5932SOL     OW18845   4.242   2.856   7.347  0.4109  0.2832 -0.0117
 5932SOL    HW118846   4.298   2.930   7.321  0.8691  0.6083  1.7224
 5932SOL    HW218847   4.232   2.804   7.268  0.3653  2.0197 -1.2045
 5933SOL     OW18848   0.511   2.860   6.737  0.2758 -0.2645  0.1471
 5933SOL    HW118849   0.563   2.782   6.757  0.9953 -0.4857 -2.2723
 5933SOL    HW218850   0.576   2.929   6.719 -0.3469  0.8836  2.0151
 5934SOL     OW18851   2.970   2.405   5.531 -0.1080 -0.0911  0.0614
 5934SOL    HW118852   2.904   2.345   5.566 -0.2285  0.0348  0.0521
 5934SOL    HW218853   2.926   2.490   5.530 -0.4746 -0.2725 -1.4010
 5935SOL     OW18854   7.549   0.736   5.549  0.1322  0.0303 -0.4763
 5935SOL    HW118855   7.537   0.799   5.620 -0.5297 -0.9092  0.2689
 5935SOL    HW218856   7.461   0.703   5.530  0.0265  1.4580 -2.9000
 5936SOL     OW18857   3.977   4.906   5.957 -0.4034 -0.4233  0.8434
 5936SOL    HW118858   4.024   4.929   5.877 -1.0290  0.1116  0.6148
 5936SOL    HW218859   4.041   4.859   6.010 -0.3845 -2.0535 -0.5561
 5937SOL     OW18860   4.640   3.122   5.637  0.4269  0.6093 -0.2488
 5937SOL    HW118861   4.630   3.215   5.619  0.3807  0.6289 -0.1212
 5937SOL    HW218862   4.552   3.093   5.662 -0.3115 -0.1147 -3.2354
 5938SOL     OW18863   6.653   7.380   4.840  0.7557 -0.3127 -0.5308
 5938SOL    HW118864   6.713   7.410   4.772  0.1879 -1.1942 -1.4418
 5938SOL    HW218865   6.594   7.455   4.854  2.7926  1.0624  1.3188
 5939SOL     OW18866   5.486   2.156   0.493  0.1569 -0.1494 -0.2513
 5939SOL    HW118867   5.396   2.124   0.492 -0.2837  0.8211 -3.3905
 5939SOL    HW218868   5.479   2.245   0.528 -0.6168  0.8557 -2.7175
 5940SOL     OW18869   5.931   5.907   6.393  0.2776  0.5764 -0.1596
 5940SOL    HW118870   5.944   5.961   6.316 -1.6295  1.1366 -0.1443
 5940SOL    HW218871   5.980   5.827   6.375  0.2246  0.8695 -1.7553
 5941SOL     OW18872   3.763   6.449   6.493 -0.0969  0.7310  0.3702
 5941SOL    HW118873   3.757   6.381   6.560  1.2196 -0.4837 -0.6907
 5941SOL    HW218874   3.707   6.418   6.421 -0.2023  1.2230  0.2317
 5942SOL     OW18875   1.260   6.825   8.022  0.0613 -0.4323  0.2282
 5942SOL    HW118876   1.240   6.874   8.101 -1.8786  1.3395 -1.2592
 5942SOL    HW218877   1.186   6.765   8.011 -0.6157  0.5945 -1.1298
 5943SOL     OW18878   7.075   1.273   1.085 -0.3019 -0.9189 -0.5059
 5943SOL    HW118879   7.132   1.262   1.008 -0.0997 -1.1589 -0.3256
 5943SOL    HW218880   6.996   1.315   1.051  0.2122 -0.0605 -0.6653
 5944SOL     OW18881   5.858   7.491   5.592 -0.4561 -0.5681 -0.7349
 5944SOL    HW118882   5.771   7.517   5.623 -0.2691 -0.8948  0.0719
 5944SOL    HW218883   5.841   7.441   5.512 -0.9044  0.8357 -1.5598
 5945SOL     OW18884   7.575   5.803   4.458 -0.6167 -0.6111  0.1964
 5945SOL    HW118885   7.629   5.859   4.402  0.0204 -0.1873  1.1993
 5945SOL    HW218886   7.489   5.845   4.457 -1.0077 -1.3769 -1.5336
 5946SOL     OW18887   5.440   0.974   2.804  0.1859 -0.1461  0.0513
 5946SOL    HW118888   5.476   1.063   2.809  2.7135 -1.0712 -0.3981
 5946SOL    HW218889   5.481   0.927   2.877  1.8581 -1.8493 -1.8561
 5947SOL     OW18890   6.819   1.123   0.876  0.2011 -0.2968 -0.0328
 5947SOL    HW118891   6.831   1.194   0.812  0.5788 -0.7584 -0.4815
 5947SOL    HW218892   6.823   1.166   0.961 -0.9878  0.4381 -0.3243
 5948SOL     OW18893   6.980   8.258   2.102 -0.4055 -0.3109  0.0452
 5948SOL    HW118894   6.963   8.236   2.011 -1.5556 -0.3322  0.2390
 5948SOL    HW218895   6.951   8.349   2.111  0.1708 -0.1477  0.2724
 5949SOL     OW18896   1.283   4.172   6.200 -1.0956 -0.1680 -0.4557
 5949SOL    HW118897   1.300   4.211   6.286 -0.2625 -2.3149  0.4115
 5949SOL    HW218898   1.226   4.235   6.156 -0.9847  1.3070  1.4009
 5950SOL     OW18899   4.910   3.515   5.486 -0.2324 -0.1501 -0.0534
 5950SOL    HW118900   4.851   3.450   5.449 -1.0514  0.2266  0.5287
 5950SOL    HW218901   4.975   3.465   5.535 -1.3997 -0.5267  1.1731
 5951SOL     OW18902   4.434   3.850   6.586 -0.0809  0.0167 -0.1298
 5951SOL    HW118903   4.483   3.915   6.637  1.1947 -1.1624  0.2484
 5951SOL    HW218904   4.426   3.775   6.646 -0.5296 -0.5723 -0.9102
 5952SOL     OW18905   2.644   8.049   1.774  0.0752  0.4673 -0.4388
 5952SOL    HW118906   2.664   8.079   1.686  3.2651 -1.4298 -0.5250
 5952SOL    HW218907   2.667   8.123   1.831  2.5917  0.1817 -0.9778
 5953SOL     OW18908   1.066   5.880   8.206 -0.1146  0.3441  0.0186
 5953SOL    HW118909   1.082   5.974   8.196  1.4756  0.1108  0.1531
 5953SOL    HW218910   0.979   5.875   8.245 -1.8557  1.6440 -3.2814
 5954SOL     OW18911   5.719   5.355   4.110 -0.1803  0.0562 -0.0785
 5954SOL    HW118912   5.633   5.358   4.069  0.3575 -0.9107 -1.3495
 5954SOL    HW218913   5.779   5.385   4.041  0.5274  0.4925  0.7084
 5955SOL     OW18914   5.927   2.758   3.449  0.2583 -0.0042 -0.8205
 5955SOL    HW118915   5.927   2.705   3.369  1.2410 -3.9744  1.5395
 5955SOL    HW218916   5.895   2.699   3.517 -0.6322  3.2074  1.7914
 5956SOL     OW18917   6.735   1.581   3.315 -0.1458  0.1397  0.0038
 5956SOL    HW118918   6.787   1.612   3.388 -0.5526 -1.4315  1.0019
 5956SOL    HW218919   6.796   1.531   3.261 -0.4109 -0.9715  0.7148
 5957SOL     OW18920   8.240   0.959   0.209 -0.5257  0.0378 -0.5982
 5957SOL    HW118921   8.331   0.934   0.198  0.0148  1.2661  0.7031
 5957SOL    HW218922   8.216   0.922   0.294 -1.8986 -2.0002 -1.8024
 5958SOL     OW18923   7.930   3.428   8.083  0.1024  0.3405 -0.0529
 5958SOL    HW118924   7.855   3.370   8.067  0.0233  0.4819 -0.1948
 5958SOL    HW218925   8.004   3.369   8.094  0.3615  0.2610 -1.9779
 5959SOL     OW18926   2.295   3.870   7.440 -0.2229 -0.4157  0.4920
 5959SOL    HW118927   2.301   3.807   7.368 -1.6313 -0.4503  0.3767
 5959SOL    HW218928   2.230   3.833   7.499 -1.7174  1.3012  0.0057
 5960SOL     OW18929   3.541   0.296   8.152 -0.2656  0.2201  0.1382
 5960SOL    HW118930   3.487   0.357   8.102 -0.2964  0.4262  0.4180
 5960SOL    HW218931   3.493   0.283   8.234  0.8540  1.6643  1.0966
 5961SOL     OW18932   7.651   5.184   5.337 -0.0802  0.0275 -0.6339
 5961SOL    HW118933   7.657   5.215   5.427 -0.8736  0.4985 -0.7283
 5961SOL    HW218934   7.656   5.088   5.344  2.0104  0.1143 -0.3013
 5962SOL     OW18935   2.372   6.404   0.532 -0.0789  0.2243 -0.0351
 5962SOL    HW118936   2.432   6.477   0.542 -0.5739  0.4481  1.8137
 5962SOL    HW218937   2.422   6.328   0.563 -0.3189  0.1860  0.2589
 5963SOL     OW18938   2.968   2.365   1.613  0.4993 -0.3489  0.7577
 5963SOL    HW118939   3.028   2.410   1.673  1.9277 -0.7661 -0.2978
 5963SOL    HW218940   2.958   2.425   1.539  1.2006 -1.1028  0.0353
 5964SOL     OW18941   7.035   7.613   4.863 -0.2770  0.0529 -0.2021
 5964SOL    HW118942   7.130   7.615   4.858 -0.2411  1.0506  0.4063
 5964SOL    HW218943   7.017   7.586   4.953 -0.6016 -1.6347 -0.7542
 5965SOL     OW18944   0.146   2.195   1.633 -0.1197 -0.4991 -0.0682
 5965SOL    HW118945   0.063   2.204   1.681  0.6755  0.3707  1.2309
 5965SOL    HW218946   0.122   2.205   1.541 -1.4726 -0.4063  0.2739
 5966SOL     OW18947   4.238   6.705   2.237 -0.1573 -0.1308 -0.0643
 5966SOL    HW118948   4.239   6.640   2.167  0.9578  0.9043 -1.0515
 5966SOL    HW218949   4.316   6.686   2.290  0.0763  0.2773 -0.2531
 5967SOL     OW18950   7.967   1.884   1.631  0.7205  0.4276 -0.4370
 5967SOL    HW118951   8.021   1.875   1.709  0.7522 -1.6319 -0.6225
 5967SOL    HW218952   7.985   1.804   1.581 -0.5177  0.9446 -1.7740
 5968SOL     OW18953   5.560   7.468   1.257 -0.3690  0.2787  0.2961
 5968SOL    HW118954   5.544   7.461   1.351 -1.2547 -0.4509  0.1107
 5968SOL    HW218955   5.635   7.411   1.242 -1.6478 -1.4935  0.2512
 5969SOL     OW18956   2.974   0.414   4.562 -0.1208  0.1190  0.0019
 5969SOL    HW118957   2.892   0.364   4.566 -0.8139  1.0215 -1.7362
 5969SOL    HW218958   2.983   0.439   4.470  0.9234  1.9869  0.5391
 5970SOL     OW18959   2.631   1.764   7.598 -0.0380  0.2312  0.2762
 5970SOL    HW118960   2.606   1.808   7.680  0.9669  1.2732  0.0522
 5970SOL    HW218961   2.725   1.776   7.592 -0.2077  1.0175 -1.5078
 5971SOL     OW18962   2.471   5.788   4.926 -0.2880 -0.4564 -0.4267
 5971SOL    HW118963   2.440   5.807   5.015 -1.4926 -1.5413 -0.5935
 5971SOL    HW218964   2.515   5.703   4.934  1.6050  0.4716 -0.4492
 5972SOL     OW18965   4.632   3.334   4.393  0.0859 -0.4851  0.1241
 5972SOL    HW118966   4.698   3.269   4.367  1.2553  0.1845  1.3033
 5972SOL    HW218967   4.590   3.297   4.470 -0.4456 -0.5995 -0.2182
 5973SOL     OW18968   3.281   7.708   0.884 -0.7262 -0.4791  0.4049
 5973SOL    HW118969   3.277   7.686   0.977 -1.0091  0.8422  0.7186
 5973SOL    HW218970   3.219   7.780   0.873 -1.1027 -0.9710 -0.9202
 5974SOL     OW18971   2.140   4.348   6.374 -0.0494  0.0989 -0.0451
 5974SOL    HW118972   2.056   4.365   6.331  1.2426 -0.5687 -3.0342
 5974SOL    HW218973   2.117   4.338   6.467 -3.9935 -4.1204 -1.0778
 5975SOL     OW18974   2.207   7.610   5.337 -0.1899  0.5557 -0.0711
 5975SOL    HW118975   2.278   7.646   5.285  0.0557 -0.3433 -0.3785
 5975SOL    HW218976   2.229   7.632   5.428  2.3131 -2.5398  0.2637
 5976SOL     OW18977   5.758   7.297   1.116  0.1846  0.5200 -0.0201
 5976SOL    HW118978   5.834   7.240   1.108  0.2702  0.5224  0.6871
 5976SOL    HW218979   5.783   7.377   1.070  0.0799  0.0102 -0.9787
 5977SOL     OW18980   3.616   1.741   3.070  0.0039 -0.0088 -0.3987
 5977SOL    HW118981   3.602   1.653   3.106  2.5978 -0.3716 -0.0901
 5977SOL    HW218982   3.614   1.798   3.147 -1.3072  0.1979 -0.5578
 5978SOL     OW18983   1.639   2.467   2.328 -0.4005  0.3006  0.5716
 5978SOL    HW118984   1.571   2.484   2.393 -1.4307  0.0897 -0.4145
 5978SOL    HW218985   1.613   2.519   2.252 -1.0186 -1.8960 -0.8201
 5979SOL     OW18986   4.311   3.843   4.450 -0.2928 -0.3848 -0.3527
 5979SOL    HW118987   4.353   3.803   4.374  1.0026  1.7671 -0.8761
 5979SOL    HW218988   4.246   3.903   4.413 -0.1613  0.1451  0.2530
 5980SOL     OW18989   5.851   6.464   6.559 -0.0670 -0.0202  0.2463
 5980SOL    HW118990   5.943   6.478   6.583 -0.1855  1.3031 -0.0075
 5980SOL    HW218991   5.837   6.522   6.485 -0.7542 -1.2425 -0.6056
 5981SOL     OW18992   3.835   7.827   6.673 -0.1594  0.5088 -0.3857
 5981SOL    HW118993   3.873   7.863   6.753  0.6935 -1.7337  0.3167
 5981SOL    HW218994   3.882   7.744   6.659 -0.8963  0.3961 -2.7310
 5982SOL     OW18995   1.154   6.057   0.645 -0.0959 -0.5413 -0.1563
 5982SOL    HW118996   1.067   6.018   0.651  0.1526 -1.4178 -1.5870
 5982SOL    HW218997   1.154   6.100   0.559 -0.2860  2.5498  1.2601
 5983SOL     OW18998   2.594   5.308   6.860 -0.3063 -0.3850  0.7276
 5983SOL    HW118999   2.547   5.322   6.942  0.9115  0.2645  1.3476
 5983SOL    HW219000   2.681   5.277   6.887 -0.0504 -0.6361 -0.3277
 5984SOL     OW19001   3.823   4.362   4.754  0.0991 -0.3480  0.5492
 5984SOL    HW119002   3.841   4.455   4.744 -0.2015 -0.3485 -0.0063
 5984SOL    HW219003   3.908   4.323   4.773  0.2343  0.0285  0.7198
 5985SOL     OW19004   7.447   6.667   2.713 -0.1905  0.3813 -0.1033
 5985SOL    HW119005   7.364   6.712   2.698 -0.2055 -0.4119 -2.7764
 5985SOL    HW219006   7.514   6.734   2.701 -0.3611  0.7132  0.7121
 5986SOL     OW19007   5.183   7.954   5.012  0.4576 -0.0207 -0.1310
 5986SOL    HW119008   5.244   7.973   4.940  0.6645 -2.4410 -0.6688
 5986SOL    HW219009   5.099   7.939   4.968  0.1048  0.5048  0.3506
 5987SOL     OW19010   5.884   0.996   6.573 -0.0572 -0.5450 -0.0921
 5987SOL    HW119011   5.836   1.064   6.525  0.7285  0.2899  0.2817
 5987SOL    HW219012   5.882   0.920   6.515  0.7400  0.3940 -1.4006
 5988SOL     OW19013   3.596   7.707   4.696  0.1436 -0.1921 -0.2063
 5988SOL    HW119014   3.543   7.787   4.706 -2.4542 -1.8259  0.0041
 5988SOL    HW219015   3.655   7.726   4.623 -0.3587  1.9276 -0.1261
 5989SOL     OW19016   1.371   3.978   6.751  0.1144  0.1145  0.2609
 5989SOL    HW119017   1.422   3.928   6.815  0.1530  1.3029  1.1910
 5989SOL    HW219018   1.353   3.916   6.680  2.2644 -0.5251  0.2168
 5990SOL     OW19019   3.036   6.478   2.555 -0.0192  0.1016 -0.5027
 5990SOL    HW119020   3.059   6.472   2.647  0.0551  0.6325 -0.4853
 5990SOL    HW219021   3.085   6.407   2.513 -1.9083 -1.7766  0.2075
 5991SOL     OW19022   8.050   3.503   4.955  0.0620 -0.0677  0.5086
 5991SOL    HW119023   8.067   3.581   5.007  0.4653  0.4276 -0.3487
 5991SOL    HW219024   8.062   3.430   5.016  2.5218  0.3830  0.6342
 5992SOL     OW19025   6.150   1.934   0.121  0.7192  0.0515 -0.4120
 5992SOL    HW119026   6.201   1.939   0.040 -0.6091 -3.7817 -1.6783
 5992SOL    HW219027   6.060   1.919   0.092 -0.3372  1.4545  1.8282
 5993SOL     OW19028   7.187   6.657   6.144  0.2113  0.2114 -0.1233
 5993SOL    HW119029   7.216   6.674   6.055  0.3515 -0.9626 -0.3139
 5993SOL    HW219030   7.099   6.620   6.134  1.1326 -2.2227  0.0197
 5994SOL     OW19031   6.426   4.703   5.760 -0.0375  0.4725  0.0984
 5994SOL    HW119032   6.363   4.774   5.771 -0.5050  0.3301 -1.3279
 5994SOL    HW219033   6.502   4.744   5.720  0.1095  0.3603  0.2646
 5995SOL     OW19034   8.201   2.009   2.535 -0.2521 -0.1790 -0.0967
 5995SOL    HW119035   8.243   1.924   2.523 -0.3884 -0.4417  1.1316
 5995SOL    HW219036   8.273   2.069   2.553 -0.1672 -0.0605 -0.8263
 5996SOL     OW19037   1.616   3.543   0.494  0.2676  0.4045  0.5545
 5996SOL    HW119038   1.629   3.563   0.586 -1.7468  2.5446  0.4585
 5996SOL    HW219039   1.548   3.476   0.493 -0.0979  0.7725  0.6201
 5997SOL     OW19040   7.356   0.718   3.770 -0.3948 -0.3548 -0.0728
 5997SOL    HW119041   7.446   0.685   3.762 -0.9477 -2.1096  0.4418
 5997SOL    HW219042   7.331   0.741   3.681  0.9326  1.2747 -0.0753
 5998SOL     OW19043   7.210   4.586   5.987  0.3554  0.1633 -0.6092
 5998SOL    HW119044   7.201   4.508   6.042  1.0559 -0.2837 -1.0993
 5998SOL    HW219045   7.228   4.657   6.048 -1.6652  0.2278 -0.0246
 5999SOL     OW19046   1.390   3.892   3.290  0.0149 -0.1590 -0.3684
 5999SOL    HW119047   1.404   3.797   3.292  2.2406  0.0543 -2.0521
 5999SOL    HW219048   1.317   3.906   3.351 -1.9708 -3.1714 -1.7823
 6000SOL     OW19049   5.907   1.240   3.621  0.3227  0.1088  1.0429
 6000SOL    HW119050   5.935   1.307   3.560  1.0963  1.0182  2.3507
 6000SOL    HW219051   5.878   1.288   3.699  0.9962 -1.0523  2.0590
 6001SOL     OW19052   0.786   0.242   6.031 -0.8645 -0.5002  0.1045
 6001SOL    HW119053   0.759   0.276   6.116 -1.6170 -0.7215 -0.0411
 6001SOL    HW219054   0.736   0.161   6.020 -0.4975 -0.6683 -0.3850
 6002SOL     OW19055   5.000   4.241   3.862 -0.0442 -0.2354  0.1480
 6002SOL    HW119056   5.079   4.255   3.810 -0.6045 -0.2883 -0.7377
 6002SOL    HW219057   5.031   4.200   3.942  0.5737 -2.9247 -1.3542
 6003SOL     OW19058   6.120   6.244   1.939  0.4997  0.1701 -0.4589
 6003SOL    HW119059   6.170   6.326   1.934  0.9599 -0.1131 -0.5142
 6003SOL    HW219060   6.077   6.238   1.854 -0.2550  0.8052 -0.1364
 6004SOL     OW19061   3.769   4.765   6.054  0.0980  0.0667  0.2501
 6004SOL    HW119062   3.691   4.739   6.006  0.2258 -2.2380  1.1739
 6004SOL    HW219063   3.821   4.814   5.991  0.0940 -2.4984 -1.9115
 6005SOL     OW19064   2.407   1.846   8.189  0.6067 -0.1475 -0.4743
 6005SOL    HW119065   2.401   1.940   8.208  2.2333 -0.2789  0.9378
 6005SOL    HW219066   2.438   1.842   8.098 -1.0477  0.6127 -1.1242
 6006SOL     OW19067   4.477   3.532   8.177 -0.3311  0.0818  0.7971
 6006SOL    HW119068   4.477   3.477   8.255 -1.8506  1.6409  1.9745
 6006SOL    HW219069   4.397   3.508   8.130 -0.7859  0.9606  1.1031
 6007SOL     OW19070   7.081   4.381   7.346 -0.0516  0.5857  0.2816
 6007SOL    HW119071   7.154   4.353   7.291  1.9394  3.1564  1.3939
 6007SOL    HW219072   7.011   4.317   7.328  1.7992 -0.9204 -2.2182
 6008SOL     OW19073   3.122   6.515   2.832 -0.5107  0.0299  0.5208
 6008SOL    HW119074   3.080   6.437   2.869 -1.6005 -0.3115 -1.3267
 6008SOL    HW219075   3.103   6.584   2.896  0.7003 -1.2103  2.3214
 6009SOL     OW19076   5.033   5.224   8.008  0.1741 -0.3760 -0.3626
 6009SOL    HW119077   4.963   5.225   7.943 -0.1034  0.8017 -0.0716
 6009SOL    HW219078   4.988   5.239   8.091  0.9041  1.9738 -0.3411
 6010SOL     OW19079   0.513   6.934   2.646  0.0238  0.4585 -0.5797
 6010SOL    HW119080   0.544   6.975   2.727  0.2580  1.4988 -1.1805
 6010SOL    HW219081   0.535   6.997   2.577  0.8386 -0.8934 -1.5966
 6011SOL     OW19082   2.690   7.261   8.173  0.4521  0.3819  0.3169
 6011SOL    HW119083   2.766   7.216   8.136  0.8735  0.4515  1.0936
 6011SOL    HW219084   2.698   7.250   8.267  0.6391  2.1587  0.5486
 6012SOL     OW19085   2.398   6.376   2.812  0.3684  0.1685  0.4021
 6012SOL    HW119086   2.335   6.388   2.742  1.1316  1.1975 -0.1356
 6012SOL    HW219087   2.429   6.286   2.801  2.3241  1.0226 -2.2208
 6013SOL     OW19088   2.620   2.038   2.303  0.2057  0.1882 -0.1648
 6013SOL    HW119089   2.630   2.132   2.290  2.0204  0.6726  3.4263
 6013SOL    HW219090   2.546   2.029   2.362  0.0971 -0.6356 -0.4078
 6014SOL     OW19091   3.901   3.461   4.851 -0.8364  0.2024 -0.0558
 6014SOL    HW119092   3.984   3.461   4.899 -0.3840  0.1089 -0.8318
 6014SOL    HW219093   3.835   3.466   4.920 -0.1664  1.5145  0.5439
 6015SOL     OW19094   5.442   5.352   5.084 -0.1179 -0.1431  0.1409
 6015SOL    HW119095   5.428   5.342   4.990  0.4511 -0.4692  0.0867
 6015SOL    HW219096   5.354   5.364   5.121 -0.2211  1.7727 -0.6350
 6016SOL     OW19097   5.183   5.205   4.594  0.5912 -0.8626  0.4325
 6016SOL    HW119098   5.196   5.284   4.647  1.6726 -0.6893 -0.0602
 6016SOL    HW219099   5.156   5.138   4.657  2.0680 -0.7163  1.2751
 6017SOL     OW19100   5.587   1.933   4.600  0.1797 -0.5051  0.4863
 6017SOL    HW119101   5.559   2.024   4.590 -0.2684 -0.5808  0.9850
 6017SOL    HW219102   5.519   1.882   4.557 -0.1164 -0.6557  1.1161
 6018SOL     OW19103   5.642   2.338   7.584 -0.1572 -0.1865  0.3419
 6018SOL    HW119104   5.639   2.255   7.537  0.7296  0.4501 -0.9043
 6018SOL    HW219105   5.733   2.366   7.577 -0.4712  0.9645  0.5947
 6019SOL     OW19106   1.161   2.461   5.759  0.1165 -0.1085 -0.4746
 6019SOL    HW119107   1.250   2.425   5.763  0.0567 -0.2297 -0.1152
 6019SOL    HW219108   1.164   2.538   5.817 -0.2198 -0.5857  0.1878
 6020SOL     OW19109   7.849   0.282   2.791 -0.0620 -0.3994 -0.3405
 6020SOL    HW119110   7.859   0.374   2.766 -1.1064 -0.5434 -1.4319
 6020SOL    HW219111   7.937   0.254   2.816  0.3168  0.8259 -0.2205
 6021SOL     OW19112   4.239   8.059   0.049 -0.2498  0.6176 -0.1067
 6021SOL    HW119113   4.196   8.012   0.121  0.7129 -2.1206 -1.1721
 6021SOL    HW219114   4.331   8.031   0.053  0.2759  2.0461 -1.1549
 6022SOL     OW19115   6.022   2.756   4.078  0.4423  0.0012 -0.1545
 6022SOL    HW119116   5.933   2.789   4.060  1.0488  2.2732  0.6583
 6022SOL    HW219117   6.013   2.707   4.159 -0.1111  0.0564 -0.1737
 6023SOL     OW19118   8.263   6.398   2.410  0.2686 -0.6506  0.4386
 6023SOL    HW119119   8.277   6.368   2.320  1.0775  0.1922  0.2725
 6023SOL    HW219120   8.275   6.492   2.407 -2.3419 -0.2099  0.9385
 6024SOL     OW19121   6.033   6.131   6.674 -0.0084  0.0699 -0.2657
 6024SOL    HW119122   6.041   6.179   6.592  0.7555  0.4754  0.0324
 6024SOL    HW219123   5.966   6.065   6.657 -0.8772  1.0542 -0.7666
 6025SOL     OW19124   3.327   4.394   7.268 -0.0537  0.5167  0.4418
 6025SOL    HW119125   3.378   4.355   7.339 -0.4021 -2.5812 -0.8201
 6025SOL    HW219126   3.238   4.362   7.283 -0.5250  1.4143 -0.3513
 6026SOL     OW19127   6.497   1.663   3.433  0.0886 -0.6858 -0.4353
 6026SOL    HW119128   6.582   1.623   3.414  2.3340  0.9311  4.5266
 6026SOL    HW219129   6.504   1.751   3.397 -1.0663 -1.5562 -3.0449
 6027SOL     OW19130   6.626   4.685   6.473  0.4452 -0.0040 -0.6317
 6027SOL    HW119131   6.570   4.640   6.536 -1.0714  1.3795 -0.9185
 6027SOL    HW219132   6.679   4.615   6.434 -0.6980 -1.2992  0.0423
 6028SOL     OW19133   4.590   2.244   6.749  0.2854 -0.1595 -0.0460
 6028SOL    HW119134   4.640   2.302   6.692  0.1679  0.9264  0.9053
 6028SOL    HW219135   4.640   2.241   6.831 -0.3870 -0.3400  0.3692
 6029SOL     OW19136   3.957   3.661   7.631 -0.0653 -0.0585  1.1708
 6029SOL    HW119137   3.943   3.665   7.725  0.1764  2.6246  1.1738
 6029SOL    HW219138   3.869   3.654   7.594 -0.3499  1.1795  1.5700
 6030SOL     OW19139   0.242   2.837   0.565 -0.1399  0.7039 -0.1899
 6030SOL    HW119140   0.193   2.774   0.512  0.3481  1.8842 -2.1772
 6030SOL    HW219141   0.209   2.922   0.537  1.7369  1.4603 -0.2896
 6031SOL     OW19142   3.539   0.827   5.998 -0.0768  0.0528 -0.2736
 6031SOL    HW119143   3.495   0.898   5.953 -1.2040 -1.6060 -1.9201
 6031SOL    HW219144   3.619   0.812   5.948  0.9306  1.0790  0.9502
 6032SOL     OW19145   5.419   4.050   4.791 -0.2103 -0.1759 -0.0800
 6032SOL    HW119146   5.391   4.132   4.750  1.5470  0.8030  0.5538
 6032SOL    HW219147   5.479   4.011   4.728 -0.6936 -0.7597 -0.1828
 6033SOL     OW19148   4.051   0.549   2.369 -0.0779 -0.4198 -0.2411
 6033SOL    HW119149   4.092   0.630   2.338 -1.3950  0.3987  0.0558
 6033SOL    HW219150   4.123   0.498   2.406  0.8100  0.5467 -0.5839
 6034SOL     OW19151   7.199   6.000   3.209  0.4999  0.1527  0.4460
 6034SOL    HW119152   7.149   5.964   3.136  1.9361  0.3274 -0.6720
 6034SOL    HW219153   7.234   5.923   3.254  1.8558  0.0432 -0.7113
 6035SOL     OW19154   2.261   2.529   1.556  0.5794  0.0857  0.1172
 6035SOL    HW119155   2.268   2.476   1.636  0.9783  0.9921  0.6917
 6035SOL    HW219156   2.269   2.619   1.586 -1.7943  0.6180 -0.6257
 6036SOL     OW19157   5.193   0.252   2.610  0.1001  0.0351  0.1856
 6036SOL    HW119158   5.277   0.236   2.567  0.6800 -1.0597  1.6303
 6036SOL    HW219159   5.190   0.188   2.681 -2.0258 -0.0527  0.0920
 6037SOL     OW19160   4.933   7.573   5.152  0.3438 -0.3694 -0.3865
 6037SOL    HW119161   5.014   7.580   5.101 -0.0720  0.4224 -0.9539
 6037SOL    HW219162   4.864   7.563   5.086 -0.1558  0.2605  0.0340
 6038SOL     OW19163   6.997   6.551   6.891  0.0761 -0.1032  0.6199
 6038SOL    HW119164   7.052   6.483   6.853 -0.2596  0.1387 -0.3169
 6038SOL    HW219165   6.909   6.531   6.859 -0.4785 -0.7081  2.3930
 6039SOL     OW19166   6.335   4.996   1.933  0.9371  0.2313  0.7937
 6039SOL    HW119167   6.286   4.994   2.015 -0.4270 -2.1692  0.0102
 6039SOL    HW219168   6.272   5.025   1.867  1.1279 -0.8635  0.1073
 6040SOL     OW19169   6.944   6.023   7.900 -0.4536 -0.4307  0.0414
 6040SOL    HW119170   6.959   6.101   7.846 -1.1481 -0.4337 -0.1620
 6040SOL    HW219171   6.974   6.049   7.988  2.1373 -0.9192 -0.6060
 6041SOL     OW19172   1.252   1.030   3.162 -0.2925  0.3803  0.8112
 6041SOL    HW119173   1.316   1.088   3.203 -0.8339  1.3874  0.2705
 6041SOL    HW219174   1.300   0.989   3.090 -0.0679  0.5939  0.8368
 6042SOL     OW19175   6.321   6.217   7.967 -0.0549 -0.0999 -0.1469
 6042SOL    HW119176   6.380   6.287   7.938  2.1245 -1.3080  1.0889
 6042SOL    HW219177   6.335   6.212   8.062 -1.2582 -1.2562 -0.0035
 6043SOL     OW19178   8.261   5.550   1.746  0.3460 -0.6141 -0.1105
 6043SOL    HW119179   8.276   5.479   1.809 -2.0978 -2.4546 -1.4114
 6043SOL    HW219180   8.344   5.558   1.700  0.6143 -2.9829 -0.1960
 6044SOL     OW19181   6.011   5.004   0.163 -0.0980 -0.4152 -0.3959
 6044SOL    HW119182   6.098   4.984   0.126 -0.4954 -1.0064 -1.0407
 6044SOL    HW219183   5.998   4.937   0.231  1.2891  1.5814  2.0063
 6045SOL     OW19184   6.240   3.140   1.439 -0.0592  0.1609  0.2885
 6045SOL    HW119185   6.307   3.090   1.486  0.5313  0.9259  0.2961
 6045SOL    HW219186   6.289   3.190   1.374 -0.8401 -0.6513 -0.9638
 6046SOL     OW19187   0.926   3.398   7.660  0.1108  0.6327 -0.3722
 6046SOL    HW119188   0.871   3.368   7.588 -1.6497 -0.1521  1.2266
 6046SOL    HW219189   0.868   3.399   7.736  2.3970 -0.7179  1.5199
 6047SOL     OW19190   2.250   0.530   2.496  0.4020  0.0316 -0.3433
 6047SOL    HW119191   2.223   0.502   2.583  1.2562 -0.5205 -0.2439
 6047SOL    HW219192   2.318   0.596   2.512  0.2803  0.2161 -0.5852
 6048SOL     OW19193   3.727   7.299   0.151 -0.0929 -0.1360  0.4320
 6048SOL    HW119194   3.719   7.353   0.230  0.2304 -0.4641  0.6927
 6048SOL    HW219195   3.697   7.356   0.080  1.7293  0.9509  0.4751
 6049SOL     OW19196   5.428   4.038   7.981  0.0037 -0.2959 -0.3940
 6049SOL    HW119197   5.517   4.007   8.000 -0.1411  0.3339  1.5079
 6049SOL    HW219198   5.373   3.990   8.043 -0.6650  1.1121  0.1254
 6050SOL     OW19199   1.895   1.138   4.431  0.1196  0.1424 -0.2474
 6050SOL    HW119200   1.849   1.191   4.366  0.0133  0.5956  0.1946
 6050SOL    HW219201   1.921   1.200   4.499  0.7638 -0.2241 -0.1449
 6051SOL     OW19202   6.730   0.044   5.344 -0.1353  0.3206  0.0103
 6051SOL    HW119203   6.740  -0.045   5.310  1.0105  0.1102  0.8484
 6051SOL    HW219204   6.658   0.037   5.406 -2.2450  0.7092 -2.2395
 6052SOL     OW19205   4.651   6.423   1.393 -0.0355 -0.1354 -0.5466
 6052SOL    HW119206   4.728   6.418   1.336 -0.4645 -0.3233 -1.1084
 6052SOL    HW219207   4.609   6.505   1.370  0.4906  0.4225  0.4091
 6053SOL     OW19208   2.051   6.638   0.172 -1.1204  0.2442 -0.2262
 6053SOL    HW119209   1.988   6.708   0.159  0.1678  1.5437  0.2753
 6053SOL    HW219210   2.060   6.596   0.087 -2.7160 -0.0428 -0.2752
 6054SOL     OW19211   6.728   4.164   4.234  0.2168  0.5760 -0.7691
 6054SOL    HW119212   6.739   4.254   4.207  0.9611  0.5329 -0.6342
 6054SOL    HW219213   6.778   4.113   4.171  0.5791  0.3426 -0.3031
 6055SOL     OW19214   4.981   3.877   2.965  0.5031  0.1448  0.0945
 6055SOL    HW119215   5.015   3.878   3.054 -0.6718 -1.1396  0.5914
 6055SOL    HW219216   5.031   3.808   2.921 -0.8714 -1.2762  0.6376
 6056SOL     OW19217   6.400   6.832   3.766 -0.8156 -0.4659  0.0945
 6056SOL    HW119218   6.309   6.843   3.793 -1.1106 -0.0459 -1.0497
 6056SOL    HW219219   6.395   6.797   3.677  0.0434  3.6068 -1.8038
 6057SOL     OW19220   4.987   2.496   3.802 -0.8838 -0.6039  0.2436
 6057SOL    HW119221   4.891   2.500   3.806 -0.8792 -0.2286  0.0363
 6057SOL    HW219222   5.014   2.494   3.893 -1.0397  0.7871  0.3425
 6058SOL     OW19223   2.769   6.303   5.042  0.9695 -0.2024 -0.4490
 6058SOL    HW119224   2.797   6.294   5.133 -0.2075 -0.0311 -0.0453
 6058SOL    HW219225   2.832   6.252   4.992  1.5284 -0.4487  0.4833
 6059SOL     OW19226   6.106   3.871   3.971  0.0941 -0.0820 -0.2645
 6059SOL    HW119227   6.031   3.930   3.967  1.6907  2.0947 -0.1718
 6059SOL    HW219228   6.103   3.835   4.060 -0.6497  0.2126 -0.1625
 6060SOL     OW19229   7.664   2.961   3.214 -0.1697  0.4011  0.2848
 6060SOL    HW119230   7.629   2.900   3.149  0.5343  0.3959 -0.0977
 6060SOL    HW219231   7.654   2.914   3.297 -2.3829  0.9729  0.4086
 6061SOL     OW19232   7.721   5.775   6.995 -0.4037 -1.0752  0.3679
 6061SOL    HW119233   7.741   5.867   6.981 -3.1307 -0.1957  1.6836
 6061SOL    HW219234   7.795   5.728   6.956  0.3296  1.5881 -1.6780
 6062SOL     OW19235   6.593   1.946   2.898  0.2904 -0.0448 -0.2614
 6062SOL    HW119236   6.650   2.005   2.947  1.2790 -0.9121 -0.3363
 6062SOL    HW219237   6.567   1.879   2.961  0.4266 -0.3865 -0.5645
 6063SOL     OW19238   5.729   6.643   8.140 -0.4818  0.1118 -0.6833
 6063SOL    HW119239   5.640   6.635   8.174 -0.7633  0.2457 -1.3658
 6063SOL    HW219240   5.744   6.738   8.137 -1.3842  0.2574 -3.1810
 6064SOL     OW19241   4.932   1.398   1.403  0.0188 -0.4743 -0.0236
 6064SOL    HW119242   4.912   1.492   1.402  0.0290 -0.4293  1.6653
 6064SOL    HW219243   4.850   1.357   1.430  0.1723 -0.9143 -0.2283
 6065SOL     OW19244   3.650   8.105   0.689 -0.1817 -0.0605 -0.2694
 6065SOL    HW119245   3.635   8.156   0.610 -0.7983 -0.4416 -0.4059
 6065SOL    HW219246   3.696   8.165   0.748 -0.9533  0.6825 -0.4045
 6066SOL     OW19247   7.624   4.046   2.673 -0.3341  0.3309 -0.1785
 6066SOL    HW119248   7.532   4.069   2.661 -0.2206  1.1713  0.4450
 6066SOL    HW219249   7.663   4.124   2.713  0.0704 -0.9522  2.0904
 6067SOL     OW19250   5.044   1.951   1.343  0.3868  0.5889  0.0810
 6067SOL    HW119251   5.004   1.925   1.260 -3.2044 -3.0446  2.5227
 6067SOL    HW219252   4.984   2.018   1.378  1.1560  1.1639  0.3186
 6068SOL     OW19253   2.330   2.215   2.837  0.1194  0.2545 -0.4544
 6068SOL    HW119254   2.409   2.222   2.783  0.0536  0.4732 -0.5223
 6068SOL    HW219255   2.362   2.214   2.927  0.1757  0.7287 -0.4668
 6069SOL     OW19256   0.772   3.527   3.081  0.0299 -0.3137  0.2243
 6069SOL    HW119257   0.695   3.537   3.138 -2.0718 -0.1025 -2.4692
 6069SOL    HW219258   0.753   3.583   3.005  3.0680  0.0452 -0.3982
 6070SOL     OW19259   1.194   2.693   5.992  0.0614  0.4829 -0.1423
 6070SOL    HW119260   1.249   2.657   6.061 -1.1465 -0.2896  0.4649
 6070SOL    HW219261   1.153   2.770   6.032  0.6455  1.0260 -0.5721
 6071SOL     OW19262   6.052   6.024   1.569  0.2057 -0.5167  0.4767
 6071SOL    HW119263   6.006   6.100   1.604 -2.1346 -1.2134 -0.8550
 6071SOL    HW219264   6.144   6.042   1.585 -0.3580  1.9725  1.3707
 6072SOL     OW19265   2.837   3.181   3.308 -0.0657  0.0261 -0.1615
 6072SOL    HW119266   2.755   3.133   3.316 -1.4221  2.1166 -0.6553
 6072SOL    HW219267   2.905   3.116   3.322 -1.7572 -2.1895 -1.6302
 6073SOL     OW19268   5.119   0.602   5.776  0.1012  0.4943 -0.0104
 6073SOL    HW119269   5.164   0.643   5.850  0.6170 -0.3876  0.1772
 6073SOL    HW219270   5.129   0.508   5.791 -2.7777  0.2162  0.6319
 6074SOL     OW19271   7.307   6.034   7.937  0.0141 -0.1751 -0.2434
 6074SOL    HW119272   7.347   6.006   7.854 -1.3159  0.6740 -1.2207
 6074SOL    HW219273   7.373   6.015   8.003  1.0575 -1.0299 -1.4805
 6075SOL     OW19274   4.459   5.365   5.912  0.3535 -0.1014 -0.7227
 6075SOL    HW119275   4.456   5.435   5.847 -0.8615  0.3071 -0.2759
 6075SOL    HW219276   4.368   5.357   5.942  0.7866 -0.6347  0.5327
 6076SOL     OW19277   4.947   0.670   6.455  0.1443 -0.3048 -0.8543
 6076SOL    HW119278   5.029   0.711   6.427  0.8216 -1.1516 -0.1562
 6076SOL    HW219279   4.906   0.735   6.511  2.0967 -1.1739  1.7898
 6077SOL     OW19280   7.744   0.601   4.074 -0.1179 -0.1720  0.1284
 6077SOL    HW119281   7.830   0.560   4.086 -0.4662 -0.3760  2.3434
 6077SOL    HW219282   7.682   0.528   4.083 -0.5916  0.2217  0.0757
 6078SOL     OW19283   0.180   4.119   2.944  0.5630 -0.0546  0.0268
 6078SOL    HW119284   0.149   4.092   3.030 -0.8844 -1.4142 -0.8668
 6078SOL    HW219285   0.158   4.046   2.887 -0.7019  1.7548 -1.9627
 6079SOL     OW19286   1.434   6.552   4.347 -0.2461  0.0896  0.0515
 6079SOL    HW119287   1.359   6.594   4.305 -0.4818 -0.2733  0.1066
 6079SOL    HW219288   1.501   6.548   4.279 -1.0214 -1.5698 -0.6635
 6080SOL     OW19289   8.050   3.272   7.816  0.1093 -0.0197  0.0212
 6080SOL    HW119290   7.968   3.313   7.791  0.5692  0.4642 -0.7549
 6080SOL    HW219291   8.026   3.204   7.878 -0.9276 -0.2047 -0.5650
 6081SOL     OW19292   2.443   6.761   0.113 -0.4064  0.7302  0.5338
 6081SOL    HW119293   2.533   6.787   0.130 -0.3877 -0.5814  2.8525
 6081SOL    HW219294   2.449   6.690   0.050  0.1456  0.8732  0.4245
 6082SOL     OW19295   5.241   7.274   4.906 -0.2149  0.2550 -0.2483
 6082SOL    HW119296   5.230   7.179   4.900  1.4378 -0.1097  1.5224
 6082SOL    HW219297   5.333   7.287   4.929 -0.1710  2.3557 -1.3234
 6083SOL     OW19298   6.900   4.457   3.106  0.0548 -0.1445 -0.6010
 6083SOL    HW119299   6.914   4.450   3.200  1.9695  3.6867 -0.3901
 6083SOL    HW219300   6.980   4.422   3.067  0.8246  1.4662 -0.5459
 6084SOL     OW19301   3.607   2.767   3.438 -0.1156 -0.2155 -0.6496
 6084SOL    HW119302   3.702   2.780   3.430  0.2195  0.0494  2.4953
 6084SOL    HW219303   3.590   2.688   3.388  2.0091 -0.9623 -0.3136
 6085SOL     OW19304   0.383   5.528   3.288  0.1473 -0.0042  0.3229
 6085SOL    HW119305   0.386   5.466   3.214  3.8173 -0.9937  1.0884
 6085SOL    HW219306   0.431   5.605   3.256  3.6490 -1.2434  2.1150
 6086SOL     OW19307   2.203   0.087   8.214 -0.7308  0.1068  0.7012
 6086SOL    HW119308   2.287   0.042   8.213 -1.5021 -1.4091 -0.9944
 6086SOL    HW219309   2.138   0.017   8.219 -1.9310  1.1505  0.3153
 6087SOL     OW19310   0.098   0.004   8.032  0.1249 -0.2987 -0.6285
 6087SOL    HW119311   0.147   0.081   8.004 -0.5909  0.6168  0.5288
 6087SOL    HW219312   0.042  -0.018   7.958  1.4267 -0.6794 -1.5464
 6088SOL     OW19313   4.276   0.036   0.069  0.2657  0.0638 -0.4718
 6088SOL    HW119314   4.279  -0.052   0.033  1.4061  0.2233 -0.8011
 6088SOL    HW219315   4.188   0.044   0.105 -0.5047 -0.5255 -2.1269
 6089SOL     OW19316   1.966   7.736   2.788  0.2382  0.0702 -0.6910
 6089SOL    HW119317   2.035   7.770   2.732  2.1413  1.3001  2.1374
 6089SOL    HW219318   1.891   7.792   2.772  0.7035  0.3627 -1.9692
 6090SOL     OW19319   5.970   4.132   6.690  0.1365 -0.3029  0.3184
 6090SOL    HW119320   5.923   4.053   6.660 -1.2942  0.7250 -0.2658
 6090SOL    HW219321   6.047   4.098   6.736  0.5386 -2.0091 -1.4866
 6091SOL     OW19322   3.011   3.693   4.655  0.8330 -0.0745  0.5772
 6091SOL    HW119323   3.037   3.663   4.568  0.3994 -0.6009  0.6283
 6091SOL    HW219324   2.918   3.713   4.647  1.2334  1.8899  0.3746
 6092SOL     OW19325   3.169   1.016   5.929 -0.1434  0.6557  0.6715
 6092SOL    HW119326   3.154   0.928   5.963  2.3767 -0.7096 -1.3292
 6092SOL    HW219327   3.265   1.025   5.927 -0.2844  3.8426  1.6236
 6093SOL     OW19328   1.845   6.112   0.722 -0.2320 -0.0964  0.1864
 6093SOL    HW119329   1.776   6.087   0.662 -0.7171 -0.1272  0.7527
 6093SOL    HW219330   1.862   6.205   0.702 -0.1596 -0.1943 -0.2141
 6094SOL     OW19331   0.632   3.045   5.960 -0.2676 -0.4620  0.3181
 6094SOL    HW119332   0.602   3.127   6.000  1.1977  0.6848 -0.8291
 6094SOL    HW219333   0.630   2.982   6.032 -0.7656  0.7512  1.4123
 6095SOL     OW19334   7.247   3.964   7.284  0.0045 -0.4190 -0.4635
 6095SOL    HW119335   7.178   3.911   7.324  0.7233 -1.4700 -0.5645
 6095SOL    HW219336   7.211   3.990   7.199  0.3433 -2.4450 -1.2868
 6096SOL     OW19337   2.960   0.520   7.491  0.0603  0.1526  0.4447
 6096SOL    HW119338   3.001   0.535   7.576  0.0324  0.4040  0.4143
 6096SOL    HW219339   3.030   0.537   7.428  0.1602 -0.3126  0.4274
 6097SOL     OW19340   7.540   8.272   7.422  0.3586  0.2547 -0.4964
 6097SOL    HW119341   7.480   8.252   7.351 -1.0581 -2.2224  1.2169
 6097SOL    HW219342   7.588   8.190   7.437  2.3488  1.4179 -0.1326
 6098SOL     OW19343   8.211   0.422   4.635 -0.0066 -0.5210  0.2430
 6098SOL    HW119344   8.210   0.497   4.575  0.4187 -0.3097  0.4999
 6098SOL    HW219345   8.168   0.352   4.585 -2.2522  0.4221  0.7309
 6099SOL     OW19346   6.616   3.120   7.052  0.0880 -0.2585 -0.2145
 6099SOL    HW119347   6.580   3.057   6.989 -0.2354 -0.4869  0.1958
 6099SOL    HW219348   6.652   3.067   7.122 -1.7699 -0.0069  1.0190
 6100SOL     OW19349   3.594   6.915   7.792  0.2679  0.6005  0.1353
 6100SOL    HW119350   3.610   6.993   7.738  0.8524 -0.8158 -1.8632
 6100SOL    HW219351   3.597   6.842   7.730 -1.5096 -0.9349  1.7302
 6101SOL     OW19352   3.385   2.396   6.420 -0.1562 -0.0755  0.8253
 6101SOL    HW119353   3.442   2.321   6.439  0.0950  0.2049  1.1829
 6101SOL    HW219354   3.417   2.466   6.476  0.7541  0.8560 -0.8090
 6102SOL     OW19355   7.641   7.322   6.960  0.0294  0.8555  0.4241
 6102SOL    HW119356   7.698   7.256   6.999  0.7039  0.7883 -0.6375
 6102SOL    HW219357   7.569   7.271   6.922 -1.3981  1.0070  2.7093
 6103SOL     OW19358   5.445   0.999   5.742  0.2307  0.6578 -0.2413
 6103SOL    HW119359   5.486   1.000   5.828  1.3292 -0.0928 -0.7488
 6103SOL    HW219360   5.431   0.907   5.722 -1.5147  0.8759 -0.1898
 6104SOL     OW19361   2.606   5.542   5.012  0.2106 -0.1323  0.0829
 6104SOL    HW119362   2.583   5.496   4.930  1.2307 -0.7041  0.1042
 6104SOL    HW219363   2.660   5.479   5.060  1.7615  1.1301  0.0559
 6105SOL     OW19364   5.505   5.887   5.792 -0.3419  0.1762 -0.0050
 6105SOL    HW119365   5.575   5.843   5.842 -0.4412  0.9972  0.8802
 6105SOL    HW219366   5.541   5.896   5.704  1.1594  1.6360  0.7163
 6106SOL     OW19367   1.571   4.961   4.840 -0.1178 -0.0778 -0.6249
 6106SOL    HW119368   1.540   5.019   4.770 -0.0976  1.0563  0.2631
 6106SOL    HW219369   1.495   4.949   4.897  0.2803  0.3311  0.0075
 6107SOL     OW19370   2.977   2.277   2.188 -0.1024 -0.1891 -0.2641
 6107SOL    HW119371   2.919   2.259   2.262  2.0211  1.0632  1.8750
 6107SOL    HW219372   3.023   2.195   2.171  0.5149 -0.1101  0.9256
 6108SOL     OW19373   5.274   0.161   0.894  0.3243  0.0024  0.5228
 6108SOL    HW119374   5.226   0.107   0.832  2.6164  0.6816 -2.0282
 6108SOL    HW219375   5.366   0.138   0.881  1.1191  2.1629  1.6853
 6109SOL     OW19376   4.137   5.596   6.262  0.1023  0.0030 -0.1345
 6109SOL    HW119377   4.137   5.575   6.168 -2.6815 -0.6089 -0.0900
 6109SOL    HW219378   4.045   5.613   6.282  0.8330  1.7308  2.1780
 6110SOL     OW19379   4.316   5.524   7.147  0.1841 -0.5440  0.1233
 6110SOL    HW119380   4.265   5.593   7.104  0.3239 -0.4987  0.0314
 6110SOL    HW219381   4.372   5.490   7.078  2.8199  1.7265  0.9592
 6111SOL     OW19382   4.079   4.259   5.298 -0.5862 -0.2346 -0.2265
 6111SOL    HW119383   4.131   4.194   5.250 -0.4577  1.7297 -3.0393
 6111SOL    HW219384   3.989   4.228   5.292 -0.3918 -0.7569 -0.4849
 6112SOL     OW19385   7.753   1.808   3.966  0.0833  0.4888 -0.3344
 6112SOL    HW119386   7.674   1.763   3.997  0.9067 -1.6343 -1.1406
 6112SOL    HW219387   7.755   1.790   3.872  0.3202  2.5135 -0.7465
 6113SOL     OW19388   4.507   6.779   0.942  0.0765  0.0100 -0.4110
 6113SOL    HW119389   4.432   6.838   0.932 -1.1341 -0.9657  1.9712
 6113SOL    HW219390   4.582   6.837   0.954 -0.8620  1.0814  0.5414
 6114SOL     OW19391   5.041   3.412   1.398  0.1774  0.4233 -0.2693
 6114SOL    HW119392   4.992   3.335   1.427 -2.3179  1.7681 -0.5844
 6114SOL    HW219393   5.091   3.439   1.474  1.0544 -1.4487 -0.1412
 6115SOL     OW19394   4.115   2.581   1.598  0.6914 -0.0890 -0.4053
 6115SOL    HW119395   4.168   2.578   1.677  0.6257  0.6731 -0.3232
 6115SOL    HW219396   4.149   2.656   1.549  1.8322 -1.5261 -1.9084
 6116SOL     OW19397   2.480   5.119   8.072  0.8486 -0.5689 -0.5715
 6116SOL    HW119398   2.493   5.118   8.166  0.2441 -2.9250 -0.4668
 6116SOL    HW219399   2.427   5.042   8.053 -0.4941  0.7401 -2.6585
 6117SOL     OW19400   0.167   5.692   0.259  0.6101  0.7830 -0.0859
 6117SOL    HW119401   0.145   5.692   0.166  0.9537  0.7301 -0.1680
 6117SOL    HW219402   0.141   5.779   0.290 -0.1715  0.5500 -0.0679
 6118SOL     OW19403   0.336   0.946   4.941  0.3929  0.2173  0.0693
 6118SOL    HW119404   0.295   0.861   4.953  1.2839 -0.3303 -0.6211
 6118SOL    HW219405   0.384   0.938   4.859  1.1401  1.1178  0.3980
 6119SOL     OW19406   6.661   0.838   4.503  0.1255  0.2095 -0.8271
 6119SOL    HW119407   6.616   0.794   4.432 -1.5998  0.5645 -0.0037
 6119SOL    HW219408   6.603   0.910   4.528  1.2749  0.8648  0.1079
 6120SOL     OW19409   0.284   2.993   2.331 -0.0927  0.4775  0.0296
 6120SOL    HW119410   0.328   3.003   2.415 -0.3011  0.8023  0.1037
 6120SOL    HW219411   0.204   3.046   2.339  0.1572  0.9706 -0.5625
 6121SOL     OW19412   3.536   0.012   1.289 -0.1475 -0.1956  0.1450
 6121SOL    HW119413   3.629   0.012   1.266  0.0849  1.0806  0.9775
 6121SOL    HW219414   3.523  -0.072   1.334  1.2107  0.5766  2.1424
 6122SOL     OW19415   6.679   3.302   5.754 -0.1546 -0.1954  0.3435
 6122SOL    HW119416   6.603   3.282   5.809 -0.9890 -0.8792 -0.9876
 6122SOL    HW219417   6.690   3.397   5.762 -0.8670 -0.1500  0.9142
 6123SOL     OW19418   4.378   4.015   7.373 -0.2325  0.0395  0.4420
 6123SOL    HW119419   4.345   4.084   7.431 -1.5099  0.4128 -0.6969
 6123SOL    HW219420   4.402   4.060   7.293 -0.8514 -0.7897 -0.2301
 6124SOL     OW19421   3.612   5.925   4.312  0.7536  0.7302  0.1707
 6124SOL    HW119422   3.604   5.830   4.302  1.0120  0.9514 -2.9306
 6124SOL    HW219423   3.683   5.935   4.376  0.1897 -1.1216  1.1795
 6125SOL     OW19424   4.826   7.698   0.237  0.2380 -0.2894  0.1078
 6125SOL    HW119425   4.897   7.710   0.175  0.6162  0.1144  0.6092
 6125SOL    HW219426   4.806   7.605   0.234  1.4290 -0.5782  0.6559
 6126SOL     OW19427   7.611   1.647   6.685 -0.3821 -0.1285 -0.2680
 6126SOL    HW119428   7.627   1.554   6.667  0.7634 -0.3071  1.4276
 6126SOL    HW219429   7.635   1.691   6.604 -0.1803 -1.2500 -0.8440
 6127SOL     OW19430   5.518   4.078   1.070 -0.1020  0.2541  0.5966
 6127SOL    HW119431   5.610   4.103   1.066 -0.3135  0.9689 -0.2258
 6127SOL    HW219432   5.476   4.148   1.121 -0.4495  0.8324 -0.4458
 6128SOL     OW19433   6.240   2.766   3.021 -0.3644  0.0176 -0.1675
 6128SOL    HW119434   6.168   2.801   2.968  0.8020  0.9001 -1.2188
 6128SOL    HW219435   6.313   2.757   2.960  0.2801 -1.3666  0.7639
 6129SOL     OW19436   2.801   4.761   4.225 -0.1045 -0.2038 -0.0699
 6129SOL    HW119437   2.732   4.770   4.291  0.1221  0.2266  0.1119
 6129SOL    HW219438   2.764   4.802   4.147 -0.4721 -0.9425 -0.2896
 6130SOL     OW19439   6.965   1.565   2.703 -0.0665  0.4146 -0.1983
 6130SOL    HW119440   7.032   1.516   2.750 -0.9208 -0.2517  0.3444
 6130SOL    HW219441   7.014   1.624   2.646  0.9793 -0.6158 -0.3979
 6131SOL     OW19442   2.237   2.158   7.599 -0.1941 -0.2687  0.1657
 6131SOL    HW119443   2.308   2.095   7.583 -0.9308 -0.8964 -0.7173
 6131SOL    HW219444   2.177   2.111   7.657 -1.6597 -1.1245 -1.9308
 6132SOL     OW19445   3.497   4.241   7.964 -0.1511 -0.4067  1.0037
 6132SOL    HW119446   3.489   4.146   7.956 -1.2242 -0.2099 -0.8285
 6132SOL    HW219447   3.419   4.267   8.013  0.5410 -0.5035  2.2096
 6133SOL     OW19448   2.985   2.290   6.656 -0.9420 -0.0698  0.0902
 6133SOL    HW119449   3.015   2.219   6.599 -2.3737 -0.7267  0.1263
 6133SOL    HW219450   3.057   2.354   6.654  0.7726 -1.8582  0.6968
 6134SOL     OW19451   0.263   0.604   1.050 -0.1151  0.3967 -0.0741
 6134SOL    HW119452   0.312   0.621   0.970  0.1889  0.8554  0.2041
 6134SOL    HW219453   0.217   0.686   1.068 -0.2227  0.2811  0.1907
 6135SOL     OW19454   3.161   3.577   5.271 -0.1778  0.1701  0.6620
 6135SOL    HW119455   3.167   3.659   5.221  1.0385  0.7142  1.6560
 6135SOL    HW219456   3.223   3.588   5.342 -2.5764 -0.1641  2.9586
 6136SOL     OW19457   6.593   6.727   0.951 -0.0911  0.1990  0.0733
 6136SOL    HW119458   6.498   6.736   0.939 -0.2831 -0.2813  1.1106
 6136SOL    HW219459   6.606   6.733   1.046  1.1007  1.8320 -0.1533
 6137SOL     OW19460   1.364   7.808   5.162  0.6511 -0.2087  0.3931
 6137SOL    HW119461   1.397   7.720   5.146  2.0133  0.0440  1.6171
 6137SOL    HW219462   1.390   7.859   5.085 -0.5626 -0.9590 -0.5373
 6138SOL     OW19463   2.230   3.316   6.614  0.1956  0.2675 -0.0541
 6138SOL    HW119464   2.260   3.243   6.669  0.3029  0.2747 -0.1021
 6138SOL    HW219465   2.296   3.384   6.628 -0.1057  0.4925  0.2816
 6139SOL     OW19466   1.687   8.055   2.398 -0.1997 -0.5014  0.1832
 6139SOL    HW119467   1.757   8.083   2.457 -0.1668 -1.3282  0.5480
 6139SOL    HW219468   1.729   8.052   2.311 -0.2979  0.9019  0.0611
 6140SOL     OW19469   4.492   4.994   0.473  0.2355  0.2267  0.2586
 6140SOL    HW119470   4.487   5.026   0.383 -0.0303 -0.5043  0.0078
 6140SOL    HW219471   4.583   4.965   0.483  0.3267  0.5163  0.3091
 6141SOL     OW19472   7.518   2.279   1.319 -0.2522  0.2899 -0.4101
 6141SOL    HW119473   7.592   2.223   1.296 -0.9487 -1.2492  0.9357
 6141SOL    HW219474   7.498   2.257   1.410 -1.4523  1.7296 -0.2821
 6142SOL     OW19475   4.633   3.152   3.807 -0.2333  0.7941 -0.0301
 6142SOL    HW119476   4.609   3.244   3.808 -0.5578  0.7444  2.1405
 6142SOL    HW219477   4.573   3.111   3.745 -0.0893  2.0298 -1.0026
 6143SOL     OW19478   6.507   7.446   2.772 -0.1544  0.2177  0.0244
 6143SOL    HW119479   6.472   7.490   2.849 -1.2296  0.1747 -0.4147
 6143SOL    HW219480   6.495   7.352   2.789 -1.2213  0.2316 -0.5424
 6144SOL     OW19481   5.674   3.106   6.242  0.0726 -0.2241 -0.8231
 6144SOL    HW119482   5.591   3.116   6.290  0.2841  1.2965 -0.6999
 6144SOL    HW219483   5.702   3.017   6.261 -1.1388 -0.5005 -0.2060
 6145SOL     OW19484   1.241   7.014   3.226  0.1453  0.1650 -0.7619
 6145SOL    HW119485   1.278   6.977   3.146  4.1615  2.8963 -0.4694
 6145SOL    HW219486   1.263   6.950   3.294  0.6187 -0.1880 -1.2352
 6146SOL     OW19487   4.603   4.957   2.330  0.0362 -0.5502 -0.1792
 6146SOL    HW119488   4.592   5.052   2.325 -0.9796 -0.5117  1.8562
 6146SOL    HW219489   4.682   4.939   2.279  0.3704  1.4018 -0.4197
 6147SOL     OW19490   3.338   3.010   6.186  0.1710 -0.1758 -0.2520
 6147SOL    HW119491   3.383   2.979   6.107 -0.9974  0.6568 -1.2885
 6147SOL    HW219492   3.344   3.106   6.180 -2.3531  0.0029 -0.8491
 6148SOL     OW19493   2.761   3.543   0.840  0.2191  0.4061 -0.1596
 6148SOL    HW119494   2.732   3.481   0.907  1.0671  0.7006  0.5031
 6148SOL    HW219495   2.750   3.496   0.758 -2.4518  0.6187 -0.0317
 6149SOL     OW19496   1.435   0.172   0.135 -0.0601 -0.7277  0.2352
 6149SOL    HW119497   1.373   0.147   0.203 -0.9710  1.6181  0.3758
 6149SOL    HW219498   1.387   0.159   0.053 -0.1145 -0.5490  0.2385
 6150SOL     OW19499   6.016   7.002   6.415  0.3386  0.3156  0.0379
 6150SOL    HW119500   5.994   6.999   6.322 -0.7069 -1.6445  0.2804
 6150SOL    HW219501   6.061   7.085   6.427  3.6499 -0.8091 -2.9170
 6151SOL     OW19502   4.930   5.736   1.619  0.9390 -0.3598  0.4918
 6151SOL    HW119503   4.858   5.753   1.680  1.6184  0.1260  1.1792
 6151SOL    HW219504   5.002   5.706   1.675  0.6244 -3.0220 -0.3934
 6152SOL     OW19505   3.077   6.056   1.231  0.0102 -0.3275  0.0667
 6152SOL    HW119506   3.171   6.047   1.248 -0.1213 -0.4192  0.7862
 6152SOL    HW219507   3.053   6.139   1.272 -0.0737  0.0990 -0.8187
 6153SOL     OW19508   7.396   6.720   2.365 -0.5028 -0.9093 -0.2115
 6153SOL    HW119509   7.398   6.700   2.459  2.5788  0.8518  0.2346
 6153SOL    HW219510   7.432   6.809   2.360 -2.1910 -0.2843 -2.9681
 6154SOL     OW19511   3.677   0.012   4.698  0.1766 -0.1028 -0.4197
 6154SOL    HW119512   3.680  -0.080   4.672 -1.1271 -0.7521  1.4862
 6154SOL    HW219513   3.731   0.017   4.776  0.3360  0.8023 -0.5761
 6155SOL     OW19514   7.679   0.686   0.198  0.0991  0.4712 -0.0709
 6155SOL    HW119515   7.697   0.690   0.292  0.3348  1.1068 -0.1347
 6155SOL    HW219516   7.583   0.695   0.192 -0.0313 -0.6066  0.1513
 6156SOL     OW19517   7.633   8.016   5.007 -0.1622 -0.5243 -0.0454
 6156SOL    HW119518   7.609   7.937   5.055 -0.0539 -0.7200 -0.3113
 6156SOL    HW219519   7.723   8.035   5.036 -0.2340 -0.4241  0.1145
 6157SOL     OW19520   0.977   4.270   6.403  0.5572 -0.0678  0.1171
 6157SOL    HW119521   0.929   4.277   6.485  0.9116 -0.3810  0.3550
 6157SOL    HW219522   1.003   4.178   6.398 -0.0884 -0.2216 -0.7035
 6158SOL     OW19523   3.020   3.002   2.933 -0.1817  0.3617 -0.3555
 6158SOL    HW119524   3.085   2.945   2.891 -1.7493 -2.0755  0.3083
 6158SOL    HW219525   3.072   3.070   2.976  1.7405  0.0098 -1.9841
 6159SOL     OW19526   5.671   4.793   1.724 -0.4104 -0.0582 -0.9958
 6159SOL    HW119527   5.744   4.736   1.701 -0.5870 -1.0932  0.8616
 6159SOL    HW219528   5.702   4.843   1.799 -1.5475 -0.4066 -0.2731
 6160SOL     OW19529   1.953   6.897   0.065 -0.1181 -0.0527  0.3213
 6160SOL    HW119530   1.888   6.944   0.013 -0.4350 -2.6931 -1.9162
 6160SOL    HW219531   2.037   6.925   0.029 -0.1886  0.4939  0.5759
 6161SOL     OW19532   3.337   0.171   4.338 -0.2980 -0.1793 -0.0522
 6161SOL    HW119533   3.360   0.251   4.290 -1.3520  1.6433  2.2892
 6161SOL    HW219534   3.255   0.142   4.298 -0.4858  0.5490 -0.2080
 6162SOL     OW19535   1.179   4.914   3.826 -0.5729  0.3688 -0.2192
 6162SOL    HW119536   1.254   4.921   3.886  0.0739 -0.8984 -0.8323
 6162SOL    HW219537   1.111   4.966   3.867 -0.5734 -1.4214  2.3039
 6163SOL     OW19538   6.164   6.000   5.265  0.0191 -0.3554  0.5420
 6163SOL    HW119539   6.116   5.918   5.252 -1.2213  0.1708  1.5601
 6163SOL    HW219540   6.203   5.992   5.352  1.6413 -0.6805 -0.1892
 6164SOL     OW19541   2.422   1.658   4.213 -0.0883  0.2317 -0.3016
 6164SOL    HW119542   2.477   1.732   4.236  0.9051 -0.7534  0.6228
 6164SOL    HW219543   2.434   1.596   4.285 -0.4918 -1.0301 -1.2856
 6165SOL     OW19544   5.845   0.536   6.998  0.2253 -0.2938 -0.2422
 6165SOL    HW119545   5.762   0.495   7.022 -0.2424  0.8313  0.1248
 6165SOL    HW219546   5.819   0.611   6.944  0.8570  1.2037  1.4347
 6166SOL     OW19547   3.828   5.247   7.643  0.0750 -0.1082  0.0936
 6166SOL    HW119548   3.876   5.190   7.583 -0.5683  0.6588 -1.2161
 6166SOL    HW219549   3.788   5.313   7.586  0.6921  1.5839  1.5159
 6167SOL     OW19550   5.962   4.999   5.525  0.6056  0.4169 -0.1680
 6167SOL    HW119551   5.934   5.024   5.613  0.2139  0.9057 -0.4285
 6167SOL    HW219552   5.893   5.031   5.468 -0.6290 -2.4377 -0.4229
 6168SOL     OW19553   3.857   6.556   2.521  0.4528 -0.1710 -0.0266
 6168SOL    HW119554   3.911   6.606   2.459  2.2585 -1.3760  0.4822
 6168SOL    HW219555   3.863   6.466   2.490 -1.3319 -0.3366  0.0558
 6169SOL     OW19556   6.270   7.390   4.469 -0.5532  0.2566  0.7304
 6169SOL    HW119557   6.259   7.315   4.528 -1.4591  1.2751  1.9136
 6169SOL    HW219558   6.318   7.454   4.521  0.5957  0.3502 -0.4175
 6170SOL     OW19559   2.904   0.616   1.988 -0.6691  0.0455 -0.0452
 6170SOL    HW119560   2.843   0.586   1.920 -0.2480  1.4264 -1.0646
 6170SOL    HW219561   2.989   0.616   1.946 -0.6271  2.5680 -0.1061
 6171SOL     OW19562   0.748   6.683   0.437 -0.5402 -0.3698  0.0058
 6171SOL    HW119563   0.785   6.629   0.508  2.4453  0.4369 -0.7670
 6171SOL    HW219564   0.764   6.773   0.465 -0.3560 -0.0194 -1.1776
 6172SOL     OW19565   0.212   3.857   7.628  0.4357 -0.1928 -0.1373
 6172SOL    HW119566   0.258   3.816   7.555 -0.4301 -0.0402 -0.7868
 6172SOL    HW219567   0.271   3.846   7.703  1.3004 -0.4326 -0.8335
 6173SOL     OW19568   0.700   1.312   6.543  0.2431 -0.1171 -0.6982
 6173SOL    HW119569   0.629   1.252   6.566 -0.1289  0.4722 -0.2960
 6173SOL    HW219570   0.723   1.289   6.453  1.3515 -2.1079  0.0113
 6174SOL     OW19571   4.149   7.831   7.169  0.0403 -0.4184 -0.6508
 6174SOL    HW119572   4.243   7.812   7.165  0.5505  1.9151 -1.4409
 6174SOL    HW219573   4.144   7.926   7.166 -2.3793 -0.4869 -0.6183
 6175SOL     OW19574   5.175   5.280   2.304  0.3545  0.1511  0.1226
 6175SOL    HW119575   5.153   5.373   2.295  0.5557  0.5796  3.1203
 6175SOL    HW219576   5.263   5.272   2.268  0.7299  1.3524  0.7299
 6176SOL     OW19577   3.304   2.188   2.777  0.0268  0.2106  0.3922
 6176SOL    HW119578   3.293   2.110   2.831 -0.5750  0.1139  0.1384
 6176SOL    HW219579   3.349   2.156   2.699 -2.2189 -0.3659 -0.7543
 6177SOL     OW19580   1.333   7.166   2.152 -0.2637  0.1591  0.0345
 6177SOL    HW119581   1.389   7.226   2.103  1.3734  0.0261  1.6410
 6177SOL    HW219582   1.330   7.203   2.240 -1.0561 -0.9320  0.4879
 6178SOL     OW19583   1.421   0.345   2.272 -0.6997  0.4166  0.0817
 6178SOL    HW119584   1.374   0.275   2.317 -1.4113  1.4633  1.0155
 6178SOL    HW219585   1.353   0.394   2.226 -0.6370  2.1983  1.7927
 6179SOL     OW19586   5.328   8.129   5.814  0.1708 -0.2453  0.0222
 6179SOL    HW119587   5.280   8.112   5.732 -2.5376  2.0698  0.9446
 6179SOL    HW219588   5.377   8.210   5.796 -0.1235  0.0533  0.5470
 6180SOL     OW19589   7.820   2.030   3.289  0.6977  0.4282 -0.0165
 6180SOL    HW119590   7.747   2.043   3.350  0.8023 -0.2507  0.2664
 6180SOL    HW219591   7.876   2.106   3.302  0.0809  0.9132 -0.1728
 6181SOL     OW19592   0.095   3.829   0.050 -0.8117 -0.0986 -0.6899
 6181SOL    HW119593   0.076   3.735   0.048 -0.7428 -0.0980 -1.6160
 6181SOL    HW219594   0.046   3.865  -0.024 -2.7728  0.9885  1.0349
 6182SOL     OW19595   7.096   2.325   7.945 -0.2580 -0.6800  0.0288
 6182SOL    HW119596   7.013   2.369   7.963 -1.7076 -2.8660 -1.0152
 6182SOL    HW219597   7.142   2.384   7.885 -0.8766  0.6773  0.8289
 6183SOL     OW19598   4.446   1.307   7.388 -0.3130 -0.4415 -0.1499
 6183SOL    HW119599   4.445   1.229   7.333  0.2596 -1.9473  1.8612
 6183SOL    HW219600   4.414   1.278   7.473  0.4590  1.3661  0.8302
 6184SOL     OW19601   6.881   3.747   7.938  0.3081  0.2245 -0.2667
 6184SOL    HW119602   6.961   3.794   7.916 -0.5383  1.3057 -1.1480
 6184SOL    HW219603   6.822   3.814   7.972 -1.1955 -0.0070 -2.2452
 6185SOL     OW19604   5.660   0.119   0.670 -0.0114 -0.0378 -0.3678
 6185SOL    HW119605   5.736   0.091   0.720 -0.1309 -1.9645 -1.1767
 6185SOL    HW219606   5.588   0.066   0.705 -1.0568  1.8498  0.4818
 6186SOL     OW19607   8.068   2.852   2.968  0.6033 -0.1238 -0.6106
 6186SOL    HW119608   7.997   2.910   2.994 -0.7414 -2.3243  0.9334
 6186SOL    HW219609   8.134   2.862   3.036  1.0038  0.5830 -1.0892
 6187SOL     OW19610   1.821   2.100   1.008  0.1566  0.5103  0.2631
 6187SOL    HW119611   1.905   2.068   0.976  0.4278  0.6323  0.8342
 6187SOL    HW219612   1.761   2.027   0.994 -0.4029  1.4137 -2.9658
 6188SOL     OW19613   3.231   7.219   0.324 -0.4719  0.1850  0.2443
 6188SOL    HW119614   3.233   7.315   0.327 -0.1128  0.2296 -0.9857
 6188SOL    HW219615   3.240   7.198   0.231  1.7272 -1.0940  0.6944
 6189SOL     OW19616   7.682   2.758   5.889  0.5960  0.2531 -0.2082
 6189SOL    HW119617   7.593   2.749   5.853  0.5858 -2.3217  0.2479
 6189SOL    HW219618   7.735   2.783   5.814 -0.4081  1.2279 -0.6232
 6190SOL     OW19619   5.549   2.838   5.386  0.0950 -0.2663  0.2338
 6190SOL    HW119620   5.459   2.806   5.397 -0.0488  0.1977  0.4202
 6190SOL    HW219621   5.562   2.898   5.459  0.3195  0.1949 -0.1801
 6191SOL     OW19622   7.500   2.647   2.617  0.2157 -0.3660 -0.0958
 6191SOL    HW119623   7.505   2.568   2.671 -0.9006 -0.5708 -0.2667
 6191SOL    HW219624   7.434   2.701   2.659  1.9283  1.1396  0.8084
 6192SOL     OW19625   3.006   5.764   4.160 -0.1594 -0.4920 -0.2895
 6192SOL    HW119626   3.030   5.791   4.249  1.2094  1.9742 -1.2880
 6192SOL    HW219627   3.048   5.679   4.149  1.0335 -0.1002  0.8983
 6193SOL     OW19628   6.271   7.750   4.436 -0.5318 -0.0842 -0.2447
 6193SOL    HW119629   6.323   7.826   4.409 -0.6959 -0.3794 -1.4375
 6193SOL    HW219630   6.281   7.747   4.531  2.8628 -0.9723 -0.4972
 6194SOL     OW19631   0.211   7.559   7.810 -0.1009 -0.0191  0.6347
 6194SOL    HW119632   0.209   7.487   7.747 -2.5451 -0.1434  0.7756
 6194SOL    HW219633   0.171   7.633   7.765 -1.0506  0.1498  1.7036
 6195SOL     OW19634   7.697   5.424   4.673  0.3949  0.4168 -0.1516
 6195SOL    HW119635   7.691   5.412   4.768 -1.6105 -1.9008 -0.4649
 6195SOL    HW219636   7.679   5.337   4.638  0.6594  1.3257 -2.6970
 6196SOL     OW19637   2.385   4.939   4.363 -0.4611  0.3788  0.0032
 6196SOL    HW119638   2.355   4.982   4.443 -3.2470 -1.0280 -0.1449
 6196SOL    HW219639   2.343   4.988   4.292 -0.0046  0.1466 -0.4283
 6197SOL     OW19640   2.758   5.361   5.160  0.4441  0.4959 -0.5783
 6197SOL    HW119641   2.851   5.373   5.141  0.4814 -0.0845 -0.7663
 6197SOL    HW219642   2.748   5.267   5.178 -0.0189  0.6273 -0.0902
 6198SOL     OW19643   0.468   3.557   0.483  0.1225  0.3942  0.4691
 6198SOL    HW119644   0.377   3.588   0.479  0.1506  0.3640 -0.9490
 6198SOL    HW219645   0.468   3.476   0.432  0.4659 -0.9636  2.4787
 6199SOL     OW19646   2.952   5.143   7.352 -0.1251 -0.5695  0.5501
 6199SOL    HW119647   3.018   5.135   7.282  1.3300 -2.2672  2.0131
 6199SOL    HW219648   2.880   5.087   7.322  0.9669 -2.2269  0.8415
 6200SOL     OW19649   4.678   8.022   6.432 -0.4307  0.5423 -0.7144
 6200SOL    HW119650   4.670   7.950   6.369 -1.8423 -0.4017  0.4476
 6200SOL    HW219651   4.758   8.068   6.407 -0.0554 -0.7983 -2.1462
 6201SOL     OW19652   5.664   6.086   5.350  0.1307  0.0341  0.1975
 6201SOL    HW119653   5.724   6.155   5.377 -0.1239  0.6821 -0.8589
 6201SOL    HW219654   5.581   6.131   5.332 -0.2830 -0.6631  0.3033
 6202SOL     OW19655   0.039   2.329   4.919  0.5591 -0.1718  0.1815
 6202SOL    HW119656  -0.045   2.340   4.874  0.2132  1.7126  1.2342
 6202SOL    HW219657   0.101   2.381   4.868  0.1726  1.9523  1.7732
 6203SOL     OW19658   7.312   2.399   2.316 -0.4791  0.0898 -0.3636
 6203SOL    HW119659   7.371   2.333   2.354  0.0839 -0.2159 -1.7047
 6203SOL    HW219660   7.237   2.349   2.286  0.0321  0.0054 -1.5540
 6204SOL     OW19661   2.982   6.069   7.532  0.2354 -0.1357 -0.0827
 6204SOL    HW119662   2.953   5.997   7.588  0.3555 -0.3182 -0.2527
 6204SOL    HW219663   2.960   6.148   7.581 -2.4217 -0.1699 -1.0340
 6205SOL     OW19664   4.546   4.944   6.126  0.3840 -0.2261  0.0455
 6205SOL    HW119665   4.460   4.934   6.167  0.2572  2.0212  0.4946
 6205SOL    HW219666   4.530   4.931   6.033 -0.2603 -0.7628  0.2251
 6206SOL     OW19667   2.600   1.841   7.926 -0.3072 -0.3825  0.0803
 6206SOL    HW119668   2.510   1.848   7.893  0.6288  1.1123 -2.5260
 6206SOL    HW219669   2.619   1.748   7.925 -1.7643 -0.7102  0.5408
 6207SOL     OW19670   0.876   0.567   3.163  0.0096  0.3527  0.2288
 6207SOL    HW119671   0.855   0.646   3.214 -1.1088 -0.5447  1.2081
 6207SOL    HW219672   0.963   0.541   3.194 -0.3104  0.2864  1.0990
 6208SOL     OW19673   4.649   8.011   4.025  0.4194  0.2324 -0.4599
 6208SOL    HW119674   4.576   8.056   4.067  0.0809 -0.8856  0.1840
 6208SOL    HW219675   4.615   7.983   3.940 -0.2434 -1.1153  0.2140
 6209SOL     OW19676   1.953   5.524   0.507  0.2539 -0.0133  0.3516
 6209SOL    HW119677   1.925   5.615   0.516  1.8193  0.6805 -1.1797
 6209SOL    HW219678   1.928   5.500   0.418  1.0692 -0.6114  0.2712
 6210SOL     OW19679   0.559   6.112   2.690  0.4966 -0.1772 -0.1724
 6210SOL    HW119680   0.591   6.196   2.724  1.7438  0.1037 -1.8921
 6210SOL    HW219681   0.466   6.127   2.673  0.8050  1.0260 -0.9083
 6211SOL     OW19682   8.058   1.590   0.820 -0.3639 -0.4675  0.0568
 6211SOL    HW119683   8.118   1.538   0.873 -0.5930  1.5254  2.5270
 6211SOL    HW219684   7.992   1.528   0.789 -0.3757 -1.7511  2.4377
 6212SOL     OW19685   5.662   0.145   6.629  0.2323  0.0878  0.2409
 6212SOL    HW119686   5.736   0.171   6.575  1.5450  0.3293  2.0800
 6212SOL    HW219687   5.637   0.059   6.596  2.0035 -0.4560  0.2551
 6213SOL     OW19688   1.287   7.700   4.231  0.4567  0.5057 -0.1111
 6213SOL    HW119689   1.361   7.730   4.178  0.2231  1.5679  0.1227
 6213SOL    HW219690   1.324   7.635   4.290  1.5254  1.9597  0.9094
 6214SOL     OW19691   0.729   3.020   0.348 -0.1453  0.0612 -0.4859
 6214SOL    HW119692   0.823   3.001   0.351  0.0949  1.0430 -1.3417
 6214SOL    HW219693   0.691   2.947   0.300  0.5345  0.8373 -2.2857
 6215SOL     OW19694   7.525   2.349   0.050  0.3022  0.5736 -0.0364
 6215SOL    HW119695   7.522   2.293   0.127 -0.4582  1.0521  0.2997
 6215SOL    HW219696   7.460   2.417   0.068  0.9336  1.3428 -0.5986
 6216SOL     OW19697   5.062   2.089   0.641 -0.2276  0.4011 -0.3390
 6216SOL    HW119698   5.101   2.015   0.688 -0.5151  0.4830  0.0340
 6216SOL    HW219699   5.028   2.146   0.710 -0.0766  0.8445 -0.6279
 6217SOL     OW19700   1.246   0.101   6.211  0.7036  0.1752 -0.6986
 6217SOL    HW119701   1.270   0.025   6.157  0.5996  0.3963 -1.0639
 6217SOL    HW219702   1.163   0.130   6.173 -0.5702 -1.0281  0.9939
 6218SOL     OW19703   4.238   3.654   2.160  0.3183 -0.1279  0.2456
 6218SOL    HW119704   4.167   3.707   2.196  0.8700  1.6077 -1.0882
 6218SOL    HW219705   4.245   3.580   2.220 -2.2192 -0.0656  0.7333
 6219SOL     OW19706   2.532   3.581   2.330 -0.3812  0.4767  0.4948
 6219SOL    HW119707   2.626   3.592   2.316 -0.5482 -0.9277 -2.2563
 6219SOL    HW219708   2.508   3.654   2.388  2.1859  1.5105  0.3824
 6220SOL     OW19709   8.119   8.064   8.062  0.1764 -0.2835 -0.6226
 6220SOL    HW119710   8.144   7.974   8.044  0.3276 -0.3093 -0.2828
 6220SOL    HW219711   8.185   8.117   8.017  1.4986 -0.3487  1.1387
 6221SOL     OW19712   3.494   1.871   1.723  0.4413  0.2967 -0.0633
 6221SOL    HW119713   3.532   1.958   1.708  0.6976  0.2468  0.2977
 6221SOL    HW219714   3.483   1.835   1.635  0.1091  0.7875 -0.2333
 6222SOL     OW19715   5.222   3.077   3.625 -0.0936  0.5019  0.1935
 6222SOL    HW119716   5.241   3.000   3.679 -0.3071  0.4576  0.2064
 6222SOL    HW219717   5.175   3.042   3.549  0.7299  0.4823 -0.3255
 6223SOL     OW19718   6.505   4.229   2.978 -0.1048 -0.0611  0.5955
 6223SOL    HW119719   6.433   4.170   2.954  1.5164 -1.5602 -0.8752
 6223SOL    HW219720   6.462   4.313   2.996 -2.2343 -0.9470 -0.0277
 6224SOL     OW19721   6.164   7.551   8.073  0.0700  0.3928 -0.1367
 6224SOL    HW119722   6.224   7.581   8.141  1.4667 -2.1865 -0.1390
 6224SOL    HW219723   6.115   7.630   8.048  0.7456  1.7683  2.5764
 6225SOL     OW19724   5.615   0.208   7.704  0.2141 -0.2383 -0.2162
 6225SOL    HW119725   5.665   0.286   7.678  0.7286 -0.9668 -1.5204
 6225SOL    HW219726   5.667   0.134   7.672  0.5601 -1.2314  2.4222
 6226SOL     OW19727   6.867   2.026   7.066  0.5393 -0.6405  0.0640
 6226SOL    HW119728   6.813   2.103   7.082  0.8223 -0.5114  0.4087
 6226SOL    HW219729   6.841   1.964   7.134  2.9401  0.5249  2.2519
 6227SOL     OW19730   4.039   5.555   1.003  0.1091  0.4899 -0.0288
 6227SOL    HW119731   4.120   5.510   0.978  2.4998  3.3648  1.8910
 6227SOL    HW219732   3.972   5.487   0.998  2.7727 -2.3232 -0.7897
 6228SOL     OW19733   0.393   5.469   0.049  0.3524  0.2527 -0.0868
 6228SOL    HW119734   0.315   5.477  -0.006 -1.8065  0.4426  2.7494
 6228SOL    HW219735   0.422   5.560   0.063 -0.0129  0.3117  0.2942
 6229SOL     OW19736   3.886   3.472   6.754  0.6715 -0.2687 -0.2220
 6229SOL    HW119737   3.876   3.382   6.785  1.7155 -0.2848  0.1115
 6229SOL    HW219738   3.883   3.465   6.659 -1.5613 -0.3440 -0.2028
 6230SOL     OW19739   2.023   5.826   1.314 -0.5340  0.0328  0.0047
 6230SOL    HW119740   1.993   5.854   1.228  1.2522 -1.1771 -1.0687
 6230SOL    HW219741   1.978   5.743   1.330 -0.6655  0.1251  0.1116
 6231SOL     OW19742   1.060   6.049   4.793 -0.0262  0.3569 -0.7206
 6231SOL    HW119743   1.066   5.956   4.812  0.3691  0.4668 -0.2804
 6231SOL    HW219744   1.151   6.078   4.786 -0.0880  0.9998  0.6448
 6232SOL     OW19745   1.771   5.062   5.560  0.4060  0.1583  0.0241
 6232SOL    HW119746   1.718   5.060   5.480 -1.3344 -2.0957  1.1189
 6232SOL    HW219747   1.819   4.979   5.559  0.5236  0.1983  1.1947
 6233SOL     OW19748   7.807   0.927   2.402 -0.2085  0.6402 -0.6853
 6233SOL    HW119749   7.817   0.933   2.497 -0.2733  0.3532 -0.6598
 6233SOL    HW219750   7.732   0.869   2.389  1.9745 -2.4352 -0.9100
 6234SOL     OW19751   1.118   3.420   6.349 -0.0655  0.0905  0.4641
 6234SOL    HW119752   1.042   3.454   6.396 -0.5526 -0.2198 -0.0890
 6234SOL    HW219753   1.173   3.497   6.333  0.3140  0.1475  1.8806
 6235SOL     OW19754   1.918   6.761   7.617  0.4294  0.0733 -0.5091
 6235SOL    HW119755   1.900   6.845   7.659  0.9131 -0.0215 -0.1095
 6235SOL    HW219756   1.916   6.780   7.523  0.5447  0.5301 -0.4204
 6236SOL     OW19757   4.003   1.162   4.933 -0.5408 -0.0838  0.1274
 6236SOL    HW119758   4.001   1.094   5.001 -0.1689 -0.4450 -0.2185
 6236SOL    HW219759   3.925   1.146   4.881  0.6200 -1.6313 -1.2668
 6237SOL     OW19760   6.987   3.435   3.817  0.6606  0.2582  0.0059
 6237SOL    HW119761   6.908   3.382   3.811  1.4573 -1.1427  1.2206
 6237SOL    HW219762   7.043   3.402   3.746  0.7046  0.2574  0.0405
 6238SOL     OW19763   6.803   0.023   3.054 -0.1583  0.2199 -0.0889
 6238SOL    HW119764   6.860   0.080   3.107  0.3166 -0.7745  0.4950
 6238SOL    HW219765   6.836  -0.065   3.070 -1.0037 -0.2463 -0.8403
 6239SOL     OW19766   7.033   5.894   5.866  0.6764  0.0126  0.2710
 6239SOL    HW119767   7.078   5.814   5.838 -0.7630 -0.7007 -0.0622
 6239SOL    HW219768   6.948   5.865   5.898  0.3220  1.3635  0.6538
 6240SOL     OW19769   2.426   6.502   1.562  0.3177 -0.2524  0.1035
 6240SOL    HW119770   2.400   6.525   1.472 -1.8991  0.7043  0.9088
 6240SOL    HW219771   2.466   6.582   1.596  1.9583 -0.8760 -0.2382
 6241SOL     OW19772   3.804   2.260   4.288 -0.0885  0.2946  0.7732
 6241SOL    HW119773   3.728   2.271   4.345  1.6434  1.7122  2.9954
 6241SOL    HW219774   3.821   2.348   4.254  0.6487  0.0291  0.4388
 6242SOL     OW19775   6.289   4.604   4.420 -0.0079  0.0274  0.0360
 6242SOL    HW119776   6.246   4.553   4.488 -0.3202  0.2130 -0.0187
 6242SOL    HW219777   6.319   4.683   4.464  0.3096 -0.1151  0.0809
 6243SOL     OW19778   4.614   6.276   4.846 -0.2708  0.1768  0.0561
 6243SOL    HW119779   4.707   6.300   4.852 -0.2376  0.1016 -0.1530
 6243SOL    HW219780   4.615   6.181   4.836 -0.3704  0.1808  0.0174
 6244SOL     OW19781   7.909   7.556   2.528 -0.3711  0.5076 -0.2451
 6244SOL    HW119782   7.992   7.515   2.505 -0.8448 -0.7211  0.1326
 6244SOL    HW219783   7.931   7.648   2.541  0.7553  0.3762 -1.0245
 6245SOL     OW19784   5.263   2.442   1.801 -0.4071 -0.7200 -0.0852
 6245SOL    HW119785   5.243   2.421   1.892 -1.9602 -0.0532 -0.2419
 6245SOL    HW219786   5.353   2.476   1.803 -0.4117 -0.7413  1.1859
 6246SOL     OW19787   1.908   4.541   7.054  0.3075  0.2156  0.0119
 6246SOL    HW119788   1.907   4.533   6.959 -0.8566 -1.6583  0.1317
 6246SOL    HW219789   1.932   4.453   7.085  1.2947  0.9515  1.4523
 6247SOL     OW19790   1.618   5.586   4.266 -0.6753  0.0992 -1.1894
 6247SOL    HW119791   1.640   5.678   4.252 -0.4620  0.4143  0.9278
 6247SOL    HW219792   1.537   5.573   4.216 -0.7644  1.4665 -1.4439
 6248SOL     OW19793   6.125   7.635   2.736 -0.1261 -0.5790 -0.0142
 6248SOL    HW119794   6.055   7.572   2.751  1.6142 -2.7194 -0.3392
 6248SOL    HW219795   6.150   7.664   2.824 -1.4812  0.3340  0.0937
 6249SOL     OW19796   4.794   0.478   6.626 -0.5226  0.2278  0.1005
 6249SOL    HW119797   4.847   0.400   6.641 -0.1403  0.6615  1.0663
 6249SOL    HW219798   4.840   0.526   6.558 -0.5635 -0.1900 -0.2330
 6250SOL     OW19799   6.003   0.829   5.060  0.3110 -0.3695  0.1609
 6250SOL    HW119800   5.960   0.862   4.981 -0.6161 -0.3810  0.6502
 6250SOL    HW219801   6.016   0.736   5.044  0.0703 -0.3834  0.0522
 6251SOL     OW19802   2.802   0.103   5.496 -0.2972 -0.4354  0.1779
 6251SOL    HW119803   2.786   0.014   5.465 -0.9306 -0.1575 -0.3260
 6251SOL    HW219804   2.759   0.159   5.431  3.2195  0.4652 -1.6364
 6252SOL     OW19805   5.329   7.208   8.091 -0.2729  0.2607 -0.4528
 6252SOL    HW119806   5.364   7.146   8.028  1.1077  0.1334  0.3908
 6252SOL    HW219807   5.323   7.158   8.173 -1.2074  0.6526 -0.2720
 6253SOL     OW19808   6.907   6.218   4.368 -0.5341  0.0394  0.4958
 6253SOL    HW119809   6.913   6.307   4.333 -0.7579 -0.2004 -0.1500
 6253SOL    HW219810   6.856   6.169   4.303 -1.1029 -0.3666  1.2274
 6254SOL     OW19811   1.452   3.374   5.606  0.2171 -0.1309  0.1028
 6254SOL    HW119812   1.477   3.312   5.674 -0.3070  0.3540  0.7510
 6254SOL    HW219813   1.454   3.323   5.525 -1.8534 -1.4752  0.8097
 6255SOL     OW19814   2.472   6.244   6.161  0.2635  0.3435 -0.1619
 6255SOL    HW119815   2.548   6.214   6.110 -0.3388 -1.0773 -0.2667
 6255SOL    HW219816   2.439   6.165   6.204 -2.2802  0.5361 -1.5824
 6256SOL     OW19817   0.385   0.618   4.214  0.2385  0.3625  0.5227
 6256SOL    HW119818   0.308   0.563   4.227  0.1580 -0.1209 -1.5339
 6256SOL    HW219819   0.441   0.599   4.289 -1.1225 -0.1797  1.4395
 6257SOL     OW19820   1.343   7.218   6.343  0.2582  0.2750  0.4374
 6257SOL    HW119821   1.334   7.307   6.311 -1.0324 -0.6696 -2.1318
 6257SOL    HW219822   1.393   7.173   6.275 -0.5449 -1.3111  0.8368
 6258SOL     OW19823   7.382   4.625   7.388  0.0769 -0.4713  0.3444
 6258SOL    HW119824   7.327   4.684   7.438  0.5767 -0.3999  0.8206
 6258SOL    HW219825   7.364   4.538   7.424  0.6812 -0.3806  0.8918
 6259SOL     OW19826   5.773   7.870   0.435  0.0117 -0.0506  0.3447
 6259SOL    HW119827   5.759   7.874   0.340  1.1689 -0.5897  0.1382
 6259SOL    HW219828   5.759   7.960   0.464  0.0209  0.1982 -0.3909
 6260SOL     OW19829   6.909   5.414   5.479  0.1925 -0.7086  0.4619
 6260SOL    HW119830   6.831   5.368   5.449 -0.1183  0.5018 -0.6701
 6260SOL    HW219831   6.971   5.406   5.407  0.3939 -0.0014  0.5495
 6261SOL     OW19832   4.997   0.953   1.294  0.3599 -0.0556  0.2861
 6261SOL    HW119833   5.009   1.038   1.252  1.0035 -0.1221  0.3254
 6261SOL    HW219834   5.050   0.893   1.240  0.4405 -0.3094  0.6475
 6262SOL     OW19835   5.282   0.170   1.183 -0.3821 -0.1121  0.0347
 6262SOL    HW119836   5.308   0.155   1.092  0.3444 -0.9149  0.3540
 6262SOL    HW219837   5.285   0.082   1.223  0.1076  0.3367  1.0261
 6263SOL     OW19838   3.608   3.074   1.540  0.0286  0.2615  0.2960
 6263SOL    HW119839   3.621   2.979   1.536 -0.1116  0.1715  1.5952
 6263SOL    HW219840   3.637   3.099   1.628 -0.7265  1.3017  0.2686
 6264SOL     OW19841   6.889   1.386   7.735  0.5598  0.6339 -0.0398
 6264SOL    HW119842   6.953   1.315   7.744  1.1254  1.0192 -0.8607
 6264SOL    HW219843   6.919   1.453   7.797  0.2302  0.3144  0.4753
 6265SOL     OW19844   5.331   7.023   0.978 -0.2388  0.6987  0.4084
 6265SOL    HW119845   5.416   6.992   1.009  1.2845  2.0808 -2.0685
 6265SOL    HW219846   5.329   7.116   1.001 -0.6052  0.9218 -0.4962
 6266SOL     OW19847   1.448   7.434   1.625 -0.0854 -0.4248  0.0595
 6266SOL    HW119848   1.485   7.442   1.713 -0.7819 -0.4433  0.3612
 6266SOL    HW219849   1.469   7.345   1.597 -0.1025 -0.5122  0.3243
 6267SOL     OW19850   5.615   8.165   0.008  0.0383 -0.4625 -0.3656
 6267SOL    HW119851   5.620   8.114  -0.073  0.9190 -1.0356  0.0315
 6267SOL    HW219852   5.577   8.104   0.071 -1.1319  0.1498 -0.4671
 6268SOL     OW19853   6.708   5.506   2.664  0.2903  0.3284  0.1576
 6268SOL    HW119854   6.731   5.416   2.642 -1.7201 -0.4618  1.1136
 6268SOL    HW219855   6.762   5.525   2.741 -0.5226 -0.6822  0.9999
 6269SOL     OW19856   1.127   1.376   4.357  0.2101 -0.3780 -0.4126
 6269SOL    HW119857   1.038   1.361   4.389  1.1054 -2.9937  1.1578
 6269SOL    HW219858   1.124   1.350   4.265 -0.6656 -0.3288 -0.4091
 6270SOL     OW19859   1.847   1.977   7.145  0.2130  0.1786 -0.5492
 6270SOL    HW119860   1.788   1.915   7.187  0.4554  0.7155  0.6348
 6270SOL    HW219861   1.856   1.946   7.055  0.4581 -1.5834  0.0595
 6271SOL     OW19862   8.165   2.663   0.260 -0.7258  0.1898  0.1889
 6271SOL    HW119863   8.125   2.605   0.325  1.0745 -1.0546  0.2445
 6271SOL    HW219864   8.179   2.607   0.183  1.0355  0.4882  0.2432
 6272SOL     OW19865   7.189   5.753   2.810 -0.1694 -0.4240 -0.1839
 6272SOL    HW119866   7.225   5.841   2.810  0.8529 -0.8202  0.4545
 6272SOL    HW219867   7.187   5.727   2.718  0.3826 -0.0679 -0.2984
 6273SOL     OW19868   7.155   5.297   3.354 -0.3325 -0.1674 -0.1984
 6273SOL    HW119869   7.099   5.357   3.305 -1.1167 -0.5018  0.2741
 6273SOL    HW219870   7.134   5.210   3.319 -0.5088 -0.3504  0.3476
 6274SOL     OW19871   6.766   6.677   0.753 -0.1485  0.3115  0.4142
 6274SOL    HW119872   6.705   6.696   0.824 -1.1736 -0.2116 -0.2903
 6274SOL    HW219873   6.734   6.595   0.716  0.7816  0.2183 -0.2123
 6275SOL     OW19874   2.391   1.783   4.736  0.5825 -0.1283  0.1276
 6275SOL    HW119875   2.444   1.813   4.809 -0.4271  0.7941  0.5059
 6275SOL    HW219876   2.403   1.850   4.668  0.3544 -0.2086  0.0059
 6276SOL     OW19877   6.756   1.836   6.867  0.1483  0.0049  0.1295
 6276SOL    HW119878   6.665   1.814   6.888 -0.1563  1.3367  0.3013
 6276SOL    HW219879   6.773   1.915   6.918  0.4913  1.3764 -2.0060
 6277SOL     OW19880   0.157   4.533   6.316  0.1239  0.4255 -0.1405
 6277SOL    HW119881   0.168   4.619   6.357  0.8938  0.6780 -0.8542
 6277SOL    HW219882   0.246   4.501   6.303 -0.1526 -1.0190  1.1823
 6278SOL     OW19883   4.872   6.318   3.958  0.6084  0.5142 -0.0995
 6278SOL    HW119884   4.813   6.289   4.028  1.2984  0.7954  0.6123
 6278SOL    HW219885   4.817   6.372   3.901 -0.3353 -0.9392 -0.6324
 6279SOL     OW19886   1.704   1.304   7.917  0.5565 -0.0780  0.5574
 6279SOL    HW119887   1.748   1.389   7.908 -0.9713  0.8135  1.1949
 6279SOL    HW219888   1.719   1.279   8.009  1.2184 -0.6482  0.3069
 6280SOL     OW19889   5.479   0.618   4.023  0.9599  0.8292  0.5423
 6280SOL    HW119890   5.562   0.569   4.020  0.8334  0.6181  0.4518
 6280SOL    HW219891   5.475   0.662   3.938 -0.1971 -1.1318 -0.4987
 6281SOL     OW19892   3.493   1.254   7.863  0.2295  0.4561  0.1537
 6281SOL    HW119893   3.424   1.298   7.913  0.8719  0.8591  0.7153
 6281SOL    HW219894   3.572   1.304   7.884  0.4925  0.7281 -1.4038
 6282SOL     OW19895   0.083   3.376   1.511 -0.1614 -0.3062 -0.1442
 6282SOL    HW119896   0.106   3.308   1.574  0.4507 -0.2489 -0.2984
 6282SOL    HW219897   0.071   3.455   1.564  1.5788  0.0381 -0.1901
 6283SOL     OW19898   5.216   3.815   5.022  0.8723 -0.3828 -0.2859
 6283SOL    HW119899   5.260   3.896   5.050  0.2891  0.1044 -0.7684
 6283SOL    HW219900   5.198   3.769   5.104 -2.0465  1.6632  0.3586
 6284SOL     OW19901   4.479   7.599   3.370 -0.2021 -0.6000  0.2914
 6284SOL    HW119902   4.560   7.591   3.420  1.5901  1.3077 -2.0499
 6284SOL    HW219903   4.427   7.664   3.418  0.7212 -0.0663  0.5849
 6285SOL     OW19904   0.862   8.206   2.744 -0.1504  0.1170  0.2760
 6285SOL    HW119905   0.915   8.132   2.715 -0.4885 -0.2390  0.5574
 6285SOL    HW219906   0.789   8.167   2.792  0.5973  0.7019  1.9587
 6286SOL     OW19907   2.040   4.359   1.434  0.2244 -0.1284  0.0426
 6286SOL    HW119908   2.078   4.306   1.363 -0.8608  0.7201 -1.1976
 6286SOL    HW219909   2.090   4.332   1.512  1.4191 -1.1135 -1.0079
 6287SOL     OW19910   7.469   3.696   5.178 -0.1626 -0.0805 -0.1302
 6287SOL    HW119911   7.435   3.714   5.266 -1.8453  1.4370 -1.0250
 6287SOL    HW219912   7.559   3.667   5.192 -0.3652  0.2243  2.0791
 6288SOL     OW19913   7.210   5.571   1.037 -0.1020 -0.9519  0.8167
 6288SOL    HW119914   7.244   5.505   1.098 -0.5822 -1.6877  0.3106
 6288SOL    HW219915   7.205   5.651   1.088  3.6273 -0.3946  0.6346
 6289SOL     OW19916   5.243   7.587   2.432  0.1970 -0.7294  0.1733
 6289SOL    HW119917   5.175   7.532   2.393  0.6132 -1.5638  0.6024
 6289SOL    HW219918   5.195   7.660   2.471 -0.7135 -2.4667  2.4824
 6290SOL     OW19919   0.195   2.294   2.526 -0.2632  0.1260  0.4160
 6290SOL    HW119920   0.279   2.325   2.560 -0.1339  0.9546 -0.6306
 6290SOL    HW219921   0.202   2.198   2.529  0.8066  0.1879  0.1449
 6291SOL     OW19922   3.348   2.591   3.850 -0.0964  0.3828 -0.4686
 6291SOL    HW119923   3.352   2.496   3.835 -0.2056  0.2621  0.2620
 6291SOL    HW219924   3.397   2.628   3.777  1.7148 -0.3398  0.3253
 6292SOL     OW19925   6.375   6.166   0.295  0.3580  1.1153  0.1934
 6292SOL    HW119926   6.325   6.213   0.361  0.1073  1.8610 -0.5041
 6292SOL    HW219927   6.352   6.209   0.212  1.5859  0.9940 -0.2339
 6293SOL     OW19928   6.999   1.200   6.661  0.1513  0.1971  0.1187
 6293SOL    HW119929   6.930   1.168   6.604  0.7499 -0.4717 -0.2447
 6293SOL    HW219930   6.961   1.198   6.749 -0.4250  0.2432 -0.1236
 6294SOL     OW19931   1.188   6.749   2.332 -0.7820 -0.2093  0.3869
 6294SOL    HW119932   1.181   6.684   2.402  0.2673 -0.7718 -0.0150
 6294SOL    HW219933   1.208   6.698   2.253 -1.6682  0.4444 -0.2900
 6295SOL     OW19934   4.434   7.220   1.032  0.7018 -0.9671 -0.3262
 6295SOL    HW119935   4.387   7.287   1.082  1.8200 -0.8378  0.6205
 6295SOL    HW219936   4.463   7.266   0.953  2.1546 -0.0223  0.6768
 6296SOL     OW19937   0.421   3.160   4.225 -0.8674 -0.0915  0.1241
 6296SOL    HW119938   0.476   3.194   4.154 -0.1882  0.1990  0.7692
 6296SOL    HW219939   0.333   3.188   4.202 -1.0041 -1.7912 -1.6735
 6297SOL     OW19940   1.225   7.038   3.794 -0.2778 -0.1460 -0.0699
 6297SOL    HW119941   1.192   7.111   3.741 -1.7115 -1.2202 -0.7156
 6297SOL    HW219942   1.151   6.977   3.800 -0.1105 -0.2218  2.9549
 6298SOL     OW19943   6.159   1.370   1.052 -0.3136 -0.1455  0.6338
 6298SOL    HW119944   6.132   1.308   0.984  1.3007  0.0710 -0.2387
 6298SOL    HW219945   6.237   1.413   1.017  1.2093 -0.7637  3.0372
 6299SOL     OW19946   4.959   0.969   4.095 -0.3205 -0.0558 -0.1263
 6299SOL    HW119947   4.873   0.927   4.101 -0.0207 -0.8238 -1.1070
 6299SOL    HW219948   5.021   0.902   4.123  0.0416  0.1983 -0.3078
 6300SOL     OW19949   2.032   3.274   1.505  0.6207  0.2488 -0.2290
 6300SOL    HW119950   2.103   3.332   1.480 -0.3203  1.2194 -0.7527
 6300SOL    HW219951   2.070   3.187   1.504  1.8655  0.7724 -0.2139
 6301SOL     OW19952   6.362   1.072   5.276 -0.3944  0.6972 -0.1692
 6301SOL    HW119953   6.367   1.166   5.295  0.0211  0.6526 -0.0446
 6301SOL    HW219954   6.306   1.036   5.346  0.3647  0.6805  0.4423
 6302SOL     OW19955   6.710   3.966   6.775 -0.0340  0.0591  0.1613
 6302SOL    HW119956   6.738   3.890   6.723 -1.1610  0.4630 -1.1199
 6302SOL    HW219957   6.628   3.937   6.815 -1.0064  0.8853 -1.1473
 6303SOL     OW19958   7.120   8.236   4.048  0.4559 -0.0311  0.3060
 6303SOL    HW119959   7.150   8.306   4.106 -1.2355 -1.0424  2.5453
 6303SOL    HW219960   7.184   8.166   4.062  0.3484 -0.0808  0.5634
 6304SOL     OW19961   5.019   7.489   3.487  0.4132 -0.2756 -0.2372
 6304SOL    HW119962   5.082   7.431   3.530 -0.4263 -0.2693  1.0479
 6304SOL    HW219963   5.043   7.576   3.517  0.3668 -0.1802 -0.4793
 6305SOL     OW19964   7.220   5.075   6.334  0.2269 -0.2277  0.6952
 6305SOL    HW119965   7.146   5.107   6.386 -0.8919  0.4211 -1.1916
 6305SOL    HW219966   7.184   5.001   6.284  0.8637  0.0526 -0.2005
 6306SOL     OW19967   4.474   6.306   5.554 -0.0840 -0.3869 -0.1744
 6306SOL    HW119968   4.547   6.245   5.549  0.0328 -0.1931 -1.0676
 6306SOL    HW219969   4.449   6.320   5.463 -1.3417 -0.5729  0.1226
 6307SOL     OW19970   6.631   0.480   6.448  0.0648  0.1837  0.9130
 6307SOL    HW119971   6.659   0.524   6.368 -1.1310 -0.1555  0.2659
 6307SOL    HW219972   6.641   0.545   6.517  0.8658  0.5719  0.4390
 6308SOL     OW19973   5.728   5.539   5.723  0.9240 -0.0970  0.7294
 6308SOL    HW119974   5.695   5.593   5.795 -2.2401  1.0170 -1.3397
 6308SOL    HW219975   5.720   5.449   5.755 -2.3238  0.2313  1.2602
 6309SOL     OW19976   0.126   0.124   4.220 -0.0241  0.1309  0.6073
 6309SOL    HW119977   0.143   0.084   4.306 -0.5158 -1.2378  0.0996
 6309SOL    HW219978   0.186   0.079   4.160  0.5242  1.2835  0.2660
 6310SOL     OW19979   0.442   2.452   7.299  0.2284 -0.9543  0.1351
 6310SOL    HW119980   0.395   2.482   7.377 -0.6647 -0.3577 -0.6154
 6310SOL    HW219981   0.379   2.462   7.228  1.3049 -0.7160 -0.8084
 6311SOL     OW19982   2.340   1.186   3.610  0.0454 -0.1667 -0.7386
 6311SOL    HW119983   2.354   1.213   3.519  1.2883  2.8676  0.2054
 6311SOL    HW219984   2.426   1.156   3.640  0.1329  0.7328 -0.0477
 6312SOL     OW19985   3.651   1.662   5.371  0.3289 -0.2251  0.2328
 6312SOL    HW119986   3.574   1.716   5.389  1.5458  2.0075 -0.8715
 6312SOL    HW219987   3.631   1.618   5.288  0.3334  0.5330 -0.1720
 6313SOL     OW19988   7.617   6.763   5.422  0.0712 -0.2953 -0.3018
 6313SOL    HW119989   7.688   6.768   5.357  1.6870  0.4388  1.4337
 6313SOL    HW219990   7.537   6.762   5.369  1.3433 -1.7239 -2.3818
 6314SOL     OW19991   0.899   1.066   3.464  0.0894 -0.9177 -0.2427
 6314SOL    HW119992   0.949   1.114   3.398 -0.4940  1.6049  1.0228
 6314SOL    HW219993   0.809   1.096   3.453 -0.3708 -1.9970  0.4048
 6315SOL     OW19994   3.846   4.326   0.441 -0.3666 -0.1630  0.3133
 6315SOL    HW119995   3.923   4.309   0.495  0.2342 -0.9703 -0.7560
 6315SOL    HW219996   3.795   4.245   0.446 -0.7812  0.1006  0.4178
 6316SOL     OW19997   6.252   3.733   7.688  0.5436  0.5600 -0.3393
 6316SOL    HW119998   6.232   3.680   7.610  0.4820  0.7757 -0.4716
 6316SOL    HW219999   6.166   3.754   7.724  0.4868  1.9321 -1.2038
 6317SOL     OW20000   6.209   7.352   0.052 -0.9981  0.6017  0.1571
 6317SOL    HW120001   6.150   7.277   0.059 -0.6069  0.1894 -0.7826
 6317SOL    HW220002   6.164   7.412  -0.007 -1.0728  0.8722  0.4890
 6318SOL     OW20003   2.957   6.669   2.366  0.2492  0.3545  0.3635
 6318SOL    HW120004   3.019   6.740   2.381 -0.0651  0.7294 -0.0669
 6318SOL    HW220005   2.973   6.608   2.438  0.8728  0.6114  0.4554
 6319SOL     OW20006   6.213   5.101   5.525  0.1387 -0.3543 -0.1093
 6319SOL    HW120007   6.201   5.187   5.484  0.7400 -0.0297  0.3880
 6319SOL    HW220008   6.136   5.050   5.498  0.0273  0.1797 -0.8110
 6320SOL     OW20009   3.838   3.185   0.708  0.0864 -0.5602 -0.0358
 6320SOL    HW120010   3.920   3.142   0.684 -0.2893 -1.5404  0.3561
 6320SOL    HW220011   3.792   3.119   0.760 -1.3582 -0.3680 -1.0274
 6321SOL     OW20012   7.417   6.447   6.854 -0.1651 -0.8274  0.7618
 6321SOL    HW120013   7.476   6.399   6.913  0.0762  1.5696  2.6255
 6321SOL    HW220014   7.398   6.528   6.900 -1.0531  0.6262 -1.9497
 6322SOL     OW20015   1.790   4.623   1.740 -0.1869 -0.3725  0.2028
 6322SOL    HW120016   1.813   4.554   1.677 -0.9061 -1.5163  1.1636
 6322SOL    HW220017   1.820   4.704   1.698 -0.8508 -1.0634 -1.7311
 6323SOL     OW20018   7.360   6.051   0.624 -0.1444 -0.3062 -0.4864
 6323SOL    HW120019   7.302   6.105   0.677 -0.1411  0.3117 -1.1065
 6323SOL    HW220020   7.315   5.966   0.619 -1.7455  0.5723 -2.1423
 6324SOL     OW20021   4.938   5.585   7.977  0.3689  0.7763  0.4913
 6324SOL    HW120022   5.019   5.570   7.927  0.2090  0.3818  0.3511
 6324SOL    HW220023   4.957   5.552   8.064  0.4754  1.0041  0.5562
 6325SOL     OW20024   4.689   2.075   2.916  0.1345 -0.5505 -0.2356
 6325SOL    HW120025   4.744   2.116   2.849  0.0008  0.5182  0.2866
 6325SOL    HW220026   4.751   2.048   2.984  0.1175 -0.2525 -0.1008
 6326SOL     OW20027   3.754   2.782   7.703  0.0252  0.3467  0.2873
 6326SOL    HW120028   3.849   2.787   7.705  0.2297 -1.0694 -1.8563
 6326SOL    HW220029   3.733   2.706   7.759  0.4302 -0.9908 -1.2921
 6327SOL     OW20030   0.449   0.117   1.676  0.3538  0.9245 -0.3241
 6327SOL    HW120031   0.515   0.055   1.645 -1.0330 -0.8020 -0.0015
 6327SOL    HW220032   0.437   0.178   1.604 -0.6313 -1.2101 -2.0978
 6328SOL     OW20033   3.078   5.818   6.206 -0.0456  0.1630  0.0525
 6328SOL    HW120034   3.038   5.739   6.169  0.7799 -0.6857  0.9459
 6328SOL    HW220035   3.091   5.875   6.130 -0.7716 -0.4886 -0.5839
 6329SOL     OW20036   4.208   5.155   4.066  0.1375  0.5100  0.7014
 6329SOL    HW120037   4.215   5.061   4.051  0.8290  0.7180 -0.3582
 6329SOL    HW220038   4.143   5.163   4.137 -2.8668 -0.5924 -1.6812
 6330SOL     OW20039   3.636   0.823   0.173  0.4041  0.8667  0.3771
 6330SOL    HW120040   3.664   0.865   0.254  1.5176 -0.6674  0.8247
 6330SOL    HW220041   3.594   0.741   0.201  2.5183 -0.6473 -0.5920
 6331SOL     OW20042   5.389   2.537   1.192  0.1600 -0.0678  0.1200
 6331SOL    HW120043   5.366   2.448   1.218  0.3121 -0.3453 -0.6735
 6331SOL    HW220044   5.334   2.554   1.115  0.5859  0.2989 -0.1049
 6332SOL     OW20045   3.091   7.702   5.695 -0.4563 -0.0093  0.1902
 6332SOL    HW120046   3.011   7.706   5.643  0.0245 -2.4469 -0.8673
 6332SOL    HW220047   3.068   7.649   5.772 -0.0976  0.0237  0.3236
 6333SOL     OW20048   2.378   4.798   3.430 -0.2684 -0.7822 -0.7346
 6333SOL    HW120049   2.449   4.828   3.486 -0.9615 -1.2749  0.4625
 6333SOL    HW220050   2.421   4.762   3.353  0.9346 -3.0340  0.8863
 6334SOL     OW20051   1.664   2.476   7.556 -0.0745 -0.7797 -0.6769
 6334SOL    HW120052   1.606   2.404   7.532 -2.3536  1.2304 -1.5667
 6334SOL    HW220053   1.665   2.474   7.652 -3.6414  0.4704 -0.4493
 6335SOL     OW20054   5.655   1.606   1.966 -0.2226  0.7579 -0.2821
 6335SOL    HW120055   5.689   1.554   1.893 -2.0781 -2.2639  0.7998
 6335SOL    HW220056   5.572   1.641   1.934  0.8305  2.8546 -0.8663
 6336SOL     OW20057   2.981   1.741   6.440  0.3698 -0.0674  0.3367
 6336SOL    HW120058   2.928   1.698   6.507 -0.8052  0.8956  0.0406
 6336SOL    HW220059   2.941   1.826   6.428  1.4562  0.3453 -0.5517
 6337SOL     OW20060   4.116   2.838   1.844  0.0226  0.5433  0.3310
 6337SOL    HW120061   4.145   2.748   1.858 -1.5037  0.2883  2.3413
 6337SOL    HW220062   4.195   2.886   1.820  0.8127 -1.3599 -1.1083
 6338SOL     OW20063   3.281   3.742   3.267 -0.6505  0.8683  0.0896
 6338SOL    HW120064   3.360   3.784   3.301  2.4426 -1.9709 -2.8991
 6338SOL    HW220065   3.254   3.799   3.195 -1.9380  2.2209  1.5479
 6339SOL     OW20066   6.739   6.470   5.515 -0.0250  0.3108 -0.1182
 6339SOL    HW120067   6.777   6.459   5.427 -0.6527  0.2005 -0.3804
 6339SOL    HW220068   6.649   6.438   5.506 -1.5075  4.1070 -0.5076
 6340SOL     OW20069   6.977   5.838   7.234 -0.0701 -0.4431  0.1474
 6340SOL    HW120070   7.043   5.850   7.303 -1.9339 -0.0081  1.9440
 6340SOL    HW220071   6.923   5.765   7.264 -0.9968 -0.1699 -0.7947
 6341SOL     OW20072   6.164   0.167   4.225 -0.2806  0.8252 -0.0077
 6341SOL    HW120073   6.126   0.114   4.155  0.1257  2.1753 -1.3147
 6341SOL    HW220074   6.159   0.112   4.302 -0.8909 -0.6727 -1.0624
 6342SOL     OW20075   2.032   7.257   7.127 -0.3545 -0.1578 -0.2741
 6342SOL    HW120076   1.995   7.286   7.044 -0.4879  0.9581  0.1533
 6342SOL    HW220077   2.126   7.275   7.118 -0.3729 -0.0119 -0.1723
 6343SOL     OW20078   7.408   3.198   4.268  0.1544  0.3081  0.5267
 6343SOL    HW120079   7.477   3.261   4.287  1.7433 -1.2403  0.1318
 6343SOL    HW220080   7.394   3.152   4.351  0.1047  0.1472  0.4299
 6344SOL     OW20081   0.070   6.702   1.803 -0.1069  0.2139 -0.5315
 6344SOL    HW120082   0.141   6.663   1.752  1.3498  0.4996  1.1516
 6344SOL    HW220083   0.024   6.759   1.742 -0.2438 -1.6154 -2.2197
 6345SOL     OW20084   6.616   2.115   5.203 -0.2678 -0.6256  0.0991
 6345SOL    HW120085   6.651   2.185   5.148 -0.8894 -1.3508 -1.2610
 6345SOL    HW220086   6.545   2.156   5.252  0.6470  0.1644  0.7859
 6346SOL     OW20087   3.091   6.979   1.848 -0.1898  1.0159  0.2334
 6346SOL    HW120088   3.045   7.009   1.770 -0.4752  0.3580  0.1463
 6346SOL    HW220089   3.160   7.044   1.860  0.9209  0.2566 -1.5424
 6347SOL     OW20090   2.013   4.427   7.718  0.6881 -0.4283 -0.4780
 6347SOL    HW120091   1.996   4.465   7.631  0.3574 -0.4262 -0.4170
 6347SOL    HW220092   1.930   4.438   7.764  0.9347 -0.2279 -0.0841
 6348SOL     OW20093   3.660   0.891   4.776  0.4051 -0.0490 -0.1299
 6348SOL    HW120094   3.592   0.888   4.710 -0.3144  0.5057  0.5642
 6348SOL    HW220095   3.632   0.829   4.843  1.0819 -0.5446 -0.2899
 6349SOL     OW20096   7.001   6.850   0.771 -0.3930 -0.1824 -0.3562
 6349SOL    HW120097   6.965   6.918   0.714 -3.5628 -0.2559  1.3392
 6349SOL    HW220098   6.932   6.784   0.775  2.1454 -3.0807 -1.0611
 6350SOL     OW20099   1.194   0.375   6.061 -0.7822  0.6652  0.7099
 6350SOL    HW120100   1.237   0.387   6.146 -0.6699  0.9239  0.6184
 6350SOL    HW220101   1.247   0.427   6.000 -1.2373  1.0102  0.5991
 6351SOL     OW20102   6.313   7.819   7.581 -0.2512  0.1739  0.3116
 6351SOL    HW120103   6.283   7.749   7.639  1.5186 -0.5122  0.4634
 6351SOL    HW220104   6.350   7.774   7.505 -1.7426  1.0476 -1.0019
 6352SOL     OW20105   2.072   7.104   2.686 -0.3843 -0.5213  0.3810
 6352SOL    HW120106   2.006   7.047   2.726 -0.4830 -1.1527 -0.6194
 6352SOL    HW220107   2.151   7.050   2.683 -0.6836 -0.9429 -1.2904
 6353SOL     OW20108   0.986   3.443   0.760 -0.2036 -0.0325 -0.0392
 6353SOL    HW120109   1.045   3.398   0.700  0.1465  0.1618  0.1603
 6353SOL    HW220110   0.900   3.440   0.716 -0.0559 -0.3511 -0.3048
 6354SOL     OW20111   3.200   1.545   4.342  0.1752 -0.1957  0.0123
 6354SOL    HW120112   3.223   1.536   4.435  1.1038 -1.1622 -0.2981
 6354SOL    HW220113   3.218   1.636   4.321  1.2360 -0.2898  0.4550
 6355SOL     OW20114   6.744   5.047   5.736 -0.7907  0.4072  0.1669
 6355SOL    HW120115   6.667   5.026   5.684 -0.3528  1.4985 -0.9569
 6355SOL    HW220116   6.720   5.125   5.786 -0.3696  0.8764 -0.3431
 6356SOL     OW20117   4.429   3.585   4.411  0.0237  0.1371  0.3044
 6356SOL    HW120118   4.501   3.565   4.471  0.1010 -0.1479  0.1181
 6356SOL    HW220119   4.360   3.524   4.435 -0.0859  0.2791  0.3535
 6357SOL     OW20120   3.611   3.405   7.886 -0.5068  0.3807 -0.4723
 6357SOL    HW120121   3.628   3.492   7.920  0.9256  1.0998 -2.7752
 6357SOL    HW220122   3.605   3.417   7.791  0.5794 -2.1204 -0.9523
 6358SOL     OW20123   6.387   3.972   1.650  0.0778 -0.2053 -0.3449
 6358SOL    HW120124   6.348   4.024   1.580  0.8484  0.8210 -0.0231
 6358SOL    HW220125   6.334   3.892   1.652 -0.2086 -0.0852 -1.8259
 6359SOL     OW20126   0.015   3.306   7.709  0.0320 -0.0649  0.0138
 6359SOL    HW120127  -0.073   3.290   7.744  1.4977 -2.4713  3.0465
 6359SOL    HW220128   0.044   3.386   7.753 -0.4840  0.5751 -0.7786
 6360SOL     OW20129   5.235   1.134   1.883 -0.2866 -0.5484  0.0933
 6360SOL    HW120130   5.285   1.072   1.937 -1.3934 -1.7618 -0.2064
 6360SOL    HW220131   5.220   1.087   1.801 -0.4491  0.4570 -0.4651
 6361SOL     OW20132   5.949   6.796   7.460 -0.6263 -0.0583 -0.2447
 6361SOL    HW120133   5.924   6.715   7.505 -0.2449 -0.4957 -0.8052
 6361SOL    HW220134   5.893   6.798   7.382  0.3141 -0.5044 -0.9564
 6362SOL     OW20135   1.651   0.859   5.865 -0.3115  0.3912  0.7478
 6362SOL    HW120136   1.697   0.801   5.925  0.4973 -0.5473 -0.7280
 6362SOL    HW220137   1.652   0.944   5.909  1.8648  0.1538  1.2696
 6363SOL     OW20138   3.333   5.630   4.215  0.3729 -0.1531  0.2230
 6363SOL    HW120139   3.347   5.704   4.155 -2.3297  0.4663  0.2293
 6363SOL    HW220140   3.278   5.569   4.165 -1.1180 -0.0772  1.6874
 6364SOL     OW20141   0.699   2.761   1.558  0.7843  0.3569 -0.5089
 6364SOL    HW120142   0.755   2.715   1.621  1.3539  0.3850 -0.9833
 6364SOL    HW220143   0.752   2.836   1.529 -0.4866  1.8973  0.9675
 6365SOL     OW20144   5.522   3.834   3.647  0.7310 -0.0883 -0.3563
 6365SOL    HW120145   5.546   3.923   3.674  3.0058 -0.8705  0.4495
 6365SOL    HW220146   5.487   3.793   3.726  0.8624 -0.2784 -0.3946
 6366SOL     OW20147   4.285   7.890   5.459  0.4720 -0.2149 -0.4032
 6366SOL    HW120148   4.273   7.814   5.403  2.2215  0.2359 -1.4663
 6366SOL    HW220149   4.375   7.884   5.490  0.4318  1.0637  0.0366
 6367SOL     OW20150   5.723   8.175   2.178 -0.0525 -0.5098 -0.4675
 6367SOL    HW120151   5.664   8.192   2.251 -1.8072 -0.6399 -1.8034
 6367SOL    HW220152   5.727   8.258   2.130  1.3547 -0.3274 -0.0950
 6368SOL     OW20153   6.879   3.556   2.567 -0.0575 -0.3153  0.0129
 6368SOL    HW120154   6.871   3.584   2.476 -0.7989  0.8599  0.4166
 6368SOL    HW220155   6.954   3.605   2.600 -1.9878  2.2075  1.0163
 6369SOL     OW20156   2.811   6.467   2.933  0.1438 -0.1881 -0.0105
 6369SOL    HW120157   2.721   6.479   2.903 -0.0722  0.2816  0.7726
 6369SOL    HW220158   2.858   6.543   2.901  0.5448 -0.9877 -1.3853
 6370SOL     OW20159   6.526   2.384   1.576  0.5225  0.1241 -0.0458
 6370SOL    HW120160   6.535   2.311   1.637  2.4160  0.5938  0.3089
 6370SOL    HW220161   6.475   2.349   1.503  0.7610 -1.3306  0.4547
 6371SOL     OW20162   4.397   5.094   3.670 -0.5396  0.5668 -0.0211
 6371SOL    HW120163   4.428   5.168   3.618  0.2581  1.5808  1.8144
 6371SOL    HW220164   4.303   5.110   3.681 -0.6386  0.5435 -0.8085
 6372SOL     OW20165   3.547   2.764   2.469 -0.0838  0.4979  0.4323
 6372SOL    HW120166   3.572   2.794   2.382  0.5456  0.9699  0.7593
 6372SOL    HW220167   3.490   2.833   2.503 -3.7091 -1.4973 -1.0830
 6373SOL     OW20168   7.792   6.896   0.551  0.2526  0.7038 -0.2257
 6373SOL    HW120169   7.831   6.880   0.637  0.3463  1.7734 -0.0521
 6373SOL    HW220170   7.775   6.990   0.550 -0.7681  0.5240 -0.9642
 6374SOL     OW20171   5.676   6.114   4.319  0.0759  0.5299  0.4400
 6374SOL    HW120172   5.584   6.122   4.343 -0.2064  0.7171 -0.6392
 6374SOL    HW220173   5.724   6.157   4.390 -0.7134  1.1102  0.6248
 6375SOL     OW20174   7.083   7.256   3.143 -0.0530  0.2004  0.5146
 6375SOL    HW120175   7.144   7.184   3.125 -0.7373 -0.3588  0.3842
 6375SOL    HW220176   7.045   7.277   3.057 -0.3163  0.2979  0.6547
 6376SOL     OW20177   3.276   6.061   5.666  0.4214 -0.2571  0.2078
 6376SOL    HW120178   3.240   6.045   5.753 -3.9260  0.4645 -1.2119
 6376SOL    HW220179   3.256   5.981   5.617  2.3645 -0.4550 -0.3532
 6377SOL     OW20180   7.797   0.921   1.713 -0.1470  0.3956  0.5086
 6377SOL    HW120181   7.840   0.841   1.682 -0.0771 -0.0903  1.8328
 6377SOL    HW220182   7.826   0.932   1.803 -0.8317  1.4473  0.6261
 6378SOL     OW20183   0.082   5.667   7.735 -0.2300  0.2793 -0.5892
 6378SOL    HW120184   0.015   5.626   7.789  2.0121 -1.2804  1.2331
 6378SOL    HW220185   0.103   5.602   7.668  1.2704 -0.4390  0.5097
 6379SOL     OW20186   5.217   1.282   1.456 -0.2766  0.4984  0.0797
 6379SOL    HW120187   5.135   1.330   1.447 -0.2399  1.2167  2.5885
 6379SOL    HW220188   5.197   1.211   1.516  1.0438  1.1242  1.3303
 6380SOL     OW20189   5.334   4.431   0.253 -0.1634 -0.2554 -0.5997
 6380SOL    HW120190   5.303   4.382   0.329 -0.0930 -1.0389 -1.0676
 6380SOL    HW220191   5.280   4.399   0.180  0.2332 -0.0155 -1.0035
 6381SOL     OW20192   2.643   3.296   2.488  0.2355  0.1655 -0.2352
 6381SOL    HW120193   2.647   3.210   2.446  1.8637  0.1018 -0.0160
 6381SOL    HW220194   2.684   3.355   2.426  1.7928  0.2403  0.8196
 6382SOL     OW20195   6.249   8.064   2.733 -0.0921 -0.3800 -0.3840
 6382SOL    HW120196   6.199   7.999   2.683  1.0725 -0.9751 -0.7954
 6382SOL    HW220197   6.340   8.045   2.713  0.3137  0.6495  0.4186
 6383SOL     OW20198   3.399   2.983   2.570 -0.4088 -0.0424 -0.1245
 6383SOL    HW120199   3.445   3.051   2.521 -0.2685 -0.3018 -0.3570
 6383SOL    HW220200   3.340   3.030   2.628  1.1414  0.3837  1.1981
 6384SOL     OW20201   1.246   1.933   1.906 -0.1467  0.0770  0.6534
 6384SOL    HW120202   1.238   1.843   1.874  0.9285  0.3791 -0.5541
 6384SOL    HW220203   1.180   1.940   1.975  0.1298 -1.7997  1.1573
 6385SOL     OW20204   4.889   7.290   2.750 -0.8551  0.4703  0.9198
 6385SOL    HW120205   4.944   7.295   2.672 -2.4736  1.6619 -0.2093
 6385SOL    HW220206   4.950   7.272   2.821  0.8787  0.9032 -0.3928
 6386SOL     OW20207   1.743   7.521   7.699 -0.1134 -0.2631  0.4208
 6386SOL    HW120208   1.675   7.573   7.742  0.4073  0.3936  0.4709
 6386SOL    HW220209   1.711   7.431   7.704 -1.7924  0.1878 -1.0258
 6387SOL     OW20210   1.507   4.261   3.133  0.2233  0.3711 -0.6880
 6387SOL    HW120211   1.418   4.249   3.167  0.2339  0.8046 -0.4954
 6387SOL    HW220212   1.505   4.347   3.091  0.7337  0.6958 -0.0678
 6388SOL     OW20213   2.308   2.709   2.518  0.1149  0.3768 -0.5457
 6388SOL    HW120214   2.304   2.791   2.469  0.5664 -0.7172 -2.5066
 6388SOL    HW220215   2.332   2.735   2.607  0.7773  2.3065 -1.2476
 6389SOL     OW20216   7.148   1.912   4.000 -0.3457  0.4113 -0.3806
 6389SOL    HW120217   7.216   1.979   3.999  0.1334 -0.0661 -0.8014
 6389SOL    HW220218   7.162   1.864   4.081 -0.1235  0.2652 -0.5027
 6390SOL     OW20219   5.724   0.935   2.233 -0.1120 -1.0380  0.7900
 6390SOL    HW120220   5.677   0.968   2.156  2.0216  1.7702  0.5083
 6390SOL    HW220221   5.658   0.929   2.301 -1.6590 -1.5546 -0.6920
 6391SOL     OW20222   0.731   4.023   3.873 -0.2219  0.3011  0.0010
 6391SOL    HW120223   0.637   4.003   3.870 -0.5647  1.8556 -0.5187
 6391SOL    HW220224   0.740   4.084   3.946  0.4624 -0.1157  0.2765
 6392SOL     OW20225   2.975   3.240   2.069 -0.6538  0.0897 -0.2984
 6392SOL    HW120226   3.039   3.268   2.003 -0.7557  1.0281 -0.0125
 6392SOL    HW220227   2.931   3.321   2.095 -1.8174 -0.5185 -0.3323
 6393SOL     OW20228   6.610   0.570   7.299  0.0933 -0.2446 -0.1134
 6393SOL    HW120229   6.588   0.625   7.374 -1.5500 -1.0129 -0.0099
 6393SOL    HW220230   6.552   0.495   7.305  0.8800 -1.0000 -1.4026
 6394SOL     OW20231   2.832   2.051   4.468 -0.2026 -0.5116 -0.4157
 6394SOL    HW120232   2.844   2.113   4.396  0.0713  0.6376  0.5959
 6394SOL    HW220233   2.921   2.033   4.499 -0.4130  0.2200  0.6392
 6395SOL     OW20234   3.938   7.198   8.274 -0.5217 -0.0924 -0.7208
 6395SOL    HW120235   3.995   7.272   8.295 -0.4489  0.0103 -1.2486
 6395SOL    HW220236   3.878   7.192   8.348 -1.9884  1.9331 -1.6480
 6396SOL     OW20237   5.969   6.552   0.878 -0.0935  0.2729  0.4793
 6396SOL    HW120238   5.962   6.642   0.844 -1.6766 -0.0824 -0.2226
 6396SOL    HW220239   5.926   6.556   0.963 -2.4629 -0.3035 -0.6135
 6397SOL     OW20240   1.315   2.980   7.296  0.2043 -0.3675 -0.5922
 6397SOL    HW120241   1.406   3.006   7.279 -0.1525  2.3942  1.1590
 6397SOL    HW220242   1.320   2.926   7.374  0.3110  0.4068 -0.0487
 6398SOL     OW20243   1.775   6.710   2.766  0.4437 -0.0384 -0.3972
 6398SOL    HW120244   1.868   6.686   2.775  0.5922  0.6242 -0.1681
 6398SOL    HW220245   1.730   6.626   2.757  1.1076 -0.3493 -0.8954
 6399SOL     OW20246   4.879   0.333   7.971  0.3444  0.2613  0.3516
 6399SOL    HW120247   4.854   0.307   8.059  0.4912  2.7395  1.1982
 6399SOL    HW220248   4.796   0.347   7.925  0.0884  3.1202  1.4816
 6400SOL     OW20249   7.929   2.214   6.751 -0.5219  0.4034  0.3013
 6400SOL    HW120250   7.926   2.145   6.817  1.7340 -1.7934 -1.6895
 6400SOL    HW220251   7.889   2.176   6.674  1.3629  1.0137 -1.0583
 6401SOL     OW20252   0.300   1.151   0.186  0.3924  0.3613  0.5380
 6401SOL    HW120253   0.303   1.098   0.106  0.0398 -0.8334  1.2869
 6401SOL    HW220254   0.369   1.114   0.241  0.1629  0.7110  1.0605
 6402SOL     OW20255   1.298   6.405   1.056 -0.4241  0.1955 -0.5803
 6402SOL    HW120256   1.241   6.449   1.118  1.1714 -0.3444  1.3726
 6402SOL    HW220257   1.249   6.406   0.974 -2.8643  0.4452  0.7817
 6403SOL     OW20258   2.847   7.250   2.344  0.7384  0.0462 -0.5474
 6403SOL    HW120259   2.863   7.307   2.419  1.3298  0.2355 -0.8033
 6403SOL    HW220260   2.859   7.308   2.268 -1.1174  0.1767 -0.7787
 6404SOL     OW20261   6.768   1.768   2.417 -0.6161 -0.0216 -0.1512
 6404SOL    HW120262   6.715   1.688   2.416 -0.1216 -0.3474 -0.2202
 6404SOL    HW220263   6.727   1.823   2.485 -1.0383 -0.2741 -0.2006
 6405SOL     OW20264   2.990   0.109   0.144 -0.0848  0.5445  0.2436
 6405SOL    HW120265   3.035   0.105   0.059  2.2539 -0.1047  1.4381
 6405SOL    HW220266   2.903   0.143   0.123 -0.5878 -2.0998 -2.7831
 6406SOL     OW20267   2.517   0.385   1.527  0.1289 -0.2402  1.1056
 6406SOL    HW120268   2.445   0.428   1.573 -0.6666 -0.8059  0.4291
 6406SOL    HW220269   2.496   0.291   1.531  0.2180 -0.3308 -0.0733
 6407SOL     OW20270   5.224   4.900   1.159  0.1923 -0.5606  0.4012
 6407SOL    HW120271   5.172   4.979   1.177 -1.3157 -1.4315  0.0510
 6407SOL    HW220272   5.280   4.890   1.236 -1.1230 -0.3088  1.4303
 6408SOL     OW20273   7.246   3.578   0.466 -0.1590 -0.2812  0.0371
 6408SOL    HW120274   7.231   3.528   0.386  1.4178  0.5708 -0.8384
 6408SOL    HW220275   7.183   3.650   0.461  0.1075 -0.0902 -0.5614
 6409SOL     OW20276   1.681   6.178   1.018  0.6490 -0.9018  0.6937
 6409SOL    HW120277   1.659   6.095   0.976  1.8642 -0.5097 -0.8302
 6409SOL    HW220278   1.628   6.243   0.971  2.4937 -0.3745 -0.8274
 6410SOL     OW20279   5.735   4.382   6.059  0.0228  0.1455 -0.1819
 6410SOL    HW120280   5.746   4.385   5.964 -1.2816 -0.7556 -0.3939
 6410SOL    HW220281   5.823   4.395   6.094  0.5845  0.1109 -1.5159
 6411SOL     OW20282   5.147   2.548   3.422 -0.4169  0.5396  0.4038
 6411SOL    HW120283   5.236   2.559   3.455 -0.3639 -0.6646  0.7003
 6411SOL    HW220284   5.091   2.564   3.498 -0.3742 -0.2500  0.6147
 6412SOL     OW20285   7.014   6.091   8.158  0.1116 -0.2060 -0.0154
 6412SOL    HW120286   7.096   6.060   8.196  0.0904  0.5587  0.6553
 6412SOL    HW220287   7.022   6.186   8.155 -0.4844 -0.1595 -0.5698
 6413SOL     OW20288   1.472   6.641   2.525  0.0662  0.1812  0.3550
 6413SOL    HW120289   1.458   6.547   2.534 -2.6065  0.4711  0.2301
 6413SOL    HW220290   1.539   6.649   2.458 -1.0498 -1.6685 -1.1077
 6414SOL     OW20291   5.404   7.157   6.729 -0.0945  0.6727 -0.2422
 6414SOL    HW120292   5.320   7.127   6.762  0.2333  1.3989  1.3486
 6414SOL    HW220293   5.425   7.097   6.657 -1.1623 -0.5746  0.4514
 6415SOL     OW20294   2.214   6.437   7.657  0.1634  0.3572  0.5666
 6415SOL    HW120295   2.267   6.365   7.623 -0.2544  0.5329 -0.4910
 6415SOL    HW220296   2.133   6.396   7.686 -0.1090  0.4043 -0.1146
 6416SOL     OW20297   0.421   0.544   1.817  0.1253 -0.0370  0.5114
 6416SOL    HW120298   0.388   0.468   1.866  1.0505 -0.2986  0.7491
 6416SOL    HW220299   0.354   0.611   1.829 -0.4597 -0.6475  0.7358
 6417SOL     OW20300   7.168   2.692   5.817  0.3819  0.3500 -0.3782
 6417SOL    HW120301   7.095   2.749   5.840  0.2530  0.5564 -1.2606
 6417SOL    HW220302   7.201   2.660   5.901 -0.4973  0.5289  0.0455
 6418SOL     OW20303   1.855   5.261   2.060  0.3342  0.7318 -0.3393
 6418SOL    HW120304   1.829   5.352   2.067  0.4965  0.7377  0.2290
 6418SOL    HW220305   1.951   5.262   2.068  0.5196  0.6911 -2.1904
 6419SOL     OW20306   2.340   2.205   7.098  0.5114  0.0746 -0.2208
 6419SOL    HW120307   2.252   2.173   7.078  0.2840 -0.8227  1.9939
 6419SOL    HW220308   2.326   2.288   7.144  0.8923  0.4025 -0.6736
 6420SOL     OW20309   2.524   1.336   0.712  0.9620  0.4069 -0.6706
 6420SOL    HW120310   2.497   1.427   0.724  1.9948  0.6980 -0.4758
 6420SOL    HW220311   2.583   1.339   0.637  0.1553 -0.2798 -1.3406
 6421SOL     OW20312   2.673   3.324   7.696  0.1392 -0.0156 -0.3383
 6421SOL    HW120313   2.581   3.302   7.685 -0.7683  2.1662  1.8988
 6421SOL    HW220314   2.677   3.371   7.780  3.6259 -1.7412  0.6624
 6422SOL     OW20315   3.242   3.228   8.055  0.6102  0.2150  0.2013
 6422SOL    HW120316   3.285   3.165   8.112  1.0064  0.1966 -0.1175
 6422SOL    HW220317   3.232   3.306   8.109 -0.3248 -0.2690  0.7545
 6423SOL     OW20318   3.834   5.432   0.305  0.5652  0.5574 -0.3643
 6423SOL    HW120319   3.882   5.419   0.223  0.1457  2.3039 -0.9350
 6423SOL    HW220320   3.864   5.517   0.336 -0.2795  0.5147  0.5960
 6424SOL     OW20321   6.466   1.236   1.448  0.3217  0.1920 -0.5283
 6424SOL    HW120322   6.511   1.246   1.364  0.0078 -0.8098 -0.8388
 6424SOL    HW220323   6.468   1.142   1.464 -0.9105  0.2152 -0.1358
 6425SOL     OW20324   5.129   6.801   0.346 -0.2214  0.3297  0.0372
 6425SOL    HW120325   5.089   6.847   0.272 -0.0850  1.2330  0.5022
 6425SOL    HW220326   5.096   6.712   0.341 -2.1222  0.9873  0.2686
 6426SOL     OW20327   4.602   3.772   4.340  0.5117 -0.6287  0.3138
 6426SOL    HW120328   4.534   3.705   4.342  0.7547 -0.8651  0.9745
 6426SOL    HW220329   4.676   3.728   4.296  0.5796 -0.7071  0.5056
 6427SOL     OW20330   5.269   7.866   0.042  0.1326  0.0737  0.2479
 6427SOL    HW120331   5.359   7.898   0.040  0.3159 -0.4187  0.4728
 6427SOL    HW220332   5.264   7.803  -0.030  0.1457 -0.3511  0.6123
 6428SOL     OW20333   4.311   2.263   3.343 -0.0354  0.2381 -0.0864
 6428SOL    HW120334   4.219   2.248   3.320 -0.5603 -0.4555  2.2079
 6428SOL    HW220335   4.358   2.255   3.260 -1.9043 -0.5768 -1.1333
 6429SOL     OW20336   0.821   3.525   1.905  0.1992  0.0372  0.0767
 6429SOL    HW120337   0.830   3.458   1.837  3.1391 -0.2181  0.5461
 6429SOL    HW220338   0.797   3.477   1.984 -0.0045 -0.1295 -0.0880
 6430SOL     OW20339   1.299   5.518   6.281  0.1605  0.4407  0.0785
 6430SOL    HW120340   1.312   5.433   6.239  1.0832  0.3099  0.6033
 6430SOL    HW220341   1.300   5.498   6.375  0.5170  1.0458  0.2086
 6431SOL     OW20342   2.530   7.909   1.045 -0.0351  0.0027  0.4970
 6431SOL    HW120343   2.523   7.815   1.026 -0.6998  0.3992 -1.5291
 6431SOL    HW220344   2.615   7.919   1.087  0.3424 -1.4319  0.1377
 6432SOL     OW20345   6.530   3.158   7.837  0.0547  0.1658  0.0855
 6432SOL    HW120346   6.478   3.164   7.917  1.8150 -1.6506  1.4839
 6432SOL    HW220347   6.474   3.194   7.768 -2.6389 -0.7846  1.6291
 6433SOL     OW20348   2.120   1.765   4.634 -0.4308  0.1281 -0.3754
 6433SOL    HW120349   2.200   1.736   4.678  0.8365 -1.0728 -3.2534
 6433SOL    HW220350   2.134   1.859   4.620  0.4699 -0.0414 -0.7346
 6434SOL     OW20351   1.672   5.539   5.269  0.0545  0.0796 -0.1514
 6434SOL    HW120352   1.718   5.457   5.248 -2.3245 -1.0222 -1.4852
 6434SOL    HW220353   1.668   5.586   5.186  0.5003  1.1100  0.3930
 6435SOL     OW20354   2.719   7.804   2.424  0.0283  0.2432 -0.3230
 6435SOL    HW120355   2.727   7.806   2.329  0.0179 -0.3818 -0.3386
 6435SOL    HW220356   2.808   7.789   2.456  0.0530  0.5828 -0.2280
 6436SOL     OW20357   6.877   5.826   4.043  0.3122 -0.2722 -1.2490
 6436SOL    HW120358   6.920   5.859   3.964  0.0500 -1.3145 -1.8466
 6436SOL    HW220359   6.896   5.732   4.043 -0.8260 -0.5196 -0.8029
 6437SOL     OW20360   2.399   4.597   1.616  0.0088 -0.0941  0.2717
 6437SOL    HW120361   2.364   4.509   1.607  2.0513 -0.8558 -0.8300
 6437SOL    HW220362   2.345   4.650   1.557 -1.3912 -0.5296  1.1306
 6438SOL     OW20363   7.874   2.832   5.353 -0.3516  0.4421 -0.5907
 6438SOL    HW120364   7.828   2.900   5.303 -0.2667  1.3902  0.5703
 6438SOL    HW220365   7.960   2.871   5.372 -0.0551 -0.2594 -0.4750
 6439SOL     OW20366   7.348   5.193   1.291 -0.5796  0.4060 -0.9676
 6439SOL    HW120367   7.321   5.107   1.259 -2.0046 -1.2186  3.6847
 6439SOL    HW220368   7.429   5.177   1.339  0.6245  2.3244 -2.2016
 6440SOL     OW20369   2.941   4.550   3.299  0.0817 -0.3725 -0.0930
 6440SOL    HW120370   2.950   4.476   3.238 -0.2469 -1.0672  0.6816
 6440SOL    HW220371   2.950   4.511   3.386 -2.1189  0.1634  0.4274
 6441SOL     OW20372   4.969   4.270   7.215  1.1098 -0.3330 -0.3310
 6441SOL    HW120373   5.046   4.321   7.191  1.4532 -0.0963  1.1912
 6441SOL    HW220374   5.002   4.200   7.271  0.4420 -1.3434 -1.1496
 6442SOL     OW20375   4.729   3.631   3.148  0.0502 -0.0615 -0.3762
 6442SOL    HW120376   4.805   3.634   3.205 -0.7917  0.2886  0.7542
 6442SOL    HW220377   4.680   3.711   3.168  0.0219  0.3791 -2.0163
 6443SOL     OW20378   4.785   5.286   7.905 -0.7910  0.0976  0.2092
 6443SOL    HW120379   4.716   5.285   7.839 -0.5287  3.6678 -0.3420
 6443SOL    HW220380   4.771   5.368   7.953  1.6641 -0.2067  1.6260
 6444SOL     OW20381   3.353   4.306   1.839  0.2777 -0.3612  0.0316
 6444SOL    HW120382   3.422   4.347   1.787  0.1214 -0.7961 -0.5406
 6444SOL    HW220383   3.336   4.367   1.910  1.2894 -0.2756  0.2063
 6445SOL     OW20384   2.967   1.536   4.162 -0.5090  0.0599  0.0297
 6445SOL    HW120385   2.915   1.611   4.191  0.2842  0.0874  1.4999
 6445SOL    HW220386   3.044   1.537   4.219  1.1800  0.0727 -2.1563
 6446SOL     OW20387   3.189   2.228   4.343 -0.3021  0.6006  0.5611
 6446SOL    HW120388   3.129   2.288   4.297  0.5664  2.1604  1.3738
 6446SOL    HW220389   3.145   2.211   4.427 -0.6495 -0.1133  0.2453
 6447SOL     OW20390   6.594   5.977   7.428  0.6631 -0.2458  0.3191
 6447SOL    HW120391   6.538   5.935   7.362 -1.9846 -0.4565  2.5205
 6447SOL    HW220392   6.591   6.070   7.406 -2.2400  0.0147  1.4188
 6448SOL     OW20393   4.682   1.985   3.471 -0.3553  0.0226  0.0419
 6448SOL    HW120394   4.586   1.984   3.461 -0.2721  0.7252 -0.9822
 6448SOL    HW220395   4.712   1.913   3.414 -0.3422 -1.2681  1.5959
 6449SOL     OW20396   8.035   1.938   3.574 -0.0205 -0.0510 -0.8305
 6449SOL    HW120397   8.102   1.927   3.506  1.2001 -1.5763  0.5346
 6449SOL    HW220398   8.057   1.872   3.640 -3.0332 -0.8030 -0.4270
 6450SOL     OW20399   1.163   3.054   4.533 -0.2613 -0.3424  0.4715
 6450SOL    HW120400   1.181   3.104   4.613 -0.5015 -0.5495  0.6543
 6450SOL    HW220401   1.248   3.023   4.504 -0.0692  0.3906  0.2134
 6451SOL     OW20402   6.517   5.903   5.179 -0.3432  0.2709  0.1080
 6451SOL    HW120403   6.506   5.816   5.142  2.7104 -0.0875 -0.2220
 6451SOL    HW220404   6.509   5.890   5.273  2.8526 -1.0875  0.3541
 6452SOL     OW20405   0.729   6.523   0.834  0.1942  0.6700 -0.4574
 6452SOL    HW120406   0.702   6.615   0.826 -0.8141  0.3454 -0.8751
 6452SOL    HW220407   0.663   6.483   0.890 -0.3070 -0.1702 -1.6232
 6453SOL     OW20408   6.112   5.901   4.631  0.1004 -0.6059 -0.1205
 6453SOL    HW120409   6.019   5.922   4.625  0.4536  1.2251  0.3188
 6453SOL    HW220410   6.114   5.812   4.667 -1.4797 -0.1495  1.2335
 6454SOL     OW20411   7.794   2.053   6.563 -0.1490 -0.1502 -0.3816
 6454SOL    HW120412   7.775   1.968   6.603  0.9457 -0.3169 -0.1746
 6454SOL    HW220413   7.729   2.062   6.494 -0.9908 -0.6457  0.3154
 6455SOL     OW20414   0.560   6.746   3.576 -0.1390  0.3431 -0.1421
 6455SOL    HW120415   0.512   6.824   3.550  1.9896  1.9543  0.4933
 6455SOL    HW220416   0.628   6.736   3.510  1.1252  0.5252  1.0758
 6456SOL     OW20417   2.526   6.826   4.807 -0.0830  0.8509  0.2726
 6456SOL    HW120418   2.462   6.882   4.851 -1.0202 -0.3568  0.5186
 6456SOL    HW220419   2.484   6.740   4.804  0.7158  0.4864 -1.3852
 6457SOL     OW20420   4.759   5.764   3.369 -0.7524 -0.7291 -0.2698
 6457SOL    HW120421   4.836   5.740   3.319 -0.5171  0.7710 -0.6707
 6457SOL    HW220422   4.793   5.809   3.446 -1.1268 -2.6841  1.1190
 6458SOL     OW20423   3.661   4.970   0.324  0.1648  0.7031 -0.1738
 6458SOL    HW120424   3.683   5.059   0.294  1.8893 -0.1166 -1.4882
 6458SOL    HW220425   3.733   4.945   0.381  0.9272 -0.6842 -1.6570
 6459SOL     OW20426   7.992   4.885   5.541 -0.0607 -0.1204 -0.2845
 6459SOL    HW120427   7.939   4.876   5.621 -1.2701  1.3094 -0.8620
 6459SOL    HW220428   8.076   4.919   5.572 -0.3855  0.0818  0.4144
 6460SOL     OW20429   3.743   1.942   2.303  0.2185 -0.3700  0.1432
 6460SOL    HW120430   3.735   1.852   2.271  0.9738 -0.3568 -0.1084
 6460SOL    HW220431   3.704   1.995   2.233 -2.0101 -0.5885  1.1197
 6461SOL     OW20432   8.117   3.954   4.850 -0.1792 -0.2782  0.1893
 6461SOL    HW120433   8.183   4.021   4.832  0.1713  0.2573  2.9676
 6461SOL    HW220434   8.049   4.000   4.899 -1.8405 -1.1941 -1.1666
 6462SOL     OW20435   2.207   8.080   5.228  0.1092  0.0280 -0.0130
 6462SOL    HW120436   2.210   8.162   5.177  0.6258  0.8087  1.2075
 6462SOL    HW220437   2.126   8.086   5.278  0.8739  0.5366  1.2120
 6463SOL     OW20438   0.108   3.155   4.818  0.0443  0.3914 -0.0426
 6463SOL    HW120439   0.047   3.217   4.777 -0.9264 -1.0917 -0.9526
 6463SOL    HW220440   0.181   3.149   4.756 -0.3640 -0.1631 -0.4756
 6464SOL     OW20441   2.146   6.147   0.532 -0.6269  0.1959  0.2196
 6464SOL    HW120442   2.239   6.167   0.544 -0.2298 -0.9184 -0.8229
 6464SOL    HW220443   2.101   6.223   0.569  0.6612  0.3908  1.4941
 6465SOL     OW20444   4.574   5.798   7.117 -0.1644  0.1198 -0.5606
 6465SOL    HW120445   4.617   5.778   7.034  0.9611  0.0899  0.0033
 6465SOL    HW220446   4.641   5.780   7.183 -1.1196 -0.1145  0.3775
 6466SOL     OW20447   3.715   3.145   1.783  0.1285  0.0741  1.2913
 6466SOL    HW120448   3.800   3.151   1.740 -0.8612 -2.3273 -1.2988
 6466SOL    HW220449   3.696   3.235   1.812  1.4414  1.7310 -2.3978
 6467SOL     OW20450   0.809   6.679   6.821 -0.2215 -0.3470 -0.2703
 6467SOL    HW120451   0.842   6.600   6.864  0.1616  0.5406  1.1393
 6467SOL    HW220452   0.736   6.708   6.876  0.0300  0.6046 -0.4154
 6468SOL     OW20453   2.315   2.874   4.103  0.2570 -0.4724 -0.0720
 6468SOL    HW120454   2.398   2.878   4.055 -0.7884 -0.6049 -2.0217
 6468SOL    HW220455   2.340   2.875   4.195  2.4637 -1.5034 -0.5930
 6469SOL     OW20456   1.379   4.928   7.040  0.1542  0.7550  0.1155
 6469SOL    HW120457   1.303   4.987   7.042  0.4591  1.3579 -2.7941
 6469SOL    HW220458   1.353   4.855   7.097 -2.2226  1.3924 -0.0185
 6470SOL     OW20459   5.770   6.191   7.775  0.2313  0.0905 -0.4702
 6470SOL    HW120460   5.865   6.196   7.790  0.0225 -0.4439  1.2547
 6470SOL    HW220461   5.745   6.279   7.749  1.1962  0.2421 -0.9396
 6471SOL     OW20462   7.186   7.215   1.523  0.5511 -0.0369 -0.0034
 6471SOL    HW120463   7.251   7.284   1.534 -2.1748  2.7093  0.1515
 6471SOL    HW220464   7.145   7.207   1.609  1.0918 -2.3051  0.1245
 6472SOL     OW20465   6.523   2.616   3.336 -0.4795 -0.4518 -0.2514
 6472SOL    HW120466   6.497   2.704   3.310  0.6031 -0.1424 -0.3314
 6472SOL    HW220467   6.443   2.577   3.371 -0.8284  0.7898  0.4135
 6473SOL     OW20468   5.910   7.232   3.440 -0.4429  0.8386 -0.5353
 6473SOL    HW120469   5.857   7.301   3.400  0.6337  0.8781 -1.9571
 6473SOL    HW220470   5.851   7.156   3.445 -0.7615  0.9961 -1.7224
 6474SOL     OW20471   7.413   3.386   0.070 -0.1881 -0.0529 -0.0682
 6474SOL    HW120472   7.441   3.419  -0.015 -1.3328  0.5314 -0.2470
 6474SOL    HW220473   7.478   3.320   0.093  1.9372  1.9768  0.0856
 6475SOL     OW20474   3.315   6.878   5.867 -0.0727 -0.6109  0.6236
 6475SOL    HW120475   3.363   6.801   5.836  0.5344 -0.1184  0.3026
 6475SOL    HW220476   3.290   6.857   5.957  0.8532 -0.8498  0.8374
 6476SOL     OW20477   2.745   7.063   2.532 -0.1440 -0.6208 -0.0923
 6476SOL    HW120478   2.652   7.062   2.553 -0.4483 -2.7059 -1.3283
 6476SOL    HW220479   2.754   7.129   2.464 -0.4430  0.5850  0.9941
 6477SOL     OW20480   0.525   5.204   4.977  0.0668  0.2352  0.1584
 6477SOL    HW120481   0.538   5.120   4.934  1.6147  0.2303  0.5568
 6477SOL    HW220482   0.438   5.199   5.016  0.7955 -1.8879  1.6845
 6478SOL     OW20483   2.872   5.174   0.776 -0.1926  0.3758  0.3483
 6478SOL    HW120484   2.856   5.219   0.693 -1.2762 -0.4316  0.1000
 6478SOL    HW220485   2.962   5.196   0.798  0.6665 -0.6352 -1.8387
 6479SOL     OW20486   5.952   6.100   4.975  0.4755  0.4364  0.0868
 6479SOL    HW120487   5.887   6.169   4.964  1.2404  1.2422  0.4454
 6479SOL    HW220488   6.004   6.129   5.051 -1.3430 -2.2520  2.5905
 6480SOL     OW20489   4.972   3.059   1.888 -0.2145 -0.1976 -0.1561
 6480SOL    HW120490   5.027   3.076   1.811  0.1942  2.0383  0.5385
 6480SOL    HW220491   4.883   3.051   1.853 -0.0898  1.1608 -0.8626
 6481SOL     OW20492   2.666   4.108   4.297 -0.1292  0.4234 -0.5023
 6481SOL    HW120493   2.655   4.039   4.232  0.0841 -0.5744  0.5005
 6481SOL    HW220494   2.590   4.164   4.286 -1.0777 -0.7991 -0.3627
 6482SOL     OW20495   7.423   6.177   7.104 -0.1629  0.0536  0.4171
 6482SOL    HW120496   7.483   6.251   7.093 -0.5362  0.4637  1.0142
 6482SOL    HW220497   7.477   6.099   7.088 -0.2221  0.4802 -2.2354
 6483SOL     OW20498   1.096   7.246   8.275  0.3875 -0.0845 -0.3575
 6483SOL    HW120499   1.026   7.283   8.329  0.2307 -1.4166  0.4220
 6483SOL    HW220500   1.059   7.241   8.187  0.3068  1.2609 -0.4115
 6484SOL     OW20501   6.871   0.533   5.946  0.7400 -0.6444  0.2532
 6484SOL    HW120502   6.897   0.584   5.869 -2.1168  3.4143  1.6102
 6484SOL    HW220503   6.954   0.509   5.988  2.3425  1.2747 -1.5973
 6485SOL     OW20504   5.544   4.301   3.165 -0.1198  0.1218 -0.1996
 6485SOL    HW120505   5.605   4.266   3.230  0.9294  0.1248 -1.1515
 6485SOL    HW220506   5.531   4.392   3.190  0.5908  0.2309 -0.2182
 6486SOL     OW20507   2.658   4.900   0.152  0.2604  0.5008  0.1694
 6486SOL    HW120508   2.651   4.911   0.246  1.1405  0.8069  0.2110
 6486SOL    HW220509   2.748   4.871   0.138 -0.3699 -1.2823 -0.4303
 6487SOL     OW20510   0.971   2.873   0.850 -0.5386 -0.0226 -0.3357
 6487SOL    HW120511   0.948   2.910   0.935  1.4625 -1.8405  1.1058
 6487SOL    HW220512   0.946   2.781   0.856 -1.3556  0.0145 -2.1867
 6488SOL     OW20513   3.916   2.077   4.095  0.5494 -0.1829  0.3465
 6488SOL    HW120514   3.906   2.132   4.172  1.5565  1.5172 -0.6614
 6488SOL    HW220515   3.992   2.022   4.114  0.2919 -0.3567  0.8787
 6489SOL     OW20516   7.398   5.267   1.878  0.0023  0.0609 -0.0259
 6489SOL    HW120517   7.341   5.303   1.811  0.0993  0.2983  0.0176
 6489SOL    HW220518   7.457   5.208   1.830 -0.7309 -0.7361  0.0283
 6490SOL     OW20519   6.518   7.960   0.264  0.1909 -0.2147 -0.5638
 6490SOL    HW120520   6.474   8.007   0.195  0.2053  0.3182 -0.2154
 6490SOL    HW220521   6.611   7.983   0.254  0.2742 -0.6153 -0.7382
 6491SOL     OW20522   6.386   6.528   7.866 -0.0865  0.5466 -0.4584
 6491SOL    HW120523   6.334   6.589   7.918 -0.4589 -0.7902  0.8228
 6491SOL    HW220524   6.476   6.557   7.878 -0.2417  0.7576  0.2694
 6492SOL     OW20525   4.014   1.014   6.188 -0.5861  0.5627 -0.4032
 6492SOL    HW120526   4.091   0.972   6.225 -0.1771  2.7390  1.4416
 6492SOL    HW220527   4.048   1.074   6.122 -0.5948  1.7639  0.6376
 6493SOL     OW20528   2.554   0.282   2.259  0.1701 -0.1573  0.2445
 6493SOL    HW120529   2.517   0.212   2.205  1.6540  0.4690 -1.6823
 6493SOL    HW220530   2.525   0.363   2.217 -0.2070  0.3940  1.5160
 6494SOL     OW20531   8.234   4.539   6.144 -0.0781  0.7510  0.1928
 6494SOL    HW120532   8.273   4.494   6.219 -0.7881 -0.4131 -0.1034
 6494SOL    HW220533   8.154   4.489   6.126 -0.5800  1.7834 -0.5461
 6495SOL     OW20534   7.093   8.169   4.494  0.0571 -0.1522  0.4310
 6495SOL    HW120535   7.018   8.113   4.514  0.3663 -0.7930 -0.1619
 6495SOL    HW220536   7.057   8.237   4.437 -0.6306  1.1451  2.2952
 6496SOL     OW20537   4.800   0.734   4.671  0.0740  0.1007  0.1767
 6496SOL    HW120538   4.750   0.796   4.618  0.0539 -0.9518 -1.0764
 6496SOL    HW220539   4.768   0.748   4.760 -0.1102  1.6944 -0.1123
 6497SOL     OW20540   3.217   5.714   7.356  0.0773 -0.0090 -0.4956
 6497SOL    HW120541   3.251   5.799   7.383  0.6512 -0.6639  0.9678
 6497SOL    HW220542   3.123   5.726   7.350  0.1084  0.6117  0.1706
 6498SOL     OW20543   0.422   4.203   5.663  0.5484 -0.1241 -0.7015
 6498SOL    HW120544   0.501   4.222   5.714  0.0825  0.2138 -0.1114
 6498SOL    HW220545   0.418   4.273   5.598  0.3339  0.2587 -0.2714
 6499SOL     OW20546   0.100   0.856   7.674 -0.8158  0.7211 -0.2813
 6499SOL    HW120547   0.119   0.799   7.749 -0.8166  1.2752  0.1540
 6499SOL    HW220548   0.015   0.826   7.642 -1.1063  0.8622  0.3273
 6500SOL     OW20549   0.203   6.280   2.963  0.5018 -0.5719  0.0974
 6500SOL    HW120550   0.241   6.328   3.036  0.4607 -0.9431  0.3621
 6500SOL    HW220551   0.163   6.348   2.908  0.1174 -0.3387  0.6608
 6501SOL     OW20552   0.911   7.338   1.886  0.5542 -0.0009  0.1758
 6501SOL    HW120553   0.899   7.379   1.972  0.8516 -1.4435  0.9420
 6501SOL    HW220554   1.004   7.314   1.884  0.6399  0.3537 -0.7278
 6502SOL     OW20555   6.435   6.081   4.013  0.3604  0.5280 -0.1142
 6502SOL    HW120556   6.460   6.128   4.092  1.2570  2.1429 -1.2931
 6502SOL    HW220557   6.488   6.001   4.014 -0.8192 -0.2919  1.6671
 6503SOL     OW20558   0.145   0.743   3.709 -0.3505  0.5059  0.2927
 6503SOL    HW120559   0.174   0.719   3.797 -0.7654  0.0108  0.2965
 6503SOL    HW220560   0.193   0.683   3.651  1.9123  2.4807 -0.0568
 6504SOL     OW20561   3.292   7.173   3.435  0.8834  0.2634  0.2926
 6504SOL    HW120562   3.375   7.131   3.457  0.0246 -0.6456  1.9794
 6504SOL    HW220563   3.284   7.246   3.496  0.6323  0.5974 -0.1342
 6505SOL     OW20564   3.010   0.303   5.607 -0.2145 -0.5870  0.5801
 6505SOL    HW120565   3.093   0.262   5.628  0.0487 -0.2180  0.2677
 6505SOL    HW220566   2.985   0.267   5.523  1.0745  1.4339 -0.7618
 6506SOL     OW20567   4.536   5.684   2.976  0.9197 -0.4421  0.0416
 6506SOL    HW120568   4.516   5.707   3.067  0.4517 -1.2562  0.1584
 6506SOL    HW220569   4.460   5.715   2.927  0.8763 -0.5761  0.0226
 6507SOL     OW20570   1.779   7.105   6.516  0.1389  0.1805 -0.2533
 6507SOL    HW120571   1.783   7.129   6.424 -1.2143  3.3347  0.3702
 6507SOL    HW220572   1.869   7.114   6.548  0.6123 -0.9304 -1.1915
 6508SOL     OW20573   2.641   7.446   7.798  0.1872  0.2811  0.0207
 6508SOL    HW120574   2.614   7.505   7.727  1.5753 -0.3162 -1.0453
 6508SOL    HW220575   2.576   7.376   7.797 -0.6129  1.0049  0.2970
 6509SOL     OW20576   2.821   0.518   0.707 -0.3773  0.1491 -0.0107
 6509SOL    HW120577   2.869   0.448   0.751 -1.8690 -0.1055  1.2656
 6509SOL    HW220578   2.812   0.487   0.617 -1.0101 -1.3083  0.5293
 6510SOL     OW20579   4.734   1.849   7.982  0.0628 -0.2534 -0.3207
 6510SOL    HW120580   4.793   1.824   7.911  2.9728 -0.6400  2.0738
 6510SOL    HW220581   4.774   1.926   8.021 -1.3184 -0.1836  1.0582
 6511SOL     OW20582   8.260   2.173   3.546  0.1224 -0.3680  0.5618
 6511SOL    HW120583   8.180   2.147   3.593 -0.7529 -0.3050 -0.8212
 6511SOL    HW220584   8.258   2.122   3.466  0.7438  0.6575 -0.1355
 6512SOL     OW20585   1.595   2.446   7.824  0.6955  0.6807  0.4399
 6512SOL    HW120586   1.543   2.498   7.885 -0.3449 -0.6097  0.6935
 6512SOL    HW220587   1.555   2.359   7.827  2.2569 -0.0905 -0.1151
 6513SOL     OW20588   0.564   0.850   0.027 -0.5035  0.1898  0.3506
 6513SOL    HW120589   0.579   0.799   0.106  2.6220 -1.8382 -1.3535
 6513SOL    HW220590   0.611   0.932   0.041  0.4468 -0.3628  0.4306
 6514SOL     OW20591   3.573   1.654   4.421 -0.2236 -0.5011 -0.1214
 6514SOL    HW120592   3.549   1.743   4.448 -0.4002 -0.1228 -1.4439
 6514SOL    HW220593   3.545   1.598   4.493 -1.2809  0.3845  0.1803
 6515SOL     OW20594   4.779   3.165   0.032  0.2026  0.3222 -0.1251
 6515SOL    HW120595   4.749   3.086  -0.014  0.2849 -0.0236  0.3985
 6515SOL    HW220596   4.847   3.202  -0.024 -0.3313  0.4188 -0.7199
 6516SOL     OW20597   7.575   2.531   0.359  0.1614  0.2005 -0.4176
 6516SOL    HW120598   7.515   2.493   0.423  1.7004  0.3497  1.1999
 6516SOL    HW220599   7.549   2.492   0.275 -0.2464 -2.0723  0.6843
 6517SOL     OW20600   1.602   6.973   4.880  0.6392  0.1365  0.3220
 6517SOL    HW120601   1.538   6.960   4.810 -0.9262  1.4437  1.4278
 6517SOL    HW220602   1.564   6.927   4.955  2.6240 -1.8299  0.2198
 6518SOL     OW20603   6.156   6.929   5.307 -0.3836 -0.1331 -0.6692
 6518SOL    HW120604   6.150   6.935   5.402 -2.0783  2.0518 -0.8210
 6518SOL    HW220605   6.084   6.871   5.282  0.4699 -1.2381 -0.6039
 6519SOL     OW20606   1.257   4.038   7.936 -0.4117 -0.2269 -0.2610
 6519SOL    HW120607   1.291   4.106   7.994  0.3592 -2.3366  1.8906
 6519SOL    HW220608   1.163   4.038   7.951 -0.7276  1.6257 -1.7992
 6520SOL     OW20609   6.640   0.753   2.406 -0.5379 -0.1156  0.1367
 6520SOL    HW120610   6.722   0.800   2.388  0.9139 -2.3680  0.4286
 6520SOL    HW220611   6.641   0.736   2.500 -2.1157  1.1086  0.4118
 6521SOL     OW20612   2.484   0.001   5.588  0.2627 -0.6840  0.1960
 6521SOL    HW120613   2.535  -0.001   5.669 -0.8008  0.8099  0.9360
 6521SOL    HW220614   2.478   0.094   5.565 -0.1899 -1.0159 -1.1199
 6522SOL     OW20615   1.735   2.522   4.032 -0.0019 -0.0906  0.1832
 6522SOL    HW120616   1.647   2.490   4.011 -0.3858  0.8930  0.2010
 6522SOL    HW220617   1.783   2.445   4.062 -1.2401 -0.4354  1.3654
 6523SOL     OW20618   6.934   2.662   2.891  0.5064  0.1142  0.8266
 6523SOL    HW120619   6.936   2.640   2.984  0.3552 -1.1380  0.5523
 6523SOL    HW220620   6.858   2.616   2.857  0.6676  0.4051  0.0466
 6524SOL     OW20621   5.339   7.524   7.963 -0.1966  0.1390 -0.3684
 6524SOL    HW120622   5.327   7.457   7.896  0.5408  1.1192 -1.5285
 6524SOL    HW220623   5.413   7.576   7.931 -0.3939  1.1584  0.7858
 6525SOL     OW20624   2.921   4.913   7.535 -0.5925 -0.0031  0.2051
 6525SOL    HW120625   2.956   4.946   7.452 -0.6438 -1.4483 -0.4195
 6525SOL    HW220626   2.851   4.974   7.557 -0.6515  0.3550 -0.8861
 6526SOL     OW20627   5.404   1.513   8.056 -0.5453  0.2675 -0.0965
 6526SOL    HW120628   5.428   1.575   8.125  0.6671 -2.7618  2.4216
 6526SOL    HW220629   5.322   1.475   8.086 -0.9072  0.1250 -1.2367
 6527SOL     OW20630   7.975   4.263   6.697 -0.2823  0.3760 -0.4532
 6527SOL    HW120631   8.035   4.233   6.628 -0.4635 -0.2722 -0.3345
 6527SOL    HW220632   7.888   4.249   6.660 -0.3842 -0.1078 -0.0437
 6528SOL     OW20633   3.545   0.176   2.835 -0.1783  0.4942  0.7465
 6528SOL    HW120634   3.619   0.115   2.822  1.0998  1.5875  2.4308
 6528SOL    HW220635   3.515   0.158   2.925 -0.8275  1.2574  0.6917
 6529SOL     OW20636   7.074   4.540   4.013  0.0765 -0.0361  0.9224
 6529SOL    HW120637   7.163   4.575   4.021  0.0357  0.0603  0.9623
 6529SOL    HW220638   7.021   4.616   3.990 -0.0198 -0.0664  1.0476
 6530SOL     OW20639   2.308   7.950   4.141 -0.6115 -0.2803 -0.0970
 6530SOL    HW120640   2.262   7.964   4.223  0.3342 -1.2353  0.6240
 6530SOL    HW220641   2.333   7.858   4.142  1.2537  0.1661 -0.4624
 6531SOL     OW20642   7.340   0.440   7.456 -0.0182  0.3739  0.3766
 6531SOL    HW120643   7.427   0.468   7.484  0.6605  1.1795 -2.2448
 6531SOL    HW220644   7.283   0.512   7.480  0.6395  1.2967 -0.6953
 6532SOL     OW20645   6.622   5.983   0.632  0.4978 -0.5226 -0.1499
 6532SOL    HW120646   6.677   5.989   0.554  2.1195 -1.0687  0.8990
 6532SOL    HW220647   6.593   6.073   0.648 -0.4799 -0.5158 -1.7661
 6533SOL     OW20648   3.038   7.227   0.567  0.3756  0.4036  0.1897
 6533SOL    HW120649   3.023   7.303   0.623 -1.1878  0.5766 -0.4018
 6533SOL    HW220650   3.125   7.196   0.591  0.6602  1.8154  1.1050
 6534SOL     OW20651   5.116   0.691   3.405  0.4738  0.0866 -0.1626
 6534SOL    HW120652   5.083   0.695   3.495 -0.6891 -1.1862 -0.5060
 6534SOL    HW220653   5.116   0.782   3.376 -0.8433  0.3276  0.5244
 6535SOL     OW20654   2.325   0.822   4.240 -0.5324 -0.1618  0.0456
 6535SOL    HW120655   2.301   0.914   4.230  1.9637  0.3290 -2.3837
 6535SOL    HW220656   2.260   0.775   4.188 -0.8306  0.3948 -0.0962
 6536SOL     OW20657   5.927   6.942   3.357 -0.0685 -0.1191  0.2558
 6536SOL    HW120658   5.884   6.939   3.272  1.2571 -1.5524 -0.4105
 6536SOL    HW220659   6.019   6.961   3.337  0.2230 -0.2750  1.3707
 6537SOL     OW20660   7.881   0.614   4.471  0.5066 -0.0797 -0.9445
 6537SOL    HW120661   7.791   0.641   4.456 -0.1655 -0.7841  1.4049
 6537SOL    HW220662   7.874   0.540   4.532  2.7126  0.4737  0.0657
 6538SOL     OW20663   4.639   3.212   6.307  0.5492 -0.0435  0.1566
 6538SOL    HW120664   4.586   3.288   6.329  1.0301  0.9260 -1.7698
 6538SOL    HW220665   4.595   3.173   6.231  0.3595 -1.6619  1.0686
 6539SOL     OW20666   5.093   2.302   1.265  0.1999  0.0484 -0.2169
 6539SOL    HW120667   5.012   2.253   1.274  0.8289 -0.8653  0.7552
 6539SOL    HW220668   5.070   2.378   1.212 -1.0322 -0.7604 -0.8838
 6540SOL     OW20669   5.521   2.455   5.834  0.3243 -0.4733 -0.2976
 6540SOL    HW120670   5.518   2.534   5.889  1.7628  0.5319 -1.6007
 6540SOL    HW220671   5.543   2.487   5.747  0.0440 -2.2483 -1.0578
 6541SOL     OW20672   7.814   5.865   5.390 -0.4548  0.2760 -0.0719
 6541SOL    HW120673   7.844   5.953   5.368 -0.4894  0.4395  0.5165
 6541SOL    HW220674   7.794   5.825   5.306 -0.8152  0.9627 -0.3240
 6542SOL     OW20675   4.198   5.579   7.647 -0.0377  0.3738  0.5579
 6542SOL    HW120676   4.278   5.592   7.698 -0.5156  0.1343  1.4088
 6542SOL    HW220677   4.182   5.484   7.652 -1.3382  0.6140  1.9657
 6543SOL     OW20678   1.067   4.316   5.666 -0.0471  0.7038  0.2196
 6543SOL    HW120679   1.096   4.316   5.757  0.6644 -0.8138  0.0199
 6543SOL    HW220680   1.075   4.408   5.639  0.9260  0.9659  1.3138
 6544SOL     OW20681   3.247   4.671   5.895  0.4934 -0.2827  0.4458
 6544SOL    HW120682   3.306   4.718   5.953  0.3907  1.1231 -0.5419
 6544SOL    HW220683   3.278   4.691   5.806 -0.3051 -1.0669 -0.0350
 6545SOL     OW20684   5.578   6.563   2.307 -0.6069 -0.6017 -0.0373
 6545SOL    HW120685   5.511   6.552   2.375 -0.7188  0.3099  0.0180
 6545SOL    HW220686   5.635   6.487   2.316  1.4873  1.1410  3.4570
 6546SOL     OW20687   0.500   6.933   8.263 -0.0215 -0.4894  0.0717
 6546SOL    HW120688   0.457   6.852   8.236 -1.6264  0.5758 -0.7204
 6546SOL    HW220689   0.512   6.924   8.358 -0.7290 -1.3993  0.0828
 6547SOL     OW20690   8.192   1.331   3.327  0.1226  0.0875 -0.3783
 6547SOL    HW120691   8.276   1.287   3.340 -1.0435 -1.8126  1.3145
 6547SOL    HW220692   8.200   1.414   3.375  1.9727  1.4010 -2.7149
 6548SOL     OW20693   2.088   1.925   7.728  0.3687  0.0755  0.6826
 6548SOL    HW120694   2.099   1.929   7.633 -1.5063  0.2186  0.4403
 6548SOL    HW220695   2.081   1.832   7.748 -1.5225  0.1122  0.3484
 6549SOL     OW20696   4.463   1.782   2.400 -0.0642  0.7459 -0.4448
 6549SOL    HW120697   4.492   1.844   2.467  1.9127 -0.1905 -0.3511
 6549SOL    HW220698   4.407   1.720   2.447 -0.5933  1.4186 -0.1721
 6550SOL     OW20699   5.259   7.524   4.656  0.1626 -0.4325  0.0624
 6550SOL    HW120700   5.278   7.457   4.722 -2.8210  0.1485  1.7207
 6550SOL    HW220701   5.261   7.606   4.704  1.5082  0.4669 -1.4462
 6551SOL     OW20702   3.955   5.308   4.106  0.3086  0.1352  0.0540
 6551SOL    HW120703   3.871   5.297   4.061 -0.0097 -1.0728  0.8749
 6551SOL    HW220704   3.974   5.401   4.100  0.2906  0.0283 -2.5535
 6552SOL     OW20705   6.228   5.113   4.528 -0.2679  0.4832  0.7883
 6552SOL    HW120706   6.305   5.097   4.474 -0.4594 -0.4305  0.7635
 6552SOL    HW220707   6.153   5.094   4.471 -0.4954  0.6060  1.0394
 6553SOL     OW20708   2.419   1.478   2.808  0.0498 -0.5389 -0.3987
 6553SOL    HW120709   2.377   1.404   2.765  0.7927 -1.0269 -0.2986
 6553SOL    HW220710   2.503   1.444   2.838  1.1846  0.7676 -1.8921
 6554SOL     OW20711   1.774   1.632   1.803  0.1690 -0.0666  0.2680
 6554SOL    HW120712   1.853   1.617   1.751  0.5959  0.9716  0.5910
 6554SOL    HW220713   1.791   1.587   1.886  0.3254 -0.0362  0.2518
 6555SOL     OW20714   7.985   4.989   4.792 -0.4097 -0.5651 -0.2616
 6555SOL    HW120715   7.982   5.027   4.705 -0.8333 -2.0670 -0.9422
 6555SOL    HW220716   7.964   5.062   4.851 -2.3709  0.0094 -1.5781
 6556SOL     OW20717   7.326   4.033   2.751 -0.8016  0.6227 -0.0330
 6556SOL    HW120718   7.328   4.128   2.767 -1.9413  0.4461  1.2775
 6556SOL    HW220719   7.242   4.019   2.707  0.0056  0.3861 -1.5709
 6557SOL     OW20720   6.532   2.299   2.340  0.3103  0.1514  0.0485
 6557SOL    HW120721   6.551   2.216   2.298  0.8739 -0.2573  1.0699
 6557SOL    HW220722   6.614   2.348   2.334  0.5631 -0.1135  1.0903
 6558SOL     OW20723   6.247   7.702   0.446  0.0111  1.1522 -0.3401
 6558SOL    HW120724   6.152   7.707   0.448 -0.1584 -1.2636  0.5367
 6558SOL    HW220725   6.275   7.741   0.529 -0.3084  0.7103 -0.0219
 6559SOL     OW20726   7.624   0.762   4.468 -0.3519 -0.6512  0.3120
 6559SOL    HW120727   7.610   0.672   4.499 -1.0301 -0.5423  0.3235
 6559SOL    HW220728   7.556   0.776   4.402 -1.2412  0.3875  1.4227
 6560SOL     OW20729   1.548   2.037   6.465 -0.5480  0.2320  0.0704
 6560SOL    HW120730   1.618   2.101   6.472  0.0517 -0.1857 -1.6815
 6560SOL    HW220731   1.534   2.006   6.554  1.0816  0.7588  0.5289
 6561SOL     OW20732   3.304   7.490   0.715 -0.2769 -0.4466  0.1868
 6561SOL    HW120733   3.395   7.466   0.702 -0.6464 -1.4374 -0.7169
 6561SOL    HW220734   3.307   7.582   0.743  0.9510 -0.1595 -0.7973
 6562SOL     OW20735   8.010   7.921   3.418 -0.1978 -0.0887 -0.1905
 6562SOL    HW120736   7.922   7.906   3.453 -0.8921  0.8693 -1.4596
 6562SOL    HW220737   8.069   7.886   3.486 -1.5442 -1.1663  0.4781
 6563SOL     OW20738   6.643   0.383   3.874  0.6047 -0.2516  0.3944
 6563SOL    HW120739   6.679   0.469   3.896  0.0639 -0.1386  0.8516
 6563SOL    HW220740   6.564   0.376   3.927  0.3352 -0.7928 -0.0686
 6564SOL     OW20741   3.241   5.726   5.098 -0.1689  0.2834  0.1942
 6564SOL    HW120742   3.185   5.800   5.075  0.9358  0.1045 -3.7420
 6564SOL    HW220743   3.185   5.669   5.151 -1.9964  2.4348  0.7384
 6565SOL     OW20744   3.610   3.683   0.565 -0.2225 -0.0856  0.2660
 6565SOL    HW120745   3.626   3.594   0.595  0.1790  0.2906  1.2010
 6565SOL    HW220746   3.689   3.707   0.517  0.4406  0.3913  1.5551
 6566SOL     OW20747   0.422   7.511   2.217  0.3402 -0.0071  0.1918
 6566SOL    HW120748   0.351   7.560   2.174 -0.6957 -0.6908  1.0724
 6566SOL    HW220749   0.464   7.463   2.147 -2.2254 -2.2369  0.0270
 6567SOL     OW20750   4.426   6.264   5.058  0.1615  0.5616 -0.5944
 6567SOL    HW120751   4.351   6.209   5.034  0.8541 -0.7093  0.0562
 6567SOL    HW220752   4.471   6.281   4.976 -0.3512  0.5957 -0.8702
 6568SOL     OW20753   6.804   5.373   1.223  0.1261 -0.0475  0.0947
 6568SOL    HW120754   6.875   5.321   1.261  0.0871 -0.1744 -0.0058
 6568SOL    HW220755   6.768   5.318   1.154 -0.6276 -0.3393  0.7003
 6569SOL     OW20756   0.253   7.196   4.527 -0.6846  0.0241 -0.2471
 6569SOL    HW120757   0.230   7.163   4.440  2.5131 -2.2845 -0.4177
 6569SOL    HW220758   0.303   7.276   4.510 -0.2533 -0.3039 -0.5526
 6570SOL     OW20759   6.900   6.050   4.964  0.3185  0.3163 -0.0108
 6570SOL    HW120760   6.840   6.124   4.970  1.3827  1.3374 -1.2437
 6570SOL    HW220761   6.845   5.977   4.934 -0.0953  1.6190 -2.7144
 6571SOL     OW20762   3.326   2.002   5.871  0.4532 -0.0445  0.6717
 6571SOL    HW120763   3.272   2.081   5.874  0.8892  0.3290 -0.6544
 6571SOL    HW220764   3.394   2.022   5.808  1.5858 -0.8725  1.5880
 6572SOL     OW20765   6.638   5.710   6.351  0.4474 -0.3292 -0.4295
 6572SOL    HW120766   6.645   5.643   6.419 -0.0992  0.3109  0.2845
 6572SOL    HW220767   6.660   5.665   6.270  1.2419 -1.0791  0.1909
 6573SOL     OW20768   3.007   0.848   7.549  0.3790 -0.4408  0.1220
 6573SOL    HW120769   3.045   0.770   7.590 -0.6881 -1.6069 -1.0119
 6573SOL    HW220770   2.999   0.824   7.456  1.1561  1.4815 -0.5032
 6574SOL     OW20771   3.756   7.338   2.615  0.3071  0.1325  0.4633
 6574SOL    HW120772   3.706   7.295   2.684 -0.6437 -0.2779 -0.4537
 6574SOL    HW220773   3.730   7.430   2.621  0.5047  0.1634  0.8789
 6575SOL     OW20774   5.833   2.575   3.664 -0.1455  0.9535  0.3519
 6575SOL    HW120775   5.818   2.592   3.757  0.9445  1.5890  0.4367
 6575SOL    HW220776   5.755   2.528   3.635 -0.4134  0.5596  1.6360
 6576SOL     OW20777   4.532   2.492   2.512  0.6542 -0.3302  0.0553
 6576SOL    HW120778   4.555   2.486   2.419  3.2811 -1.9638  0.6873
 6576SOL    HW220779   4.440   2.518   2.513  0.6783  0.1932 -2.9690
 6577SOL     OW20780   7.187   4.692   0.285 -0.0421 -0.6616 -0.7500
 6577SOL    HW120781   7.264   4.695   0.341 -0.5244 -0.9455 -0.0494
 6577SOL    HW220782   7.116   4.725   0.340 -0.0589  1.7008 -2.0648
 6578SOL     OW20783   5.954   4.238   2.464 -0.1203 -0.2093 -0.5635
 6578SOL    HW120784   6.014   4.311   2.448  0.1300 -0.0776  0.8169
 6578SOL    HW220785   5.876   4.280   2.500 -1.1769 -0.3540 -2.5530
 6579SOL     OW20786   3.843   0.657   6.471  0.5205 -0.5793 -0.4134
 6579SOL    HW120787   3.925   0.609   6.465  0.7836 -0.0937 -0.8679
 6579SOL    HW220788   3.776   0.591   6.487  1.1266 -0.8783  1.0305
 6580SOL     OW20789   6.362   0.823   7.939  0.2654  0.5156  0.1116
 6580SOL    HW120790   6.342   0.749   7.997 -0.5199  0.0651 -0.7177
 6580SOL    HW220791   6.431   0.871   7.986 -0.5540  0.3459  1.5692
 6581SOL     OW20792   5.654   2.930   0.926 -0.3783 -0.3461 -0.2895
 6581SOL    HW120793   5.640   2.853   0.980 -1.7621  0.6584  0.8865
 6581SOL    HW220794   5.739   2.917   0.885 -1.6539 -3.6972 -2.2114
 6582SOL     OW20795   7.330   5.529   3.034  0.1328 -0.6625  0.2121
 6582SOL    HW120796   7.257   5.495   2.983  0.8024  0.8839 -1.9722
 6582SOL    HW220797   7.391   5.455   3.040 -0.1366 -1.0159 -0.9860
 6583SOL     OW20798   5.570   2.166   3.878  0.0143 -0.0124  0.0721
 6583SOL    HW120799   5.491   2.112   3.876  0.4225 -0.6132 -0.6200
 6583SOL    HW220800   5.539   2.254   3.859 -0.5865 -0.1022  0.6036
 6584SOL     OW20801   5.377   1.385   0.499  0.0597 -0.2636  0.2588
 6584SOL    HW120802   5.403   1.318   0.437 -0.1442 -0.1919  0.0955
 6584SOL    HW220803   5.381   1.342   0.585 -0.1357 -0.5023  0.1484
 6585SOL     OW20804   2.970   1.402   2.617  0.3542 -0.6537  0.0690
 6585SOL    HW120805   2.887   1.446   2.638  0.2990 -0.0095 -1.3779
 6585SOL    HW220806   3.004   1.374   2.702 -0.9784 -0.2718  0.7664
 6586SOL     OW20807   3.468   5.464   3.865  0.0483  0.0858  0.0976
 6586SOL    HW120808   3.553   5.506   3.860  0.3853 -0.6676 -0.7868
 6586SOL    HW220809   3.405   5.533   3.845  0.4558  0.5931  0.5351
 6587SOL     OW20810   5.804   5.750   8.204  0.1675  0.1911  0.4009
 6587SOL    HW120811   5.855   5.732   8.283  1.2416 -0.4292 -0.4207
 6587SOL    HW220812   5.864   5.798   8.147 -0.1807 -0.4987 -0.5566
 6588SOL     OW20813   3.168   7.008   4.156  0.0722  0.2932 -0.4376
 6588SOL    HW120814   3.219   7.054   4.089  0.1380  0.9096  0.0235
 6588SOL    HW220815   3.233   6.971   4.214  0.0271  1.9525  0.7365
 6589SOL     OW20816   0.632   6.322   4.833  0.4282 -0.5502 -0.6502
 6589SOL    HW120817   0.589   6.262   4.893  0.1749 -0.1229 -0.4021
 6589SOL    HW220818   0.671   6.265   4.766  0.6569 -1.0197 -0.1234
 6590SOL     OW20819   0.006   2.624   7.571  0.4096  0.1004  0.1309
 6590SOL    HW120820  -0.037   2.565   7.510  1.1352  0.9469 -1.2602
 6590SOL    HW220821   0.099   2.617   7.550  0.5220  1.6792 -0.0653
 6591SOL     OW20822   2.938   4.726   5.935  0.1082  0.5500 -0.4616
 6591SOL    HW120823   3.031   4.732   5.914  0.5435  2.4574  1.6009
 6591SOL    HW220824   2.927   4.783   6.012 -2.3402 -1.3835  0.7764
 6592SOL     OW20825   3.436   5.255   3.083  0.1458 -0.2240 -0.1802
 6592SOL    HW120826   3.444   5.160   3.075 -3.6068 -0.8532  1.1690
 6592SOL    HW220827   3.472   5.275   3.169  0.1080 -0.6127 -0.0706
 6593SOL     OW20828   4.116   3.790   7.228  0.8264  0.2019 -0.3574
 6593SOL    HW120829   4.099   3.884   7.220  2.6608  0.4278 -3.2693
 6593SOL    HW220830   4.044   3.748   7.181  1.0619  0.3013 -0.8149
 6594SOL     OW20831   7.303   3.796   3.626  0.5265  0.4477 -0.9717
 6594SOL    HW120832   7.263   3.814   3.711  1.0118 -2.0027 -0.1358
 6594SOL    HW220833   7.231   3.768   3.570  0.5067 -0.1463 -0.6556
 6595SOL     OW20834   4.482   0.670   3.617 -0.0888  0.3643 -0.4208
 6595SOL    HW120835   4.561   0.631   3.579  1.3670  1.1917  1.5859
 6595SOL    HW220836   4.419   0.598   3.620  1.4108 -0.9823  0.1385
 6596SOL     OW20837   2.944   3.402   4.537 -0.2692  0.3698  0.3745
 6596SOL    HW120838   2.888   3.335   4.577 -1.5550  1.5466  0.6193
 6596SOL    HW220839   2.912   3.408   4.447  0.3338  0.1556  0.1408
 6597SOL     OW20840   7.235   6.975   7.577 -0.2060  0.3473 -0.1146
 6597SOL    HW120841   7.315   6.963   7.527  1.2480  2.0622  1.6502
 6597SOL    HW220842   7.264   6.987   7.668 -2.3124  2.4750  0.3967
 6598SOL     OW20843   3.851   7.723   7.915 -0.1766  0.3771 -0.3406
 6598SOL    HW120844   3.836   7.687   7.828  2.5075 -0.3251 -0.5979
 6598SOL    HW220845   3.791   7.797   7.921  0.5107  1.3358 -3.3714
 6599SOL     OW20846   5.711   6.129   7.507 -0.0667  0.8238  0.4635
 6599SOL    HW120847   5.701   6.157   7.598 -0.5165  1.1989  0.3035
 6599SOL    HW220848   5.805   6.116   7.496 -0.0200  0.6722  1.0122
 6600SOL     OW20849   3.136   2.152   5.129 -0.5300  0.2795 -0.3649
 6600SOL    HW120850   3.066   2.183   5.188 -1.0892  0.0524 -0.9041
 6600SOL    HW220851   3.130   2.057   5.133  0.6368  0.2233  0.6248
 6601SOL     OW20852   1.956   4.788   5.089 -0.2889  0.2254  0.0505
 6601SOL    HW120853   1.918   4.765   5.173 -0.1991 -0.5280 -0.1049
 6601SOL    HW220854   1.962   4.705   5.042 -0.6742  0.6839 -0.8386
 6602SOL     OW20855   4.626   0.429   3.727  0.4599 -0.1504  0.0258
 6602SOL    HW120856   4.553   0.438   3.788  0.2117 -0.3922 -0.2353
 6602SOL    HW220857   4.696   0.390   3.779 -0.3545 -2.1501 -0.2936
 6603SOL     OW20858   0.058   4.351   6.490 -0.1960  0.3589 -0.6904
 6603SOL    HW120859   0.100   4.416   6.432  2.3152  0.8015  1.4270
 6603SOL    HW220860  -0.011   4.400   6.534  1.8496  1.8451  1.0919
 6604SOL     OW20861   0.758   6.806   4.750 -0.0894 -0.2684  0.4545
 6604SOL    HW120862   0.758   6.902   4.759 -0.3848 -0.3097  0.9464
 6604SOL    HW220863   0.824   6.777   4.813 -1.2776 -0.4899  1.6491
 6605SOL     OW20864   8.100   7.098   4.424  0.5348  0.0647  0.4179
 6605SOL    HW120865   8.063   7.173   4.376  2.1823  1.6387  1.4542
 6605SOL    HW220866   8.026   7.060   4.471 -0.8389 -0.6119 -2.1209
 6606SOL     OW20867   0.572   5.952   2.147 -0.9434  0.7862 -0.1700
 6606SOL    HW120868   0.503   5.941   2.212 -1.4429  0.5366 -0.7378
 6606SOL    HW220869   0.653   5.949   2.199 -1.2740 -0.5510  0.3328
 6607SOL     OW20870   0.392   2.391   2.689 -0.2731  0.5881  0.0537
 6607SOL    HW120871   0.461   2.372   2.753  0.5516 -1.4568 -1.3459
 6607SOL    HW220872   0.432   2.450   2.626  0.2131 -0.5085 -0.6954
 6608SOL     OW20873   1.882   3.657   2.310  0.2536  0.3239 -0.1678
 6608SOL    HW120874   1.865   3.750   2.300  1.3780  0.4150 -1.7247
 6608SOL    HW220875   1.977   3.648   2.297  0.3621 -0.9100  1.1450
 6609SOL     OW20876   8.243   5.140   1.030  0.4272  0.3060  0.4146
 6609SOL    HW120877   8.326   5.173   0.995  0.3430  0.3519  0.2579
 6609SOL    HW220878   8.267   5.098   1.112  0.6433  0.0766  0.2331
 6610SOL     OW20879   2.937   1.385   5.794  0.1678  0.2234 -0.9155
 6610SOL    HW120880   2.852   1.410   5.829  0.8267  1.2247  0.0324
 6610SOL    HW220881   2.917   1.339   5.712 -1.3217 -0.5745 -0.1380
 6611SOL     OW20882   0.719   4.474   4.321 -0.4391 -0.3931  0.4927
 6611SOL    HW120883   0.658   4.541   4.352 -1.2879 -0.9364  0.0598
 6611SOL    HW220884   0.765   4.516   4.248 -2.1188 -0.7413 -0.8610
 6612SOL     OW20885   1.725   7.157   6.252  0.4597  0.0246 -0.5251
 6612SOL    HW120886   1.727   7.062   6.264  0.3925 -0.0057 -0.7514
 6612SOL    HW220887   1.652   7.172   6.192  1.0695  0.1346 -1.2586
 6613SOL     OW20888   0.240   6.726   5.855  0.6577  0.1264  0.0922
 6613SOL    HW120889   0.317   6.690   5.812  2.0084  0.5839  1.9897
 6613SOL    HW220890   0.269   6.811   5.888 -1.1093  0.9569 -0.3884
 6614SOL     OW20891   2.363   8.106   6.063 -0.1610 -0.8117  0.0363
 6614SOL    HW120892   2.377   8.189   6.110  0.1780  0.1807 -1.7502
 6614SOL    HW220893   2.449   8.083   6.028 -0.6758 -0.7517 -1.3186
 6615SOL     OW20894   6.341   1.327   1.880  0.1103 -0.3073  0.3766
 6615SOL    HW120895   6.293   1.301   1.802 -1.0010  3.3432 -0.3667
 6615SOL    HW220896   6.274   1.332   1.949  0.5016 -0.5707  0.7830
 6616SOL     OW20897   3.825   5.791   4.786  0.6959  0.5154 -0.3833
 6616SOL    HW120898   3.805   5.873   4.830  1.3926  1.3689 -1.5780
 6616SOL    HW220899   3.907   5.761   4.826  1.6524  1.5990 -1.4309
 6617SOL     OW20900   0.516   7.116   7.212 -0.3044 -0.6265  0.1490
 6617SOL    HW120901   0.505   7.029   7.174  1.5374 -0.7459 -0.1982
 6617SOL    HW220902   0.570   7.102   7.290 -3.2204 -0.2608  2.4476
 6618SOL     OW20903   6.003   1.455   5.545  0.2511 -0.0257 -0.3364
 6618SOL    HW120904   6.009   1.537   5.595  0.1584 -1.7588  2.7915
 6618SOL    HW220905   5.944   1.401   5.596 -0.5693 -1.7208 -2.9125
 6619SOL     OW20906   7.127   2.810   5.386 -0.5235  0.2003 -0.0896
 6619SOL    HW120907   7.156   2.857   5.464 -1.5068  0.3476  0.2058
 6619SOL    HW220908   7.160   2.862   5.313  0.4518  0.0315  0.2248
 6620SOL     OW20909   5.574   6.677   5.529  0.4107 -0.2643  0.6481
 6620SOL    HW120910   5.528   6.679   5.612 -0.8985 -4.0927  0.2372
 6620SOL    HW220911   5.660   6.639   5.550  1.1321  1.2349  0.5499
 6621SOL     OW20912   1.440   7.920   0.313 -0.2746  0.2623  0.4195
 6621SOL    HW120913   1.370   7.978   0.343  0.5519  0.4267  2.1769
 6621SOL    HW220914   1.516   7.945   0.365  0.8043 -0.6733 -0.6359
 6622SOL     OW20915   7.760   3.692   4.342  0.1772 -0.3427 -0.3732
 6622SOL    HW120916   7.822   3.764   4.333  0.1670  0.2948  3.2622
 6622SOL    HW220917   7.692   3.725   4.400 -0.1023 -3.0971  1.0446
 6623SOL     OW20918   7.609   2.357   8.068 -0.2636  0.9722 -0.3546
 6623SOL    HW120919   7.538   2.406   8.026 -0.8697  0.1569 -0.3064
 6623SOL    HW220920   7.584   2.352   8.160  0.7284  2.1700  0.0080
 6624SOL     OW20921   5.400   3.151   4.684  0.0498 -0.4357  0.3832
 6624SOL    HW120922   5.476   3.093   4.684  0.5154  0.1150  2.1363
 6624SOL    HW220923   5.427   3.227   4.735 -1.0424  0.6727 -0.6218
 6625SOL     OW20924   6.159   3.410   5.427 -0.0862  0.1311 -0.2632
 6625SOL    HW120925   6.182   3.347   5.359 -1.2227  0.3599 -0.8818
 6625SOL    HW220926   6.160   3.358   5.508 -1.2807 -0.7892 -0.7960
 6626SOL     OW20927   2.670   4.410   3.995 -0.4463 -0.2519  0.5353
 6626SOL    HW120928   2.671   4.470   4.069 -0.3205 -1.0871  1.2228
 6626SOL    HW220929   2.580   4.414   3.962 -0.1391  1.2405 -0.2215
 6627SOL     OW20930   3.414   5.404   6.980  0.7317  0.0204  0.2096
 6627SOL    HW120931   3.505   5.381   6.995  0.6790 -0.5321 -0.3113
 6627SOL    HW220932   3.417   5.469   6.910  0.7575  0.4247  0.5761
 6628SOL     OW20933   0.033   4.418   6.770 -0.2305  0.3623  0.4694
 6628SOL    HW120934   0.064   4.343   6.720 -1.9215  0.1816 -0.3956
 6628SOL    HW220935   0.112   4.470   6.788  0.9715 -1.5865  1.1087
 6629SOL     OW20936   2.147   0.119   6.196  0.2687  0.2330  0.1169
 6629SOL    HW120937   2.230   0.138   6.241 -1.0131 -0.6665  3.1311
 6629SOL    HW220938   2.093   0.196   6.215  0.6026  1.2339 -2.6051
 6630SOL     OW20939   7.604   2.101   0.482  0.5639 -0.0044  0.3593
 6630SOL    HW120940   7.548   2.071   0.554 -0.3522  1.3476  0.2469
 6630SOL    HW220941   7.646   2.021   0.450 -1.6986 -1.1782  0.1017
 6631SOL     OW20942   5.549   4.975   6.141 -0.1974  0.3605 -0.7645
 6631SOL    HW120943   5.527   4.886   6.169  2.7137  0.1854  1.4710
 6631SOL    HW220944   5.511   5.032   6.209 -0.8188  0.7601 -1.4213
 6632SOL     OW20945   0.721   1.417   1.193  0.1268 -0.5702  0.0896
 6632SOL    HW120946   0.745   1.369   1.272  0.2646  0.5079  0.7259
 6632SOL    HW220947   0.651   1.476   1.221  0.6543  0.3228 -0.4022
 6633SOL     OW20948   1.401   1.598   0.532 -0.0640  0.7527  0.5467
 6633SOL    HW120949   1.481   1.549   0.514 -0.5823 -0.9873  2.6477
 6633SOL    HW220950   1.330   1.542   0.498 -0.4896  1.9160 -0.5846
 6634SOL     OW20951   6.815   4.017   7.379  0.2573 -0.2530 -0.1016
 6634SOL    HW120952   6.769   4.078   7.436  1.4877  0.4097  0.2045
 6634SOL    HW220953   6.747   3.954   7.353 -0.4067 -0.4204  1.8566
 6635SOL     OW20954   3.822   1.573   7.714 -0.3725 -0.2180 -0.2590
 6635SOL    HW120955   3.746   1.567   7.772  0.3488 -0.9854  0.6412
 6635SOL    HW220956   3.842   1.667   7.710 -0.9098 -0.0857  0.0846
 6636SOL     OW20957   0.742   3.145   8.170 -0.3109 -0.0749 -0.3067
 6636SOL    HW120958   0.728   3.068   8.224 -0.2135  1.8050  2.6218
 6636SOL    HW220959   0.802   3.116   8.101 -1.0539 -2.7859  0.0907
 6637SOL     OW20960   1.262   6.717   4.197  1.1593 -0.2432 -0.4215
 6637SOL    HW120961   1.194   6.779   4.171 -0.0698 -1.4021 -0.0550
 6637SOL    HW220962   1.343   6.755   4.163  0.2492  0.8026 -1.5108
 6638SOL     OW20963   6.171   5.700   4.132  0.0597  0.2807 -0.2530
 6638SOL    HW120964   6.150   5.709   4.039  1.7971 -1.2403 -0.8471
 6638SOL    HW220965   6.087   5.680   4.173 -0.2922 -2.2098 -1.9913
 6639SOL     OW20966   4.792   3.832   6.148 -0.3096  0.0430  0.4828
 6639SOL    HW120967   4.869   3.869   6.104 -0.0927 -2.7920 -1.8485
 6639SOL    HW220968   4.822   3.814   6.237  1.5081 -0.2649 -0.1469
 6640SOL     OW20969   7.932   0.449   4.216 -0.3193 -0.5088 -0.1397
 6640SOL    HW120970   7.914   0.480   4.304  1.0893 -0.1727  0.0551
 6640SOL    HW220971   7.943   0.354   4.225  0.7940 -0.3578  0.2358
 6641SOL     OW20972   0.082   5.341   1.968 -0.2532 -0.0681  0.6791
 6641SOL    HW120973   0.081   5.251   2.000 -1.0821  0.0410  1.0061
 6641SOL    HW220974   0.009   5.383   2.014  0.2062  0.8053  0.6302
 6642SOL     OW20975   5.239   0.666   7.226 -0.0172 -0.0337 -0.1705
 6642SOL    HW120976   5.278   0.744   7.265  0.0058 -0.2019  0.1487
 6642SOL    HW220977   5.313   0.619   7.187 -0.1782  0.6546 -1.3467
 6643SOL     OW20978   1.401   6.152   2.645  0.1079 -0.3470 -0.0845
 6643SOL    HW120979   1.393   6.140   2.740 -1.0452 -1.1759 -0.2741
 6643SOL    HW220980   1.371   6.070   2.608 -1.6821  0.7479 -1.2331
 6644SOL     OW20981   2.317   5.272   3.948 -0.1370 -0.3113  0.2530
 6644SOL    HW120982   2.400   5.284   3.901 -1.4679 -0.5070 -2.3445
 6644SOL    HW220983   2.296   5.359   3.983  1.3342 -0.3555  1.3010
 6645SOL     OW20984   0.997   0.613   6.995  0.5720 -0.2901  0.0495
 6645SOL    HW120985   0.966   0.598   7.084  1.9594  0.2852  0.6614
 6645SOL    HW220986   1.047   0.534   6.974 -2.3664 -1.9046 -1.5061
 6646SOL     OW20987   7.189   1.970   5.786  0.1289  0.2887  0.5510
 6646SOL    HW120988   7.156   1.925   5.709 -0.7886  1.3092  0.3243
 6646SOL    HW220989   7.111   2.004   5.830  0.7104  0.6615  1.3308
 6647SOL     OW20990   2.489   7.932   5.670  0.3152  0.0973  0.0428
 6647SOL    HW120991   2.458   7.955   5.583  1.4991 -0.1199 -0.4457
 6647SOL    HW220992   2.438   7.988   5.729 -1.0271 -0.2772 -0.7189
 6648SOL     OW20993   5.760   2.627   1.753 -0.3291  1.0819  0.2287
 6648SOL    HW120994   5.759   2.721   1.773 -0.9994  1.3268 -0.8811
 6648SOL    HW220995   5.845   2.612   1.713 -0.1889  1.1957  0.4792
 6649SOL     OW20996   0.859   1.370   0.465 -0.0564  0.2215  0.5722
 6649SOL    HW120997   0.764   1.377   0.458  0.0049  0.2087 -0.4239
 6649SOL    HW220998   0.890   1.460   0.471 -0.0962  0.2527  0.3203
 6650SOL     OW20999   0.067   1.739   2.099  0.0792 -0.1608  0.3631
 6650SOL    HW121000   0.039   1.747   2.008 -1.4679  0.7917  0.8790
 6650SOL    HW221001  -0.014   1.724   2.148  1.1060 -3.1615  1.3725
 6651SOL     OW21002   1.854   5.311   7.828  0.2244 -0.4314 -0.2015
 6651SOL    HW121003   1.817   5.372   7.764 -0.8601 -2.5372 -1.7183
 6651SOL    HW221004   1.860   5.227   7.781  2.2154 -1.4014  1.5767
 6652SOL     OW21005   2.391   5.908   7.749  0.0365 -0.3786  0.0382
 6652SOL    HW121006   2.302   5.939   7.730  0.8198  1.8787 -0.3754
 6652SOL    HW221007   2.393   5.818   7.718 -1.7680 -0.0818 -1.0901
 6653SOL     OW21008   3.891   2.136   1.614  0.0716 -0.3929 -0.4346
 6653SOL    HW121009   3.835   2.089   1.551  0.5433 -0.5029 -0.7828
 6653SOL    HW221010   3.844   2.130   1.697 -0.4159 -0.5132 -0.7127
 6654SOL     OW21011   5.160   6.979   4.499 -0.6438 -0.0559 -0.6330
 6654SOL    HW121012   5.145   7.063   4.541 -0.6259  0.4792 -1.6711
 6654SOL    HW221013   5.076   6.956   4.460 -2.1285 -2.8656  3.5901
 6655SOL     OW21014   7.237   0.491   3.821 -0.3206  0.0474 -0.3480
 6655SOL    HW121015   7.280   0.576   3.813 -0.5706  0.0978 -1.2682
 6655SOL    HW221016   7.241   0.470   3.915 -1.0308  1.4791  0.0241
 6656SOL     OW21017   0.675   1.962   0.137 -0.1309 -0.2566  0.1525
 6656SOL    HW121018   0.596   1.984   0.088  0.2318  0.3059 -0.1931
 6656SOL    HW221019   0.656   1.876   0.176 -0.7015 -0.3712 -0.3643
 6657SOL     OW21020   7.434   2.757   7.578  0.5888 -0.3768 -0.2969
 6657SOL    HW121021   7.374   2.787   7.509 -0.5103 -0.8768  0.4146
 6657SOL    HW221022   7.519   2.793   7.553  0.1912 -0.4478 -1.8511
 6658SOL     OW21023   3.848   6.157   7.939 -0.2246 -0.1359 -0.0036
 6658SOL    HW121024   3.887   6.157   7.852  1.0057  0.6748  0.5191
 6658SOL    HW221025   3.846   6.065   7.964 -0.0875 -0.3283 -0.6746
 6659SOL     OW21026   0.433   5.550   3.572  0.1065 -0.0253  0.3955
 6659SOL    HW121027   0.448   5.524   3.481 -0.3601 -0.4238  0.4273
 6659SOL    HW221028   0.347   5.513   3.593 -0.0724  0.6135  0.7975
 6660SOL     OW21029   1.259   4.223   6.771 -1.0476 -0.3581  0.2465
 6660SOL    HW121030   1.312   4.150   6.740 -1.7740 -0.5683 -0.5285
 6660SOL    HW221031   1.254   4.211   6.866  3.0709  1.5128  0.9221
 6661SOL     OW21032   6.406   7.778   1.473  0.4523  0.4345 -0.8725
 6661SOL    HW121033   6.447   7.700   1.511 -1.5332 -0.1721  0.1297
 6661SOL    HW221034   6.312   7.762   1.480 -0.0306  3.1592 -0.0951
 6662SOL     OW21035   5.180   5.464   0.831  0.1534  0.1519  0.1661
 6662SOL    HW121036   5.230   5.471   0.912 -1.6792  0.2375  1.3393
 6662SOL    HW221037   5.119   5.538   0.833 -0.6720 -0.4674 -0.7415
 6663SOL     OW21038   4.907   4.964   0.886  0.4466 -0.3834 -0.3629
 6663SOL    HW121039   4.842   5.001   0.826  0.3735  1.0880  0.5680
 6663SOL    HW221040   4.859   4.952   0.968  0.8065 -1.3688 -0.2896
 6664SOL     OW21041   5.364   3.806   3.888  0.3934  0.2820  0.3042
 6664SOL    HW121042   5.299   3.844   3.828 -0.3348 -0.4593  0.6072
 6664SOL    HW221043   5.321   3.805   3.973  0.5203 -0.8817  0.3713
 6665SOL     OW21044   1.085   2.618   2.292  0.1290 -0.6955  0.6510
 6665SOL    HW121045   1.007   2.672   2.294 -1.3059 -2.6719  1.5854
 6665SOL    HW221046   1.157   2.678   2.311 -0.9791  1.3780 -1.2675
 6666SOL     OW21047   7.241   5.833   6.266  0.3236  0.2760 -0.3716
 6666SOL    HW121048   7.168   5.772   6.260  1.4744 -1.1651 -0.2059
 6666SOL    HW221049   7.225   5.897   6.196 -1.3139  0.2758 -0.0387
 6667SOL     OW21050   3.854   6.469   7.473 -0.2685 -0.8301 -0.2762
 6667SOL    HW121051   3.877   6.429   7.557 -0.6911 -3.3870 -1.2880
 6667SOL    HW221052   3.927   6.448   7.415  0.1444  1.1356 -0.5213
 6668SOL     OW21053   2.284   7.516   0.543  0.3465 -0.6248 -0.0599
 6668SOL    HW121054   2.222   7.443   0.548 -0.3627 -0.0310  0.0001
 6668SOL    HW221055   2.269   7.565   0.624  0.6130 -0.2576 -0.2307
 6669SOL     OW21056   5.684   3.394   5.139 -0.5124  0.3391  0.0660
 6669SOL    HW121057   5.704   3.449   5.215  0.1240 -0.8275  0.7718
 6669SOL    HW221058   5.590   3.404   5.126 -0.7557  0.0032  1.4621
 6670SOL     OW21059   3.449   1.271   2.824  0.3506  0.2586  0.3212
 6670SOL    HW121060   3.466   1.227   2.741  1.0453 -2.9695  2.0162
 6670SOL    HW221061   3.535   1.300   2.855  0.1428  1.1116  0.1320
 6671SOL     OW21062   3.322   7.802   6.232 -0.7909 -0.5724  0.9405
 6671SOL    HW121063   3.302   7.893   6.208 -0.2294 -0.9898 -1.3642
 6671SOL    HW221064   3.408   7.808   6.275  0.2466 -0.1530 -1.0412
 6672SOL     OW21065   6.062   2.879   0.467 -0.0530  0.6604 -0.3953
 6672SOL    HW121066   6.125   2.854   0.399 -0.8816  0.8122 -1.2420
 6672SOL    HW221067   6.116   2.904   0.542  0.8715  0.0441 -0.8414
 6673SOL     OW21068   3.863   5.858   1.040  0.0225 -0.3878 -0.0629
 6673SOL    HW121069   3.857   5.859   0.944  0.7399 -2.7135 -0.2067
 6673SOL    HW221070   3.956   5.863   1.058  0.1591 -2.9386  0.3157
 6674SOL     OW21071   7.101   2.260   2.205 -0.1698 -0.0789  0.0087
 6674SOL    HW121072   7.025   2.258   2.147 -0.5608 -1.8866  0.5260
 6674SOL    HW221073   7.155   2.187   2.176  1.9570  1.7648 -1.0146
 6675SOL     OW21074   4.840   6.480   7.450  0.5861  0.3495  0.0084
 6675SOL    HW121075   4.766   6.422   7.429 -1.2577  2.3777  0.6067
 6675SOL    HW221076   4.843   6.542   7.377  0.1825  1.6904  1.1009
 6676SOL     OW21077   6.966   3.429   5.239  0.1706  0.1130 -0.6478
 6676SOL    HW121078   6.962   3.407   5.332  0.0009 -2.9437 -1.2814
 6676SOL    HW221079   7.059   3.437   5.220  0.3660 -1.6942 -0.6410
 6677SOL     OW21080   0.950   0.031   4.167 -0.5542 -0.0993 -0.4769
 6677SOL    HW121081   1.014  -0.029   4.128 -0.0464  0.1970 -0.1048
 6677SOL    HW221082   0.938  -0.002   4.256 -2.8712 -1.7179 -1.2803
 6678SOL     OW21083   0.818   3.287   6.510  0.6899 -0.0181 -0.1076
 6678SOL    HW121084   0.746   3.272   6.572  1.4424  1.0001  1.0619
 6678SOL    HW221085   0.885   3.332   6.562  0.8405  2.0451 -1.9490
 6679SOL     OW21086   0.505   1.720   0.320 -0.0644 -0.2891  0.1695
 6679SOL    HW121087   0.508   1.632   0.282  0.1460 -0.1207 -0.2005
 6679SOL    HW221088   0.581   1.723   0.379 -0.5684 -0.6603  0.8585
 6680SOL     OW21089   1.237   0.350   5.317  0.6096 -0.2917 -0.3556
 6680SOL    HW121090   1.291   0.336   5.240  0.8884 -0.9215 -0.0468
 6680SOL    HW221091   1.299   0.355   5.390  0.3402  0.1640 -0.1502
 6681SOL     OW21092   2.368   3.123   0.022  0.4502  0.1006  0.3487
 6681SOL    HW121093   2.413   3.039   0.033 -0.6246 -0.7168 -1.2118
 6681SOL    HW221094   2.275   3.103   0.037 -0.0474  0.5965 -1.8150
 6682SOL     OW21095   3.645   2.591   1.738 -0.1776 -0.1437 -0.2836
 6682SOL    HW121096   3.685   2.579   1.652  0.2613  0.0471 -0.1093
 6682SOL    HW221097   3.593   2.670   1.730  0.5643  0.3702 -0.1267
 6683SOL     OW21098   0.899   0.049   8.073  0.0500 -0.0073 -0.1323
 6683SOL    HW121099   0.839   0.003   8.014 -0.9564 -0.1275  0.9425
 6683SOL    HW221100   0.889   0.141   8.050 -0.1880 -0.0692 -0.2842
 6684SOL     OW21101   4.877   3.062   3.533 -0.5046 -0.4320 -0.6560
 6684SOL    HW121102   4.957   3.049   3.481  1.3686 -2.5999  2.4151
 6684SOL    HW221103   4.890   3.146   3.577  0.8794 -1.4093  0.9138
 6685SOL     OW21104   4.299   3.882   1.170  0.0848 -0.4493 -0.2534
 6685SOL    HW121105   4.385   3.885   1.212  1.4252 -0.9389 -2.7118
 6685SOL    HW221106   4.254   3.961   1.199  1.6183  0.1441  0.6114
 6686SOL     OW21107   6.913   6.494   1.310 -0.1917 -0.0769  0.2619
 6686SOL    HW121108   6.937   6.401   1.314  0.1710  0.0359  2.9614
 6686SOL    HW221109   6.991   6.540   1.338 -0.5441  1.0200 -0.5162
 6687SOL     OW21110   7.688   7.558   2.180  0.6348 -0.1856 -0.4571
 6687SOL    HW121111   7.697   7.651   2.199  0.8775 -0.3634  0.3525
 6687SOL    HW221112   7.776   7.522   2.190  0.3936 -0.6422  0.0913
 6688SOL     OW21113   3.052   2.941   1.753 -0.0146  0.5168  0.4910
 6688SOL    HW121114   3.073   2.944   1.847  0.0878 -0.9667  0.5412
 6688SOL    HW221115   3.126   2.985   1.711  0.2681  0.6120  1.0747
 6689SOL     OW21116   1.964   2.606   3.708 -0.0734 -0.3836  0.1936
 6689SOL    HW121117   1.927   2.615   3.620  2.5532  2.1178 -0.7927
 6689SOL    HW221118   1.979   2.696   3.737  1.5475 -1.2044  2.1103
 6690SOL     OW21119   4.420   0.475   5.141  0.2538  0.1700 -0.5338
 6690SOL    HW121120   4.339   0.523   5.126  1.5140  1.9601 -2.0819
 6690SOL    HW221121   4.455   0.458   5.053  0.6258 -2.3141  0.0197
 6691SOL     OW21122   2.269   4.635   7.549 -0.2730 -0.3012 -0.2307
 6691SOL    HW121123   2.329   4.600   7.483  0.5660 -0.5080  0.6268
 6691SOL    HW221124   2.182   4.624   7.510 -0.0248 -2.9568 -0.2049
 6692SOL     OW21125   1.180   5.682   4.014 -0.4498  0.5783 -0.3646
 6692SOL    HW121126   1.104   5.729   4.047 -0.7259  1.4512 -2.1748
 6692SOL    HW221127   1.255   5.738   4.035 -0.4645  0.4657 -0.0009
 6693SOL     OW21128   5.744   3.698   6.377 -0.1760  0.4819  0.3325
 6693SOL    HW121129   5.680   3.676   6.444  0.4806  0.7352  1.0621
 6693SOL    HW221130   5.775   3.614   6.344 -0.0226  0.3423  0.8200
 6694SOL     OW21131   6.129   5.416   1.907  0.2163  0.2062 -0.1365
 6694SOL    HW121132   6.092   5.495   1.867 -1.4327 -0.4250  0.0398
 6694SOL    HW221133   6.053   5.369   1.940  1.0446 -2.0106 -1.2234
 6695SOL     OW21134   2.494   6.488   2.354  0.6846 -0.1502  0.1952
 6695SOL    HW121135   2.587   6.468   2.343  0.5374 -0.4483 -0.5093
 6695SOL    HW221136   2.485   6.578   2.321  0.7611 -0.0366  0.4785
 6696SOL     OW21137   6.746   4.758   1.337 -0.0174 -0.0804  0.1581
 6696SOL    HW121138   6.757   4.851   1.358 -1.8072  0.2185 -0.0415
 6696SOL    HW221139   6.821   4.736   1.283  1.0562  0.9422  1.1858
 6697SOL     OW21140   0.057   5.022   7.101 -0.3498 -0.2904  0.4988
 6697SOL    HW121141  -0.026   4.977   7.088 -0.1560 -0.9204  1.3534
 6697SOL    HW221142   0.121   4.966   7.057 -0.4840  0.7117 -1.0486
 6698SOL     OW21143   6.138   0.196   1.062 -0.1697  0.2471  0.1010
 6698SOL    HW121144   6.139   0.123   0.999  1.1901  1.1549 -0.9975
 6698SOL    HW221145   6.223   0.192   1.104 -0.9722 -0.1895  1.7857
 6699SOL     OW21146   1.221   1.527   5.494 -0.3235 -1.0964  0.0071
 6699SOL    HW121147   1.140   1.546   5.448 -0.1593 -1.8522 -0.6153
 6699SOL    HW221148   1.247   1.440   5.463  1.1266 -0.5476 -0.3957
 6700SOL     OW21149   8.237   5.434   5.244 -0.2922 -0.1320  0.0443
 6700SOL    HW121150   8.267   5.355   5.288 -3.0555 -0.9834  0.6215
 6700SOL    HW221151   8.287   5.505   5.284  0.4365 -1.3293  1.3521
 6701SOL     OW21152   7.463   2.492   7.266 -0.3790  0.2649 -0.1512
 6701SOL    HW121153   7.394   2.553   7.241 -0.5818  0.0339 -0.1573
 6701SOL    HW221154   7.419   2.425   7.317 -0.1903  0.0156 -0.3118
 6702SOL     OW21155   0.998   1.590   3.661  0.2058  0.4876  0.1992
 6702SOL    HW121156   0.948   1.509   3.671  0.1552  0.6792  1.9332
 6702SOL    HW221157   0.966   1.646   3.733  0.5607  1.8741 -0.6832
 6703SOL     OW21158   3.016   4.545   4.119 -0.1427 -0.2254  0.3946
 6703SOL    HW121159   2.925   4.556   4.146 -0.0184  0.5744  0.5168
 6703SOL    HW221160   3.047   4.470   4.169 -0.5731 -0.1600  0.7672
 6704SOL     OW21161   1.652   2.216   4.925 -0.1045 -0.1319 -0.2175
 6704SOL    HW121162   1.564   2.218   4.888  0.5104 -0.2420 -1.7687
 6704SOL    HW221163   1.682   2.307   4.920 -0.5131  0.1283  1.3772
 6705SOL     OW21164   6.202   5.307   0.309  0.0276  0.0976 -0.1890
 6705SOL    HW121165   6.246   5.365   0.371 -0.7420 -1.7170  2.2035
 6705SOL    HW221166   6.258   5.229   0.305 -1.9668 -1.5693  1.6555
 6706SOL     OW21167   1.676   2.124   5.632 -0.2329 -0.0088  0.6421
 6706SOL    HW121168   1.696   2.057   5.697  0.7430 -0.3654 -0.0101
 6706SOL    HW221169   1.628   2.078   5.563  1.3529 -0.3075 -0.3161
 6707SOL     OW21170   2.411   7.749   8.142  0.1727 -0.2982  0.1744
 6707SOL    HW121171   2.373   7.679   8.088 -0.1111 -0.5491  0.6951
 6707SOL    HW221172   2.453   7.704   8.215  1.1716 -0.0008 -0.1952
 6708SOL     OW21173   4.730   2.806   0.773 -0.8924  0.1772  0.2311
 6708SOL    HW121174   4.768   2.790   0.687 -1.7749 -0.5828 -0.0388
 6708SOL    HW221175   4.688   2.891   0.766  0.8492  1.1203  0.5910
 6709SOL     OW21176   0.888   8.190   3.813  0.1148  0.0202 -0.4846
 6709SOL    HW121177   0.925   8.278   3.822  0.9710 -0.2855 -0.8888
 6709SOL    HW221178   0.805   8.194   3.860  0.3775  0.9047 -0.0697
 6710SOL     OW21179   1.387   1.844   2.357  0.0124  0.4229 -0.5199
 6710SOL    HW121180   1.333   1.923   2.364  0.4721  1.0554 -3.1982
 6710SOL    HW221181   1.339   1.786   2.298  0.2100 -0.8824  0.5577
 6711SOL     OW21182   4.944   7.884   6.210 -0.1543 -0.3047  0.0425
 6711SOL    HW121183   4.989   7.901   6.293  1.3200 -2.1143 -0.3106
 6711SOL    HW221184   4.900   7.800   6.224  2.5113 -2.1589 -1.8303
 6712SOL     OW21185   4.066   1.089   2.862 -0.2879 -0.2947 -0.4897
 6712SOL    HW121186   4.077   1.142   2.784 -0.8218  0.3373 -0.1430
 6712SOL    HW221187   4.053   1.153   2.933 -2.6704 -0.8897 -0.3253
 6713SOL     OW21188   8.056   5.972   5.831 -0.4827  0.4553  0.2519
 6713SOL    HW121189   8.070   6.066   5.838  1.4267  0.1988  0.4339
 6713SOL    HW221190   8.140   5.937   5.802 -1.2949 -1.1541 -0.2807
 6714SOL     OW21191   2.708   5.313   7.248  0.1412  0.0080 -0.1168
 6714SOL    HW121192   2.621   5.283   7.274 -0.1795  0.5390 -0.5483
 6714SOL    HW221193   2.758   5.315   7.330  0.0008 -1.1011  0.0069
 6715SOL     OW21194   0.370   6.670   7.374  0.0636  1.2194 -0.0392
 6715SOL    HW121195   0.289   6.720   7.387 -0.7639 -0.3415  1.1156
 6715SOL    HW221196   0.340   6.584   7.346  1.3991  0.8947 -0.5329
 6716SOL     OW21197   3.036   1.649   7.813  0.5230  0.0969  0.3859
 6716SOL    HW121198   2.963   1.707   7.833  1.2392  0.7982  1.0196
 6716SOL    HW221199   3.049   1.598   7.893  1.4629  0.7833  0.6762
 6717SOL     OW21200   2.294   5.918   3.048 -0.5130 -0.3100  0.2035
 6717SOL    HW121201   2.297   5.976   3.125  1.5461  1.5138 -1.1485
 6717SOL    HW221202   2.361   5.852   3.066  1.1941  1.1075 -0.6823
 6718SOL     OW21203   4.598   0.883   1.318  0.2082 -0.8031 -0.3133
 6718SOL    HW121204   4.634   0.957   1.269  0.4576  0.1169  1.1951
 6718SOL    HW221205   4.664   0.865   1.385  0.6017 -3.0346 -1.1879
 6719SOL     OW21206   3.601   3.847   3.344 -0.2083 -0.0429  0.4718
 6719SOL    HW121207   3.676   3.907   3.349  0.0358 -0.3899  1.1955
 6719SOL    HW221208   3.604   3.799   3.427 -0.4737 -0.9658 -0.0402
 6720SOL     OW21209   2.791   4.787   2.371 -0.0168  0.2618 -0.1094
 6720SOL    HW121210   2.870   4.789   2.316  0.1411  2.6516  0.0951
 6720SOL    HW221211   2.823   4.803   2.460 -0.4200 -2.2818  0.5668
 6721SOL     OW21212   4.742   8.038   5.099 -0.5028 -0.5511  0.0322
 6721SOL    HW121213   4.771   8.026   5.190 -2.0119 -0.9408  0.4883
 6721SOL    HW221214   4.807   7.991   5.047 -0.4420 -1.6160  1.0254
 6722SOL     OW21215   2.617   7.131   0.940 -0.4960  0.2421  0.1114
 6722SOL    HW121216   2.655   7.218   0.934  0.1068  0.0673  1.1051
 6722SOL    HW221217   2.693   7.072   0.944 -0.7659 -0.0521  3.2001
 6723SOL     OW21218   4.180   2.032   6.236 -0.2154  0.2470 -0.6512
 6723SOL    HW121219   4.090   2.025   6.268 -0.5826  3.9831 -0.4000
 6723SOL    HW221220   4.171   2.035   6.141  0.0175 -2.2265 -0.8091
 6724SOL     OW21221   1.723   7.554   3.210 -1.1638  0.6127  0.2745
 6724SOL    HW121222   1.634   7.585   3.194 -0.7906  2.5156  1.5922
 6724SOL    HW221223   1.723   7.524   3.301 -0.3161  1.1665  0.4674
 6725SOL     OW21224   1.881   4.763   3.844 -0.1427  0.2711 -0.4319
 6725SOL    HW121225   1.810   4.763   3.780 -0.1433  1.5227 -0.4573
 6725SOL    HW221226   1.961   4.764   3.791 -0.1202 -0.1629 -0.4071
 6726SOL     OW21227   6.292   2.001   1.563  0.5069 -0.4672  0.2822
 6726SOL    HW121228   6.361   2.054   1.603  0.2287 -0.8478  1.2890
 6726SOL    HW221229   6.297   1.917   1.607  0.4706 -1.0642 -0.7995
 6727SOL     OW21230   1.949   0.785   3.759  0.1772 -0.0588  0.4210
 6727SOL    HW121231   1.894   0.725   3.810 -1.8215 -0.5375 -2.0805
 6727SOL    HW221232   1.910   0.872   3.775 -0.4377 -0.2058 -0.2241
 6728SOL     OW21233   6.827   0.247   7.978  0.4516 -0.2295 -0.1034
 6728SOL    HW121234   6.770   0.324   7.986  1.1346  0.4357 -1.3217
 6728SOL    HW221235   6.916   0.283   7.980  0.7887 -1.0399 -0.1855
 6729SOL     OW21236   7.696   4.232   0.118 -0.3176  0.4195 -0.3104
 6729SOL    HW121237   7.644   4.310   0.135 -3.2080 -1.1384 -1.3138
 6729SOL    HW221238   7.684   4.177   0.196 -1.4631 -0.5575 -1.1349
 6730SOL     OW21239   7.229   4.815   6.547  0.0725  0.7140 -0.7682
 6730SOL    HW121240   7.310   4.785   6.588 -2.2271  0.5836  4.5600
 6730SOL    HW221241   7.242   4.908   6.532  1.2524  0.6705 -0.1015
 6731SOL     OW21242   0.972   2.203   4.362 -0.2675  0.0322 -0.2120
 6731SOL    HW121243   1.038   2.182   4.428 -0.5773  1.0925  0.4589
 6731SOL    HW221244   1.000   2.155   4.284  0.5638 -0.5754  0.4430
 6732SOL     OW21245   5.507   2.787   4.916 -0.2212 -1.2227  0.2752
 6732SOL    HW121246   5.426   2.801   4.868 -0.0304  1.1802  0.5408
 6732SOL    HW221247   5.558   2.728   4.860 -1.6766 -1.8927 -0.4092
 6733SOL     OW21248   3.411   0.040   5.063 -0.0332  0.2507 -0.1522
 6733SOL    HW121249   3.479  -0.027   5.066  0.0896  0.2779 -1.5750
 6733SOL    HW221250   3.363   0.029   5.145 -0.6487 -2.2630 -0.7472
 6734SOL     OW21251   0.978   1.556   5.338  0.4378 -0.5601  0.4591
 6734SOL    HW121252   1.038   1.626   5.312  0.3281 -0.3972  0.6499
 6734SOL    HW221253   0.908   1.600   5.386 -0.1302 -0.6776 -0.2430
 6735SOL     OW21254   7.993   5.979   4.431  0.2030 -0.1374  0.1420
 6735SOL    HW121255   8.080   5.972   4.392  0.0894 -0.1331 -0.1143
 6735SOL    HW221256   8.007   5.961   4.523  0.9093  2.4303  0.6267
 6736SOL     OW21257   3.184   6.034   4.199 -0.1036  0.2161  0.2274
 6736SOL    HW121258   3.093   6.050   4.224 -0.1487  2.4360 -1.0728
 6736SOL    HW221259   3.226   6.004   4.280 -1.9158 -0.7178  0.8903
 6737SOL     OW21260   5.900   1.105   4.340  0.7106  0.3582  0.6090
 6737SOL    HW121261   5.963   1.114   4.268 -1.3382  2.2978 -1.0763
 6737SOL    HW221262   5.847   1.184   4.335 -1.0551 -0.6072  2.7736
 6738SOL     OW21263   0.683   7.431   7.220  0.0064 -0.4399 -0.0037
 6738SOL    HW121264   0.735   7.368   7.171 -0.1565  0.6941 -1.7414
 6738SOL    HW221265   0.725   7.435   7.307  1.5527 -1.0501 -0.6865
 6739SOL     OW21266   3.248   5.941   7.742  0.7285  0.0966  0.0409
 6739SOL    HW121267   3.153   5.936   7.731  0.8915  0.8471 -2.2472
 6739SOL    HW221268   3.260   5.972   7.832 -1.1648 -0.2538  0.4633
 6740SOL     OW21269   3.004   6.063   0.022  0.2353 -0.1869  0.3110
 6740SOL    HW121270   3.010   6.038   0.114 -1.1136 -0.2390  0.4119
 6740SOL    HW221271   2.930   6.124   0.019 -0.4013 -0.9796 -0.8880
 6741SOL     OW21272   1.940   0.949   2.671 -0.3544 -0.0159  0.7067
 6741SOL    HW121273   1.948   0.910   2.584 -1.0243 -2.7972  1.7838
 6741SOL    HW221274   1.855   0.994   2.669 -0.2665  0.1337 -0.0992
 6742SOL     OW21275   5.566   5.316   2.841  0.4494 -0.4078  0.3864
 6742SOL    HW121276   5.485   5.266   2.842  0.6826 -0.7958  0.7701
 6742SOL    HW221277   5.543   5.401   2.878  0.1826 -0.4539  0.3269
 6743SOL     OW21278   0.897   5.726   5.801 -0.4431  0.6600  0.3234
 6743SOL    HW121279   0.836   5.773   5.858 -1.6267  0.1552 -0.4909
 6743SOL    HW221280   0.957   5.683   5.862  0.4491  2.8435  1.1016
 6744SOL     OW21281   7.144   4.375   3.034 -1.0609 -0.4215  0.0094
 6744SOL    HW121282   7.130   4.309   2.967  1.0808  1.1149 -2.1168
 6744SOL    HW221283   7.227   4.348   3.076  0.0672  1.0582 -1.1789
 6745SOL     OW21284   5.201   1.831   7.279 -0.5835  0.0102  0.0193
 6745SOL    HW121285   5.243   1.911   7.309 -2.3562  0.4869  1.3605
 6745SOL    HW221286   5.273   1.777   7.245  0.6730  2.0170 -0.6535
 6746SOL     OW21287   0.389   3.574   7.103  0.4537 -0.2025 -0.0126
 6746SOL    HW121288   0.344   3.615   7.177 -1.2318 -0.2935 -0.9254
 6746SOL    HW221289   0.326   3.580   7.031  1.1293 -2.1561 -0.8274
 6747SOL     OW21290   6.393   4.273   5.759 -0.2327  0.5183 -0.0926
 6747SOL    HW121291   6.374   4.198   5.702 -2.6467  0.8633  0.1554
 6747SOL    HW221292   6.403   4.347   5.700  0.1368  0.3621 -0.2251
 6748SOL     OW21293   3.225   0.359   3.433  0.0700 -0.3314 -0.2508
 6748SOL    HW121294   3.211   0.265   3.422  1.6258 -0.7752  1.1688
 6748SOL    HW221295   3.301   0.378   3.378  1.1059 -0.3789  1.1161
 6749SOL     OW21296   2.992   3.960   1.943  0.4057 -0.0156  0.5114
 6749SOL    HW121297   3.065   4.021   1.935  0.5714 -0.2015  0.6056
 6749SOL    HW221298   2.927   4.008   1.995 -0.8289  1.3474 -2.0859
 6750SOL     OW21299   4.208   3.595   3.814 -0.3581  0.3635 -0.0317
 6750SOL    HW121300   4.141   3.662   3.802  0.1411  0.5752 -1.9617
 6750SOL    HW221301   4.201   3.571   3.907 -3.2452  0.1778 -0.2038
 6751SOL     OW21302   0.210   4.162   5.828  0.0043  0.3283 -0.7329
 6751SOL    HW121303   0.155   4.090   5.796 -0.0506 -0.5818  1.2521
 6751SOL    HW221304   0.292   4.152   5.780 -0.4121 -0.3249 -1.3452
 6752SOL     OW21305   8.044   6.084   8.165 -0.2266 -0.4047  0.1442
 6752SOL    HW121306   7.954   6.065   8.136 -0.4832  0.0828  0.6090
 6752SOL    HW221307   8.041   6.175   8.193  0.9343  0.3154 -1.8808
 6753SOL     OW21308   8.184   2.130   5.754  0.7178  0.4526  0.1559
 6753SOL    HW121309   8.122   2.090   5.692 -2.6962  2.7627  1.7880
 6753SOL    HW221310   8.215   2.057   5.807 -0.8461 -0.8235 -0.5756
 6754SOL     OW21311   2.804   4.405   5.753 -0.3163 -0.0477  0.4140
 6754SOL    HW121312   2.828   4.341   5.686 -2.0317  0.4776 -0.7861
 6754SOL    HW221313   2.712   4.425   5.735 -0.0517  2.1837  1.2197
 6755SOL     OW21314   5.892   4.954   5.081  0.1075  0.6921  0.2608
 6755SOL    HW121315   5.896   5.048   5.098 -1.3147  0.8395 -0.0988
 6755SOL    HW221316   5.953   4.916   5.144  0.9740  1.8710  0.1710
 6756SOL     OW21317   4.462   4.877   1.059  0.1051 -0.5459  0.1563
 6756SOL    HW121318   4.398   4.938   1.022  1.5042  0.6735 -0.3860
 6756SOL    HW221319   4.459   4.893   1.153  0.4526  0.3933  0.0187
 6757SOL     OW21320   2.988   8.044   6.726  0.3835 -0.1232  0.8945
 6757SOL    HW121321   3.018   8.095   6.801  0.5897  0.3654  0.4830
 6757SOL    HW221322   2.900   8.078   6.708  0.7824  0.5721  0.1975
 6758SOL     OW21323   5.758   2.305   5.433 -0.6316 -0.7061  0.8100
 6758SOL    HW121324   5.805   2.388   5.435  0.4302 -1.2457 -0.5212
 6758SOL    HW221325   5.821   2.242   5.397 -1.6610 -1.9289  1.0637
 6759SOL     OW21326   6.562   2.918   8.017 -0.0582  0.5686  0.2738
 6759SOL    HW121327   6.522   2.963   7.942  0.1562 -1.4590 -1.1300
 6759SOL    HW221328   6.528   2.965   8.093 -1.8672  1.4721 -1.0046
 6760SOL     OW21329   3.470   4.358   7.501 -0.8253 -0.1698 -0.4493
 6760SOL    HW121330   3.553   4.390   7.465 -0.5827 -0.6813 -0.3577
 6760SOL    HW221331   3.450   4.418   7.572 -0.3632 -0.2332 -0.2615
 6761SOL     OW21332   2.900   6.962   6.385 -0.0960  0.1165 -0.2252
 6761SOL    HW121333   2.852   6.879   6.383  1.2522 -0.6678 -0.9813
 6761SOL    HW221334   2.988   6.939   6.413  0.2780  1.3202 -0.3354
 6762SOL     OW21335   8.262   2.412   3.391  0.3918 -0.0047  0.3612
 6762SOL    HW121336   8.250   2.360   3.471 -1.6782  0.1898  0.2304
 6762SOL    HW221337   8.270   2.348   3.321 -1.2063 -0.2014  0.3240
 6763SOL     OW21338   8.241   1.405   2.234 -0.1863 -0.5804  0.4991
 6763SOL    HW121339   8.213   1.493   2.260  1.9955  0.7310 -1.1591
 6763SOL    HW221340   8.246   1.355   2.315 -4.2965 -0.1455  1.2014
 6764SOL     OW21341   3.641   7.293   3.905  0.3389 -0.1489 -0.3821
 6764SOL    HW121342   3.662   7.325   3.817  1.1511 -0.6394 -0.3783
 6764SOL    HW221343   3.571   7.351   3.935 -0.6493 -0.5977 -1.7289
 6765SOL     OW21344   0.752   2.100   0.358  0.0979 -0.0798  0.1051
 6765SOL    HW121345   0.847   2.090   0.364  0.3805  1.9621 -0.2593
 6765SOL    HW221346   0.731   2.077   0.268  0.9211  3.4676 -1.1501
 6766SOL     OW21347   5.410   6.649   0.827  0.3099  0.7068  0.5735
 6766SOL    HW121348   5.395   6.617   0.738 -1.7895  0.7083  0.8612
 6766SOL    HW221349   5.497   6.688   0.825  1.2144 -1.2058 -0.9083
 6767SOL     OW21350   3.138   6.980   7.323  0.3301  0.7542  0.0157
 6767SOL    HW121351   3.064   7.041   7.314  0.4572  0.9037 -0.0094
 6767SOL    HW221352   3.211   7.025   7.281  0.5416  0.7865  0.4213
 6768SOL     OW21353   2.439   2.905   7.110  1.1749  0.0736  0.2016
 6768SOL    HW121354   2.415   2.985   7.063 -3.7986 -0.1187  1.8110
 6768SOL    HW221355   2.407   2.834   7.054  2.3139 -0.6474  0.4222
 6769SOL     OW21356   2.081   7.695   2.226 -0.2800 -0.3314 -0.4341
 6769SOL    HW121357   2.101   7.785   2.202 -1.9420 -0.0698 -1.0039
 6769SOL    HW221358   2.164   7.659   2.256  1.1507  0.4638 -3.0834
 6770SOL     OW21359   4.328   5.894   2.342  0.4187 -0.2691 -0.1724
 6770SOL    HW121360   4.255   5.842   2.308  0.2470 -0.9205  1.1433
 6770SOL    HW221361   4.316   5.981   2.302 -2.2064  0.2220  1.4627
 6771SOL     OW21362   7.956   3.101   8.278  0.4291 -0.2489  0.1000
 6771SOL    HW121363   7.919   3.109   8.190 -3.0635 -1.1885  1.3026
 6771SOL    HW221364   8.036   3.049   8.266  0.8765  0.8946 -2.6104
 6772SOL     OW21365   3.288   1.619   2.195 -0.1814 -0.6201 -0.2550
 6772SOL    HW121366   3.294   1.619   2.291 -1.2501 -1.1331 -0.1786
 6772SOL    HW221367   3.200   1.651   2.176  0.3756  0.5044 -1.1155
 6773SOL     OW21368   2.505   4.429   2.224 -0.1428  0.3393 -0.2384
 6773SOL    HW121369   2.439   4.499   2.232 -0.1248  0.5467 -1.6443
 6773SOL    HW221370   2.487   4.371   2.298 -3.3917 -0.8423 -1.7350
 6774SOL     OW21371   6.729   3.984   0.396 -0.9088  0.7146  0.1144
 6774SOL    HW121372   6.781   3.944   0.466  1.0064 -0.7647 -1.9867
 6774SOL    HW221373   6.671   3.914   0.366 -1.7463  1.3475  0.2376
 6775SOL     OW21374   8.269   3.204   6.374  0.4966 -0.1144  0.3478
 6775SOL    HW121375   8.259   3.247   6.458 -1.2527 -2.2645  1.3464
 6775SOL    HW221376   8.200   3.242   6.319  1.5386  1.1755 -0.1211
 6776SOL     OW21377   0.531   1.008   0.246  0.0984 -0.2461  0.0447
 6776SOL    HW121378   0.560   0.932   0.296  0.6915  0.8201  1.3866
 6776SOL    HW221379   0.594   1.077   0.269  0.0115  0.4654 -1.7014
 6777SOL     OW21380   7.683   5.524   5.487  0.0477  0.0495 -0.3615
 6777SOL    HW121381   7.680   5.433   5.517 -1.5616 -0.3907 -1.6690
 6777SOL    HW221382   7.770   5.554   5.510 -0.0515 -1.1774  1.8967
 6778SOL     OW21383   2.622   5.981   2.571  0.1477 -0.2336  0.2214
 6778SOL    HW121384   2.669   5.935   2.502  0.4219  0.0790  0.1949
 6778SOL    HW221385   2.691   6.028   2.619 -0.1689  0.4990 -0.0207
 6779SOL     OW21386   5.165   0.903   0.093 -0.1626  0.1770 -0.2806
 6779SOL    HW121387   5.223   0.835   0.126 -1.1333 -0.9453 -0.8245
 6779SOL    HW221388   5.188   0.981   0.144  0.6310 -0.6697  0.6989
 6780SOL     OW21389   5.850   0.561   7.906 -0.3130  0.1462 -0.4940
 6780SOL    HW121390   5.909   0.497   7.945 -1.1569 -0.7836 -0.7088
 6780SOL    HW221391   5.832   0.623   7.976 -0.1962 -0.3508 -0.0179
 6781SOL     OW21392   2.252   3.023   6.411  0.4843  0.1773 -0.7038
 6781SOL    HW121393   2.216   3.110   6.391  0.7027  0.3352 -0.4250
 6781SOL    HW221394   2.184   2.981   6.463 -0.0340 -0.1882 -1.6517
 6782SOL     OW21395   6.296   8.083   2.429 -0.6250  0.5058 -0.1474
 6782SOL    HW121396   6.247   8.062   2.350  2.0793  0.5883 -1.9862
 6782SOL    HW221397   6.317   7.998   2.468 -0.1725  0.3418 -0.7340
 6783SOL     OW21398   6.776   3.601   0.744 -0.3362  0.6119 -0.5096
 6783SOL    HW121399   6.774   3.651   0.662 -1.0079 -1.3440 -1.7583
 6783SOL    HW221400   6.869   3.579   0.756 -0.1115  1.6776 -0.2335
 6784SOL     OW21401   5.486   6.153   5.613 -0.0710 -0.0331 -0.1300
 6784SOL    HW121402   5.456   6.063   5.627  0.4148 -0.4682 -1.6829
 6784SOL    HW221403   5.417   6.193   5.560 -0.1245  0.4114  0.2715
 6785SOL     OW21404   6.131   2.823   4.893 -0.2823 -0.7121  0.1610
 6785SOL    HW121405   6.063   2.829   4.960  0.5021  1.7847  0.8577
 6785SOL    HW221406   6.102   2.753   4.835 -2.2374 -1.2970  1.7314
 6786SOL     OW21407   6.604   4.686   4.904  0.4961 -0.6689 -0.0327
 6786SOL    HW121408   6.596   4.639   4.821  1.1492 -1.4181  0.3134
 6786SOL    HW221409   6.517   4.724   4.918  0.8337  0.9921 -1.9153
 6787SOL     OW21410   5.768   7.706   6.228  0.2558 -0.6010  0.1840
 6787SOL    HW121411   5.823   7.783   6.242  0.6179 -0.7666 -0.3198
 6787SOL    HW221412   5.827   7.639   6.194 -0.8396  0.3206 -4.0198
 6788SOL     OW21413   3.325   6.613   6.157  0.3910  0.6689  0.2121
 6788SOL    HW121414   3.259   6.551   6.125  2.4132 -1.5259  0.0236
 6788SOL    HW221415   3.352   6.661   6.079 -0.9246  1.6136  0.2942
 6789SOL     OW21416   6.886   3.266   2.491  0.3786  0.4837 -0.0243
 6789SOL    HW121417   6.945   3.190   2.486 -0.9952 -0.8379  2.1186
 6789SOL    HW221418   6.943   3.338   2.519  1.5071  0.0255 -1.0247
 6790SOL     OW21419   7.422   4.521   6.868  0.0080  0.2864  0.1160
 6790SOL    HW121420   7.464   4.557   6.945 -0.1774  0.3297  0.1986
 6790SOL    HW221421   7.330   4.510   6.893 -0.3380  1.5511 -0.5256
 6791SOL     OW21422   2.595   5.220   5.826  0.7230 -0.0200 -0.5655
 6791SOL    HW121423   2.507   5.187   5.807 -0.0152  0.7458  1.2484
 6791SOL    HW221424   2.621   5.172   5.905  1.8998 -0.1340 -1.0053
 6792SOL     OW21425   1.659   5.275   4.258 -0.0253 -0.1662  0.3300
 6792SOL    HW121426   1.627   5.320   4.179  1.2928  0.2716  0.0191
 6792SOL    HW221427   1.589   5.215   4.281  0.5317 -2.1510 -2.6473
 6793SOL     OW21428   5.776   3.372   0.086  0.2767 -0.1461 -0.0016
 6793SOL    HW121429   5.753   3.443   0.146  0.2909  0.9736 -1.2944
 6793SOL    HW221430   5.833   3.412   0.021  0.7937 -1.4941 -0.4146
 6794SOL     OW21431   1.693   4.289   4.327  0.3301  0.0055  0.4491
 6794SOL    HW121432   1.779   4.324   4.303  0.0598  0.0152 -0.5596
 6794SOL    HW221433   1.701   4.265   4.419  0.9311  1.5122  0.8195
 6795SOL     OW21434   1.379   4.716   8.021 -0.3640  0.3112  0.0532
 6795SOL    HW121435   1.450   4.765   7.979  0.2473 -0.8985 -0.3781
 6795SOL    HW221436   1.394   4.728   8.115  1.5585 -1.4310  0.0260
 6796SOL     OW21437   4.495   3.786   2.209 -0.3424  0.0770 -0.6146
 6796SOL    HW121438   4.409   3.785   2.167 -0.5711 -1.3006 -0.1848
 6796SOL    HW221439   4.546   3.720   2.161  1.0213  1.9470 -1.8765
 6797SOL     OW21440   2.730   0.547   3.657  0.0919  0.0562  0.2303
 6797SOL    HW121441   2.655   0.607   3.653 -0.3873 -0.2816  2.6586
 6797SOL    HW221442   2.691   0.461   3.646  0.5559  0.0240 -1.4459
 6798SOL     OW21443   4.529   0.860   0.655 -0.1836  0.1426 -0.5041
 6798SOL    HW121444   4.621   0.846   0.630  0.5767  1.1281  1.5362
 6798SOL    HW221445   4.499   0.774   0.683  0.5969  0.0897  0.2183
 6799SOL     OW21446   5.493   0.595   1.785  0.3659  0.2498 -0.1627
 6799SOL    HW121447   5.452   0.589   1.698  2.2605 -2.2830 -1.0036
 6799SOL    HW221448   5.425   0.564   1.845 -0.1766 -0.3736 -1.0622
 6800SOL     OW21449   5.460   0.008   7.894  0.8662  0.4996  0.1014
 6800SOL    HW121450   5.404  -0.061   7.929  1.1198 -0.3946 -1.2009
 6800SOL    HW221451   5.421   0.089   7.926  0.3421 -0.2126  1.3498
 6801SOL     OW21452   3.121   7.500   4.341  0.4763 -0.0173  0.4247
 6801SOL    HW121453   3.171   7.441   4.285  2.8572  1.3390  0.9773
 6801SOL    HW221454   3.143   7.474   4.430  0.5482  0.8596  0.6788
 6802SOL     OW21455   4.369   7.912   4.756  0.4020 -0.0185 -0.1636
 6802SOL    HW121456   4.451   7.937   4.713 -0.2073  1.0182 -0.7969
 6802SOL    HW221457   4.387   7.827   4.797  2.1915  0.8261  0.9113
 6803SOL     OW21458   6.993   4.491   5.102 -0.2625 -0.3664  0.4087
 6803SOL    HW121459   7.020   4.407   5.064  0.3768  0.0969 -0.1673
 6803SOL    HW221460   6.899   4.496   5.085 -0.2987 -0.9398  0.4076
 6804SOL     OW21461   5.149   4.249   2.644  0.1059  0.0843 -0.1060
 6804SOL    HW121462   5.091   4.313   2.688 -0.8447 -1.5151  1.0768
 6804SOL    HW221463   5.121   4.250   2.553 -1.3361 -0.1208  0.3048
 6805SOL     OW21464   1.157   2.975   6.681  0.1639 -0.2633  0.3457
 6805SOL    HW121465   1.067   2.943   6.690 -0.4091  1.1117 -0.1920
 6805SOL    HW221466   1.208   2.897   6.662 -0.8892 -1.0953  0.8092
 6806SOL     OW21467   1.164   5.234   4.380  0.0909  0.2225  0.0591
 6806SOL    HW121468   1.120   5.154   4.410 -1.0482  1.2677  1.2931
 6806SOL    HW221469   1.213   5.265   4.457  1.4302  0.1398 -0.7304
 6807SOL     OW21470   0.953   4.072   5.831  0.3674 -0.0940  0.0652
 6807SOL    HW121471   1.008   4.151   5.832  1.1284 -0.5477 -1.5941
 6807SOL    HW221472   1.016   4.000   5.828 -0.3257 -0.7263  0.6489
 6808SOL     OW21473   0.861   2.482   7.799 -0.7888  0.1771 -0.3204
 6808SOL    HW121474   0.879   2.547   7.730  1.2552  0.4068  0.3420
 6808SOL    HW221475   0.848   2.400   7.751  0.5229  0.3502 -1.0422
 6809SOL     OW21476   7.836   6.421   5.726  0.1373 -0.3840 -0.3062
 6809SOL    HW121477   7.770   6.479   5.689  0.5147  0.2787  0.0551
 6809SOL    HW221478   7.816   6.335   5.688 -1.2745 -0.3157  0.2234
 6810SOL     OW21479   5.780   0.928   2.533 -0.3555  0.3579 -0.0848
 6810SOL    HW121480   5.845   0.927   2.604 -0.8703 -0.0993  0.3864
 6810SOL    HW221481   5.792   0.844   2.488 -0.3124  0.4693 -0.2841
 6811SOL     OW21482   5.651   7.923   7.081 -0.3006  0.6935 -0.7098
 6811SOL    HW121483   5.614   7.887   7.000 -0.4112  1.4592 -1.0147
 6811SOL    HW221484   5.701   8.000   7.052  2.0095 -0.5928 -0.3858
 6812SOL     OW21485   2.484   7.014   4.046  0.1447  0.2587  0.2727
 6812SOL    HW121486   2.548   6.974   4.104 -0.3906 -0.2241  0.5467
 6812SOL    HW221487   2.443   6.939   4.001  0.7702  0.6325 -0.9669
 6813SOL     OW21488   0.638   3.450   6.322 -0.3753 -0.0319  0.3880
 6813SOL    HW121489   0.720   3.435   6.369 -0.1370 -0.4725 -0.1552
 6813SOL    HW221490   0.585   3.373   6.340 -0.4897  0.0432  0.3704
 6814SOL     OW21491   7.340   8.256   7.726 -0.1474  0.1620  0.1770
 6814SOL    HW121492   7.374   8.219   7.644  0.4581 -1.5354  1.1400
 6814SOL    HW221493   7.373   8.197   7.794  0.4559  2.2498  1.7925
 6815SOL     OW21494   1.902   7.700   3.056  0.4415 -0.3018 -0.2084
 6815SOL    HW121495   1.921   7.699   2.962  1.3401 -1.8086 -0.0336
 6815SOL    HW221496   1.833   7.636   3.068 -0.5982  0.8210  0.0080
 6816SOL     OW21497   7.636   1.365   5.777  0.0690 -0.2572  0.0869
 6816SOL    HW121498   7.726   1.346   5.751 -0.1205 -1.9945  0.5919
 6816SOL    HW221499   7.619   1.451   5.740  2.5372  0.9796  1.4897
 6817SOL     OW21500   0.652   7.307   2.112 -0.1458  0.5489  0.0808
 6817SOL    HW121501   0.606   7.227   2.088 -0.7527  1.2403 -1.2303
 6817SOL    HW221502   0.744   7.281   2.119 -0.0035  0.0938 -2.4721
 6818SOL     OW21503   0.290   0.404   0.751  0.0121  0.2469  0.2403
 6818SOL    HW121504   0.334   0.489   0.746 -1.5780  1.1482  0.6706
 6818SOL    HW221505   0.343   0.346   0.697  1.1486  1.5167 -0.0554
 6819SOL     OW21506   5.266   2.965   1.101 -0.3973 -0.4688 -0.1666
 6819SOL    HW121507   5.326   2.949   1.174 -0.3913 -0.0578 -0.0766
 6819SOL    HW221508   5.316   3.020   1.041 -1.4535  2.0609  1.0673
 6820SOL     OW21509   2.516   5.696   3.925  0.1750 -0.1711  0.0071
 6820SOL    HW121510   2.596   5.714   3.974 -0.1053  0.1327  0.3589
 6820SOL    HW221511   2.476   5.621   3.970 -1.4373  1.7077  1.9343
 6821SOL     OW21512   1.718   1.681   6.855 -0.6850 -0.7379  0.0231
 6821SOL    HW121513   1.642   1.722   6.896 -1.1023 -1.3182 -0.1566
 6821SOL    HW221514   1.726   1.596   6.899  0.0405 -0.5610  0.2465
 6822SOL     OW21515   2.451   6.154   0.580 -0.0584  0.5008 -0.5685
 6822SOL    HW121516   2.487   6.098   0.512 -1.3274 -0.7450 -0.2656
 6822SOL    HW221517   2.464   6.105   0.661 -0.7657  0.8385 -0.2350
 6823SOL     OW21518   5.957   2.929   6.321 -0.0007 -0.4348  0.1385
 6823SOL    HW121519   6.004   2.864   6.268 -0.8209  0.2324 -1.4967
 6823SOL    HW221520   5.879   2.883   6.352 -0.1843 -0.4693 -0.3593
 6824SOL     OW21521   7.218   0.689   7.548 -0.1274  0.1205 -0.1608
 6824SOL    HW121522   7.258   0.669   7.632 -0.1166 -0.0956 -0.2145
 6824SOL    HW221523   7.147   0.749   7.568 -0.1204  0.0740  0.0017
 6825SOL     OW21524   5.344   4.742   8.136 -0.4958  0.3855  0.2217
 6825SOL    HW121525   5.428   4.714   8.101 -0.7472  1.1739 -1.0828
 6825SOL    HW221526   5.365   4.805   8.205 -0.0132 -0.4256  0.8370
 6826SOL     OW21527   7.292   4.173   8.162  0.4135 -0.1423 -0.2296
 6826SOL    HW121528   7.215   4.118   8.171 -0.0616  0.6142  0.5631
 6826SOL    HW221529   7.353   4.140   8.228  0.3469 -0.0720 -0.1326
 6827SOL     OW21530   3.873   4.874   1.365 -0.2944 -0.1167  0.0299
 6827SOL    HW121531   3.814   4.894   1.292 -1.0332 -1.0527  0.3546
 6827SOL    HW221532   3.931   4.806   1.331 -0.7534 -0.6790  0.3665
 6828SOL     OW21533   6.575   5.681   3.643  0.3426  0.5295  0.3844
 6828SOL    HW121534   6.591   5.591   3.614  1.9521  1.5629 -2.2690
 6828SOL    HW221535   6.616   5.736   3.577 -2.2310  3.3091  0.8576
 6829SOL     OW21536   4.680   2.691   4.358  0.1624  0.1564 -0.3984
 6829SOL    HW121537   4.690   2.775   4.402  0.0191  0.1093 -0.2764
 6829SOL    HW221538   4.645   2.713   4.271  1.8737  0.3842 -1.0784
 6830SOL     OW21539   2.329   1.497   6.520 -0.1398  0.4343  0.0512
 6830SOL    HW121540   2.304   1.451   6.440 -0.8474 -1.0831  1.0810
 6830SOL    HW221541   2.267   1.465   6.586  1.4025  0.4088  1.5626
 6831SOL     OW21542   5.668   4.556   0.884 -0.1745  0.5997  0.1788
 6831SOL    HW121543   5.671   4.495   0.810  0.9936  0.0905  0.6158
 6831SOL    HW221544   5.659   4.642   0.844 -1.8147  0.1683 -0.4552
 6832SOL     OW21545   5.398   0.014   6.915 -0.2526 -0.4490  0.2500
 6832SOL    HW121546   5.320   0.065   6.892  0.1585  0.0965  0.0332
 6832SOL    HW221547   5.366  -0.076   6.926 -0.7244 -0.4401 -0.9234
 6833SOL     OW21548   7.005   0.059   4.713 -0.1126  0.1271  0.6785
 6833SOL    HW121549   6.960  -0.024   4.724 -1.2535  0.8406  1.6321
 6833SOL    HW221550   6.981   0.089   4.625  1.9750 -1.4694 -0.5396
 6834SOL     OW21551   1.228   6.061   2.186  0.1989 -1.0596  0.3814
 6834SOL    HW121552   1.282   5.993   2.226 -0.7806 -0.5864  2.6526
 6834SOL    HW221553   1.141   6.022   2.179  0.0267 -0.6217  0.0109
 6835SOL     OW21554   4.806   3.532   1.512  0.6197  0.3348  0.4498
 6835SOL    HW121555   4.735   3.544   1.448  2.2397  0.5200 -1.4023
 6835SOL    HW221556   4.827   3.621   1.541  2.2952  0.6885 -1.5972
 6836SOL     OW21557   5.607   2.586   2.304 -0.3533  0.3273 -0.1128
 6836SOL    HW121558   5.689   2.554   2.342 -0.7285  0.7109  1.0554
 6836SOL    HW221559   5.627   2.597   2.211  0.2829 -1.6471 -0.2663
 6837SOL     OW21560   0.916   7.733   1.053 -0.2490  0.0415 -0.3908
 6837SOL    HW121561   0.903   7.658   0.995 -1.1727  0.1780 -0.3828
 6837SOL    HW221562   0.832   7.779   1.051  0.2665  1.0042 -0.2883
 6838SOL     OW21563   6.836   4.104   1.405 -0.9387  0.1998  0.1924
 6838SOL    HW121564   6.788   4.046   1.346  3.2023 -0.9250 -2.4415
 6838SOL    HW221565   6.867   4.046   1.475  0.2095 -0.0442 -0.5048
 6839SOL     OW21566   7.678   6.918   8.165  0.1942  0.2448 -0.1198
 6839SOL    HW121567   7.680   6.849   8.232 -0.0785 -0.1685 -0.5289
 6839SOL    HW221568   7.611   6.978   8.195  1.4479  1.1430  1.0126
 6840SOL     OW21569   7.969   5.137   6.327 -0.0712 -0.2360 -0.0267
 6840SOL    HW121570   7.969   5.165   6.235 -0.3486  0.6586  0.2457
 6840SOL    HW221571   8.062   5.137   6.352 -0.1299  1.6475  0.3250
 6841SOL     OW21572   6.157   1.645   1.923  0.2608  0.2624 -0.3411
 6841SOL    HW121573   6.128   1.718   1.868 -0.8259 -0.0231 -0.1749
 6841SOL    HW221574   6.144   1.568   1.868 -0.3808  0.0240  0.1247
 6842SOL     OW21575   1.182   1.640   1.884  0.3832  0.5605 -0.5880
 6842SOL    HW121576   1.106   1.611   1.933  0.1428  2.2957  0.1559
 6842SOL    HW221577   1.146   1.671   1.800 -0.0249  2.9392  0.3962
 6843SOL     OW21578   3.650   5.859   2.793 -0.2996  0.3489 -0.3457
 6843SOL    HW121579   3.663   5.767   2.816  0.7391  0.6718  0.4497
 6843SOL    HW221580   3.563   5.881   2.828  0.3661  0.2542  1.4988
 6844SOL     OW21581   6.695   1.595   0.857  0.1225 -0.3332 -0.2393
 6844SOL    HW121582   6.624   1.658   0.870  0.7830  0.1998  1.0678
 6844SOL    HW221583   6.739   1.624   0.777 -1.0522 -0.6169 -1.0041
 6845SOL     OW21584   7.886   4.640   1.806 -0.1545  0.2358  0.0537
 6845SOL    HW121585   7.828   4.696   1.754  1.4840  3.0114  0.9757
 6845SOL    HW221586   7.894   4.686   1.890  2.0818 -0.9077  0.5332
 6846SOL     OW21587   3.017   0.015   5.042  0.1667 -0.0918  0.7561
 6846SOL    HW121588   2.947  -0.029   4.994  0.9314 -2.3353  1.5572
 6846SOL    HW221589   3.081   0.039   4.976  0.8018 -2.3510  0.4683
 6847SOL     OW21590   5.190   4.484   4.489  0.1199 -0.3068  0.0590
 6847SOL    HW121591   5.236   4.559   4.451  0.0202 -0.4878 -0.4309
 6847SOL    HW221592   5.177   4.424   4.415 -0.0696 -0.6714  0.3851
 6848SOL     OW21593   7.010   7.761   5.382 -0.6511 -0.4115  0.2273
 6848SOL    HW121594   7.095   7.757   5.425  0.7270 -0.7408 -2.3128
 6848SOL    HW221595   6.969   7.676   5.401  0.5575 -1.1388 -0.3210
 6849SOL     OW21596   0.904   4.416   1.576  0.2775 -0.3598 -0.5919
 6849SOL    HW121597   0.891   4.380   1.488 -3.2383 -0.2523 -0.2428
 6849SOL    HW221598   0.989   4.381   1.603 -0.7924 -4.8095 -2.0319
 6850SOL     OW21599   6.435   0.255   7.606  0.0622 -0.5461  0.0508
 6850SOL    HW121600   6.343   0.238   7.629 -0.7034  2.0503 -0.6705
 6850SOL    HW221601   6.477   0.276   7.689 -0.4168 -0.2192  0.2182
 6851SOL     OW21602   6.062   5.801   3.830 -0.0213 -0.0361 -0.0295
 6851SOL    HW121603   6.112   5.760   3.759 -0.8047 -1.3233  0.1335
 6851SOL    HW221604   6.109   5.883   3.848  0.9811 -0.3473 -1.0845
 6852SOL     OW21605   7.944   5.548   5.538 -0.3991  0.3988  0.3098
 6852SOL    HW121606   7.981   5.476   5.589 -1.6296  0.4778  1.3710
 6852SOL    HW221607   7.952   5.625   5.595  1.3814  1.2679 -1.0100
 6853SOL     OW21608   5.278   8.142   6.576 -0.1772  0.4286 -0.4891
 6853SOL    HW121609   5.293   8.120   6.668  1.5621  2.3695 -0.2348
 6853SOL    HW221610   5.250   8.234   6.577  4.3963  2.1597 -1.9848
 6854SOL     OW21611   2.301   3.826   6.351  0.2540 -0.0676 -0.1614
 6854SOL    HW121612   2.245   3.884   6.404 -1.2652 -1.2667 -0.3953
 6854SOL    HW221613   2.344   3.770   6.416  2.3133  1.7115  0.1313
 6855SOL     OW21614   2.934   7.515   7.676 -0.0213 -0.2726 -0.0893
 6855SOL    HW121615   2.917   7.566   7.597  0.7314  0.4106  0.1678
 6855SOL    HW221616   2.857   7.529   7.730  0.3701  1.0445  0.1864
 6856SOL     OW21617   1.258   3.164   6.534  0.1251  0.1783 -0.1515
 6856SOL    HW121618   1.240   3.086   6.588 -0.1509  0.5849  0.3567
 6856SOL    HW221619   1.204   3.233   6.573 -1.3729  0.0973 -1.9610
 6857SOL     OW21620   0.022   7.037   1.745 -0.7707  0.4007  0.2524
 6857SOL    HW121621   0.003   7.114   1.691  0.1121 -0.0949 -0.8023
 6857SOL    HW221622  -0.056   6.983   1.737  0.0589 -0.5794 -2.2041
 6858SOL     OW21623   5.118   2.211   3.065  0.1949  0.0218 -0.3160
 6858SOL    HW121624   5.110   2.256   3.149 -0.7678 -0.8524  0.0822
 6858SOL    HW221625   5.118   2.281   3.000  0.9726  0.7105  0.4014
 6859SOL     OW21626   1.886   4.287   5.100  0.4770  0.2592 -0.0943
 6859SOL    HW121627   1.865   4.328   5.016 -0.6153 -0.3080 -0.1193
 6859SOL    HW221628   1.821   4.322   5.161 -1.1025 -2.0337 -0.3127
 6860SOL     OW21629   5.400   2.635   8.088  0.0993 -0.6914  0.7486
 6860SOL    HW121630   5.495   2.640   8.077 -0.1411  0.2528 -1.2955
 6860SOL    HW221631   5.366   2.615   8.001 -1.6932  1.2406  0.9074
 6861SOL     OW21632   2.483   1.892   0.589 -0.2307  0.3529 -0.0629
 6861SOL    HW121633   2.480   1.909   0.494  0.0237  1.2561  0.0829
 6861SOL    HW221634   2.571   1.860   0.605 -0.2829  0.1714 -0.1318
 6862SOL     OW21635   0.848   4.321   3.186  0.3408 -0.0718 -0.3332
 6862SOL    HW121636   0.937   4.287   3.176  0.0149 -1.7761  1.6735
 6862SOL    HW221637   0.836   4.330   3.281 -1.9921 -1.1018 -0.4430
 6863SOL     OW21638   2.667   1.382   5.452  0.6840 -0.0290 -0.0947
 6863SOL    HW121639   2.711   1.310   5.497  2.4010  2.3488  2.3378
 6863SOL    HW221640   2.636   1.439   5.522  1.0188  2.5306 -1.8640
 6864SOL     OW21641   4.132   6.809   6.963 -0.1087  0.1959  0.1075
 6864SOL    HW121642   4.081   6.861   7.026 -0.9829 -0.8875  0.3135
 6864SOL    HW221643   4.088   6.724   6.961  0.6804 -0.1996 -1.0152
 6865SOL     OW21644   6.128   4.627   0.929 -0.0492  0.4520  0.0232
 6865SOL    HW121645   6.208   4.580   0.953 -1.3672 -1.5089  0.8337
 6865SOL    HW221646   6.086   4.571   0.863 -2.2217 -0.1917  1.8273
 6866SOL     OW21647   7.514   1.562   5.638  0.1403 -0.2485  0.0503
 6866SOL    HW121648   7.426   1.525   5.624 -0.2333 -0.0631  1.7191
 6866SOL    HW221649   7.499   1.656   5.641  0.1902 -0.2622  1.4595
 6867SOL     OW21650   4.688   2.209   4.991  0.1966 -0.3785 -0.2200
 6867SOL    HW121651   4.660   2.274   4.927  0.2107 -0.6614 -0.5148
 6867SOL    HW221652   4.624   2.138   4.983 -1.0082  0.4596  1.5118
 6868SOL     OW21653   7.682   6.676   5.664  0.1787 -0.0067 -0.3687
 6868SOL    HW121654   7.670   6.695   5.571 -1.6846  1.5624  0.1355
 6868SOL    HW221655   7.596   6.643   5.693  0.8291 -0.8013  0.7355
 6869SOL     OW21656   6.187   2.538   3.179 -0.5313  0.0029 -0.0721
 6869SOL    HW121657   6.191   2.629   3.150 -0.4995  0.5990  1.6880
 6869SOL    HW221658   6.231   2.538   3.265  1.4205 -2.0788 -0.9647
 6870SOL     OW21659   6.801   2.200   4.745  0.0501  0.9702  0.6741
 6870SOL    HW121660   6.817   2.242   4.661 -0.6489  1.8272  0.9455
 6870SOL    HW221661   6.765   2.114   4.723 -0.1678  1.2022  0.0951
 6871SOL     OW21662   6.464   4.232   6.641  0.7674  0.2503  0.3404
 6871SOL    HW121663   6.392   4.191   6.593  1.5341  0.2466 -0.8469
 6871SOL    HW221664   6.433   4.235   6.732 -0.8154  0.4501 -0.1623
 6872SOL     OW21665   4.532   5.832   3.538 -0.0578 -0.0664 -0.2332
 6872SOL    HW121666   4.615   5.821   3.492  0.1901  1.4772 -0.2060
 6872SOL    HW221667   4.535   5.768   3.610  1.9614  1.2413  0.9274
 6873SOL     OW21668   6.093   0.861   2.419  0.1836  0.1201  0.1798
 6873SOL    HW121669   6.127   0.782   2.461  0.8120  0.4653  0.3370
 6873SOL    HW221670   6.041   0.903   2.487  0.6645  0.3434  0.4163
 6874SOL     OW21671   3.660   1.869   7.650 -0.3682 -0.1044  0.5683
 6874SOL    HW121672   3.610   1.857   7.570 -0.3734 -1.4742  0.7597
 6874SOL    HW221673   3.593   1.882   7.718 -0.3572  1.3497  0.3290
 6875SOL     OW21674   6.967   4.191   3.627 -0.0750 -0.0055  0.0965
 6875SOL    HW121675   6.994   4.101   3.610  0.2358 -0.0845  0.9508
 6875SOL    HW221676   6.995   4.208   3.717 -0.1456  0.9397 -0.0453
 6876SOL     OW21677   4.597   2.065   4.288 -0.4179 -0.2252  0.7813
 6876SOL    HW121678   4.671   2.096   4.340 -0.6759 -0.4020  1.2563
 6876SOL    HW221679   4.549   2.007   4.347 -0.4457 -0.8107  0.1952
 6877SOL     OW21680   3.833   5.771   3.098 -0.1577  0.2097  0.5212
 6877SOL    HW121681   3.753   5.727   3.070 -0.1603  0.4892  0.0753
 6877SOL    HW221682   3.821   5.862   3.071  1.1794 -0.1434 -1.4939
 6878SOL     OW21683   5.137   3.918   0.518  0.3781  0.3782 -0.5665
 6878SOL    HW121684   5.043   3.907   0.507  0.0064 -0.1542  2.3888
 6878SOL    HW221685   5.146   4.005   0.558  1.1474  0.4287 -0.8354
 6879SOL     OW21686   5.126   6.621   6.660  0.1381  0.2970 -0.0908
 6879SOL    HW121687   5.030   6.622   6.668 -0.0701 -0.3680 -2.0305
 6879SOL    HW221688   5.145   6.687   6.594  0.6102 -2.1869 -2.6296
 6880SOL     OW21689   5.198   4.160   1.696 -0.4235 -0.2155 -0.2510
 6880SOL    HW121690   5.207   4.248   1.734  0.7410  0.1692 -1.3270
 6880SOL    HW221691   5.261   4.107   1.744 -2.6021 -1.0702  1.8865
 6881SOL     OW21692   2.743   6.460   7.912  0.4017 -0.0701 -0.6070
 6881SOL    HW121693   2.667   6.500   7.955  1.0715  0.4632  0.1210
 6881SOL    HW221694   2.719   6.453   7.820 -0.2097  0.8673 -0.5249
 6882SOL     OW21695   1.894   5.444   6.854  0.0916 -0.7225 -0.5285
 6882SOL    HW121696   1.926   5.470   6.767 -0.7532 -0.8041 -0.8756
 6882SOL    HW221697   1.973   5.424   6.904  0.5782 -0.9168 -1.3591
 6883SOL     OW21698   6.765   4.351   4.977  0.1101 -0.3165 -0.4833
 6883SOL    HW121699   6.744   4.363   4.884  1.7451 -1.3957 -1.0168
 6883SOL    HW221700   6.752   4.258   4.993  1.2171 -0.4036 -0.0017
 6884SOL     OW21701   6.502   1.560   1.830  0.7213  0.5212  0.2644
 6884SOL    HW121702   6.536   1.536   1.744 -1.1318 -0.3995 -0.2625
 6884SOL    HW221703   6.460   1.481   1.863 -0.2258  1.3605  1.1869
 6885SOL     OW21704   0.082   0.561   6.999  0.2332  0.4820  0.2068
 6885SOL    HW121705   0.028   0.610   6.937  0.6462  1.2415  0.4362
 6885SOL    HW221706   0.171   0.587   6.979  0.4356  0.0782  0.5631
 6886SOL     OW21707   1.198   2.098   1.638  0.2979 -0.1757  0.7432
 6886SOL    HW121708   1.195   2.027   1.702  0.7008 -0.0506  0.9025
 6886SOL    HW221709   1.133   2.161   1.669 -1.0664 -1.0769 -0.1348
 6887SOL     OW21710   3.200   2.264   0.451  0.1938  0.1516 -0.2139
 6887SOL    HW121711   3.284   2.268   0.496 -0.1781  0.6521  0.4428
 6887SOL    HW221712   3.155   2.190   0.490  0.2660 -0.0280 -0.4660
 6888SOL     OW21713   4.737   7.676   5.623  0.3882  0.0901 -0.7959
 6888SOL    HW121714   4.828   7.696   5.645 -0.0267  0.9122  0.2051
 6888SOL    HW221715   4.742   7.591   5.579  1.5378 -0.3195  0.0667
 6889SOL     OW21716   5.964   2.342   2.163 -0.5392 -1.1744 -0.1919
 6889SOL    HW121717   5.951   2.346   2.258  0.2974 -1.9354 -0.0396
 6889SOL    HW221718   6.041   2.397   2.147 -1.7187  0.4261 -0.6696
 6890SOL     OW21719   2.851   6.846   2.194  0.2534  0.1107 -0.4928
 6890SOL    HW121720   2.926   6.902   2.216 -0.4567  0.9234 -0.0473
 6890SOL    HW221721   2.865   6.766   2.245  0.1416  0.8028  0.6758
 6891SOL     OW21722   3.504   4.582   7.980  0.1797  0.1257  0.0751
 6891SOL    HW121723   3.595   4.610   7.970  0.3757 -0.2894  0.6354
 6891SOL    HW221724   3.502   4.538   8.065 -0.1874 -1.3274 -0.6599
 6892SOL     OW21725   4.731   6.742   7.437  0.1350 -0.1301  0.7731
 6892SOL    HW121726   4.678   6.709   7.365  0.7927 -0.2568  0.3362
 6892SOL    HW221727   4.714   6.683   7.509 -0.5637  0.0212  0.7415
 6893SOL     OW21728   6.640   6.844   0.569 -0.5029  0.0704 -0.7917
 6893SOL    HW121729   6.604   6.887   0.646 -0.5155  0.5198 -1.0453
 6893SOL    HW221730   6.671   6.759   0.601 -4.1149 -1.5073 -1.0390
 6894SOL     OW21731   3.317   4.410   2.115  0.6472  0.0709 -0.5061
 6894SOL    HW121732   3.383   4.393   2.182  0.4639  0.3427 -0.2529
 6894SOL    HW221733   3.251   4.464   2.159  0.2829 -0.1482 -0.7691
 6895SOL     OW21734   5.869   2.530   6.006 -0.1745  0.0589  0.0610
 6895SOL    HW121735   5.787   2.553   6.049 -0.2405  0.3346 -0.2089
 6895SOL    HW221736   5.848   2.527   5.913  0.1067  0.0739 -0.0054
 6896SOL     OW21737   5.093   6.109   0.659 -0.1746  0.8418  0.0710
 6896SOL    HW121738   5.166   6.056   0.628 -0.3004  0.0286  1.0903
 6896SOL    HW221739   5.128   6.156   0.735 -0.4476  1.1799 -0.0111
 6897SOL     OW21740   7.641   5.632   7.193 -0.4623 -0.7450 -0.9029
 6897SOL    HW121741   7.708   5.565   7.201  0.3045 -0.3469 -3.1448
 6897SOL    HW221742   7.676   5.693   7.128 -2.1048  0.6113 -0.5895
 6898SOL     OW21743   0.063   2.649   6.750  0.1720 -0.3861  0.3632
 6898SOL    HW121744   0.016   2.696   6.818 -0.3565 -0.2321 -0.0981
 6898SOL    HW221745   0.123   2.714   6.712  0.2977 -0.4099  0.5188
 6899SOL     OW21746   5.430   1.883   4.042  0.0871 -0.7502  0.0955
 6899SOL    HW121747   5.366   1.837   3.988 -0.3800  0.2650 -0.2439
 6899SOL    HW221748   5.512   1.877   3.993 -0.3432  0.1980 -0.7710
 6900SOL     OW21749   3.533   6.519   1.275 -0.1642  0.1720  0.0632
 6900SOL    HW121750   3.521   6.614   1.276 -1.7319 -0.0041 -0.0163
 6900SOL    HW221751   3.518   6.492   1.365  0.8677  0.0413  0.2106
 6901SOL     OW21752   7.068   6.579   6.472 -0.1501 -0.0069  0.0455
 6901SOL    HW121753   7.085   6.485   6.469  1.0554  0.1892 -2.7152
 6901SOL    HW221754   7.058   6.604   6.380 -0.9157  2.5039  0.7284
 6902SOL     OW21755   0.860   4.871   5.833  0.9660 -0.5862 -0.0531
 6902SOL    HW121756   0.812   4.790   5.846  0.8753 -0.6173 -0.5601
 6902SOL    HW221757   0.830   4.904   5.748 -0.9361  1.3314  1.2676
 6903SOL     OW21758   7.075   5.203   6.554  0.1260 -0.0078  0.1439
 6903SOL    HW121759   6.996   5.210   6.608  0.1785 -0.3278  0.2643
 6903SOL    HW221760   7.092   5.293   6.526 -0.4296  0.0317 -0.0974
 6904SOL     OW21761   6.446   6.479   0.016  0.1548 -0.0730  0.4318
 6904SOL    HW121762   6.357   6.482  -0.020  0.0545 -0.1175  0.6688
 6904SOL    HW221763   6.434   6.502   0.108  0.4606  0.4839  0.3347
 6905SOL     OW21764   1.659   3.896   5.187 -0.4166  0.2093 -0.5915
 6905SOL    HW121765   1.746   3.934   5.189  0.0140 -0.7657  0.0512
 6905SOL    HW221766   1.649   3.854   5.272 -2.1445  1.6524 -0.0092
 6906SOL     OW21767   1.234   0.793   8.227 -0.4993  0.2272  0.1597
 6906SOL    HW121768   1.160   0.733   8.222 -0.6275  0.3176  0.7729
 6906SOL    HW221769   1.199   0.876   8.193 -0.0627 -0.2518 -1.5368
 6907SOL     OW21770   1.233   7.535   6.673 -0.3521  0.0219  0.6191
 6907SOL    HW121771   1.209   7.446   6.648  1.2591 -0.9636  2.3581
 6907SOL    HW221772   1.150   7.575   6.700 -1.0208 -1.0756  0.2754
 6908SOL     OW21773   0.234   2.916   6.696 -0.4291 -0.1861  0.3164
 6908SOL    HW121774   0.327   2.894   6.690 -0.5866 -0.5321 -1.2931
 6908SOL    HW221775   0.221   2.982   6.628 -1.3668 -0.1053  0.5662
 6909SOL     OW21776   0.332   7.509   2.746  0.4663  0.3081 -0.7944
 6909SOL    HW121777   0.315   7.454   2.670  1.2893  0.2516 -0.9540
 6909SOL    HW221778   0.319   7.599   2.715  1.1272  0.3028 -1.1004
 6910SOL     OW21779   8.212   3.986   4.131 -0.5654 -0.2080 -0.1297
 6910SOL    HW121780   8.292   3.950   4.092 -0.9286 -1.6700  0.4033
 6910SOL    HW221781   8.142   3.927   4.101 -1.5032  1.1874 -0.7903
 6911SOL     OW21782   2.822   6.734   3.260  0.1002  0.1185 -0.4143
 6911SOL    HW121783   2.911   6.758   3.233  0.0865  0.1856 -0.4027
 6911SOL    HW221784   2.819   6.639   3.251  0.2209  0.0999 -0.2718
 6912SOL     OW21785   1.733   3.901   1.560  0.0197  0.1974 -0.0952
 6912SOL    HW121786   1.698   3.877   1.474 -0.1816 -0.1919  0.0945
 6912SOL    HW221787   1.814   3.852   1.568  1.1346  1.8200 -0.9363
 6913SOL     OW21788   8.230   1.967   4.009  0.8968  0.1032 -0.3728
 6913SOL    HW121789   8.159   2.002   4.063  1.2585  0.0588  0.1379
 6913SOL    HW221790   8.204   1.876   3.993  0.3232  0.3886 -1.0764
 6914SOL     OW21791   7.568   5.440   0.713  0.4883  0.0382 -0.1217
 6914SOL    HW121792   7.496   5.458   0.654  0.5706  0.4367 -0.1005
 6914SOL    HW221793   7.530   5.446   0.801  0.8982  1.9177 -0.0397
 6915SOL     OW21794   3.106   1.515   1.034  0.0838  0.6690 -0.2498
 6915SOL    HW121795   3.116   1.427   0.997  0.2437  0.9339 -0.8583
 6915SOL    HW221796   3.187   1.530   1.082 -0.1759  0.2726  0.3186
 6916SOL     OW21797   8.205   5.090   7.793 -0.4924  0.0520  0.6344
 6916SOL    HW121798   8.243   5.009   7.828 -0.5324 -0.2118  0.0759
 6916SOL    HW221799   8.250   5.104   7.710 -1.9191 -0.5226 -0.2739
 6917SOL     OW21800   4.336   0.929   1.143 -0.1753 -0.9104  0.2535
 6917SOL    HW121801   4.408   0.910   1.203  1.8052  0.1502 -1.6683
 6917SOL    HW221802   4.301   0.843   1.120  0.1597 -1.4209  1.5441
 6918SOL     OW21803   7.844   7.466   3.259 -0.0904  0.1122 -0.3607
 6918SOL    HW121804   7.887   7.387   3.291 -0.5100  0.5531  1.4026
 6918SOL    HW221805   7.796   7.437   3.181  1.3838 -0.9040 -0.9410
 6919SOL     OW21806   2.488   0.897   7.002  0.5116  0.0424 -0.2366
 6919SOL    HW121807   2.540   0.831   7.047  0.6837  0.4250  0.1359
 6919SOL    HW221808   2.529   0.907   6.916  1.2455  0.5648  0.1662
 6920SOL     OW21809   2.568   4.505   5.637 -0.3540 -0.1607  0.5217
 6920SOL    HW121810   2.558   4.580   5.578 -2.0318 -0.0211  0.9318
 6920SOL    HW221811   2.590   4.432   5.579  1.3095  0.6054  0.1171
 6921SOL     OW21812   7.230   4.141   4.656 -0.0967  0.2843 -0.0545
 6921SOL    HW121813   7.272   4.191   4.586  0.8986 -0.4656 -0.0176
 6921SOL    HW221814   7.148   4.110   4.618  0.6008 -0.4321 -1.0313
 6922SOL     OW21815   3.858   6.184   0.735 -0.7354 -0.3183 -0.1595
 6922SOL    HW121816   3.850   6.266   0.685  2.0547  0.0794 -0.1052
 6922SOL    HW221817   3.925   6.134   0.688 -0.2193 -1.2314  1.4857
 6923SOL     OW21818   2.231   2.451   4.307  0.0028 -0.0950 -0.9182
 6923SOL    HW121819   2.310   2.493   4.272 -0.5548  2.5674  0.6845
 6923SOL    HW221820   2.161   2.515   4.292 -0.8715 -0.2622  1.8672
 6924SOL     OW21821   0.377   2.548   1.139 -0.1828  0.5623  0.2014
 6924SOL    HW121822   0.465   2.550   1.176 -0.1392 -1.8025  0.3679
 6924SOL    HW221823   0.329   2.488   1.196 -0.7654 -1.3666 -2.1482
 6925SOL     OW21824   7.341   4.792   1.100 -0.3211  0.2924 -0.1589
 6925SOL    HW121825   7.412   4.850   1.128  0.8215 -0.1864 -1.9172
 6925SOL    HW221826   7.262   4.831   1.138  0.7150  1.5521  0.7911
 6926SOL     OW21827   4.015   7.890   0.906 -0.3055 -0.0127 -0.8864
 6926SOL    HW121828   3.941   7.831   0.923  0.0104 -0.2045 -0.1232
 6926SOL    HW221829   4.077   7.837   0.856 -1.0642  0.4275 -2.3566
 6927SOL     OW21830   2.010   0.736   4.480 -0.3326  0.0679 -0.7401
 6927SOL    HW121831   2.063   0.718   4.557 -0.4191 -0.3876 -0.7848
 6927SOL    HW221832   1.946   0.801   4.509 -1.0298 -0.8631 -0.1417
 6928SOL     OW21833   7.865   3.975   2.460  0.5883  0.0657  0.0797
 6928SOL    HW121834   7.940   3.989   2.518  1.4126  0.7193 -1.0970
 6928SOL    HW221835   7.833   4.063   2.440 -1.5919 -0.2332  1.8827
 6929SOL     OW21836   3.399   4.966   0.405 -0.0616  0.7378  0.0611
 6929SOL    HW121837   3.349   4.898   0.360  1.2368 -0.6086  0.5612
 6929SOL    HW221838   3.490   4.950   0.378  0.7387  0.0496  2.8905
 6930SOL     OW21839   3.133   6.820   6.875  0.0195 -0.0032 -0.7332
 6930SOL    HW121840   3.226   6.822   6.897 -0.5514 -1.0440  2.1485
 6930SOL    HW221841   3.129   6.773   6.791  2.1462  1.5253 -1.7895
 6931SOL     OW21842   0.368   7.882   0.770  0.0914  0.1106 -0.6120
 6931SOL    HW121843   0.395   7.959   0.820  2.3298 -0.3046 -1.0877
 6931SOL    HW221844   0.321   7.918   0.694  0.4707  0.9701 -0.4453
 6932SOL     OW21845   1.748   5.802   6.861 -0.1055 -0.4770 -0.2662
 6932SOL    HW121846   1.842   5.796   6.877 -0.3534 -1.7214  0.9470
 6932SOL    HW221847   1.739   5.872   6.797  1.6155 -0.1137 -0.1660
 6933SOL     OW21848   0.951   8.010   8.170  0.1491 -0.3941  0.0383
 6933SOL    HW121849   1.035   8.006   8.126 -0.4164 -1.8172 -1.0199
 6933SOL    HW221850   0.970   8.048   8.256  1.4982  1.2485 -0.9305
 6934SOL     OW21851   5.868   4.918   2.582 -0.8041  0.0291 -0.3784
 6934SOL    HW121852   5.792   4.954   2.536  0.0153  0.4301 -1.4561
 6934SOL    HW221853   5.936   4.912   2.515  1.1939  2.8124  1.1869
 6935SOL     OW21854   7.896   4.742   4.927 -0.4111  0.7453 -0.0614
 6935SOL    HW121855   7.917   4.803   4.857 -1.1156 -0.0850 -1.0252
 6935SOL    HW221856   7.981   4.710   4.957 -0.0272  2.2498  0.5393
 6936SOL     OW21857   3.393   7.139   2.303 -0.2589  0.2312 -0.7093
 6936SOL    HW121858   3.408   7.146   2.397 -2.0984  1.9635 -0.4630
 6936SOL    HW221859   3.480   7.128   2.265  0.6249  0.5374  1.1303
 6937SOL     OW21860   1.809   6.887   7.958  0.4150 -0.9268  0.6608
 6937SOL    HW121861   1.804   6.938   8.038  1.5499 -0.1432  0.2521
 6937SOL    HW221862   1.868   6.815   7.978  1.7688  0.0132  0.1648
 6938SOL     OW21863   1.776   4.509   2.010 -0.1809 -0.6357 -0.1227
 6938SOL    HW121864   1.787   4.553   1.926 -0.3978 -1.0312 -0.3609
 6938SOL    HW221865   1.704   4.556   2.053 -0.4325 -0.7749 -0.3905
 6939SOL     OW21866   1.233   6.499   6.495  0.1684 -0.4496  0.4708
 6939SOL    HW121867   1.300   6.441   6.458 -1.6563 -1.5995 -1.1972
 6939SOL    HW221868   1.182   6.442   6.552 -2.1408 -0.8163 -1.7972
 6940SOL     OW21869   4.092   3.268   3.498  0.4129 -0.6181 -0.2921
 6940SOL    HW121870   4.001   3.238   3.490  0.3313 -0.3054 -0.5377
 6940SOL    HW221871   4.144   3.197   3.461  0.3512 -1.3072  0.8812
 6941SOL     OW21872   5.849   8.213   6.503 -0.5713  0.3541 -0.0595
 6941SOL    HW121873   5.880   8.236   6.415 -1.5466 -1.1557 -0.8341
 6941SOL    HW221874   5.765   8.169   6.489 -0.0156 -1.3488  1.4829
 6942SOL     OW21875   4.752   5.470   5.628  0.1198 -0.4193  0.1404
 6942SOL    HW121876   4.792   5.509   5.550 -0.5610 -3.6128 -1.9736
 6942SOL    HW221877   4.774   5.377   5.623 -2.7474 -1.3276  1.9288
 6943SOL     OW21878   4.541   1.714   5.037 -0.2159 -0.4271 -0.0334
 6943SOL    HW121879   4.606   1.653   5.071 -0.1122 -0.1576  0.2574
 6943SOL    HW221880   4.544   1.788   5.097 -0.5534 -0.2660 -0.2114
 6944SOL     OW21881   7.986   2.027   4.160 -0.3089 -0.6581  0.2162
 6944SOL    HW121882   7.984   2.103   4.218 -1.4050 -1.4144  1.2087
 6944SOL    HW221883   7.894   2.005   4.147 -0.0176 -1.4685 -0.5372
 6945SOL     OW21884   4.866   3.088   5.740  0.0431  0.1243  0.6079
 6945SOL    HW121885   4.849   3.100   5.834 -0.9564  2.8281  0.1888
 6945SOL    HW221886   4.779   3.088   5.700  0.5037  0.9026 -0.4519
 6946SOL     OW21887   0.750   7.443   1.337  0.7237 -0.5143 -1.4050
 6946SOL    HW121888   0.685   7.486   1.281  0.6539  1.6663  0.2292
 6946SOL    HW221889   0.833   7.480   1.309  0.6641  0.7719  0.0312
 6947SOL     OW21890   1.459   7.314   3.454  0.0777  0.2027  0.2495
 6947SOL    HW121891   1.412   7.397   3.466 -0.3180 -0.0492  0.4550
 6947SOL    HW221892   1.424   7.278   3.372 -0.7620 -0.4219  0.8649
 6948SOL     OW21893   6.397   1.314   2.324 -0.4156  0.1506 -0.0121
 6948SOL    HW121894   6.378   1.362   2.244 -0.2739  0.5412  0.1841
 6948SOL    HW221895   6.353   1.229   2.313 -1.2826  0.5996 -0.0556
 6949SOL     OW21896   0.368   3.407   6.142 -0.3889 -0.0653  0.0748
 6949SOL    HW121897   0.338   3.334   6.195  2.9584 -1.8138 -0.1406
 6949SOL    HW221898   0.346   3.485   6.193 -1.4866 -1.3946  1.7341
 6950SOL     OW21899   5.987   5.806   0.754  0.1070 -0.1731  0.6277
 6950SOL    HW121900   6.027   5.775   0.835  0.9820 -0.7724 -0.0066
 6950SOL    HW221901   5.893   5.798   0.769  0.2656 -0.6623  1.4288
 6951SOL     OW21902   7.781   4.563   2.330  0.6603  0.8187 -0.2033
 6951SOL    HW121903   7.705   4.621   2.330  0.6248  0.7760 -0.6558
 6951SOL    HW221904   7.758   4.494   2.268  1.3399  1.1570 -0.8343
 6952SOL     OW21905   2.178   0.692   2.024  0.2384  0.3297 -0.4133
 6952SOL    HW121906   2.186   0.597   2.032 -1.5130  0.1993  0.0224
 6952SOL    HW221907   2.248   0.726   2.081  0.7900 -0.6763 -0.4577
 6953SOL     OW21908   0.287   1.967   0.704 -0.5367 -0.3345  0.4360
 6953SOL    HW121909   0.195   1.970   0.678 -1.0249  1.6061  2.1377
 6953SOL    HW221910   0.289   1.905   0.777 -0.5959  0.0001  0.7237
 6954SOL     OW21911   4.702   5.207   6.370  0.0550 -0.2578 -0.3859
 6954SOL    HW121912   4.629   5.243   6.320 -0.2258  1.4453  1.1180
 6954SOL    HW221913   4.707   5.263   6.448  1.2904 -1.9831  0.8405
 6955SOL     OW21914   5.331   7.771   6.944 -0.1178  0.5594 -0.1593
 6955SOL    HW121915   5.388   7.750   6.870  0.7675  1.8881  0.1157
 6955SOL    HW221916   5.371   7.726   7.018  0.7166  1.6359  0.0685
 6956SOL     OW21917   4.281   7.294   7.420 -0.5489 -0.2667  0.2275
 6956SOL    HW121918   4.282   7.356   7.347  0.4521 -1.2387 -0.6408
 6956SOL    HW221919   4.215   7.229   7.396  0.6431 -1.2772 -0.4788
 6957SOL     OW21920   2.784   4.621   1.106  0.3302  0.0655  0.4650
 6957SOL    HW121921   2.718   4.690   1.115  1.5142  1.4105 -0.6065
 6957SOL    HW221922   2.775   4.590   1.016 -0.3804 -1.4318  1.0195
 6958SOL     OW21923   7.895   5.579   7.869  0.5643  0.5431  0.4150
 6958SOL    HW121924   7.981   5.596   7.907  0.4031  1.1545  0.5075
 6958SOL    HW221925   7.880   5.485   7.884  1.1014  0.4907  0.6196
 6959SOL     OW21926   3.957   1.765   4.865  0.2980 -0.4101  0.2845
 6959SOL    HW121927   3.898   1.761   4.789 -1.3648 -1.4348  1.5408
 6959SOL    HW221928   4.009   1.685   4.859  1.0040  0.0957 -0.3995
 6960SOL     OW21929   6.230   1.788   2.316  0.3723  0.0083  0.1776
 6960SOL    HW121930   6.281   1.861   2.351 -0.0017  0.5857 -0.4617
 6960SOL    HW221931   6.153   1.829   2.276 -0.9211 -0.8652  1.6329
 6961SOL     OW21932   6.829   2.210   1.252 -0.5571  0.0581  0.1296
 6961SOL    HW121933   6.876   2.239   1.174 -0.3931 -2.1491 -0.6680
 6961SOL    HW221934   6.744   2.252   1.245 -1.6448 -2.2325 -2.8876
 6962SOL     OW21935   3.573   1.523   3.233  0.0785  0.2724 -0.4222
 6962SOL    HW121936   3.592   1.542   3.325  1.4798 -0.8941 -0.4351
 6962SOL    HW221937   3.493   1.469   3.236 -0.9710  1.7770 -0.0591
 6963SOL     OW21938   2.371   3.000   7.844 -0.0247 -0.0157  0.1864
 6963SOL    HW121939   2.383   2.920   7.792 -1.0420  0.3904 -0.7048
 6963SOL    HW221940   2.459   3.038   7.849  0.7323 -1.7615  1.6482
 6964SOL     OW21941   3.956   5.747   1.593 -0.5269  0.0962  0.0638
 6964SOL    HW121942   3.970   5.815   1.526  1.3602 -0.7546 -0.4881
 6964SOL    HW221943   3.967   5.665   1.546  0.4152 -0.5320  1.3308
 6965SOL     OW21944   1.750   3.464   1.332 -0.0481 -0.0139 -0.0007
 6965SOL    HW121945   1.812   3.394   1.309  2.2368  0.9879  2.5513
 6965SOL    HW221946   1.793   3.545   1.304 -0.7729  0.6412  0.7215
 6966SOL     OW21947   0.129   6.006   0.258 -0.1516 -0.4360 -0.0952
 6966SOL    HW121948   0.198   5.975   0.199  1.7058  1.9826  0.6088
 6966SOL    HW221949   0.067   6.051   0.200  0.8936  0.6548 -0.4034
 6967SOL     OW21950   7.108   8.194   1.039  0.1411  0.0858  0.1617
 6967SOL    HW121951   7.183   8.134   1.042  0.6324  0.7249  1.0328
 6967SOL    HW221952   7.131   8.255   0.969 -0.4168 -0.7852 -0.8131
 6968SOL     OW21953   6.668   2.953   0.870 -0.1758 -0.0387  0.0103
 6968SOL    HW121954   6.753   2.997   0.871  0.4420 -1.1752 -0.8053
 6968SOL    HW221955   6.689   2.861   0.856 -1.4413 -0.6310  1.7908
 6969SOL     OW21956   4.726   0.731   6.172  0.1841 -0.1802  0.1173
 6969SOL    HW121957   4.742   0.711   6.080  0.1476  3.3555 -0.8039
 6969SOL    HW221958   4.797   0.791   6.196 -1.3712  1.2148  1.4816
 6970SOL     OW21959   1.886   5.834   0.805  0.4692  0.1731  0.7578
 6970SOL    HW121960   1.867   5.928   0.798  1.3895  0.2629 -1.6606
 6970SOL    HW221961   1.863   5.799   0.719  3.2358 -1.1571  0.4545
 6971SOL     OW21962   3.266   4.830   1.150 -0.2883  0.2986  0.2225
 6971SOL    HW121963   3.316   4.755   1.182 -0.2609  0.6351  1.0162
 6971SOL    HW221964   3.278   4.896   1.219 -2.5496  0.1010  0.8666
 6972SOL     OW21965   8.220   4.015   2.113 -0.5890  1.1401  0.2623
 6972SOL    HW121966   8.309   3.987   2.129 -1.3361 -0.0281  2.8482
 6972SOL    HW221967   8.227   4.109   2.095  0.9475  1.8050  3.6753
 6973SOL     OW21968   2.321   7.658   1.882 -0.6557  0.1280 -0.4888
 6973SOL    HW121969   2.402   7.661   1.832 -0.3701 -0.0414 -0.0384
 6973SOL    HW221970   2.263   7.720   1.837 -1.1336 -1.4787 -2.2791
 6974SOL     OW21971   3.851   6.441   3.965 -0.2409  0.4686  0.3820
 6974SOL    HW121972   3.865   6.353   3.999  0.1337 -0.3125 -1.6406
 6974SOL    HW221973   3.938   6.469   3.934 -0.5478  1.1429  0.0994
 6975SOL     OW21974   4.463   7.243   5.720  0.3070 -0.0451 -0.0708
 6975SOL    HW121975   4.486   7.318   5.665 -0.4611  0.7847  0.7119
 6975SOL    HW221976   4.383   7.270   5.765 -0.1195 -1.4353  0.0465
 6976SOL     OW21977   6.372   4.154   3.307  0.7658  0.3022 -0.1551
 6976SOL    HW121978   6.453   4.105   3.293  0.5715  0.0415 -0.4119
 6976SOL    HW221979   6.333   4.113   3.384 -0.6267 -1.6945 -1.7678
 6977SOL     OW21980   2.613   0.028   4.751  0.3648  0.4887 -0.6695
 6977SOL    HW121981   2.660  -0.043   4.707 -1.3222 -1.7546  0.9180
 6977SOL    HW221982   2.537   0.046   4.694 -0.6627 -0.9286  0.1937
 6978SOL     OW21983   8.131   5.358   3.563  0.5271 -0.4577 -0.3601
 6978SOL    HW121984   8.069   5.357   3.490  1.6581 -2.2065 -1.3730
 6978SOL    HW221985   8.179   5.440   3.552 -0.7966  0.3676 -0.2337
 6979SOL     OW21986   4.477   3.745   2.541 -0.0549  0.2394  0.0520
 6979SOL    HW121987   4.563   3.725   2.503 -1.6521 -2.0543 -2.6894
 6979SOL    HW221988   4.434   3.800   2.476 -2.6818 -3.3619 -1.5707
 6980SOL     OW21989   8.253   7.011   7.670 -0.5779  0.2739  0.9037
 6980SOL    HW121990   8.167   7.045   7.646  0.7937  2.2901 -1.7832
 6980SOL    HW221991   8.277   6.954   7.597  1.0535  1.1863  0.6763
 6981SOL     OW21992   2.286   0.594   6.284  0.4680  0.1773  0.3909
 6981SOL    HW121993   2.317   0.516   6.329 -0.4676 -2.4724 -3.1288
 6981SOL    HW221994   2.216   0.627   6.340  0.1831 -2.1378  1.5333
 6982SOL     OW21995   2.147   4.142   4.141 -0.0647 -0.6253  0.1623
 6982SOL    HW121996   2.072   4.179   4.187  0.4698 -0.5523  0.9930
 6982SOL    HW221997   2.146   4.049   4.164 -0.4835 -0.8353 -0.6515
 6983SOL     OW21998   1.240   7.869   5.716 -0.0265  0.7634 -0.2379
 6983SOL    HW121999   1.268   7.913   5.636 -0.2864  1.4468  0.0455
 6983SOL    HW222000   1.320   7.828   5.750  0.0070  0.1173 -1.0551
 6984SOL     OW22001   6.537   7.001   0.794 -0.3152  0.2790 -0.2951
 6984SOL    HW122002   6.528   7.083   0.843  0.0399  0.3879 -0.4045
 6984SOL    HW222003   6.585   6.943   0.852 -0.8912  0.0220 -0.0752
 6985SOL     OW22004   3.404   0.775   3.988 -0.0243  0.2256  0.0564
 6985SOL    HW122005   3.360   0.858   4.007  0.6384  0.4592  0.6138
 6985SOL    HW222006   3.478   0.773   4.049  0.1218 -0.6488 -0.1421
 6986SOL     OW22007   1.409   4.164   0.946 -0.0076  0.3680 -0.4663
 6986SOL    HW122008   1.487   4.140   0.896  0.7906 -0.5900  1.1464
 6986SOL    HW222009   1.441   4.222   1.014 -0.5939 -0.4499  0.5330
 6987SOL     OW22010   6.323   4.012   6.244 -0.3238  0.0025  0.4532
 6987SOL    HW122011   6.243   3.981   6.285 -1.1957  2.9506  1.2441
 6987SOL    HW222012   6.301   4.021   6.152  0.2369 -2.4041  0.0306
 6988SOL     OW22013   5.076   3.089   1.407 -0.3317 -0.1920  0.7114
 6988SOL    HW122014   5.002   3.135   1.366  0.9257  0.3654 -1.0209
 6988SOL    HW222015   5.078   3.003   1.363 -0.8734 -0.8122  1.8594
 6989SOL     OW22016   2.940   3.176   6.854 -0.1847 -0.4959  0.0163
 6989SOL    HW122017   2.930   3.212   6.766  1.1690 -0.1481 -0.0184
 6989SOL    HW222018   2.906   3.087   6.847  0.0165 -0.5163 -0.8931
 6990SOL     OW22019   2.769   5.400   7.524  0.0216  0.0533  0.6708
 6990SOL    HW122020   2.811   5.381   7.608  2.6307  1.5167 -0.1709
 6990SOL    HW222021   2.788   5.493   7.510  1.4233 -0.5928 -2.4029
 6991SOL     OW22022   5.558   3.362   0.941 -0.0118  0.3241 -0.3920
 6991SOL    HW122023   5.636   3.314   0.913 -0.8118 -1.9612  0.9920
 6991SOL    HW222024   5.569   3.372   1.036 -0.3970  1.9934 -0.4843
 6992SOL     OW22025   7.045   4.655   7.861  0.0153  1.0318  0.4201
 6992SOL    HW122026   7.027   4.745   7.890 -0.7688  0.9156  0.3320
 6992SOL    HW222027   7.047   4.604   7.942 -0.8026  0.9318  0.3879
 6993SOL     OW22028   3.239   7.756   3.575 -0.4749  0.3391  0.2111
 6993SOL    HW122029   3.225   7.821   3.506  0.4561  0.5216  0.1769
 6993SOL    HW222030   3.218   7.802   3.656 -0.3766  0.5068  0.1417
 6994SOL     OW22031   6.806   2.777   1.961 -0.0815 -0.0594 -0.5449
 6994SOL    HW122032   6.845   2.730   1.888  1.1574  1.7207 -1.0898
 6994SOL    HW222033   6.717   2.797   1.931 -0.5185 -1.6905 -0.4304
 6995SOL     OW22034   4.112   0.697   3.786  0.2036  0.4057  0.2344
 6995SOL    HW122035   4.039   0.754   3.762  0.7670  1.5715  1.2308
 6995SOL    HW222036   4.177   0.712   3.718  0.1332  0.5306  0.1935
 6996SOL     OW22037   5.375   1.247   3.345 -0.1744  0.1259  0.2759
 6996SOL    HW122038   5.386   1.183   3.275  0.2229  1.7328 -1.1911
 6996SOL    HW222039   5.311   1.207   3.404 -0.5864 -1.2388 -1.0435
 6997SOL     OW22040   3.181   3.644   0.784 -0.2852 -0.1114 -0.2299
 6997SOL    HW122041   3.209   3.661   0.694 -0.0106  2.7410  0.3036
 6997SOL    HW222042   3.230   3.565   0.810  1.6543  0.5130 -1.7184
 6998SOL     OW22043   5.922   1.712   6.420  0.1376 -0.3666  0.6260
 6998SOL    HW122044   5.992   1.662   6.378 -0.7207 -0.2952 -0.9463
 6998SOL    HW222045   5.865   1.740   6.348  0.3281  2.5030  1.4626
 6999SOL     OW22046   2.390   6.484   4.176  0.3481  0.1804  0.3378
 6999SOL    HW122047   2.440   6.428   4.236  1.1712  0.0397 -0.4522
 6999SOL    HW222048   2.371   6.428   4.101 -2.9329 -0.4375  1.4986
 7000SOL     OW22049   7.971   0.974   1.133  0.2427  0.3087 -0.2968
 7000SOL    HW122050   7.994   1.059   1.096  1.4718  0.4222  0.6313
 7000SOL    HW222051   8.018   0.910   1.079  2.2068  0.4861  1.0557
 7001SOL     OW22052   7.395   7.571   1.064  0.3388  0.4278 -1.0157
 7001SOL    HW122053   7.426   7.578   1.154  0.0685  2.3553 -1.0175
 7001SOL    HW222054   7.312   7.524   1.071  0.0244  1.0760 -0.1708
 7002SOL     OW22055   6.552   3.821   7.001 -0.2820  0.2360 -0.4986
 7002SOL    HW122056   6.494   3.757   6.961 -0.1214  1.7845 -3.4346
 7002SOL    HW222057   6.637   3.777   7.003 -0.5598 -0.3252 -0.6439
 7003SOL     OW22058   4.700   6.751   4.122  0.2537 -0.3926  0.4081
 7003SOL    HW122059   4.650   6.687   4.070  1.1734 -1.2929  0.5866
 7003SOL    HW222060   4.652   6.758   4.204  0.3543 -1.1755  0.5425
 7004SOL     OW22061   4.469   2.245   2.589  0.0284 -0.0790 -0.0782
 7004SOL    HW122062   4.497   2.336   2.579 -0.9354  0.0829 -1.9886
 7004SOL    HW222063   4.389   2.250   2.641  0.2673  0.1175  0.2678
 7005SOL     OW22064   2.608   4.304   5.457  0.5437 -0.6008 -0.2963
 7005SOL    HW122065   2.613   4.378   5.396  1.8135  1.0147  1.6343
 7005SOL    HW222066   2.647   4.231   5.409  1.0256  0.4692 -1.6105
 7006SOL     OW22067   0.247   0.833   6.133 -0.0396  0.4741 -0.2439
 7006SOL    HW122068   0.205   0.914   6.164 -0.5559  0.1439 -0.0684
 7006SOL    HW222069   0.251   0.843   6.038  2.7885  2.0949 -0.0618
 7007SOL     OW22070   3.587   8.158   7.836  0.7178  0.0030  0.1369
 7007SOL    HW122071   3.585   8.232   7.774  0.7023  0.9602  1.2431
 7007SOL    HW222072   3.657   8.180   7.897  0.7696 -0.9531  0.4290
 7008SOL     OW22073   0.459   4.727   4.386  0.2632 -0.3626  0.1445
 7008SOL    HW122074   0.404   4.793   4.343 -1.1144 -1.9250 -0.6238
 7008SOL    HW222075   0.539   4.724   4.333 -0.1908 -0.1897 -0.5744
 7009SOL     OW22076   0.522   3.327   0.647  0.3610 -0.4194 -0.2090
 7009SOL    HW122077   0.518   3.253   0.587  0.1656 -1.6438  1.2341
 7009SOL    HW222078   0.570   3.394   0.600  1.5475 -1.8717 -1.1644
 7010SOL     OW22079   4.686   1.115   1.120  0.1427 -0.1460  0.5539
 7010SOL    HW122080   4.670   1.062   1.042 -0.0610  0.1951  0.3597
 7010SOL    HW222081   4.759   1.172   1.096  1.7746 -1.7621  1.4687
 7011SOL     OW22082   4.401   0.514   4.491 -0.3263 -0.7887 -0.4658
 7011SOL    HW122083   4.464   0.513   4.418  0.7158 -1.2979  0.4267
 7011SOL    HW222084   4.453   0.496   4.569 -1.2040  0.9509  0.6067
 7012SOL     OW22085   7.885   2.330   5.309 -0.1758  0.0915  0.1054
 7012SOL    HW122086   7.857   2.407   5.359 -0.2119  0.3352 -0.2819
 7012SOL    HW222087   7.813   2.315   5.247 -0.3048 -0.4389  0.3804
 7013SOL     OW22088   8.150   1.935   4.809  0.6400 -0.0154  0.1523
 7013SOL    HW122089   8.242   1.959   4.808  0.4640  0.7633 -1.3696
 7013SOL    HW222090   8.107   2.004   4.860  0.9078 -0.4962  1.0457
 7014SOL     OW22091   2.342   2.226   6.641 -0.0890 -0.4839  0.3962
 7014SOL    HW122092   2.359   2.272   6.722  0.5222  0.5409 -0.2915
 7014SOL    HW222093   2.413   2.162   6.634  0.1118 -0.2646  0.4411
 7015SOL     OW22094   4.579   6.684   1.393  0.5515 -0.0290  0.1301
 7015SOL    HW122095   4.613   6.759   1.442  0.6920  1.6631 -2.3845
 7015SOL    HW222096   4.510   6.721   1.338  0.5240 -1.7917 -1.0906
 7016SOL     OW22097   3.113   7.423   5.060  0.2306  0.3570  0.2751
 7016SOL    HW122098   3.129   7.426   5.154  1.2227  0.1098  0.1293
 7016SOL    HW222099   3.127   7.513   5.031 -1.7888  0.8227  0.5940
 7017SOL     OW22100   7.458   2.466   1.608 -0.9624 -0.1845 -0.0693
 7017SOL    HW122101   7.524   2.505   1.551 -2.4190  0.4850 -1.3770
 7017SOL    HW222102   7.479   2.372   1.609 -1.6482 -0.4558 -2.8665
 7018SOL     OW22103   0.597   3.382   2.594  0.1680  0.0297 -0.4582
 7018SOL    HW122104   0.612   3.313   2.659  0.7372  0.1891 -0.4095
 7018SOL    HW222105   0.510   3.364   2.559  0.4466 -0.9267 -0.6953
 7019SOL     OW22106   0.556   3.185   2.310  0.2974  0.2567 -0.3746
 7019SOL    HW122107   0.564   3.129   2.233  0.7793  2.4077 -1.9649
 7019SOL    HW222108   0.468   3.221   2.305  0.0067 -0.2699  0.6188
 7020SOL     OW22109   6.434   6.124   2.019  0.0709 -0.1781  0.5800
 7020SOL    HW122110   6.488   6.102   1.943 -0.1186  1.8048 -0.1720
 7020SOL    HW222111   6.359   6.170   1.982  0.4293  1.6492  2.0004
 7021SOL     OW22112   0.802   0.350   6.914  0.3368  0.1188  0.2558
 7021SOL    HW122113   0.852   0.335   6.833 -2.1393 -0.3686 -1.2968
 7021SOL    HW222114   0.779   0.262   6.944  1.0252  0.3094  1.3950
 7022SOL     OW22115   2.084   2.100   2.978  0.4805 -0.5087  0.1975
 7022SOL    HW122116   2.166   2.074   2.936  0.8759 -0.2749  0.8120
 7022SOL    HW222117   2.111   2.151   3.054 -0.2631  1.7259 -0.9310
 7023SOL     OW22118   6.997   8.014   5.482 -0.0048  0.1829 -0.3334
 7023SOL    HW122119   7.007   7.928   5.440 -1.1949  0.6146 -1.5820
 7023SOL    HW222120   6.904   8.017   5.507  0.1625  0.8898  0.2060
 7024SOL     OW22121   5.606   2.556   5.591  0.4310  0.2581 -0.0064
 7024SOL    HW122122   5.643   2.634   5.550 -0.8556  1.1576  0.4550
 7024SOL    HW222123   5.545   2.521   5.525  2.5177 -1.6344 -1.0587
 7025SOL     OW22124   4.093   6.528   6.284  0.0091 -0.2485  0.2436
 7025SOL    HW122125   4.156   6.458   6.268  0.0018 -0.2602  0.2666
 7025SOL    HW222126   4.130   6.605   6.242  0.0473 -0.2511  0.2723
 7026SOL     OW22127   2.325   0.277   2.434  0.0272  0.1853  0.4086
 7026SOL    HW122128   2.298   0.359   2.474 -0.6649 -0.6712  1.7622
 7026SOL    HW222129   2.383   0.303   2.362 -0.9693  1.8795  0.1728
 7027SOL     OW22130   5.228   1.106   0.824  0.3588  0.0779 -0.8902
 7027SOL    HW122131   5.276   1.058   0.892  2.4952  1.8576 -1.0371
 7027SOL    HW222132   5.153   1.144   0.869  2.8032  2.9273  1.1089
 7028SOL     OW22133   1.142   3.175   2.940 -0.1005  0.1516 -0.3347
 7028SOL    HW122134   1.100   3.221   2.867 -4.0373 -0.3869  1.3262
 7028SOL    HW222135   1.188   3.244   2.989  0.1933  0.9939 -1.7412
 7029SOL     OW22136   3.073   2.314   2.836  0.1300  0.2049 -0.3632
 7029SOL    HW122137   3.065   2.390   2.778 -0.2102  0.2427 -0.2699
 7029SOL    HW222138   3.158   2.275   2.813  0.5707  0.9361 -0.0073
 7030SOL     OW22139   7.958   1.419   5.329 -0.5960  0.1312  0.8653
 7030SOL    HW122140   8.031   1.388   5.274 -0.8129 -2.0862  1.7314
 7030SOL    HW222141   7.888   1.357   5.314 -0.6611 -0.6061  3.6355
 7031SOL     OW22142   5.522   5.191   8.061  0.0951 -0.6510  0.1974
 7031SOL    HW122143   5.450   5.160   8.115 -0.7242  0.5182 -0.1823
 7031SOL    HW222144   5.563   5.111   8.028 -0.7356 -1.3433  0.7899
 7032SOL     OW22145   4.315   5.374   0.356  0.5573 -0.2376 -0.1916
 7032SOL    HW122146   4.276   5.453   0.319 -1.6147 -0.4350  1.4818
 7032SOL    HW222147   4.292   5.304   0.294  1.8509  0.2563 -1.2922
 7033SOL     OW22148   2.624   0.069   0.993  0.8468  0.1885 -0.3013
 7033SOL    HW122149   2.608   0.160   1.015  0.6041  0.3715 -1.2254
 7033SOL    HW222150   2.556   0.046   0.929  0.3555 -0.8999  0.5621
 7034SOL     OW22151   0.333   2.800   4.747 -0.0199 -0.6491 -0.0719
 7034SOL    HW122152   0.331   2.708   4.723  1.7239 -0.5945 -0.5553
 7034SOL    HW222153   0.425   2.820   4.760 -0.4144  0.8786  0.6614
 7035SOL     OW22154   7.051   2.203   4.551 -0.4188  0.4364 -0.0621
 7035SOL    HW122155   7.141   2.187   4.581  0.4156  1.8284 -1.6505
 7035SOL    HW222156   7.015   2.115   4.535  1.3342 -0.1215 -1.2260
 7036SOL     OW22157   2.348   6.098   2.583 -0.1021  0.7424 -0.4028
 7036SOL    HW122158   2.415   6.030   2.596 -0.3149  0.2875 -1.5172
 7036SOL    HW222159   2.388   6.159   2.521 -0.5288  0.7399 -0.6835
 7037SOL     OW22160   6.669   5.989   5.816  0.4034 -0.2258 -0.2421
 7037SOL    HW122161   6.666   6.081   5.788  0.5620  0.0166  0.5203
 7037SOL    HW222162   6.683   5.993   5.910  1.6433 -1.0426 -0.3716
 7038SOL     OW22163   0.671   6.123   7.125 -1.0198  0.4024  0.1647
 7038SOL    HW122164   0.656   6.045   7.178  0.7633  1.1167  1.8470
 7038SOL    HW222165   0.704   6.188   7.187  0.2922  1.5886 -1.6675
 7039SOL     OW22166   4.705   1.737   2.830  0.3856  0.5462  0.1841
 7039SOL    HW122167   4.678   1.827   2.847  0.2999  0.4009  0.8162
 7039SOL    HW222168   4.752   1.742   2.747 -0.1154  1.0790 -0.0759
 7040SOL     OW22169   2.226   6.828   2.394  0.2328  0.0909  0.0131
 7040SOL    HW122170   2.308   6.793   2.360 -0.6896 -1.0050 -1.2286
 7040SOL    HW222171   2.159   6.770   2.357 -1.0212  0.2846  1.8777
 7041SOL     OW22172   4.699   2.040   0.094 -0.1537 -0.7200  0.1093
 7041SOL    HW122173   4.701   1.948   0.120  0.5010 -1.0484 -1.0190
 7041SOL    HW222174   4.751   2.043   0.013  2.7130  1.1823  1.8290
 7042SOL     OW22175   4.879   5.835   2.445 -0.2899 -0.7616 -0.2107
 7042SOL    HW122176   4.788   5.826   2.473  0.5051 -0.5588  2.7572
 7042SOL    HW222177   4.906   5.922   2.475  0.8043 -0.6639 -1.3608
 7043SOL     OW22178   5.697   7.674   7.492 -0.2594  0.1622 -0.3250
 7043SOL    HW122179   5.631   7.607   7.477  0.2963 -0.2364 -1.0514
 7043SOL    HW222180   5.781   7.628   7.484  0.1826  1.2326 -2.5089
 7044SOL     OW22181   6.514   0.226   5.182 -0.9903  0.6193 -0.4838
 7044SOL    HW122182   6.563   0.149   5.210 -2.0972  0.7082  1.9136
 7044SOL    HW222183   6.551   0.298   5.233 -1.5815  1.2415 -0.9125
 7045SOL     OW22184   2.553   2.067   6.599  0.1039  0.1857 -0.0986
 7045SOL    HW122185   2.599   2.132   6.545 -0.6825  1.2589  0.4765
 7045SOL    HW222186   2.579   1.983   6.562 -0.2440  0.8636 -2.0483
 7046SOL     OW22187   5.811   2.454   0.603 -0.1110 -0.1020  0.0639
 7046SOL    HW122188   5.723   2.450   0.639  0.0581 -0.3154  0.4613
 7046SOL    HW222189   5.853   2.528   0.647 -0.4188  0.6671 -0.8898
 7047SOL     OW22190   7.518   1.822   8.213 -0.1224  0.6627 -0.1795
 7047SOL    HW122191   7.449   1.884   8.189  0.5208  2.3170  1.8669
 7047SOL    HW222192   7.516   1.820   8.309  1.5859 -0.5134 -0.1191
 7048SOL     OW22193   4.803   6.121   7.700 -1.1824 -0.0273  0.1234
 7048SOL    HW122194   4.869   6.057   7.673 -1.0093 -0.4504  1.4630
 7048SOL    HW222195   4.728   6.068   7.726 -1.4383  0.3730  0.2080
 7049SOL     OW22196   8.036   1.128   1.809 -0.3900  0.1072 -0.6455
 7049SOL    HW122197   8.056   1.120   1.716  0.6792  0.2548 -0.4433
 7049SOL    HW222198   8.084   1.057   1.850 -0.3188  0.4488 -0.1309
 7050SOL     OW22199   7.871   7.052   0.091 -0.0093 -0.8493 -0.3186
 7050SOL    HW122200   7.824   7.013   0.018 -1.5401 -2.6919  1.5202
 7050SOL    HW222201   7.955   7.007   0.092 -0.8001 -2.4088  0.2557
 7051SOL     OW22202   5.051   2.098   4.139  0.5108  0.1451  0.1692
 7051SOL    HW122203   5.146   2.097   4.138  0.5937 -0.3682 -2.9552
 7051SOL    HW222204   5.026   2.006   4.132 -0.1357  0.3550 -0.4354
 7052SOL     OW22205   3.297   7.041   8.122  0.2184  0.4292  0.0584
 7052SOL    HW122206   3.296   7.030   8.027  2.9294  0.2673 -0.0458
 7052SOL    HW222207   3.315   6.953   8.156 -0.8594  0.4632  0.7463
 7053SOL     OW22208   8.266   2.650   1.512  0.3819 -0.2851 -0.1548
 7053SOL    HW122209   8.315   2.680   1.588  0.4932  0.8050 -0.6329
 7053SOL    HW222210   8.195   2.712   1.502  0.2719 -0.5017 -0.8408
 7054SOL     OW22211   0.450   2.571   3.083 -0.0216 -0.1680  0.1928
 7054SOL    HW122212   0.524   2.621   3.117 -0.2183 -0.6615  1.4023
 7054SOL    HW222213   0.403   2.633   3.028  2.1912 -0.3281 -2.0055
 7055SOL     OW22214   6.779   4.536   0.972 -0.1087  0.0485 -0.2946
 7055SOL    HW122215   6.757   4.455   1.018 -1.6779  1.0439  0.7900
 7055SOL    HW222216   6.775   4.512   0.879  0.2448 -1.2949  0.0123
 7056SOL     OW22217   1.391   7.064   4.663 -0.0761  0.7883  0.5190
 7056SOL    HW122218   1.356   7.153   4.657  0.0027  0.7868  0.0346
 7056SOL    HW222219   1.437   7.050   4.581  2.3693  1.3276  1.6946
 7057SOL     OW22220   6.010   3.826   7.075  0.4195  0.2056  0.1838
 7057SOL    HW122221   5.989   3.736   7.050 -0.4829  0.2483  0.7389
 7057SOL    HW222222   5.927   3.872   7.073  0.9837  1.2406 -0.8332
 7058SOL     OW22223   2.842   4.284   2.490  0.0427  0.1410 -0.3734
 7058SOL    HW122224   2.843   4.268   2.396 -0.3373  0.6497 -0.4684
 7058SOL    HW222225   2.878   4.372   2.501 -0.9942  0.5531 -0.1497
 7059SOL     OW22226   8.209   3.697   0.332 -0.0788  0.5173 -0.3881
 7059SOL    HW122227   8.268   3.749   0.386 -0.0459  0.8237 -0.7206
 7059SOL    HW222228   8.174   3.631   0.392 -1.4595  1.9792  0.4750
 7060SOL     OW22229   1.661   7.538   5.715  0.0692 -0.4241 -0.0856
 7060SOL    HW122230   1.751   7.513   5.696 -0.0224 -1.5888  0.8372
 7060SOL    HW222231   1.623   7.560   5.630  1.4057  0.7929 -0.3992
 7061SOL     OW22232   2.958   4.862   0.818  0.1474  0.3289 -0.4307
 7061SOL    HW122233   2.916   4.946   0.799 -1.3235  0.8172  3.8184
 7061SOL    HW222234   2.886   4.800   0.822  0.4762  0.0060  1.4189
 7062SOL     OW22235   1.797   7.929   3.200 -0.2233  0.4315  0.0599
 7062SOL    HW122236   1.812   7.845   3.156 -0.3317  1.0639 -1.2419
 7062SOL    HW222237   1.879   7.948   3.245 -0.3480 -0.5750  0.7346
 7063SOL     OW22238   0.518   6.858   3.918 -0.1292 -0.4305  0.2660
 7063SOL    HW122239   0.464   6.937   3.933 -0.1730  0.1352 -2.4625
 7063SOL    HW222240   0.454   6.788   3.906 -0.1043 -0.7200  1.6184
 7064SOL     OW22241   6.883   7.860   4.904  0.2766  0.3842  0.2321
 7064SOL    HW122242   6.879   7.875   4.998 -0.5096  0.3467  0.2087
 7064SOL    HW222243   6.911   7.768   4.896 -1.0656 -0.0621  0.4583
 7065SOL     OW22244   1.765   4.494   7.820  0.0709  0.0319 -0.6588
 7065SOL    HW122245   1.744   4.522   7.909 -0.4099 -1.6906 -0.1830
 7065SOL    HW222246   1.700   4.426   7.801  0.6764 -0.2005 -2.0240
 7066SOL     OW22247   5.445   0.604   6.796  0.3580 -0.1921 -0.1948
 7066SOL    HW122248   5.473   0.672   6.735 -0.6593 -0.0398 -0.5164
 7066SOL    HW222249   5.514   0.538   6.791  0.5251  0.0371 -1.1581
 7067SOL     OW22250   3.667   7.350   3.634  0.4816  0.4744  0.5377
 7067SOL    HW122251   3.637   7.259   3.625  0.4437  0.6433 -1.4302
 7067SOL    HW222252   3.629   7.395   3.558  1.5587  1.8549  0.7865
 7068SOL     OW22253   3.153   2.301   1.239  0.0787 -0.3222  0.4030
 7068SOL    HW122254   3.115   2.335   1.158 -0.3774 -1.6261  0.0417
 7068SOL    HW222255   3.077   2.270   1.289  0.5200 -1.4038  0.4139
 7069SOL     OW22256   4.978   3.874   7.038 -0.0140 -0.1240 -0.4337
 7069SOL    HW122257   5.051   3.921   6.999  0.8640 -2.3438 -1.6906
 7069SOL    HW222258   5.018   3.823   7.109  0.3975 -3.4145 -2.7576
 7070SOL     OW22259   2.705   1.405   7.557 -0.2286 -0.1943  0.5654
 7070SOL    HW122260   2.731   1.373   7.644 -4.5446 -0.0193  2.1738
 7070SOL    HW222261   2.618   1.441   7.570 -0.0607  2.2432 -3.4308
 7071SOL     OW22262   2.810   8.042   0.185  0.3831 -0.2788  0.1639
 7071SOL    HW122263   2.820   8.128   0.143 -1.5054 -0.8957 -1.7452
 7071SOL    HW222264   2.777   8.063   0.273  1.6861  0.9765  0.3911
 7072SOL     OW22265   3.427   0.664   0.761 -0.0946  0.0063 -0.4248
 7072SOL    HW122266   3.335   0.637   0.751 -0.3232 -0.0159  1.4318
 7072SOL    HW222267   3.473   0.583   0.783 -0.5803  0.6399  3.9170
 7073SOL     OW22268   5.355   6.586   0.537  0.0794  1.0572  0.6996
 7073SOL    HW122269   5.435   6.533   0.532 -0.7440 -0.1301 -1.5415
 7073SOL    HW222270   5.285   6.522   0.551 -0.8388  1.6246 -1.0654
 7074SOL     OW22271   7.951   7.981   7.738  0.1152  0.0944 -0.2041
 7074SOL    HW122272   7.936   8.030   7.819  0.6430 -0.2106  0.0877
 7074SOL    HW222273   7.911   8.035   7.670  0.4493  0.8021  0.1434
 7075SOL     OW22274   7.922   4.814   5.831  0.5373  0.5491 -0.3918
 7075SOL    HW122275   7.845   4.815   5.887  0.5423  0.0285 -0.3755
 7075SOL    HW222276   7.958   4.726   5.841  3.0085  1.6874  2.1664
 7076SOL     OW22277   2.690   5.897   6.215 -0.1561 -0.1488 -0.5165
 7076SOL    HW122278   2.776   5.929   6.242  0.1852 -0.5925 -1.0480
 7076SOL    HW222279   2.706   5.854   6.131 -0.8379 -0.5369 -0.4564
 7077SOL     OW22280   3.397   7.089   3.970 -0.0020 -0.1427 -0.2581
 7077SOL    HW122281   3.467   7.035   4.006 -1.0416  0.5694  3.2506
 7077SOL    HW222282   3.434   7.177   3.966 -0.0975 -0.1062 -0.3694
 7078SOL     OW22283   3.630   3.739   5.511  0.2970  0.1135 -0.4147
 7078SOL    HW122284   3.574   3.775   5.442 -1.3940 -1.0334  0.2985
 7078SOL    HW222285   3.603   3.786   5.590 -1.6821 -2.3064  0.4635
 7079SOL     OW22286   5.628   1.651   7.111  0.0851  0.1578 -0.6962
 7079SOL    HW122287   5.630   1.653   7.015  1.7115 -0.7614 -0.7280
 7079SOL    HW222288   5.639   1.742   7.137 -1.9061  0.6343 -1.3374
 7080SOL     OW22289   6.344   7.414   2.149 -0.1487  0.1184 -0.1286
 7080SOL    HW122290   6.299   7.346   2.098 -0.2977 -0.0035  0.1678
 7080SOL    HW222291   6.437   7.392   2.141 -0.1356  0.3863 -0.7639
 7081SOL     OW22292   7.733   4.749   1.622 -0.1384 -0.4319 -0.2575
 7081SOL    HW122293   7.684   4.669   1.604  0.1400 -0.3099 -1.6162
 7081SOL    HW222294   7.666   4.816   1.631 -0.3280 -0.6590  0.0404
 7082SOL     OW22295   7.651   3.813   0.118  0.0826 -0.1326 -0.0541
 7082SOL    HW122296   7.577   3.865   0.087 -0.1596  0.5062  1.5241
 7082SOL    HW222297   7.668   3.751   0.046 -0.8674  0.8296 -1.1478
 7083SOL     OW22298   1.233   5.752   3.731  0.0263 -0.3036 -0.2245
 7083SOL    HW122299   1.270   5.696   3.800  0.0086  0.1160  0.1314
 7083SOL    HW222300   1.302   5.815   3.711 -0.1189 -0.1634 -0.2907
 7084SOL     OW22301   3.033   7.443   0.739 -0.4424  0.4699  0.0608
 7084SOL    HW122302   2.986   7.479   0.814 -0.2261 -1.8435  1.3974
 7084SOL    HW222303   3.123   7.474   0.749 -0.3076 -0.2128  1.0486
 7085SOL     OW22304   7.658   7.392   4.287 -0.3418 -0.5469 -0.6567
 7085SOL    HW122305   7.714   7.349   4.352 -0.7111  0.0280  0.0515
 7085SOL    HW222306   7.672   7.341   4.207  0.7396 -0.7768 -0.3455
 7086SOL     OW22307   7.945   5.714   5.752 -0.3791  0.0163  0.1609
 7086SOL    HW122308   8.006   5.677   5.816  0.5920  1.8961  0.4015
 7086SOL    HW222309   7.952   5.809   5.765 -2.1616  0.3357 -0.9327
 7087SOL     OW22310   6.438   7.355   8.180 -0.1997  0.0652 -0.5771
 7087SOL    HW122311   6.472   7.269   8.153  1.8813  0.8464 -0.6070
 7087SOL    HW222312   6.356   7.335   8.226  0.9330 -2.0817  0.6623
 7088SOL     OW22313   7.617   4.119   0.653 -0.1066 -0.7924 -0.2295
 7088SOL    HW122314   7.704   4.082   0.669 -0.0194 -0.0911  1.0427
 7088SOL    HW222315   7.564   4.045   0.624  0.7645 -1.3489 -0.4229
 7089SOL     OW22316   6.815   1.240   4.020  0.3061  0.5655 -0.1324
 7089SOL    HW122317   6.864   1.312   4.059  1.9149 -0.6134  0.1527
 7089SOL    HW222318   6.780   1.275   3.938 -0.8086  2.2791  1.0272
 7090SOL     OW22319   5.716   0.470   1.764  0.0330  0.7104  0.4255
 7090SOL    HW122320   5.634   0.520   1.763  0.2218  1.0321  0.7310
 7090SOL    HW222321   5.711   0.414   1.687 -0.5318  0.6327  0.5187
 7091SOL     OW22322   1.895   1.422   6.592  0.3694  0.1230  0.4275
 7091SOL    HW122323   1.811   1.384   6.567  0.8084 -0.5950  0.0137
 7091SOL    HW222324   1.880   1.460   6.679 -0.4121  0.1135  0.2969
 7092SOL     OW22325   5.329   2.012   3.094  0.1410  0.3217 -0.7427
 7092SOL    HW122326   5.285   2.097   3.094 -2.2746 -0.6887  3.4092
 7092SOL    HW222327   5.407   2.025   3.148  1.3305  0.4400 -2.3998
 7093SOL     OW22328   2.248   7.732   5.612 -0.1664  0.1257 -0.6451
 7093SOL    HW122329   2.160   7.750   5.645 -0.3800  0.4776 -1.3779
 7093SOL    HW222330   2.292   7.817   5.612  0.0804 -0.0000 -0.5460
 7094SOL     OW22331   6.854   4.478   7.517 -0.3019 -0.1451 -0.2875
 7094SOL    HW122332   6.874   4.544   7.583 -0.2610  0.6646 -1.0909
 7094SOL    HW222333   6.935   4.468   7.467 -1.5788  2.9678 -3.4048
 7095SOL     OW22334   2.677   1.419   0.926  0.2506 -0.2338  0.1385
 7095SOL    HW122335   2.647   1.385   0.841  0.6289 -0.4257  0.0804
 7095SOL    HW222336   2.649   1.354   0.990  0.8690 -0.6031  0.0410
 7096SOL     OW22337   3.628   5.638   4.600 -0.0594 -0.4771  0.0003
 7096SOL    HW122338   3.713   5.651   4.641 -0.5607  1.0228  0.6307
 7096SOL    HW222339   3.647   5.592   4.518  1.6425  2.1071 -1.1640
 7097SOL     OW22340   4.834   4.882   7.870 -0.3268  0.2539 -0.3200
 7097SOL    HW122341   4.814   4.846   7.784 -2.6041  1.2474 -0.2646
 7097SOL    HW222342   4.766   4.847   7.928 -0.1880  1.4039  0.5792
 7098SOL     OW22343   0.816   2.518   5.284 -0.5055  0.4113 -0.6437
 7098SOL    HW122344   0.749   2.449   5.286 -1.3803  1.2300 -1.3976
 7098SOL    HW222345   0.857   2.513   5.371 -2.0567  0.3949  0.1178
 7099SOL     OW22346   0.421   5.700   3.826 -0.6778 -0.2546 -0.4611
 7099SOL    HW122347   0.436   5.661   3.741  1.5010  0.7335 -0.5919
 7099SOL    HW222348   0.509   5.715   3.862 -1.5118  0.5535  1.3825
 7100SOL     OW22349   6.778   7.427   0.119  0.2312 -0.8395 -0.4429
 7100SOL    HW122350   6.724   7.379   0.182  0.1451  0.3941  0.4613
 7100SOL    HW222351   6.865   7.429   0.160  0.0361  0.4804 -0.0478
 7101SOL     OW22352   6.365   2.269   1.368 -0.9885  0.2106  0.1091
 7101SOL    HW122353   6.274   2.262   1.336 -0.8632 -0.0125 -0.2087
 7101SOL    HW222354   6.385   2.182   1.402 -0.9010  0.2660  0.1980
 7102SOL     OW22355   6.702   2.672   8.041 -0.1385 -0.9331  0.4749
 7102SOL    HW122356   6.638   2.609   8.073 -0.8385  0.2408  1.4904
 7102SOL    HW222357   6.652   2.752   8.024  0.6994 -0.6512 -0.8895
 7103SOL     OW22358   0.815   3.829   3.672 -0.5713 -0.3421 -0.0728
 7103SOL    HW122359   0.820   3.854   3.764  0.6167  0.9775 -0.4518
 7103SOL    HW222360   0.721   3.828   3.652 -0.8284 -0.4501  1.0887
 7104SOL     OW22361   4.412   2.921   6.277 -0.1150  0.1316  0.2348
 7104SOL    HW122362   4.419   2.835   6.235 -1.8357 -0.2831  0.7126
 7104SOL    HW222363   4.434   2.983   6.207 -0.6526 -0.6363 -0.6577
 7105SOL     OW22364   0.342   0.482   6.593 -0.3179  0.1331  0.7003
 7105SOL    HW122365   0.424   0.433   6.602  0.1796  1.1568  2.1389
 7105SOL    HW222366   0.278   0.430   6.642 -0.2072  0.0326  0.7401
 7106SOL     OW22367   4.896   8.101   3.001  0.2505 -0.4133  0.1648
 7106SOL    HW122368   4.870   8.029   3.058 -1.5217 -1.0579 -1.3662
 7106SOL    HW222369   4.978   8.072   2.961  0.3758 -0.8696  0.7422
 7107SOL     OW22370   7.325   0.001   0.153 -0.3696 -0.7281 -0.8017
 7107SOL    HW122371   7.412   0.024   0.122 -0.1432  1.3494  1.0752
 7107SOL    HW222372   7.339  -0.060   0.225 -0.3171  0.7201  0.4551
 7108SOL     OW22373   0.471   0.629   4.782  0.6396  0.2191  0.3009
 7108SOL    HW122374   0.435   0.656   4.866  0.0491 -0.5494  0.2990
 7108SOL    HW222375   0.565   0.644   4.790  0.4090  1.7700  0.4873
 7109SOL     OW22376   1.826   4.861   2.776  0.1389 -0.4199  0.1955
 7109SOL    HW122377   1.874   4.808   2.713  2.1148  1.1828  0.2152
 7109SOL    HW222378   1.866   4.840   2.860  1.0116  1.0728  0.1910
 7110SOL     OW22379   0.732   0.940   4.717 -0.1762  0.3074  0.9413
 7110SOL    HW122380   0.640   0.944   4.689 -0.3599  0.6652  1.5750
 7110SOL    HW222381   0.744   1.017   4.772  0.0455 -0.5940  2.1931
 7111SOL     OW22382   6.340   1.626   1.490 -0.4904 -0.5697  0.5241
 7111SOL    HW122383   6.432   1.632   1.465 -0.4577  0.5056  0.8701
 7111SOL    HW222384   6.303   1.560   1.431  0.0375  0.4542 -1.0212
 7112SOL     OW22385   0.037   6.058   0.532 -0.3537 -0.3550 -0.4815
 7112SOL    HW122386   0.113   6.114   0.547 -1.5022  1.1243  0.0779
 7112SOL    HW222387   0.042   6.036   0.439  0.0680  0.8153 -0.7632
 7113SOL     OW22388   3.476   5.515   4.796 -0.2505 -0.1730  0.1407
 7113SOL    HW122389   3.545   5.515   4.862 -1.7134  1.2763  1.7584
 7113SOL    HW222390   3.518   5.553   4.718  0.8927  0.1967  0.9085
 7114SOL     OW22391   6.448   3.347   2.112  0.3519  0.0691 -0.9997
 7114SOL    HW122392   6.455   3.442   2.105 -2.7964  0.3732 -1.2003
 7114SOL    HW222393   6.472   3.314   2.026  1.5059  0.6312 -0.9155
 7115SOL     OW22394   4.419   4.224   3.290 -0.3429  0.0118 -0.1102
 7115SOL    HW122395   4.394   4.133   3.271 -0.2298 -0.3319  1.3148
 7115SOL    HW222396   4.483   4.245   3.222  1.5668 -1.8614  0.9611
 7116SOL     OW22397   4.613   2.033   1.815 -0.1340  0.1718 -0.1200
 7116SOL    HW122398   4.668   2.085   1.756 -0.0902 -0.2252 -0.4275
 7116SOL    HW222399   4.675   1.988   1.872 -0.0450 -1.4091 -1.3896
 7117SOL     OW22400   7.105   4.191   2.817  0.5177 -0.1467  0.2152
 7117SOL    HW122401   7.083   4.250   2.745 -0.2712  0.0953  0.6389
 7117SOL    HW222402   7.056   4.111   2.798  0.5388 -0.1871  0.3319
 7118SOL     OW22403   3.319   2.326   1.468  0.5205  0.2239  0.3938
 7118SOL    HW122404   3.253   2.296   1.529  0.0152 -1.6814 -0.9790
 7118SOL    HW222405   3.279   2.315   1.382  2.1373  0.2712 -0.4119
 7119SOL     OW22406   6.457   0.403   6.932 -0.3912 -0.4545 -0.4838
 7119SOL    HW122407   6.425   0.340   6.996  0.0184 -0.8170 -0.6320
 7119SOL    HW222408   6.407   0.383   6.852 -2.4796  1.3853  0.2597
 7120SOL     OW22409   4.063   2.742   4.439 -0.1395 -0.7263  0.1068
 7120SOL    HW122410   4.124   2.720   4.510  0.7423  0.0905 -0.3764
 7120SOL    HW222411   4.111   2.719   4.359 -0.2318  0.4744 -0.3021
 7121SOL     OW22412   0.885   6.307   7.199 -0.2493  0.3145  0.1845
 7121SOL    HW122413   0.855   6.385   7.152  2.3231  0.4172 -1.4890
 7121SOL    HW222414   0.956   6.338   7.255  1.1028 -0.8130 -0.8224
 7122SOL     OW22415   4.358   4.242   3.743  0.1228  0.2215 -0.0001
 7122SOL    HW122416   4.284   4.180   3.744 -0.0521  0.4357  0.3766
 7122SOL    HW222417   4.350   4.290   3.825  2.0584 -1.3691  1.2323
 7123SOL     OW22418   7.643   1.012   5.892  0.6708 -0.0376 -0.3378
 7123SOL    HW122419   7.619   0.924   5.921  3.5828 -0.2779  1.8274
 7123SOL    HW222420   7.581   1.070   5.938  1.2925 -0.8020  1.5660
 7124SOL     OW22421   0.814   2.434   4.436  0.3660 -0.4841  0.8291
 7124SOL    HW122422   0.850   2.505   4.489 -0.5859  0.2018  0.5781
 7124SOL    HW222423   0.879   2.364   4.442  1.0562  0.2037  1.5292
 7125SOL     OW22424   5.051   4.518   1.368 -0.3866  0.6422 -0.3612
 7125SOL    HW122425   4.973   4.527   1.424 -0.9238  0.4126 -1.0643
 7125SOL    HW222426   5.071   4.425   1.371 -1.8491  0.1887 -2.4139
 7126SOL     OW22427   0.675   4.696   5.646 -0.5150  0.8510  0.0831
 7126SOL    HW122428   0.726   4.713   5.567 -1.8214 -1.1156 -1.2673
 7126SOL    HW222429   0.590   4.665   5.615 -1.8959  2.1613  2.2765
 7127SOL     OW22430   6.106   2.622   0.609  0.1870 -0.4378 -0.4106
 7127SOL    HW122431   6.037   2.657   0.552 -0.1770 -0.3572  0.0736
 7127SOL    HW222432   6.179   2.682   0.597 -0.5285  0.7091  0.6415
 7128SOL     OW22433   2.136   4.675   6.703  0.4212  0.4870 -0.0449
 7128SOL    HW122434   2.043   4.656   6.714  0.7268 -1.4137 -0.3220
 7128SOL    HW222435   2.181   4.608   6.755  1.6551 -0.0952 -1.7677
 7129SOL     OW22436   5.138   7.028   1.252 -0.2239  0.0635  0.2729
 7129SOL    HW122437   5.216   6.976   1.269 -0.6176 -0.2248  1.2713
 7129SOL    HW222438   5.124   7.020   1.157  0.3668 -0.7081  0.2379
 7130SOL     OW22439   7.681   3.432   3.444 -0.3932  0.0507 -0.2108
 7130SOL    HW122440   7.751   3.378   3.409  1.6031  1.3028  1.5681
 7130SOL    HW222441   7.725   3.509   3.480 -2.8879  1.8903 -0.7547
 7131SOL     OW22442   6.908   0.813   2.317  0.2673  0.4403 -0.3359
 7131SOL    HW122443   6.969   0.762   2.265 -1.3841 -0.3293 -1.6322
 7131SOL    HW222444   6.946   0.901   2.319  1.0386  0.1745 -1.7533
 7132SOL     OW22445   7.958   0.453   4.705  0.2417  0.2265  0.3993
 7132SOL    HW122446   7.921   0.372   4.669  0.6570  0.5589 -0.8247
 7132SOL    HW222447   8.052   0.437   4.709  0.3896  0.8301 -0.3803
 7133SOL     OW22448   1.724   4.543   2.938  0.4024 -0.3823  0.0827
 7133SOL    HW122449   1.636   4.514   2.958  0.6644 -0.2838  1.4209
 7133SOL    HW222450   1.724   4.637   2.957  0.8100 -0.3849  0.1068
 7134SOL     OW22451   0.414   4.273   4.036 -0.2326 -0.1933  1.0551
 7134SOL    HW122452   0.320   4.279   4.049 -0.4695 -0.9812 -0.1999
 7134SOL    HW222453   0.441   4.197   4.088 -0.9415 -2.3903 -1.5635
 7135SOL     OW22454   7.938   6.858   3.144  0.1044 -0.7257 -0.2418
 7135SOL    HW122455   8.024   6.897   3.129  0.2851 -1.3731 -0.9444
 7135SOL    HW222456   7.887   6.883   3.068 -0.2584 -0.5662  0.0490
 7136SOL     OW22457   5.435   4.681   1.818 -0.3396 -0.2468 -0.2992
 7136SOL    HW122458   5.449   4.766   1.777 -1.1991  0.0151 -0.0759
 7136SOL    HW222459   5.520   4.637   1.812 -0.8371 -0.9566 -4.0050
 7137SOL     OW22460   1.597   5.060   0.475  0.3430 -0.7070  0.2482
 7137SOL    HW122461   1.687   5.072   0.506  1.2235 -1.8510 -1.6867
 7137SOL    HW222462   1.604   5.059   0.380 -1.8487 -0.0966  0.0291
 7138SOL     OW22463   1.251   7.070   1.867  0.3636  0.3305 -0.4590
 7138SOL    HW122464   1.219   7.135   1.930 -2.1107 -0.5356 -0.6855
 7138SOL    HW222465   1.317   7.020   1.914  0.3196  1.2629  0.6305
 7139SOL     OW22466   4.060   8.205   2.442 -0.1065 -0.1499  0.4901
 7139SOL    HW122467   3.982   8.260   2.440  0.0748  0.0811 -0.6258
 7139SOL    HW222468   4.051   8.148   2.366  1.0336  0.1797  0.0905
 7140SOL     OW22469   7.318   4.482   1.443  0.7106 -0.3156 -0.1580
 7140SOL    HW122470   7.246   4.545   1.440  0.4331 -0.6320 -0.3512
 7140SOL    HW222471   7.387   4.526   1.492  0.5596  0.1730 -0.3761
 7141SOL     OW22472   5.184   3.676   2.958  0.2182 -0.1280 -0.2783
 7141SOL    HW122473   5.193   3.736   3.032 -0.4167  0.4338 -0.6398
 7141SOL    HW222474   5.273   3.663   2.927  0.3337  1.1107 -0.5479
 7142SOL     OW22475   5.012   1.877   0.137 -0.2638 -0.9849  0.8284
 7142SOL    HW122476   4.931   1.828   0.143  0.9270 -3.0878  0.6126
 7142SOL    HW222477   5.027   1.888   0.043  0.5538 -2.1350  0.8122
 7143SOL     OW22478   6.689   3.771   4.455 -0.0822 -0.0642  0.6283
 7143SOL    HW122479   6.751   3.723   4.509  1.3055  1.4844  0.5070
 7143SOL    HW222480   6.711   3.747   4.365  1.8913  2.1077  0.4474
 7144SOL     OW22481   4.655   7.030   8.114  0.2102  0.4688 -0.2152
 7144SOL    HW122482   4.686   6.944   8.087  1.1604  0.0834  1.9621
 7144SOL    HW222483   4.612   7.065   8.035  0.2273 -1.7550 -1.2911
 7145SOL     OW22484   1.335   6.097   4.780 -0.1486  0.2086 -0.1397
 7145SOL    HW122485   1.396   6.054   4.719  0.6639 -1.4346  1.7152
 7145SOL    HW222486   1.350   6.053   4.864 -2.9791  0.6646  0.7119
 7146SOL     OW22487   0.497   4.902   4.900 -0.2071  0.1940  0.3550
 7146SOL    HW122488   0.427   4.942   4.848  0.9892  1.3561 -0.4224
 7146SOL    HW222489   0.538   4.839   4.841  0.8078  1.1228  0.0513
 7147SOL     OW22490   3.055   7.548   5.899 -0.0414  0.2846 -0.5709
 7147SOL    HW122491   3.138   7.573   5.940  0.5952 -0.7952 -1.1671
 7147SOL    HW222492   2.988   7.590   5.953  0.8702  0.8418  0.1579
 7148SOL     OW22493   3.048   0.757   6.019 -0.5659  0.1757 -0.4118
 7148SOL    HW122494   3.030   0.668   6.049 -2.1319  0.2311 -1.0938
 7148SOL    HW222495   2.961   0.795   6.003  0.1123  1.2602 -1.7296
 7149SOL     OW22496   3.704   4.796   0.836  0.0064  0.9495 -0.3418
 7149SOL    HW122497   3.772   4.741   0.876  1.4428  1.2122 -2.2673
 7149SOL    HW222498   3.634   4.735   0.814  1.5137 -0.2147 -2.3212
 7150SOL     OW22499   6.380   0.544   0.959 -0.2540  0.2148 -0.5454
 7150SOL    HW122500   6.287   0.530   0.974 -0.2705  0.3508 -0.5183
 7150SOL    HW222501   6.413   0.460   0.928 -0.1184 -0.2357  0.7630
 7151SOL     OW22502   3.969   3.562   0.750  0.2830 -0.2927  0.2949
 7151SOL    HW122503   4.005   3.650   0.739 -0.1451 -0.3081 -1.7799
 7151SOL    HW222504   4.015   3.509   0.685 -0.9069 -1.1203  0.0992
 7152SOL     OW22505   6.740   5.308   6.997 -0.1578  0.1986 -0.0667
 7152SOL    HW122506   6.731   5.213   7.011  1.7819  0.1859  1.4186
 7152SOL    HW222507   6.831   5.319   6.970 -0.6913  1.5525 -1.4351
 7153SOL     OW22508   8.165   1.384   3.063 -0.1864  0.1685  0.0633
 7153SOL    HW122509   8.169   1.376   3.159  1.6666  2.3937  0.2638
 7153SOL    HW222510   8.251   1.356   3.033 -0.6032 -0.0865 -0.9176
 7154SOL     OW22511   7.167   6.486   4.096 -0.3750 -0.1575 -0.0199
 7154SOL    HW122512   7.177   6.428   4.021  2.0160  2.2493 -1.7424
 7154SOL    HW222513   7.231   6.455   4.160 -0.1385 -0.3088 -0.3273
 7155SOL     OW22514   6.215   5.543   5.696 -0.9945  0.4218 -0.0421
 7155SOL    HW122515   6.130   5.588   5.699 -1.1348  0.1555 -0.0028
 7155SOL    HW222516   6.202   5.464   5.748 -0.6060  0.5719  0.2881
 7156SOL     OW22517   0.816   3.868   4.687 -0.0795  0.1046  0.8870
 7156SOL    HW122518   0.803   3.962   4.671  2.1392  0.1515 -1.2666
 7156SOL    HW222519   0.814   3.829   4.600  3.0890 -1.1898  1.2568
 7157SOL     OW22520   0.141   4.908   7.408 -0.0393  0.0192 -0.1902
 7157SOL    HW122521   0.153   4.995   7.446  1.9721 -0.0865 -0.4322
 7157SOL    HW222522   0.173   4.848   7.476 -1.4130 -0.5557 -0.0233
 7158SOL     OW22523   5.165   2.767   5.701 -0.2393  0.5976 -0.0707
 7158SOL    HW122524   5.162   2.675   5.729 -0.3589  0.3042 -1.0273
 7158SOL    HW222525   5.193   2.814   5.779 -2.2712  0.0244  1.0972
 7159SOL     OW22526   3.316   5.701   1.988  0.4431 -0.1861 -0.2387
 7159SOL    HW122527   3.372   5.750   2.047  0.0141 -1.0075  0.8915
 7159SOL    HW222528   3.357   5.709   1.902  1.3889  0.5643  0.2759
 7160SOL     OW22529   5.192   3.686   4.765 -0.2176 -0.1068  0.3399
 7160SOL    HW122530   5.116   3.628   4.768 -1.1371  1.0575  0.8511
 7160SOL    HW222531   5.215   3.700   4.857 -0.1979  0.5453  0.2457
 7161SOL     OW22532   3.916   3.627   4.049 -0.2790 -0.1604  0.4771
 7161SOL    HW122533   3.965   3.694   4.001 -1.2046  0.5818  0.5387
 7161SOL    HW222534   3.879   3.673   4.124 -0.3634 -0.8990  0.8997
 7162SOL     OW22535   5.706   2.750   5.161 -0.0631  0.3310 -0.5656
 7162SOL    HW122536   5.662   2.770   5.079  0.8043  0.6771 -0.9624
 7162SOL    HW222537   5.650   2.787   5.229 -0.9530 -0.2377 -0.9705
 7163SOL     OW22538   7.972   0.401   2.237 -0.1138 -0.1293 -0.9168
 7163SOL    HW122539   7.973   0.308   2.216 -2.0385 -0.1809 -0.9861
 7163SOL    HW222540   7.900   0.411   2.300  0.6121  1.1871 -0.2377
 7164SOL     OW22541   1.725   3.581   8.016 -0.3101 -0.2544 -0.0239
 7164SOL    HW122542   1.817   3.604   8.024  0.2067 -2.3491  0.6283
 7164SOL    HW222543   1.691   3.584   8.105 -1.4335  2.3650 -0.4432
 7165SOL     OW22544   2.122   7.610   7.755 -0.1915 -0.6646  0.0552
 7165SOL    HW122545   2.140   7.646   7.668 -0.1748 -0.1687  0.2610
 7165SOL    HW222546   2.126   7.515   7.743  0.4477 -0.5948 -0.3539
 7166SOL     OW22547   1.560   6.885   6.914 -0.4459 -0.4912  0.2778
 7166SOL    HW122548   1.603   6.801   6.927 -0.4511 -0.4859  0.3271
 7166SOL    HW222549   1.471   6.862   6.887 -1.3671 -0.5382  3.0120
 7167SOL     OW22550   2.915   1.577   7.585 -0.3576  0.2134 -0.0473
 7167SOL    HW122551   2.940   1.551   7.674 -0.4925 -2.0606 -0.6088
 7167SOL    HW222552   2.852   1.510   7.557  0.6177  0.1489 -2.2941
 7168SOL     OW22553   6.701   3.715   1.741 -0.2384 -0.1043  0.4078
 7168SOL    HW122554   6.655   3.751   1.817 -1.7899 -1.6887  0.2754
 7168SOL    HW222555   6.729   3.628   1.769 -0.5611 -0.5900 -0.7321
 7169SOL     OW22556   1.562   1.513   5.622  0.7788 -0.0964 -0.2207
 7169SOL    HW122557   1.547   1.597   5.666 -0.3704 -0.1840 -0.4045
 7169SOL    HW222558   1.536   1.447   5.687 -3.2072 -0.2141 -1.6259
 7170SOL     OW22559   5.025   7.836   5.714  0.4980 -0.3738  0.8600
 7170SOL    HW122560   5.015   7.874   5.801 -0.1847 -0.2111  0.7181
 7170SOL    HW222561   5.113   7.798   5.714  0.9611  0.6691  1.2100
 7171SOL     OW22562   4.322   3.605   0.453  0.1919 -0.6628  0.0448
 7171SOL    HW122563   4.246   3.641   0.409  0.5159 -0.6979 -0.5568
 7171SOL    HW222564   4.394   3.663   0.428  0.1828  0.0479  1.5159
 7172SOL     OW22565   3.721   4.653   0.462  0.7746 -0.3833 -0.2884
 7172SOL    HW122566   3.791   4.612   0.513  1.3831  1.2858  0.3085
 7172SOL    HW222567   3.735   4.747   0.475 -0.8490  0.0105 -1.1737
 7173SOL     OW22568   2.182   2.480   3.614 -0.5206 -0.2795  0.1591
 7173SOL    HW122569   2.110   2.539   3.638 -1.3638 -2.1840  2.7360
 7173SOL    HW222570   2.257   2.512   3.665  0.0035  0.5935 -1.1157
 7174SOL     OW22571   5.414   2.552   5.119  0.1996  0.4095 -0.4172
 7174SOL    HW122572   5.389   2.642   5.098 -0.1619  0.7759  1.4050
 7174SOL    HW222573   5.336   2.513   5.158  0.8587 -0.1207  0.4271
 7175SOL     OW22574   0.796   2.494   6.262 -0.2309 -0.1489  0.6747
 7175SOL    HW122575   0.777   2.422   6.202  0.0643 -0.6904  1.2126
 7175SOL    HW222576   0.747   2.568   6.228  0.1039 -0.3878 -0.3461
 7176SOL     OW22577   6.561   8.163   3.018 -0.0993 -0.2488 -0.3448
 7176SOL    HW122578   6.647   8.204   3.027  0.5759 -1.7070  0.2449
 7176SOL    HW222579   6.534   8.143   3.108 -1.2973  0.6409 -0.4901
 7177SOL     OW22580   7.533   1.338   2.064  0.3334  0.6726  0.4075
 7177SOL    HW122581   7.574   1.378   1.988  0.3134  1.1979  0.6664
 7177SOL    HW222582   7.547   1.401   2.135  0.5397  0.0953  0.8884
 7178SOL     OW22583   5.865   5.264   8.206 -0.0832 -0.2400  0.0623
 7178SOL    HW122584   5.912   5.189   8.171  3.1570  1.9557 -0.7083
 7178SOL    HW222585   5.882   5.261   8.300  1.2581  0.2405 -0.1427
 7179SOL     OW22586   2.748   5.935   1.653 -0.1617  0.2541 -0.1344
 7179SOL    HW122587   2.814   5.869   1.675 -0.2126 -0.2987 -1.5403
 7179SOL    HW222588   2.705   5.900   1.574 -2.2742  0.4944  0.8428
 7180SOL     OW22589   4.078   7.189   0.440  0.1205 -0.0942  0.6659
 7180SOL    HW122590   4.090   7.188   0.345 -0.9016 -1.0146  0.5157
 7180SOL    HW222591   4.040   7.103   0.459  0.7844 -0.1081  1.9741
 7181SOL     OW22592   2.906   6.779   0.355 -0.1508  0.0107 -0.3362
 7181SOL    HW122593   2.814   6.791   0.377 -0.2329 -0.0032 -0.6593
 7181SOL    HW222594   2.954   6.798   0.436 -0.5680 -2.4441  0.5749
 7182SOL     OW22595   5.296   3.812   7.074 -0.1953  0.2210  0.6518
 7182SOL    HW122596   5.364   3.877   7.092  0.9258 -0.2219 -1.5204
 7182SOL    HW222597   5.227   3.830   7.137  0.4854  2.9009  0.7596
 7183SOL     OW22598   7.993   1.501   5.882  0.1902 -0.1455  0.4295
 7183SOL    HW122599   7.937   1.450   5.823  1.2592 -0.8050 -0.0239
 7183SOL    HW222600   8.041   1.560   5.824 -0.1834  0.5851  0.8438
 7184SOL     OW22601   7.960   5.137   3.087  0.2369  0.0104 -0.0210
 7184SOL    HW122602   8.005   5.213   3.051 -0.4834  0.3299 -0.2861
 7184SOL    HW222603   7.869   5.167   3.099 -0.3653 -1.1588 -1.3107
 7185SOL     OW22604   2.244   0.530   4.088  0.4680 -0.1714 -0.7956
 7185SOL    HW122605   2.217   0.621   4.076  0.5767  0.1027  0.8508
 7185SOL    HW222606   2.175   0.490   4.140  1.7801 -0.2192  1.0117
 7186SOL     OW22607   2.340   5.175   5.766  0.1091  0.1419 -0.0630
 7186SOL    HW122608   2.340   5.155   5.860  1.9436 -1.4972 -0.3524
 7186SOL    HW222609   2.247   5.177   5.742 -0.3608 -1.1108  1.4548
 7187SOL     OW22610   2.195   0.084   0.407 -0.2790  0.8841  0.4510
 7187SOL    HW122611   2.189  -0.003   0.367 -0.9890  0.7719  0.7823
 7187SOL    HW222612   2.280   0.117   0.380  0.4677 -0.3594  1.2184
 7188SOL     OW22613   5.978   3.541   3.549  0.1507 -0.5907  0.6401
 7188SOL    HW122614   5.945   3.587   3.627  0.5292  1.7892 -0.4960
 7188SOL    HW222615   6.070   3.525   3.569 -0.1015 -1.3421  1.2482
 7189SOL     OW22616   3.131   1.569   1.820  0.2004 -0.3801  0.3070
 7189SOL    HW122617   3.096   1.502   1.762  0.5252 -0.6752  0.4445
 7189SOL    HW222618   3.159   1.521   1.898 -0.6583  0.0734  0.9033
 7190SOL     OW22619   0.815   7.226   5.043 -0.3972 -0.4859 -0.0119
 7190SOL    HW122620   0.890   7.248   4.988  0.3588 -2.2215  0.2735
 7190SOL    HW222621   0.852   7.215   5.131 -0.9915 -1.2174  0.1598
 7191SOL     OW22622   5.983   1.506   1.280 -0.0437  0.3232 -0.3246
 7191SOL    HW122623   6.007   1.476   1.193  0.9035  0.3277 -0.0718
 7191SOL    HW222624   6.061   1.491   1.334 -0.8437 -0.3468  0.6970
 7192SOL     OW22625   0.292   0.168   0.004  0.0825  0.2654 -0.3268
 7192SOL    HW122626   0.377   0.194  -0.033 -0.3909 -1.9261 -3.3286
 7192SOL    HW222627   0.227   0.207  -0.054 -0.8722 -0.1790  0.4124
 7193SOL     OW22628   0.381   5.873   7.186 -0.3430  0.2814  0.8866
 7193SOL    HW122629   0.377   5.797   7.244  0.1886 -0.1252  0.4088
 7193SOL    HW222630   0.401   5.836   7.100 -3.2048  0.6499 -0.0395
 7194SOL     OW22631   1.136   1.117   5.923  0.1712 -0.3914  0.2252
 7194SOL    HW122632   1.220   1.163   5.925  0.2714 -0.5145 -0.7646
 7194SOL    HW222633   1.099   1.138   5.837 -0.1946 -1.4300  0.1132
 7195SOL     OW22634   4.347   2.587   2.916 -0.5937  0.5096 -0.4526
 7195SOL    HW122635   4.282   2.520   2.937 -2.1611  1.7392 -1.2236
 7195SOL    HW222636   4.296   2.665   2.896  1.1797  1.8540  0.0327
 7196SOL     OW22637   7.977   2.705   1.731 -0.0160 -0.5377 -0.1422
 7196SOL    HW122638   7.946   2.614   1.725 -0.1239 -0.5891  0.9744
 7196SOL    HW222639   7.899   2.755   1.754  0.3290 -0.3880  0.7479
 7197SOL     OW22640   0.579   1.386   0.446  0.1916  0.4440  0.3535
 7197SOL    HW122641   0.565   1.394   0.351 -0.3522  0.7647  0.4590
 7197SOL    HW222642   0.529   1.308   0.471  0.1361  0.5002  0.4169
 7198SOL     OW22643   1.748   2.209   7.322 -0.3751  0.1518 -0.6323
 7198SOL    HW122644   1.816   2.272   7.297  0.4994  0.4047  2.1188
 7198SOL    HW222645   1.771   2.129   7.276  0.5012  0.8525 -1.4546
 7199SOL     OW22646   7.344   5.449   1.245  0.4580 -0.5606 -0.3392
 7199SOL    HW122647   7.423   5.480   1.289  0.5681 -0.6260 -0.4922
 7199SOL    HW222648   7.354   5.354   1.241  0.3048 -0.5828 -0.2299
 7200SOL     OW22649   0.760   2.027   5.002  0.2215  0.3708 -0.1292
 7200SOL    HW122650   0.708   1.981   4.936  2.9241 -1.7883 -0.9752
 7200SOL    HW222651   0.704   2.029   5.080 -1.9814  0.4058 -1.6144
 7201SOL     OW22652   4.206   1.737   0.496 -0.0609  0.2703  0.0618
 7201SOL    HW122653   4.112   1.733   0.516 -1.0397  2.1443 -3.4399
 7201SOL    HW222654   4.219   1.666   0.433  0.6595  0.6754 -0.2452
 7202SOL     OW22655   7.923   1.676   5.215 -0.3686 -0.6270  0.2695
 7202SOL    HW122656   7.845   1.695   5.164 -0.4854 -0.6610  0.4336
 7202SOL    HW222657   7.915   1.583   5.237 -1.0036 -0.3041  1.4947
 7203SOL     OW22658   4.097   4.118   3.746 -0.2183 -0.3955  0.3083
 7203SOL    HW122659   4.028   4.182   3.732  0.2892 -0.2639 -1.9382
 7203SOL    HW222660   4.069   4.041   3.698  0.5270 -0.8631  0.5975
 7204SOL     OW22661   2.384   5.975   8.047  0.1952  0.2776  0.3967
 7204SOL    HW122662   2.397   5.887   8.083  0.1807  0.6948  1.4321
 7204SOL    HW222663   2.392   5.962   7.952  1.1136 -0.6885  0.5777
 7205SOL     OW22664   2.000   8.072   1.894 -0.1079  0.2180  0.2255
 7205SOL    HW122665   1.943   8.102   1.824 -0.5556  0.0973  0.5307
 7205SOL    HW222666   2.044   8.151   1.926  2.1354 -0.0524 -1.9345
 7206SOL     OW22667   8.237   1.298   2.482 -0.1403  0.0055 -0.1730
 7206SOL    HW122668   8.171   1.329   2.545  0.3783  2.3046 -0.6685
 7206SOL    HW222669   8.305   1.258   2.537  0.3653  2.0825  0.8578
 7207SOL     OW22670   4.804   2.477   0.990  0.1904 -0.0409  0.0474
 7207SOL    HW122671   4.891   2.513   1.009  0.0288  0.5172 -0.2324
 7207SOL    HW222672   4.771   2.449   1.075  0.5279  0.0113  0.1979
 7208SOL     OW22673   1.509   6.692   6.388  0.5841  0.4879  0.2559
 7208SOL    HW122674   1.533   6.740   6.309  0.7132  0.2265  0.1336
 7208SOL    HW222675   1.585   6.637   6.407  0.3878  0.2300  0.3115
 7209SOL     OW22676   0.793   3.779   2.034  0.5257 -0.2639  0.7765
 7209SOL    HW122677   0.715   3.813   1.991  0.1882  0.3181  1.8178
 7209SOL    HW222678   0.805   3.692   1.997 -1.9190 -1.2789  2.1483
 7210SOL     OW22679   1.938   6.253   0.212  0.6295 -0.3808 -0.4132
 7210SOL    HW122680   1.967   6.303   0.288 -0.8934  0.5625 -0.4005
 7210SOL    HW222681   1.978   6.296   0.137 -0.1565  0.4938 -0.3471
 7211SOL     OW22682   2.283   2.872   2.070  0.6557 -0.0701 -0.0792
 7211SOL    HW122683   2.240   2.835   2.147 -0.2149  4.3131  1.8769
 7211SOL    HW222684   2.212   2.901   2.014  1.1267  1.1357 -0.0980
 7212SOL     OW22685   1.687   2.964   7.849  0.0885  0.1304  0.3262
 7212SOL    HW122686   1.731   2.914   7.780  0.6730 -0.0552  0.8238
 7212SOL    HW222687   1.758   3.006   7.898 -0.3773  1.1777  0.1330
 7213SOL     OW22688   7.480   2.134   5.830 -0.3156 -0.0132  0.4351
 7213SOL    HW122689   7.404   2.170   5.784 -0.4163 -0.1085  0.5262
 7213SOL    HW222690   7.455   2.044   5.850 -0.1352 -0.0790  0.3660
 7214SOL     OW22691   0.487   2.854   0.403 -0.0009 -0.2563  0.2378
 7214SOL    HW122692   0.498   2.877   0.496  1.8572  1.1635 -0.2801
 7214SOL    HW222693   0.418   2.913   0.372 -0.3815 -0.4886  0.6357
 7215SOL     OW22694   5.600   3.930   6.766  0.2933  0.1424  0.5741
 7215SOL    HW122695   5.589   3.993   6.696  0.2246  0.5988  0.9885
 7215SOL    HW222696   5.666   3.969   6.824  2.0843 -1.2708 -0.4146
 7216SOL     OW22697   0.148   7.250   3.435  0.7166  0.0308 -0.2339
 7216SOL    HW122698   0.079   7.313   3.460  1.0472  0.7540 -1.0971
 7216SOL    HW222699   0.198   7.237   3.516  0.1626  0.2520  0.1557
 7217SOL     OW22700   2.909   0.274   2.010  0.0968 -0.0956 -0.4702
 7217SOL    HW122701   2.884   0.261   1.918 -1.9458 -0.3997  0.0651
 7217SOL    HW222702   2.886   0.191   2.052  1.2033 -0.0267  0.2889
 7218SOL     OW22703   6.480   2.518   1.021  0.1480  0.5876 -0.0137
 7218SOL    HW122704   6.470   2.497   0.928  1.4859  0.1501 -0.0786
 7218SOL    HW222705   6.489   2.613   1.022  0.6724  0.5457 -0.3882
 7219SOL     OW22706   0.560   0.997   6.413 -0.1289 -0.6189  0.1188
 7219SOL    HW122707   0.647   0.970   6.443 -0.7446 -1.5045  1.2031
 7219SOL    HW222708   0.575   1.035   6.327  0.9637 -3.6219 -1.1659
 7220SOL     OW22709   6.189   2.448   0.420 -0.3910 -0.3599  0.0958
 7220SOL    HW122710   6.160   2.521   0.474  0.0571  1.2343 -1.7175
 7220SOL    HW222711   6.109   2.407   0.388 -0.6402 -0.5588  0.9446
 7221SOL     OW22712   4.082   5.937   6.830 -0.6430 -0.3121  0.4470
 7221SOL    HW122713   4.000   5.937   6.879  0.0633  2.5556  1.8610
 7221SOL    HW222714   4.078   6.017   6.778  0.9421 -0.5491 -0.0773
 7222SOL     OW22715   2.151   4.648   4.736  0.1015 -0.0409 -0.1007
 7222SOL    HW122716   2.208   4.672   4.809 -0.6040 -1.0883  0.8531
 7222SOL    HW222717   2.197   4.677   4.658  1.9446 -0.8676  0.6251
 7223SOL     OW22718   0.766   1.530   2.941 -0.3321  0.6216  0.2311
 7223SOL    HW122719   0.789   1.462   3.004 -0.9563  0.3666  0.1959
 7223SOL    HW222720   0.837   1.594   2.946  1.8561 -1.4481 -1.8418
 7224SOL     OW22721   2.982   1.968   4.200 -0.5566  0.1076 -0.0008
 7224SOL    HW122722   3.043   1.983   4.273  0.1131 -0.3698 -0.4440
 7224SOL    HW222723   2.925   2.044   4.201 -0.7452 -0.0153  1.1935
 7225SOL     OW22724   1.420   1.603   4.892 -0.0053  0.2069 -0.2169
 7225SOL    HW122725   1.352   1.549   4.931 -0.7478  0.8290 -0.5979
 7225SOL    HW222726   1.462   1.647   4.966  0.2775 -0.5132  0.0531
 7226SOL     OW22727   4.960   3.608   3.700  0.1058  0.0637 -0.0243
 7226SOL    HW122728   5.020   3.619   3.626 -0.6052 -0.6634 -0.7253
 7226SOL    HW222729   5.018   3.608   3.777  0.8309  1.0573 -0.5417
 7227SOL     OW22730   1.657   0.937   0.481 -0.3338  0.2427 -0.1081
 7227SOL    HW122731   1.572   0.976   0.501 -1.1513  0.2163 -3.0656
 7227SOL    HW222732   1.647   0.845   0.506 -1.0873  0.2953 -0.1930
 7228SOL     OW22733   2.340   5.729   6.164  0.3913  0.6431  0.0023
 7228SOL    HW122734   2.405   5.724   6.094  1.8470 -1.8863  1.4012
 7228SOL    HW222735   2.311   5.638   6.177  0.3946  0.9477  2.8134
 7229SOL     OW22736   1.299   7.346   4.646  0.2802  0.0052 -0.2293
 7229SOL    HW122737   1.349   7.413   4.693 -1.4146 -0.3023  2.2000
 7229SOL    HW222738   1.237   7.395   4.592  1.5348  0.3613 -1.3915
 7230SOL     OW22739   6.334   4.409   6.311 -0.3720  0.2508  0.5349
 7230SOL    HW122740   6.425   4.388   6.293 -0.8424 -0.9849 -0.6207
 7230SOL    HW222741   6.295   4.421   6.224 -2.1831 -3.3399  0.6639
 7231SOL     OW22742   8.037   3.784   2.679  0.7295 -0.3267  0.4651
 7231SOL    HW122743   8.130   3.773   2.700  1.7910  1.0864 -2.7934
 7231SOL    HW222744   8.028   3.878   2.663 -0.9778 -0.6132 -0.4096
 7232SOL     OW22745   1.392   2.403   8.194 -0.0810 -0.3070  0.0918
 7232SOL    HW122746   1.334   2.450   8.254 -0.2724  0.0172 -0.3504
 7232SOL    HW222747   1.341   2.327   8.167  0.2549 -0.8229  0.8629
 7233SOL     OW22748   5.922   3.524   8.188 -0.0596 -0.1526 -0.4609
 7233SOL    HW122749   5.969   3.509   8.106  0.8087 -1.2157  0.1968
 7233SOL    HW222750   5.989   3.558   8.248 -0.4784 -0.2221  0.0576
 7234SOL     OW22751   3.384   4.201   3.920 -0.3799  0.5072  0.1462
 7234SOL    HW122752   3.313   4.263   3.931 -0.5459  0.1030  1.5062
 7234SOL    HW222753   3.356   4.123   3.969 -0.0505 -0.5503 -1.2608
 7235SOL     OW22754   1.289   2.683   3.823 -0.5440  0.1696 -0.5721
 7235SOL    HW122755   1.351   2.739   3.776 -0.9619 -0.4599 -1.9238
 7235SOL    HW222756   1.280   2.605   3.768  0.0039 -1.2596  1.2359
 7236SOL     OW22757   5.443   4.302   2.456  0.1465 -0.0724  0.3936
 7236SOL    HW122758   5.373   4.334   2.398  0.0481 -0.1550  0.4646
 7236SOL    HW222759   5.407   4.221   2.494  0.7323 -0.7573 -0.4656
 7237SOL     OW22760   7.293   1.486   2.568  0.2795 -0.2461  0.7127
 7237SOL    HW122761   7.250   1.401   2.555 -0.2173  0.1556 -0.4143
 7237SOL    HW222762   7.367   1.467   2.626 -1.3430 -0.9903  2.6751
 7238SOL     OW22763   5.387   2.387   8.236 -0.3109 -0.1898  0.4009
 7238SOL    HW122764   5.413   2.363   8.325 -0.5363 -0.7340  0.3212
 7238SOL    HW222765   5.376   2.482   8.240  0.8247 -0.0442  0.6584
 7239SOL     OW22766   3.050   5.466   4.586  0.3866 -0.4952 -0.1729
 7239SOL    HW122767   3.118   5.400   4.597 -0.2684 -1.2290 -0.4223
 7239SOL    HW222768   2.999   5.437   4.510 -0.5345 -0.2662  0.3307
 7240SOL     OW22769   3.050   5.461   7.206 -0.0349  0.0253  0.2729
 7240SOL    HW122770   3.021   5.370   7.211 -2.7273  0.8426  1.3029
 7240SOL    HW222771   3.061   5.488   7.297 -1.3080  1.2834  0.0868
 7241SOL     OW22772   2.382   4.779   3.111 -0.0388  0.5009 -0.0298
 7241SOL    HW122773   2.364   4.692   3.075  0.5608  0.4565 -0.2283
 7241SOL    HW222774   2.415   4.829   3.036 -0.1550  0.8326  0.1397
 7242SOL     OW22775   7.022   7.322   6.914  0.2994  0.4988  0.1736
 7242SOL    HW122776   7.103   7.281   6.945  1.5067  1.0987 -2.0027
 7242SOL    HW222777   6.999   7.272   6.835 -1.6114  0.1997  0.8667
 7243SOL     OW22778   7.902   3.290   6.543  0.5925 -0.4111 -0.2164
 7243SOL    HW122779   7.842   3.360   6.518 -0.4054 -0.4249  1.9314
 7243SOL    HW222780   7.977   3.335   6.582  1.4633 -0.4456 -1.7899
 7244SOL     OW22781   7.106   3.370   2.588 -0.0342 -0.2060 -0.2307
 7244SOL    HW122782   7.086   3.373   2.682 -0.2204 -3.1025 -0.0767
 7244SOL    HW222783   7.198   3.396   2.583 -0.0071 -0.0452  0.7704
 7245SOL     OW22784   6.397   0.669   3.438  0.0813  0.2909  0.4706
 7245SOL    HW122785   6.380   0.633   3.351 -0.2557  1.8433 -0.1362
 7245SOL    HW222786   6.460   0.609   3.476  0.9187  0.0574 -1.1864
 7246SOL     OW22787   0.485   5.150   7.385  0.2588 -0.5523  0.0684
 7246SOL    HW122788   0.503   5.244   7.373 -0.2147 -0.3270  1.0370
 7246SOL    HW222789   0.394   5.139   7.355 -0.3419 -0.3149  1.7073
 7247SOL     OW22790   5.245   1.857   3.284 -0.5275  0.9354  0.0915
 7247SOL    HW122791   5.329   1.871   3.328 -0.3666 -0.0370  0.1214
 7247SOL    HW222792   5.250   1.910   3.204 -0.1150  1.3200  0.3711
 7248SOL     OW22793   1.983   7.047   4.291  0.4654  0.0555 -0.1633
 7248SOL    HW122794   1.967   7.023   4.382 -1.6824  0.5385 -0.3446
 7248SOL    HW222795   1.906   7.015   4.244 -0.2520  2.9713 -1.1840
 7249SOL     OW22796   5.173   7.801   6.641  0.7966  0.2950  0.0779
 7249SOL    HW122797   5.165   7.712   6.607  1.1455  0.9815 -1.9356
 7249SOL    HW222798   5.267   7.819   6.641  0.6466  1.9029 -3.2314
 7250SOL     OW22799   0.039   5.311   4.554 -0.1464 -0.2271  0.2002
 7250SOL    HW122800   0.014   5.366   4.628 -0.4071 -1.6330  1.1903
 7250SOL    HW222801   0.038   5.370   4.479 -3.0511  0.5804  0.7494
 7251SOL     OW22802   5.013   7.522   6.245  0.2172  0.4949 -0.5216
 7251SOL    HW122803   5.087   7.583   6.251 -0.3142  1.2388 -1.2398
 7251SOL    HW222804   5.019   7.485   6.157  0.5557 -0.5511 -0.0767
 7252SOL     OW22805   0.437   4.677   5.477  0.2445 -0.1282 -0.0624
 7252SOL    HW122806   0.367   4.723   5.523  2.9324  1.3618  2.9590
 7252SOL    HW222807   0.474   4.743   5.418  0.4333 -0.2342 -0.0637
 7253SOL     OW22808   6.961   4.340   3.399  0.1582 -0.2814  0.1857
 7253SOL    HW122809   6.963   4.303   3.487  0.0549 -0.4934  0.1002
 7253SOL    HW222810   6.929   4.269   3.343 -0.8016  0.1699  0.1359
 7254SOL     OW22811   0.953   2.468   7.062 -0.0964  0.3031  0.2126
 7254SOL    HW122812   0.995   2.393   7.102  2.0976  1.8987  1.0919
 7254SOL    HW222813   0.912   2.433   6.983 -0.7617 -2.1055  1.5340
 7255SOL     OW22814   4.573   7.749   7.456 -0.5278  0.3757  0.1493
 7255SOL    HW122815   4.561   7.738   7.551  0.8573 -2.0575  0.1412
 7255SOL    HW222816   4.549   7.663   7.419  1.6438  0.3552 -1.3742
 7256SOL     OW22817   5.018   4.344   0.827  0.1337  0.3821 -0.0723
 7256SOL    HW122818   5.076   4.393   0.886  1.6160 -1.7880  0.4156
 7256SOL    HW222819   4.934   4.390   0.831  0.5650  1.1061  2.7143
 7257SOL     OW22820   3.178   2.223   2.398 -0.4458 -0.4149 -0.4540
 7257SOL    HW122821   3.211   2.268   2.476 -0.6940 -1.3632  0.2139
 7257SOL    HW222822   3.083   2.222   2.409 -0.6110  0.7718 -1.5250
 7258SOL     OW22823   5.026   6.127   0.132 -0.3520 -0.5312 -0.1712
 7258SOL    HW122824   5.030   6.125   0.228 -2.2164  0.0344 -0.0519
 7258SOL    HW222825   5.017   6.220   0.111  2.8576 -0.3154 -1.0992
 7259SOL     OW22826   7.623   3.806   6.134 -0.4206  0.1567 -0.6563
 7259SOL    HW122827   7.572   3.882   6.162 -1.4019  0.2279 -2.5545
 7259SOL    HW222828   7.588   3.782   6.049  1.3319 -1.1009 -1.0918
 7260SOL     OW22829   2.789   1.125   5.194 -0.0990 -0.4432  0.2181
 7260SOL    HW122830   2.768   1.050   5.250 -0.6596 -0.2124  0.3237
 7260SOL    HW222831   2.706   1.173   5.187  0.4572  0.6249  0.8375
 7261SOL     OW22832   8.204   7.254   3.160 -0.8025 -0.4526  0.3535
 7261SOL    HW122833   8.229   7.325   3.220 -1.2214  1.5082 -1.6589
 7261SOL    HW222834   8.272   7.254   3.093 -1.3301 -1.3351 -0.2028
 7262SOL     OW22835   0.573   2.411   4.561  0.0676 -0.2590 -0.0530
 7262SOL    HW122836   0.651   2.444   4.516 -0.4790 -0.9339 -1.5872
 7262SOL    HW222837   0.529   2.357   4.495 -1.9511  0.4949  0.5989
 7263SOL     OW22838   4.903   2.400   1.604  0.2980 -0.6202 -0.1498
 7263SOL    HW122839   4.898   2.494   1.588 -0.4113 -0.5334  0.4782
 7263SOL    HW222840   4.952   2.364   1.530  1.0201  0.3112 -0.1237
 7264SOL     OW22841   2.631   0.278   1.272 -0.7267 -0.1910 -0.2892
 7264SOL    HW122842   2.582   0.198   1.291  0.4197 -1.1300 -1.1169
 7264SOL    HW222843   2.622   0.332   1.350  1.2918 -2.5718  1.7576
 7265SOL     OW22844   4.173   5.156   5.826 -0.4684  0.1604 -0.9390
 7265SOL    HW122845   4.145   5.073   5.788  0.8289  0.1717 -1.9957
 7265SOL    HW222846   4.189   5.136   5.918 -0.2362 -0.7503 -1.1671
 7266SOL     OW22847   4.940   3.726   0.962  0.1002  0.2878 -0.1179
 7266SOL    HW122848   5.028   3.761   0.980 -0.9036  1.8029  2.4905
 7266SOL    HW222849   4.906   3.702   1.048 -2.6690  1.3709 -0.8034
 7267SOL     OW22850   3.378   5.132   0.979  0.3791 -0.4190 -0.2436
 7267SOL    HW122851   3.363   5.058   1.038 -0.5955  0.0769  0.1453
 7267SOL    HW222852   3.473   5.145   0.981  0.5286 -1.4561 -0.0772
 7268SOL     OW22853   5.605   3.849   7.039  1.1241  0.0154 -0.0398
 7268SOL    HW122854   5.539   3.830   6.973  0.7438 -0.2990  0.4203
 7268SOL    HW222855   5.607   3.945   7.045 -0.0788  0.0173  0.7037
 7269SOL     OW22856   2.839   5.709   0.109 -0.1296  0.8601 -0.0499
 7269SOL    HW122857   2.932   5.705   0.132 -0.1928 -0.4238  0.0545
 7269SOL    HW222858   2.835   5.678   0.019 -0.2670  2.7143 -0.7193
 7270SOL     OW22859   0.866   1.684   0.020  0.2729  0.3730 -0.3991
 7270SOL    HW122860   0.954   1.658  -0.007  0.1368 -0.4823 -0.0340
 7270SOL    HW222861   0.845   1.626   0.093 -1.3322 -0.7331 -1.6626
 7271SOL     OW22862   7.472   2.375   0.564 -0.6304 -0.0657 -0.0274
 7271SOL    HW122863   7.560   2.340   0.551 -0.7805 -0.0473 -1.2031
 7271SOL    HW222864   7.419   2.299   0.587 -0.4824 -0.2194 -0.1943
 7272SOL     OW22865   7.439   7.149   6.786  0.2264 -0.6179  0.5405
 7272SOL    HW122866   7.362   7.099   6.761  1.2418 -1.0874 -1.9877
 7272SOL    HW222867   7.507   7.122   6.723  1.2915  2.6903  0.0667
 7273SOL     OW22868   7.791   7.007   1.110 -0.2873  0.4467 -0.1725
 7273SOL    HW122869   7.747   6.938   1.061  0.3305  1.3296 -2.0751
 7273SOL    HW222870   7.731   7.029   1.181 -0.7882 -1.5458  0.0637
 7274SOL     OW22871   7.109   4.281   6.836  0.2761 -0.3728  0.5237
 7274SOL    HW122872   7.056   4.262   6.758  1.3201  0.9667 -0.5516
 7274SOL    HW222873   7.046   4.315   6.900 -0.2718  0.7336 -0.5612
 7275SOL     OW22874   1.218   5.140   4.986  0.0126 -0.1426 -0.0697
 7275SOL    HW122875   1.136   5.093   4.973 -0.0620 -0.0784  0.1556
 7275SOL    HW222876   1.217   5.210   4.921 -0.5232  0.4013  0.5120
 7276SOL     OW22877   0.917   1.136   0.312 -0.3296  0.3225 -0.1475
 7276SOL    HW122878   0.892   1.202   0.376  0.9416  0.2132  0.4722
 7276SOL    HW222879   0.967   1.071   0.361  0.4072  0.0787 -1.1899
 7277SOL     OW22880   5.266   3.533   7.088 -0.0556  0.5256 -0.5067
 7277SOL    HW122881   5.287   3.625   7.100 -0.2301  0.7865 -2.0060
 7277SOL    HW222882   5.171   3.533   7.072 -0.2700 -0.0537  0.6471
 7278SOL     OW22883   4.064   6.790   3.480  0.0531  0.0262  0.2240
 7278SOL    HW122884   4.012   6.748   3.412  0.0920 -0.6669  0.6169
 7278SOL    HW222885   4.032   6.753   3.562  1.1927 -0.4808  0.4727
 7279SOL     OW22886   2.911   3.701   5.468 -0.0953  0.0412 -0.3513
 7279SOL    HW122887   2.949   3.615   5.485 -1.1376 -0.7834 -1.9489
 7279SOL    HW222888   2.821   3.683   5.441 -0.0607  1.5561 -1.6308
 7280SOL     OW22889   6.202   4.849   5.729 -0.2852  0.3575  0.1991
 7280SOL    HW122890   6.225   4.923   5.673 -1.8683 -0.8378 -2.2053
 7280SOL    HW222891   6.109   4.863   5.749 -0.3876 -0.5775  0.3948
 7281SOL     OW22892   2.050   1.234   1.216 -0.2485  0.2202 -0.1118
 7281SOL    HW122893   2.085   1.153   1.252 -0.8384  0.2318  0.4955
 7281SOL    HW222894   1.993   1.269   1.285  1.8393  2.3961  0.6422
 7282SOL     OW22895   1.327   2.395   1.369  0.1559 -0.1842 -0.1810
 7282SOL    HW122896   1.331   2.299   1.374 -1.4736 -0.2526  0.2897
 7282SOL    HW222897   1.284   2.422   1.450  0.7861  0.9795 -0.2102
 7283SOL     OW22898   7.100   0.549   6.511 -0.0461  0.0643  0.0401
 7283SOL    HW122899   7.130   0.592   6.430 -0.2841 -1.2826 -0.7913
 7283SOL    HW222900   7.067   0.621   6.565 -4.3384  0.7679 -2.9233
 7284SOL     OW22901   2.894   7.284   4.222 -0.2167 -0.1204  0.3395
 7284SOL    HW122902   2.955   7.344   4.180 -0.9742  1.2066  1.0749
 7284SOL    HW222903   2.921   7.280   4.313 -1.0902  0.3452  0.6357
 7285SOL     OW22904   2.663   5.008   6.980 -0.2602 -0.3563 -0.2371
 7285SOL    HW122905   2.706   5.091   7.002  1.7576 -0.6830 -2.5735
 7285SOL    HW222906   2.607   4.990   7.056  0.6789  2.1562  1.1874
 7286SOL     OW22907   0.895   5.210   3.516 -0.0813  0.3464  0.3562
 7286SOL    HW122908   0.982   5.171   3.502  0.1905  1.1480 -0.2765
 7286SOL    HW222909   0.894   5.286   3.457 -1.8696 -0.6342 -0.9663
 7287SOL     OW22910   7.431   4.691   6.664  0.0228 -0.0146 -0.0311
 7287SOL    HW122911   7.474   4.647   6.590  2.0544  1.3856  0.2492
 7287SOL    HW222912   7.421   4.622   6.730  0.8869 -0.6230 -0.5133
 7288SOL     OW22913   3.068   1.252   3.956 -0.5482  0.4164 -0.1839
 7288SOL    HW122914   3.085   1.330   3.902 -0.6827  0.1622 -0.6017
 7288SOL    HW222915   3.149   1.240   4.006  1.0642 -1.4177 -2.9488
 7289SOL     OW22916   0.052   1.636   3.081  0.0731  0.2204  0.0408
 7289SOL    HW122917   0.072   1.544   3.066  0.3075  0.1214  0.8859
 7289SOL    HW222918   0.125   1.683   3.040  0.2059  0.0104  0.0323
 7290SOL     OW22919   2.835   2.968   0.083  0.3206  0.4089  0.0951
 7290SOL    HW122920   2.763   3.031   0.089  0.7788  1.1078 -1.1988
 7290SOL    HW222921   2.904   3.016   0.037  0.8820 -0.8817 -0.4532
 7291SOL     OW22922   5.006   8.076   2.551  0.4284 -0.1928  0.5114
 7291SOL    HW122923   5.016   8.046   2.460  0.2853  0.4153  0.2860
 7291SOL    HW222924   4.926   8.128   2.550  0.4287 -0.1798  0.9877
 7292SOL     OW22925   5.104   3.200   2.855  0.4453  0.3449  0.0556
 7292SOL    HW122926   5.106   3.284   2.810 -0.4199  0.0021 -0.6459
 7292SOL    HW222927   5.058   3.218   2.937 -0.6554  0.3528 -0.5497
 7293SOL     OW22928   7.950   5.009   7.122 -0.1366 -0.6689  0.2920
 7293SOL    HW122929   8.026   4.982   7.070 -1.7141 -0.0009 -2.5424
 7293SOL    HW222930   7.963   5.103   7.136  0.4179 -0.8953  1.4437
 7294SOL     OW22931   2.255   3.195   0.388 -0.0701 -0.0603  0.0294
 7294SOL    HW122932   2.187   3.255   0.359  0.0505  0.0526 -0.0208
 7294SOL    HW222933   2.247   3.193   0.483 -0.0865  0.0228  0.0300
 7295SOL     OW22934   2.441   8.208   2.883 -0.3668  0.1643  0.5091
 7295SOL    HW122935   2.437   8.248   2.970 -0.6134 -0.2132  0.6734
 7295SOL    HW222936   2.501   8.264   2.834 -0.8184  0.8225  0.6925
 7296SOL     OW22937   7.373   3.570   5.817  0.0403 -0.2867  0.1670
 7296SOL    HW122938   7.444   3.556   5.880  0.8569 -2.9960 -1.1854
 7296SOL    HW222939   7.297   3.530   5.857  0.1960 -0.6658  0.0902
 7297SOL     OW22940   0.265   6.161   2.330 -0.5639  0.0507 -0.5950
 7297SOL    HW122941   0.296   6.195   2.414  0.8898  0.4867 -1.2712
 7297SOL    HW222942   0.220   6.236   2.290  0.9528  0.6617 -1.2520
 7298SOL     OW22943   1.957   0.665   6.985  0.5484  0.5774 -0.0204
 7298SOL    HW122944   1.933   0.600   7.052 -1.4805  0.5627 -0.7255
 7298SOL    HW222945   1.985   0.742   7.036 -1.0204  0.5911  0.8887
 7299SOL     OW22946   0.891   3.432   5.086 -0.0511  0.1441  0.1087
 7299SOL    HW122947   0.913   3.521   5.115 -2.0400  0.1693  1.7796
 7299SOL    HW222948   0.797   3.435   5.068 -0.6346 -2.0248  2.2173
 7300SOL     OW22949   6.781   6.916   6.682 -0.2551 -0.0509  0.0471
 7300SOL    HW122950   6.725   6.913   6.760  0.4832 -1.3741  0.5635
 7300SOL    HW222951   6.796   6.824   6.661 -0.0738  0.3000 -1.4050
 7301SOL     OW22952   3.824   6.866   5.471 -0.2051 -0.7176 -0.5546
 7301SOL    HW122953   3.752   6.898   5.415  0.3143  0.9768 -0.3143
 7301SOL    HW222954   3.888   6.937   5.470 -0.4703 -0.3150  2.7607
 7302SOL     OW22955   2.315   7.312   7.101  0.4743  0.4336  0.2284
 7302SOL    HW122956   2.339   7.264   7.022  0.9910 -0.6400  1.0117
 7302SOL    HW222957   2.365   7.393   7.096  0.9532  0.1149 -0.2672
 7303SOL     OW22958   5.908   5.786   4.937  0.0651 -0.2669 -0.8287
 7303SOL    HW122959   5.992   5.770   4.894  0.8710 -1.5583  1.1067
 7303SOL    HW222960   5.911   5.879   4.960  0.2132  0.1022 -2.2188
 7304SOL     OW22961   5.018   3.911   5.977 -0.2327 -0.1777 -0.1833
 7304SOL    HW122962   5.033   4.004   5.959 -1.2477  0.0727  0.2082
 7304SOL    HW222963   4.997   3.874   5.892 -0.2089  0.0259 -0.2802
 7305SOL     OW22964   3.088   2.497   5.873 -0.1444  0.2180 -0.2495
 7305SOL    HW122965   3.165   2.553   5.883 -0.6776  0.8148  0.5785
 7305SOL    HW222966   3.015   2.548   5.908 -0.5138 -1.3450  1.4133
 7306SOL     OW22967   7.459   3.146   5.361 -0.5897 -0.1601  0.0645
 7306SOL    HW122968   7.526   3.214   5.351  0.9241 -1.3995  1.2614
 7306SOL    HW222969   7.428   3.128   5.272  1.1372 -0.0063 -0.5960
 7307SOL     OW22970   1.976   3.789   6.809 -0.4028  0.1421  0.4981
 7307SOL    HW122971   2.008   3.799   6.899 -0.0410 -3.1648  0.8468
 7307SOL    HW222972   1.882   3.806   6.815 -0.6866 -1.6279  1.9090
 7308SOL     OW22973   3.496   0.242   6.429 -0.1428  0.3505 -0.2230
 7308SOL    HW122974   3.410   0.251   6.388  0.0403 -0.2948 -0.7584
 7308SOL    HW222975   3.494   0.156   6.472  0.0110  0.6042  0.3000
 7309SOL     OW22976   3.327   8.157   7.974  0.6730  0.2850  0.2772
 7309SOL    HW122977   3.407   8.168   7.922  1.6217 -0.1517  1.6048
 7309SOL    HW222978   3.352   8.098   8.044 -1.1458 -0.8126  0.0601
 7310SOL     OW22979   1.043   0.236   6.733  0.3879 -0.2418 -0.3677
 7310SOL    HW122980   1.010   0.149   6.754 -1.6091  0.4878 -0.2781
 7310SOL    HW222981   1.137   0.223   6.720  0.1401 -2.4168 -0.4535
 7311SOL     OW22982   1.653   5.467   5.722 -0.4943  0.2274 -0.0170
 7311SOL    HW122983   1.639   5.439   5.631  1.2056 -0.2251 -0.1726
 7311SOL    HW222984   1.728   5.526   5.717  0.7366 -1.1482  1.2854
 7312SOL     OW22985   7.537   0.933   1.581  0.1099 -0.1887 -0.7660
 7312SOL    HW122986   7.622   0.919   1.622 -0.2413  1.8878  0.8828
 7312SOL    HW222987   7.479   0.958   1.654 -1.5871 -0.2982 -2.0154
 7313SOL     OW22988   6.637   5.247   5.895 -0.3245  0.5838  0.1492
 7313SOL    HW122989   6.545   5.233   5.917 -0.5297  0.0287 -0.9336
 7313SOL    HW222990   6.639   5.333   5.853 -0.3345  0.6279  0.2382
 7314SOL     OW22991   4.043   7.627   0.529 -0.2579  0.1957  0.3742
 7314SOL    HW122992   3.984   7.555   0.550 -0.1249 -0.3887 -1.1237
 7314SOL    HW222993   4.075   7.607   0.441 -0.5315  2.2887 -0.2607
 7315SOL     OW22994   4.649   4.080   6.992  0.1141 -0.3827  0.3975
 7315SOL    HW122995   4.621   4.077   6.900 -0.6709  2.3975  0.4552
 7315SOL    HW222996   4.568   4.093   7.041  0.6921 -0.3101  1.3501
 7316SOL     OW22997   2.568   4.737   4.689 -0.2870 -0.1614  0.2942
 7316SOL    HW122998   2.538   4.801   4.754 -1.5090 -0.0369 -0.3536
 7316SOL    HW222999   2.542   4.652   4.726 -0.7644 -0.1061  0.1020
 7317SOL     OW23000   1.113   3.194   3.490 -0.0057  0.0631  0.4510
 7317SOL    HW123001   1.167   3.255   3.540  1.5636 -0.6909 -0.2336
 7317SOL    HW223002   1.101   3.119   3.548  0.4901 -0.1600  0.2691
 7318SOL     OW23003   5.899   1.007   5.249 -0.4922  0.0011 -0.2361
 7318SOL    HW123004   5.859   1.075   5.194 -0.0078  0.3593 -0.1476
 7318SOL    HW223005   5.957   0.959   5.189  0.7161  0.9490  0.1378
 7319SOL     OW23006   1.433   5.693   6.627  0.0789 -0.6805 -0.4046
 7319SOL    HW123007   1.528   5.692   6.627  0.0768 -1.2537 -0.4239
 7319SOL    HW223008   1.408   5.608   6.591 -0.4401  0.2593 -2.4167
 7320SOL     OW23009   1.170   4.329   5.981 -0.3528 -0.2262  0.3635
 7320SOL    HW123010   1.245   4.385   6.000 -0.6104 -0.3219  1.7041
 7320SOL    HW223011   1.099   4.389   5.960  0.0472 -0.1331 -0.8110
 7321SOL     OW23012   4.912   3.551   0.576 -0.1695  0.1725 -0.0703
 7321SOL    HW123013   4.836   3.502   0.545 -0.2740  0.2347  0.0904
 7321SOL    HW223014   4.888   3.643   0.564  0.7545  0.2119 -2.2240
 7322SOL     OW23015   2.004   6.952   1.478 -0.6042 -0.6796  0.8697
 7322SOL    HW123016   1.977   6.981   1.391  1.9547  1.6295  0.7265
 7322SOL    HW223017   1.927   6.907   1.513 -2.3145 -0.0948 -1.8544
 7323SOL     OW23018   6.886   5.423   3.081 -0.0330 -0.7834 -0.3929
 7323SOL    HW123019   6.921   5.474   3.154  0.8821 -2.1215  0.1558
 7323SOL    HW223020   6.838   5.486   3.028  1.1628  0.6647  0.1730
 7324SOL     OW23021   0.200   0.165   0.257  0.5726  0.6900 -0.3275
 7324SOL    HW123022   0.226   0.173   0.165  1.1508 -1.4146 -0.3816
 7324SOL    HW223023   0.105   0.174   0.256  0.6396  1.3933 -1.0309
 7325SOL     OW23024   0.888   8.048   7.291 -0.4408  0.2642 -0.1993
 7325SOL    HW123025   0.951   8.048   7.364  0.0844 -0.6479 -0.6396
 7325SOL    HW223026   0.811   8.003   7.326 -1.0932  1.8166  0.5040
 7326SOL     OW23027   6.208   1.871   5.830 -0.4525  0.1525 -0.1367
 7326SOL    HW123028   6.230   1.800   5.891 -1.2193  1.5125  1.8287
 7326SOL    HW223029   6.288   1.884   5.779  1.1271  0.5175  2.2320
 7327SOL     OW23030   0.369   0.566   7.440  0.2283 -0.0891  0.1609
 7327SOL    HW123031   0.291   0.584   7.387  1.4879 -0.8548 -2.0932
 7327SOL    HW223032   0.338   0.507   7.509 -1.1639 -0.5852 -0.8325
 7328SOL     OW23033   1.827   7.655   0.915  0.2915 -0.7613 -0.7752
 7328SOL    HW123034   1.825   7.685   0.824  0.7897 -0.4542 -0.6914
 7328SOL    HW223035   1.804   7.733   0.965  2.9314 -0.1019 -0.4710
 7329SOL     OW23036   6.478   0.020   1.716  0.2684 -0.3545 -0.2824
 7329SOL    HW123037   6.505  -0.047   1.653 -0.5894 -1.8448  0.8704
 7329SOL    HW223038   6.402  -0.018   1.760 -1.5225  2.2306 -0.9545
 7330SOL     OW23039   8.171   0.979   0.746 -0.0239 -0.1107  0.6344
 7330SOL    HW123040   8.095   1.037   0.738  0.5023  0.5230  0.0745
 7330SOL    HW223041   8.146   0.915   0.812 -0.7128  0.6149  1.0916
 7331SOL     OW23042   7.758   6.625   4.854  0.2455 -0.1359  0.0595
 7331SOL    HW123043   7.679   6.593   4.811  0.3841  2.4390 -2.3962
 7331SOL    HW223044   7.830   6.580   4.809  0.2842 -0.5501  0.5240
 7332SOL     OW23045   7.026   5.280   0.299  0.6100 -0.2420  0.3436
 7332SOL    HW123046   7.060   5.209   0.245 -0.1012 -0.8244  0.6580
 7332SOL    HW223047   7.008   5.240   0.384 -0.2769  0.1840  0.3685
 7333SOL     OW23048   1.882   2.844   5.365  0.8782  0.1205  0.4449
 7333SOL    HW123049   1.954   2.798   5.319  1.0003 -0.7673  1.4798
 7333SOL    HW223050   1.914   2.853   5.455 -0.8487 -1.5991  1.3005
 7334SOL     OW23051   0.469   7.499   7.424 -0.1267  0.3015  0.8083
 7334SOL    HW123052   0.470   7.554   7.502 -0.8597 -1.8863  2.4592
 7334SOL    HW223053   0.433   7.415   7.454 -1.0432 -0.4307 -2.0266
 7335SOL     OW23054   2.977   1.001   2.482  0.3367 -0.0595  0.0600
 7335SOL    HW123055   2.928   1.045   2.413 -2.2182 -1.7045  0.6854
 7335SOL    HW223056   2.981   0.909   2.455  1.9039 -0.2331  0.7298
 7336SOL     OW23057   6.711   4.993   4.405  0.1463 -0.3960 -0.0455
 7336SOL    HW123058   6.745   4.942   4.478  0.2728 -0.8562 -0.4195
 7336SOL    HW223059   6.731   5.083   4.427  0.1844 -0.5312  0.4863
 7337SOL     OW23060   4.001   1.731   4.406  0.2328  0.5620  0.5929
 7337SOL    HW123061   3.965   1.663   4.349  0.2927  0.7979  0.2686
 7337SOL    HW223062   4.080   1.691   4.443  0.8928  0.8369 -0.4704
 7338SOL     OW23063   6.988   6.091   6.808 -0.2591 -0.3145 -0.7156
 7338SOL    HW123064   6.893   6.095   6.798 -0.3246 -0.7019 -0.2619
 7338SOL    HW223065   7.018   6.051   6.726 -0.2650  1.9685 -1.8981
 7339SOL     OW23066   3.017   2.046   7.158 -0.0267  0.7211 -0.2754
 7339SOL    HW123067   2.933   2.006   7.136 -0.6372  0.7807  1.8117
 7339SOL    HW223068   3.082   1.992   7.113 -0.9930 -1.0389  0.3864
 7340SOL     OW23069   3.280   1.109   6.893 -0.5088  0.4661 -0.1568
 7340SOL    HW123070   3.274   1.204   6.906 -0.1351  0.3102  1.3317
 7340SOL    HW223071   3.373   1.088   6.907  0.1349  0.2788 -3.7764
 7341SOL     OW23072   2.498   4.399   7.783 -0.1636  0.2228 -0.2591
 7341SOL    HW123073   2.514   4.470   7.720  1.1998 -1.1268 -1.5129
 7341SOL    HW223074   2.514   4.319   7.733  0.8151 -0.9163  1.7721
 7342SOL     OW23075   6.952   3.596   5.010  0.2118  0.6639  0.3037
 7342SOL    HW123076   6.912   3.542   5.078  0.3095  0.0109 -0.1523
 7342SOL    HW223077   6.894   3.672   5.003  0.2943  0.8279  1.2359
 7343SOL     OW23078   8.205   0.042   1.172 -0.1049 -0.1471 -0.2459
 7343SOL    HW123079   8.235   0.074   1.087 -0.9672 -0.4204 -0.6629
 7343SOL    HW223080   8.125  -0.007   1.153 -0.2740 -0.2752  0.7136
 7344SOL     OW23081   1.353   7.276   4.945 -0.1969  0.1244  0.2968
 7344SOL    HW123082   1.374   7.281   4.852 -2.6465 -2.3245 -0.5317
 7344SOL    HW223083   1.285   7.343   4.958  0.4429  0.7541  0.4543
 7345SOL     OW23084   1.347   1.009   1.780  0.4930 -0.2406  0.0276
 7345SOL    HW123085   1.262   1.004   1.825  0.6182  1.1580  0.4714
 7345SOL    HW223086   1.401   0.943   1.823 -0.8569 -2.4419 -1.4512
 7346SOL     OW23087   2.064   4.788   2.237 -0.1872 -0.1406 -0.4507
 7346SOL    HW123088   2.049   4.855   2.303 -2.6090 -0.8029 -0.2010
 7346SOL    HW223089   2.146   4.812   2.195 -0.6539  2.6244  0.0395
 7347SOL     OW23090   3.400   5.107   4.747 -0.1002  0.1060  0.0082
 7347SOL    HW123091   3.367   5.017   4.746 -1.6099  0.6114  0.8351
 7347SOL    HW223092   3.489   5.101   4.712  0.1400 -1.8374  0.8552
 7348SOL     OW23093   6.735   5.870   4.858 -0.2473 -1.0305  0.3995
 7348SOL    HW123094   6.662   5.911   4.813  0.6104 -0.1423 -0.2155
 7348SOL    HW223095   6.718   5.776   4.851 -0.2355 -0.9303 -1.6722
 7349SOL     OW23096   1.069   7.821   7.508 -0.1093  0.1670  0.1630
 7349SOL    HW123097   1.118   7.900   7.527 -1.0933  0.5857  1.0803
 7349SOL    HW223098   1.043   7.787   7.594 -0.8501 -0.3985 -0.2664
 7350SOL     OW23099   5.407   7.188   5.390 -0.2079 -0.2128  0.3186
 7350SOL    HW123100   5.410   7.093   5.383  1.1023 -0.1456 -0.3201
 7350SOL    HW223101   5.327   7.213   5.344 -0.9404 -1.0340  1.0954
 7351SOL     OW23102   4.829   4.646   6.694  0.1081 -0.2868  0.2549
 7351SOL    HW123103   4.790   4.559   6.693 -1.5390  0.3961  0.6941
 7351SOL    HW223104   4.817   4.677   6.784  1.0232  0.2441  0.2045
 7352SOL     OW23105   6.900   7.455   4.427  0.5733 -0.3720 -0.4600
 7352SOL    HW123106   6.984   7.410   4.438  1.0450  0.4158 -0.7918
 7352SOL    HW223107   6.881   7.449   4.334  0.3923 -0.3097 -0.4273
 7353SOL     OW23108   2.692   4.364   7.961  0.6201  0.0493  0.8205
 7353SOL    HW123109   2.761   4.429   7.950  1.0759 -0.2494  1.7206
 7353SOL    HW223110   2.628   4.383   7.893  1.0108  1.0935  0.7334
 7354SOL     OW23111   3.056   6.881   6.081  0.4627  0.3933 -0.0693
 7354SOL    HW123112   3.076   6.914   6.169  1.1851  0.2254 -0.1680
 7354SOL    HW223113   3.024   6.958   6.034  0.6484  0.6165  0.1642
 7355SOL     OW23114   7.265   0.654   3.251 -0.0314 -0.1273 -0.1777
 7355SOL    HW123115   7.222   0.725   3.299  1.2957  1.2121 -0.8974
 7355SOL    HW223116   7.201   0.583   3.250 -0.3804 -0.0188  3.0120
 7356SOL     OW23117   1.004   7.753   7.244  0.3620  0.1674  0.0506
 7356SOL    HW123118   0.909   7.748   7.232  0.4796  1.3688 -1.9636
 7356SOL    HW223119   1.016   7.773   7.337 -1.2480 -1.4936  0.6718
 7357SOL     OW23120   5.081   6.801   3.379  0.0547  0.5521 -0.0567
 7357SOL    HW123121   4.999   6.849   3.372 -0.3472 -0.2344 -0.9696
 7357SOL    HW223122   5.135   6.834   3.307  0.3434  0.6879  0.2183
 7358SOL     OW23123   0.056   1.520   4.360  0.5180 -0.1456  0.1693
 7358SOL    HW123124   0.051   1.428   4.332 -1.3281  0.2862 -1.1336
 7358SOL    HW223125   0.134   1.554   4.318  1.2956 -1.1225  0.7624
 7359SOL     OW23126   1.396   1.054   4.625 -0.5190  0.1446  0.5062
 7359SOL    HW123127   1.341   0.992   4.674 -0.3227 -2.2629 -2.0833
 7359SOL    HW223128   1.338   1.089   4.557  0.5467 -0.7302 -0.8872
 7360SOL     OW23129   7.655   3.911   3.328 -0.1371 -0.7673  0.5298
 7360SOL    HW123130   7.590   3.850   3.293 -0.9360 -0.2453  1.0878
 7360SOL    HW223131   7.659   3.892   3.421 -1.1885  0.7162  0.9199
 7361SOL     OW23132   4.363   2.924   6.555  0.0948 -0.1680  0.2276
 7361SOL    HW123133   4.391   2.895   6.468 -0.4617  1.2599 -0.4662
 7361SOL    HW223134   4.283   2.875   6.572  0.5671 -0.9568  0.2498
 7362SOL     OW23135   5.829   3.101   3.167 -0.2775 -0.2167  0.0539
 7362SOL    HW123136   5.782   3.020   3.184 -2.0562  0.4031 -1.5168
 7362SOL    HW223137   5.763   3.170   3.176  0.5375  0.7926 -1.2829
 7363SOL     OW23138   3.093   7.723   6.441  0.2712  0.4055 -0.9898
 7363SOL    HW123139   3.142   7.805   6.447  0.8477 -0.0184  0.6089
 7363SOL    HW223140   3.046   7.717   6.525  2.9871 -2.5611  0.5153
 7364SOL     OW23141   7.882   5.249   7.815  0.3933  0.4773 -0.3402
 7364SOL    HW123142   7.877   5.215   7.725  0.3188  1.2722 -0.6434
 7364SOL    HW223143   7.972   5.229   7.842 -0.2240 -1.8195  0.2692
 7365SOL     OW23144   1.449   7.804   5.423 -0.2896  0.0677 -0.4804
 7365SOL    HW123145   1.399   7.724   5.441  1.5568 -1.3726 -1.3236
 7365SOL    HW223146   1.436   7.820   5.330  2.1735 -1.4692 -1.2041
 7366SOL     OW23147   2.820   1.903   7.072 -0.4642 -0.2953 -0.0983
 7366SOL    HW123148   2.738   1.893   7.025 -0.8028  0.1068  0.3985
 7366SOL    HW223149   2.822   1.830   7.134 -1.5288  0.9406  1.4581
 7367SOL     OW23150   2.532   0.925   3.240 -0.0123  0.6111  0.6130
 7367SOL    HW123151   2.600   0.950   3.302 -0.8469 -1.6995  2.6049
 7367SOL    HW223152   2.577   0.872   3.174  0.4681  0.9980  0.6235
 7368SOL     OW23153   7.687   2.183   7.037  0.3617  0.0763 -0.0225
 7368SOL    HW123154   7.599   2.178   7.000  0.2737 -1.3499  0.3328
 7368SOL    HW223155   7.691   2.110   7.099  1.3032  0.9989  1.0363
 7369SOL     OW23156   6.114   0.535   0.982  0.5383 -0.1729 -0.0121
 7369SOL    HW123157   6.069   0.466   0.935 -0.0725 -0.4251  0.9112
 7369SOL    HW223158   6.097   0.614   0.931  0.5265 -0.5567 -0.6148
 7370SOL     OW23159   7.596   1.549   8.176  0.2248  0.9611  0.1552
 7370SOL    HW123160   7.555   1.630   8.204 -0.0254  0.7605  0.3769
 7370SOL    HW223161   7.686   1.554   8.208  0.1363  1.0377  0.3905
 7371SOL     OW23162   2.368   3.550   0.888 -0.5925 -0.1636  0.0248
 7371SOL    HW123163   2.295   3.550   0.826 -1.7282  1.3158  1.3002
 7371SOL    HW223164   2.399   3.459   0.887  0.4109  0.0387 -3.7384
 7372SOL     OW23165   8.041   7.089   1.999 -0.2636 -0.2115  0.1758
 7372SOL    HW123166   8.045   7.080   1.904 -2.7262  0.9644 -0.1216
 7372SOL    HW223167   8.052   7.000   2.032 -1.5058 -0.9679 -1.3347
 7373SOL     OW23168   1.812   1.971   8.093  0.1333  0.4579  0.1593
 7373SOL    HW123169   1.737   2.030   8.094 -2.0542 -2.0167 -1.5274
 7373SOL    HW223170   1.803   1.918   8.172  0.9065  1.0169  0.6329
 7374SOL     OW23171   1.448   4.147   7.289  0.2105 -0.0477  0.1528
 7374SOL    HW123172   1.492   4.191   7.217  0.1591 -0.4696 -0.1443
 7374SOL    HW223173   1.387   4.212   7.324  0.2315  0.1551 -0.1885
 7375SOL     OW23174   4.229   2.098   1.796  0.7372  0.5623  0.0062
 7375SOL    HW123175   4.227   2.043   1.874  1.5199  0.6728  0.1170
 7375SOL    HW223176   4.152   2.154   1.803  0.3082 -0.0511  0.2352
 7376SOL     OW23177   3.195   6.444   1.283 -0.1386  0.1182  0.1789
 7376SOL    HW123178   3.208   6.503   1.209  1.1710  0.0989  0.3655
 7376SOL    HW223179   3.278   6.397   1.291 -0.1715  0.2787  1.8011
 7377SOL     OW23180   2.560   5.902   3.302 -0.2860 -0.3508  0.1049
 7377SOL    HW123181   2.470   5.930   3.287 -0.1628  0.6018  1.0049
 7377SOL    HW223182   2.590   5.956   3.375  0.2998 -2.2103  1.2916
 7378SOL     OW23183   3.237   1.479   0.137  0.2627 -0.6640 -0.5735
 7378SOL    HW123184   3.222   1.487   0.232  1.5110 -1.9148 -0.2404
 7378SOL    HW223185   3.264   1.566   0.109 -0.5407 -0.1752  0.1352
 7379SOL     OW23186   5.477   5.485   7.583  0.4897 -0.1544  0.4536
 7379SOL    HW123187   5.469   5.475   7.488  2.1481 -1.0307  0.3756
 7379SOL    HW223188   5.448   5.574   7.600  0.2263  0.0399 -0.8750
 7380SOL     OW23189   5.673   1.808   1.626  0.2504  0.2285  0.2438
 7380SOL    HW123190   5.676   1.904   1.626  2.9361  0.2510  1.2644
 7380SOL    HW223191   5.744   1.782   1.566 -0.0346 -1.1015  0.4561
 7381SOL     OW23192   3.943   1.478   7.489  0.3140  0.6229  0.2325
 7381SOL    HW123193   4.013   1.543   7.485  0.2824  0.7102  1.0281
 7381SOL    HW223194   3.881   1.513   7.554 -0.4415  0.5229 -0.4153
 7382SOL     OW23195   3.015   2.766   6.413  0.3210  0.4728 -0.6056
 7382SOL    HW123196   2.952   2.702   6.447  1.1813 -0.8519 -1.3915
 7382SOL    HW223197   2.992   2.776   6.321  1.0343  0.2269 -0.8203
 7383SOL     OW23198   3.992   4.215   2.895  0.1208 -0.2081  0.0780
 7383SOL    HW123199   4.017   4.292   2.946  0.4186  0.1137 -0.5390
 7383SOL    HW223200   3.909   4.239   2.853  0.9315  0.3562 -1.2825
 7384SOL     OW23201   3.221   1.820   0.658 -0.1766 -0.3701 -0.3461
 7384SOL    HW123202   3.161   1.748   0.675 -0.0050 -0.5407 -0.4537
 7384SOL    HW223203   3.268   1.832   0.741 -2.2364  1.5726  0.6307
 7385SOL     OW23204   6.275   7.455   6.076 -0.0980  0.0269  0.4853
 7385SOL    HW123205   6.288   7.546   6.101 -2.0246 -0.1205  2.2956
 7385SOL    HW223206   6.208   7.457   6.008  0.5388  0.0036 -0.1523
 7386SOL     OW23207   6.722   1.681   4.177 -0.5933  0.5982  0.2810
 7386SOL    HW123208   6.677   1.665   4.260 -0.3147  0.5290  0.4212
 7386SOL    HW223209   6.791   1.614   4.174 -1.5232 -0.3472 -0.7011
 7387SOL     OW23210   7.965   0.351   7.476  0.6643 -0.1724 -0.1136
 7387SOL    HW123211   8.045   0.384   7.437  2.1871 -3.5721 -0.1988
 7387SOL    HW223212   7.919   0.308   7.405 -0.3661  0.1903  0.3124
 7388SOL     OW23213   6.808   4.756   6.657  0.5451 -0.3099  0.1528
 7388SOL    HW123214   6.774   4.772   6.745  0.5493 -2.3262  0.5716
 7388SOL    HW223215   6.731   4.753   6.601  0.1852 -2.2069  0.6649
 7389SOL     OW23216   7.716   3.017   1.091 -0.4155  0.5669 -0.2135
 7389SOL    HW123217   7.665   2.936   1.097  0.6108 -0.0893 -0.0701
 7389SOL    HW223218   7.650   3.087   1.091 -1.2827 -0.2171  0.6329
 7390SOL     OW23219   3.199   3.901   8.230 -0.0498  0.2992  0.2952
 7390SOL    HW123220   3.173   3.969   8.292  1.3874  0.6353  0.5634
 7390SOL    HW223221   3.195   3.944   8.145  1.2789  0.8909  0.5024
 7391SOL     OW23222   7.180   5.668   5.803  0.2729 -0.3481 -0.6201
 7391SOL    HW123223   7.259   5.723   5.796 -0.8851  1.6059  0.6404
 7391SOL    HW223224   7.206   5.594   5.857  1.9402 -1.2469 -2.5134
 7392SOL     OW23225   6.893   2.656   1.729  0.2829 -0.1214 -0.6844
 7392SOL    HW123226   6.980   2.620   1.710  0.0058 -1.2566  0.1212
 7392SOL    HW223227   6.837   2.622   1.659  0.6373  1.3468 -1.7287
 7393SOL     OW23228   0.870   1.399   4.432 -0.0794  0.1375 -0.6717
 7393SOL    HW123229   0.811   1.457   4.383  0.9700  1.0476 -0.9033
 7393SOL    HW223230   0.852   1.418   4.524 -0.4392  0.1049 -0.7348
 7394SOL     OW23231   8.242   5.006   1.319 -0.6054 -0.2478  0.2809
 7394SOL    HW123232   8.298   4.931   1.339  1.0751  0.7799 -0.2696
 7394SOL    HW223233   8.161   4.968   1.286 -0.3976 -1.8124  1.4633
 7395SOL     OW23234   7.738   7.147   2.355 -0.4481 -0.3802 -0.0680
 7395SOL    HW123235   7.709   7.228   2.398  1.9631  0.3464  0.3335
 7395SOL    HW223236   7.820   7.171   2.313 -0.9915 -1.9922 -2.1758
 7396SOL     OW23237   3.785   3.230   0.417  0.3191 -0.4109 -0.7793
 7396SOL    HW123238   3.800   3.200   0.506  0.7306  1.1962 -0.2908
 7396SOL    HW223239   3.806   3.323   0.418 -1.1123 -0.0211 -2.2001
 7397SOL     OW23240   8.086   0.604   0.089 -0.3046  0.2568 -0.1066
 7397SOL    HW123241   8.175   0.634   0.072  1.8115 -4.4217  1.2549
 7397SOL    HW223242   8.051   0.583   0.002  1.2549 -0.9013 -0.5050
 7398SOL     OW23243   5.095   4.090   6.241  0.1007  0.0604 -0.5338
 7398SOL    HW123244   5.101   4.168   6.186  0.3089 -0.2892 -1.0244
 7398SOL    HW223245   5.187   4.066   6.259  0.0282  0.5582  0.5355
 7399SOL     OW23246   4.327   6.287   5.301  0.2367  0.1305  0.2577
 7399SOL    HW123247   4.342   6.288   5.207  1.4916 -0.3390  0.4266
 7399SOL    HW223248   4.266   6.359   5.317  0.3800  0.5133 -0.8500
 7400SOL     OW23249   3.710   8.175   6.121 -0.1359 -0.1747  0.0510
 7400SOL    HW123250   3.628   8.126   6.113 -0.3570  0.3569 -1.4056
 7400SOL    HW223251   3.702   8.223   6.203 -1.2348 -0.2295 -0.0108
 7401SOL     OW23252   0.875   2.920   1.128  0.0795 -0.4049  0.2374
 7401SOL    HW123253   0.913   2.985   1.187  1.8060 -2.9177  2.1143
 7401SOL    HW223254   0.783   2.915   1.155  0.4484 -0.2833  1.6054
 7402SOL     OW23255   4.647   4.084   3.700  0.0756  0.1072 -0.3235
 7402SOL    HW123256   4.673   4.130   3.620 -0.3148  0.0594 -0.4749
 7402SOL    HW223257   4.587   4.144   3.744 -0.0465 -0.0496 -0.2756
 7403SOL     OW23258   3.261   4.721   3.840  0.2207 -0.3945 -0.1850
 7403SOL    HW123259   3.225   4.722   3.929 -0.6795 -2.9850 -0.4371
 7403SOL    HW223260   3.206   4.782   3.792 -1.4571 -1.4410  0.3270
 7404SOL     OW23261   4.482   8.072   7.048  0.4493  0.1916  0.0661
 7404SOL    HW123262   4.467   7.996   7.104  0.1884 -0.6601 -1.1125
 7404SOL    HW223263   4.480   8.147   7.107 -0.6211 -0.5976  1.0644
 7405SOL     OW23264   5.660   1.709   1.280 -0.2141  0.5450 -0.7230
 7405SOL    HW123265   5.722   1.723   1.351  1.1366  0.9118 -1.9174
 7405SOL    HW223266   5.650   1.795   1.239 -1.3594  0.4456 -0.6867
 7406SOL     OW23267   3.686   1.224   0.295  0.2257  0.0260 -0.2203
 7406SOL    HW123268   3.745   1.299   0.284  1.6981 -0.7490  1.7235
 7406SOL    HW223269   3.610   1.260   0.341  1.0073  0.3472  0.8776
 7407SOL     OW23270   8.197   6.764   2.874  0.3984 -0.2078 -0.3264
 7407SOL    HW123271   8.187   6.816   2.794  3.1344  0.2358 -0.4595
 7407SOL    HW223272   8.176   6.824   2.945  0.7176  0.2414 -0.6086
 7408SOL     OW23273   2.678   7.517   6.208  0.5952  0.1388  0.2882
 7408SOL    HW123274   2.616   7.525   6.136  0.4441  2.0805  0.5728
 7408SOL    HW223275   2.685   7.423   6.224  0.3370 -0.3109 -1.9833
 7409SOL     OW23276   6.357   4.496   5.036 -1.0803 -0.1755  0.4027
 7409SOL    HW123277   6.355   4.401   5.027 -0.1843 -0.0973 -1.0410
 7409SOL    HW223278   6.434   4.514   5.090 -2.4575 -0.3265  2.5248
 7410SOL     OW23279   3.471   5.733   4.968 -0.5483  0.3576 -0.0274
 7410SOL    HW123280   3.384   5.741   5.007  0.2890  1.4970  1.7297
 7410SOL    HW223281   3.467   5.651   4.918 -2.1738 -0.3726  1.2048
 7411SOL     OW23282   0.435   6.573   3.752 -0.1604 -0.0652  0.0760
 7411SOL    HW123283   0.486   6.617   3.684  0.2723 -0.8835 -0.1395
 7411SOL    HW223284   0.344   6.595   3.730 -0.0508 -0.5497 -0.9409
 7412SOL     OW23285   7.840   0.188   4.230  0.6740 -0.4825 -0.1583
 7412SOL    HW123286   7.827   0.097   4.203  0.7811 -1.2080  2.0198
 7412SOL    HW223287   7.757   0.213   4.270  0.2393  0.8208 -1.7745
 7413SOL     OW23288   3.637   7.341   7.883 -0.3556 -0.0373  0.1677
 7413SOL    HW123289   3.688   7.384   7.814 -1.5900  0.2506 -0.5808
 7413SOL    HW223290   3.696   7.273   7.917  0.7716  0.7217 -0.2110
 7414SOL     OW23291   4.255   1.309   4.154 -0.4833  0.5259 -0.0818
 7414SOL    HW123292   4.163   1.288   4.169 -0.3937  0.0237 -0.2155
 7414SOL    HW223293   4.285   1.240   4.094 -0.0151  0.6692 -0.0084
 7415SOL     OW23294   3.275   6.700   1.960  0.1304 -0.1199  0.0179
 7415SOL    HW123295   3.299   6.777   2.011 -0.9536  0.2796 -0.0658
 7415SOL    HW223296   3.180   6.700   1.958  0.1277 -0.9563 -0.7606
 7416SOL     OW23297   7.327   6.910   0.255  0.1652 -0.6248 -0.8364
 7416SOL    HW123298   7.311   6.857   0.176 -2.0365 -0.4620 -0.5485
 7416SOL    HW223299   7.253   6.892   0.312 -0.4074  2.3235 -0.4848
 7417SOL     OW23300   3.014   2.127   0.086  0.3441 -0.0885  0.7934
 7417SOL    HW123301   2.924   2.111   0.113  0.9782 -1.3537  2.3326
 7417SOL    HW223302   3.066   2.113   0.166  1.7965  1.9825  0.2949
 7418SOL     OW23303   6.617   5.207   1.844  0.1323  0.0548 -0.0765
 7418SOL    HW123304   6.667   5.193   1.924 -0.3196  1.2783  0.4519
 7418SOL    HW223305   6.525   5.203   1.872 -0.0428 -0.4522 -0.7130
 7419SOL     OW23306   7.380   3.063   8.117 -0.0407  0.2948  0.3353
 7419SOL    HW123307   7.470   3.066   8.151  0.3328 -0.4262 -0.5338
 7419SOL    HW223308   7.390   3.037   8.026 -1.1172  0.6547  0.1017
 7420SOL     OW23309   5.118   6.991   1.862  0.0604 -0.0889  0.0068
 7420SOL    HW123310   5.116   6.953   1.949  2.0630 -1.7412 -0.5819
 7420SOL    HW223311   5.183   7.062   1.868 -0.5827  0.5104  0.0806
 7421SOL     OW23312   8.095   2.831   7.839 -0.1379 -0.6212 -0.3456
 7421SOL    HW123313   8.157   2.863   7.774 -1.7138  0.4794 -1.3722
 7421SOL    HW223314   8.057   2.752   7.798 -0.6827 -0.2793 -0.5099
 7422SOL     OW23315   0.910   2.885   8.229 -0.9098  0.3407 -0.0421
 7422SOL    HW123316   0.979   2.948   8.211 -1.5183  0.9907 -0.1159
 7422SOL    HW223317   0.949   2.800   8.209 -0.2756  0.7364 -0.5010
 7423SOL     OW23318   0.177   4.819   5.110 -0.1393  0.4254 -0.3612
 7423SOL    HW123319   0.245   4.881   5.137  0.6573 -0.6503  0.1899
 7423SOL    HW223320   0.113   4.873   5.063  1.3587  1.3861 -1.4021
 7424SOL     OW23321   5.790   4.175   6.259  0.1080 -0.6809 -0.1451
 7424SOL    HW123322   5.798   4.222   6.343 -2.5176 -0.0191 -0.1662
 7424SOL    HW223323   5.830   4.234   6.195  1.5849 -0.9126  0.5220
 7425SOL     OW23324   2.120   2.178   5.140 -0.0613 -0.1010 -0.0018
 7425SOL    HW123325   2.075   2.194   5.057  1.0137 -0.7675 -0.7327
 7425SOL    HW223326   2.056   2.129   5.193 -2.3080  3.6893  1.1696
 7426SOL     OW23327   0.591   6.018   7.662 -0.4300  0.2805 -0.1392
 7426SOL    HW123328   0.517   6.077   7.674 -1.5641 -1.0580 -0.3196
 7426SOL    HW223329   0.555   5.930   7.674  1.3594 -0.3843  0.9269
 7427SOL     OW23330   5.801   5.882   4.188  0.1694  0.4572 -0.1202
 7427SOL    HW123331   5.824   5.912   4.100 -0.7395 -1.6085 -1.1461
 7427SOL    HW223332   5.759   5.958   4.229 -0.6214  1.1016 -1.9844
 7428SOL     OW23333   6.742   4.240   4.697  0.3205  0.0283 -0.0050
 7428SOL    HW123334   6.829   4.271   4.672 -0.1970  0.5666 -1.2280
 7428SOL    HW223335   6.691   4.244   4.616 -0.0380 -3.2604 -0.0753
 7429SOL     OW23336   4.205   6.018   3.820  0.0948 -0.5962  0.9753
 7429SOL    HW123337   4.243   5.976   3.743 -0.2578  0.6190  0.0959
 7429SOL    HW223338   4.129   5.964   3.841 -1.5093  0.5441 -1.3279
 7430SOL     OW23339   0.713   3.846   1.731  0.1487  0.8208  0.4441
 7430SOL    HW123340   0.642   3.802   1.777 -1.3001  1.5837 -0.9621
 7430SOL    HW223341   0.754   3.778   1.678 -1.6926  0.9542 -1.2615
 7431SOL     OW23342   6.362   3.968   7.576 -0.0656 -0.1057 -0.5177
 7431SOL    HW123343   6.312   3.893   7.607 -0.8275  0.1172 -1.1720
 7431SOL    HW223344   6.296   4.037   7.563  0.7570  1.1395  1.3780
 7432SOL     OW23345   0.489   5.578   4.410  0.4192  0.3342  0.3642
 7432SOL    HW123346   0.508   5.658   4.361 -1.0735  1.3976  1.4407
 7432SOL    HW223347   0.514   5.507   4.351  2.2726  1.5713 -0.4141
 7433SOL     OW23348   6.585   3.032   3.478 -0.3262 -0.5136 -0.2808
 7433SOL    HW123349   6.552   2.981   3.552  1.6773 -2.6740 -0.7504
 7433SOL    HW223350   6.512   3.034   3.416 -1.2221 -0.7825  0.7409
 7434SOL     OW23351   3.357   3.397   2.060 -0.1526 -0.6553 -0.6197
 7434SOL    HW123352   3.413   3.321   2.073  1.3948  0.2549 -1.6454
 7434SOL    HW223353   3.291   3.369   1.997 -0.0466 -1.3548 -0.4236
 7435SOL     OW23354   6.395   5.643   7.531  0.3146 -0.1981  0.0036
 7435SOL    HW123355   6.455   5.711   7.565  1.2158 -1.1174  0.3145
 7435SOL    HW223356   6.308   5.679   7.544  0.7924  1.3711 -0.8380
 7436SOL     OW23357   0.662   5.121   8.199 -0.1534 -0.2675 -0.2592
 7436SOL    HW123358   0.738   5.132   8.142 -0.3396  0.3390 -0.3898
 7436SOL    HW223359   0.595   5.179   8.163  0.5852  2.3082  2.1397
 7437SOL     OW23360   1.159   6.083   3.146  0.4093 -0.0160  0.0284
 7437SOL    HW123361   1.079   6.105   3.195  0.3781 -0.6596  0.2884
 7437SOL    HW223362   1.181   5.995   3.176  1.6838  0.4659  0.5634
 7438SOL     OW23363   2.337   4.440   3.303  0.1932  0.0779 -0.1210
 7438SOL    HW123364   2.429   4.467   3.305  0.5726 -1.1476 -0.3525
 7438SOL    HW223365   2.332   4.376   3.232 -0.6964 -0.3681  0.3327
 7439SOL     OW23366   8.203   2.432   1.331 -0.0150  0.1187  0.3000
 7439SOL    HW123367   8.224   2.510   1.382 -0.5566 -0.0097  0.7241
 7439SOL    HW223368   8.118   2.403   1.364 -0.1648 -0.2287 -0.3635
 7440SOL     OW23369   5.569   4.622   6.402  0.1185 -0.1395  0.2688
 7440SOL    HW123370   5.489   4.642   6.451  0.3324 -0.7006  0.8641
 7440SOL    HW223371   5.637   4.671   6.448  0.1232  0.3265 -0.2282
 7441SOL     OW23372   8.041   4.900   1.919  0.0884 -0.2245 -0.6256
 7441SOL    HW123373   7.952   4.930   1.937  0.7949  1.7381 -0.1376
 7441SOL    HW223374   8.062   4.933   1.832  0.7659  0.4051 -0.2337
 7442SOL     OW23375   6.234   7.286   2.380  0.6382  0.0644  0.0583
 7442SOL    HW123376   6.276   7.325   2.457 -1.5069  2.9900 -0.0435
 7442SOL    HW223377   6.237   7.356   2.314 -0.6289 -1.1165 -1.3115
 7443SOL     OW23378   7.428   5.994   6.844  0.4523  0.4373  0.0811
 7443SOL    HW123379   7.416   5.969   6.753  2.4653  0.2558 -0.1681
 7443SOL    HW223380   7.404   5.916   6.894 -0.2737  0.4147 -0.2881
 7444SOL     OW23381   6.420   5.765   6.851 -0.5740 -0.4183  0.1793
 7444SOL    HW123382   6.430   5.671   6.864 -1.7350 -0.7329 -0.9359
 7444SOL    HW223383   6.335   5.774   6.808 -0.3008  1.1092 -0.0951
 7445SOL     OW23384   1.796   8.074   2.953 -0.2491  0.2734 -0.2166
 7445SOL    HW123385   1.774   8.022   3.030  0.4530  0.3048  0.0143
 7445SOL    HW223386   1.863   8.135   2.984  2.4528 -1.8186 -1.5244
 7446SOL     OW23387   2.396   2.823   6.294 -0.4133 -0.1886  0.9756
 7446SOL    HW123388   2.345   2.898   6.326  0.8957  0.1388  2.4089
 7446SOL    HW223389   2.430   2.852   6.209 -0.3398  0.6336  1.2798
 7447SOL     OW23390   5.252   2.000   5.708 -0.0921 -0.3112  0.0519
 7447SOL    HW123391   5.322   1.958   5.658  0.1777 -0.2415  0.3684
 7447SOL    HW223392   5.287   2.087   5.729 -1.0443  0.5126 -1.5146
 7448SOL     OW23393   2.456   0.893   1.489 -0.5965  0.3624 -0.6649
 7448SOL    HW123394   2.435   0.981   1.520 -0.5123  0.1153  0.1082
 7448SOL    HW223395   2.386   0.873   1.427 -0.1729  1.2863 -1.4663
 7449SOL     OW23396   7.385   1.166   3.190  0.0234 -0.0022 -0.5352
 7449SOL    HW123397   7.340   1.128   3.114  1.9240 -2.1455 -0.6708
 7449SOL    HW223398   7.314   1.191   3.249 -1.4141 -2.5020 -1.0683
 7450SOL     OW23399   1.438   5.225   0.595 -0.2082 -0.1068  0.2233
 7450SOL    HW123400   1.392   5.287   0.539  0.3245  1.9031  1.8959
 7450SOL    HW223401   1.500   5.181   0.536 -0.2001  1.3663 -0.9349
 7451SOL     OW23402   2.305   3.238   5.861  0.6756  0.0623  0.3781
 7451SOL    HW123403   2.392   3.262   5.893  1.1249 -0.1605 -0.6047
 7451SOL    HW223404   2.320   3.215   5.769 -0.5406  0.6496  0.0192
 7452SOL     OW23405   5.564   6.923   7.323  1.2384 -0.1432 -0.9780
 7452SOL    HW123406   5.552   6.898   7.232 -0.4824  0.7472 -1.0415
 7452SOL    HW223407   5.484   6.893   7.367 -0.0393  3.2499 -0.6765
 7453SOL     OW23408   3.287   0.382   1.848 -0.9105  0.1801  0.6119
 7453SOL    HW123409   3.344   0.431   1.908 -0.0493  0.3620 -0.3167
 7453SOL    HW223410   3.327   0.394   1.762 -1.5688 -0.8833  0.1320
 7454SOL     OW23411   0.224   1.488   2.143  0.1421  0.2755 -0.4075
 7454SOL    HW123412   0.186   1.576   2.140 -0.8611  0.0361  2.1895
 7454SOL    HW223413   0.151   1.431   2.165  0.7884 -1.2498 -2.0273
 7455SOL     OW23414   1.588   5.817   8.147  0.2587  0.4581 -0.0679
 7455SOL    HW123415   1.620   5.869   8.220  1.9117  0.2007 -0.5537
 7455SOL    HW223416   1.501   5.788   8.174  0.5803  0.8690  1.5298
 7456SOL     OW23417   4.165   8.132   3.058 -0.2706 -0.1727  0.5981
 7456SOL    HW123418   4.193   8.043   3.042 -0.2708 -0.3328  1.4137
 7456SOL    HW223419   4.210   8.185   2.993 -1.8534 -0.9911 -1.2641
 7457SOL     OW23420   5.614   3.234   3.829 -0.4941 -0.1840  0.5337
 7457SOL    HW123421   5.568   3.318   3.828  1.1662  0.7866  1.2683
 7457SOL    HW223422   5.640   3.222   3.920 -0.5890 -1.4486  0.4144
 7458SOL     OW23423   6.980   5.879   3.794 -0.0883 -0.2470 -0.1347
 7458SOL    HW123424   6.914   5.933   3.752 -0.4458  0.2131  0.9850
 7458SOL    HW223425   7.051   5.873   3.729 -0.9947 -0.3215 -1.1396
 7459SOL     OW23426   5.701   5.292   6.777 -0.2476 -0.3556  0.8050
 7459SOL    HW123427   5.748   5.303   6.694 -0.2262 -0.5865  0.7862
 7459SOL    HW223428   5.690   5.198   6.786 -1.0505 -0.2928  0.6145
 7460SOL     OW23429   5.939   7.439   5.229 -0.2380 -0.5386 -0.1423
 7460SOL    HW123430   5.860   7.483   5.197 -0.1873  0.4377  1.0138
 7460SOL    HW223431   5.907   7.356   5.265 -0.4277 -1.1686 -1.6897
 7461SOL     OW23432   1.044   4.498   0.933  0.4695  0.4424  0.0715
 7461SOL    HW123433   0.953   4.506   0.960  0.3482  0.5506 -0.3662
 7461SOL    HW223434   1.052   4.408   0.902  0.9721 -0.1461  1.7876
 7462SOL     OW23435   5.679   0.329   0.187  0.2933  0.4273  0.3203
 7462SOL    HW123436   5.735   0.272   0.241  2.5430  0.3360 -1.8858
 7462SOL    HW223437   5.682   0.288   0.100  1.1340  3.2599 -1.1124
 7463SOL     OW23438   5.218   7.281   4.406 -0.4594 -0.0138 -0.1868
 7463SOL    HW123439   5.197   7.211   4.345  1.1386 -1.5774  0.9706
 7463SOL    HW223440   5.140   7.337   4.406 -2.2220 -2.3328 -0.3873
 7464SOL     OW23441   5.388   1.989   1.801 -0.6456  0.0909 -0.1105
 7464SOL    HW123442   5.423   2.071   1.765 -1.5218  0.6965  0.3854
 7464SOL    HW223443   5.294   1.993   1.783 -0.7456 -0.6608  0.2072
 7465SOL     OW23444   5.800   5.033   3.496 -0.0564  0.3309  0.3707
 7465SOL    HW123445   5.718   5.056   3.452 -0.4434 -0.3825  0.6973
 7465SOL    HW223446   5.867   5.080   3.447 -0.7145  1.3935  0.4621
 7466SOL     OW23447   7.597   3.500   1.730 -0.4344 -0.5443 -0.2034
 7466SOL    HW123448   7.522   3.441   1.731  0.3660 -1.5974 -0.3232
 7466SOL    HW223449   7.651   3.468   1.658 -0.0158  0.3973 -0.3256
 7467SOL     OW23450   5.855   4.359   7.717 -0.0816  0.1442 -0.4491
 7467SOL    HW123451   5.865   4.410   7.798 -0.2035 -0.3048 -0.1495
 7467SOL    HW223452   5.794   4.411   7.664  2.2928  1.9885 -1.5390
 7468SOL     OW23453   2.703   0.568   7.430 -0.0678 -0.5197 -0.3979
 7468SOL    HW123454   2.794   0.554   7.455 -0.1138  0.1456  0.1749
 7468SOL    HW223455   2.653   0.542   7.508 -0.2628  0.7286 -0.0788
 7469SOL     OW23456   4.876   6.267   2.343  0.4043 -0.7272  0.0944
 7469SOL    HW123457   4.791   6.252   2.300  1.6115 -0.6549 -2.5004
 7469SOL    HW223458   4.894   6.360   2.329  1.6776 -1.1048 -0.9804
 7470SOL     OW23459   4.681   1.779   3.705  0.0607  0.0675  0.2124
 7470SOL    HW123460   4.647   1.858   3.747  0.0794  0.8429 -1.1772
 7470SOL    HW223461   4.633   1.773   3.622 -0.0892 -1.5095  0.3703
 7471SOL     OW23462   4.622   3.593   6.950 -0.0064  0.1832 -0.4112
 7471SOL    HW123463   4.608   3.504   6.983 -1.2193  0.3040 -0.5671
 7471SOL    HW223464   4.596   3.650   7.022 -1.2934  0.4275 -1.0435
 7472SOL     OW23465   1.511   2.596   8.040 -0.0196 -0.5811  0.1134
 7472SOL    HW123466   1.597   2.598   8.082  0.9951 -0.3923 -1.8400
 7472SOL    HW223467   1.463   2.528   8.087  0.2416  1.0307  2.9127
 7473SOL     OW23468   3.690   5.910   1.360 -0.3800 -0.3032 -0.8155
 7473SOL    HW123469   3.698   5.996   1.320 -1.0893  0.5275  0.7502
 7473SOL    HW223470   3.779   5.890   1.391 -0.2727 -0.0266 -0.9423
 7474SOL     OW23471   5.806   2.874   4.381  0.0562  0.1741  0.1251
 7474SOL    HW123472   5.866   2.803   4.358 -0.6866 -0.1674 -0.8230
 7474SOL    HW223473   5.861   2.938   4.426  1.2686  0.1426 -1.2358
 7475SOL     OW23474   1.435   1.857   0.442 -0.8054 -0.2816  0.3400
 7475SOL    HW123475   1.519   1.863   0.488 -1.2909  1.1540  1.1128
 7475SOL    HW223476   1.416   1.764   0.439  1.5569 -0.7937 -1.2867
 7476SOL     OW23477   2.430   7.420   3.018  0.5192 -0.4603 -0.3561
 7476SOL    HW123478   2.521   7.415   2.990  0.7441  0.1384  0.2578
 7476SOL    HW223479   2.428   7.375   3.102  0.3473 -0.0582 -0.1425
 7477SOL     OW23480   5.659   2.785   6.913 -0.0156 -0.5909 -0.0559
 7477SOL    HW123481   5.577   2.750   6.877 -0.3325  2.2999 -2.4615
 7477SOL    HW223482   5.633   2.828   6.995 -1.4874  2.2763 -1.8847
 7478SOL     OW23483   3.470   7.370   1.779  0.6107  0.7590  0.3643
 7478SOL    HW123484   3.559   7.392   1.755 -0.0434  1.9458 -1.0779
 7478SOL    HW223485   3.416   7.404   1.708 -0.9378 -0.6566  0.7870
 7479SOL     OW23486   0.079   0.560   2.821  0.2156 -0.3092  0.0466
 7479SOL    HW123487   0.035   0.623   2.879  0.0090 -0.7643  0.3869
 7479SOL    HW223488   0.171   0.587   2.823  0.2122 -0.3113  0.5812
 7480SOL     OW23489   4.188   6.408   1.434 -0.3698  0.2322  0.3212
 7480SOL    HW123490   4.258   6.387   1.497 -0.4933 -1.8725 -0.1804
 7480SOL    HW223491   4.235   6.436   1.355 -0.2096  2.5226  1.1446
 7481SOL     OW23492   3.057   6.629   1.463 -0.1827  0.4750 -0.2815
 7481SOL    HW123493   3.040   6.645   1.371  1.7269  3.6122 -0.2214
 7481SOL    HW223494   3.149   6.603   1.466  0.4637  2.6197  0.8113
 7482SOL     OW23495   4.655   1.918   6.396 -0.3071  0.2463  0.4017
 7482SOL    HW123496   4.586   1.941   6.334 -0.2757 -0.8096 -0.0411
 7482SOL    HW223497   4.720   1.988   6.387 -0.5944  0.4308 -0.3086
 7483SOL     OW23498   3.302   4.666   4.729 -0.5695 -0.1806  0.5052
 7483SOL    HW123499   3.337   4.709   4.651  2.4809 -1.5431  0.9565
 7483SOL    HW223500   3.223   4.622   4.699  1.2821 -1.9229 -2.3145
 7484SOL     OW23501   6.745   5.555   2.325 -0.1346  0.7550  0.1124
 7484SOL    HW123502   6.685   5.589   2.391  0.1041 -2.4500  2.1651
 7484SOL    HW223503   6.692   5.496   2.272  0.5325  0.3288 -0.0904
 7485SOL     OW23504   3.005   3.607   6.695  0.1219 -1.3010  0.2159
 7485SOL    HW123505   2.997   3.518   6.661  0.0579 -1.6568  1.1416
 7485SOL    HW223506   3.086   3.607   6.745  0.4417 -0.6594 -0.2966
 7486SOL     OW23507   0.258   1.381   1.649  0.2756  0.0339  0.3810
 7486SOL    HW123508   0.317   1.310   1.624  0.5098 -0.3750  1.9854
 7486SOL    HW223509   0.251   1.374   1.744  0.4512  2.2684  0.6207
 7487SOL     OW23510   0.417   4.644   3.411  0.3099 -0.2740 -0.1781
 7487SOL    HW123511   0.323   4.637   3.426  0.0333 -0.7909 -1.9290
 7487SOL    HW223512   0.446   4.713   3.470 -1.4280  0.9438 -0.6820
 7488SOL     OW23513   1.573   4.477   4.172 -0.6018 -0.7021  0.6368
 7488SOL    HW123514   1.630   4.406   4.201  1.4718  0.2428 -0.8901
 7488SOL    HW223515   1.575   4.472   4.076  1.4383  2.6437  0.3245
 7489SOL     OW23516   2.135   8.277   2.042 -0.2319 -0.3994  0.0442
 7489SOL    HW123517   2.200   8.323   1.989 -0.5546 -0.4280 -0.3750
 7489SOL    HW223518   2.126   8.332   2.121  0.5705 -0.5872  0.2778
 7490SOL     OW23519   6.678   7.808   2.426 -0.3408  0.7837 -0.4960
 7490SOL    HW123520   6.751   7.806   2.489 -0.7026 -1.2056 -0.0558
 7490SOL    HW223521   6.714   7.853   2.350  1.2992  0.0474 -0.2131
 7491SOL     OW23522   5.170   1.060   3.093  0.3798  0.2872  0.6689
 7491SOL    HW123523   5.177   1.138   3.038 -0.1402 -1.1074 -1.5188
 7491SOL    HW223524   5.259   1.024   3.095  0.5089  0.6160  1.2360
 7492SOL     OW23525   6.318   6.814   3.491  0.2009  0.0588  0.0811
 7492SOL    HW123526   6.313   6.909   3.490  1.4298  0.1406  0.5401
 7492SOL    HW223527   6.226   6.785   3.492 -0.2047  1.1939 -1.3057
 7493SOL     OW23528   6.257   2.986   7.349 -0.4153 -0.1003 -0.1535
 7493SOL    HW123529   6.301   3.028   7.275  2.5567  1.8470  2.4938
 7493SOL    HW223530   6.184   3.044   7.369  0.3897  0.8668  0.0680
 7494SOL     OW23531   4.728   5.898   6.478  0.3635 -0.0898  0.1148
 7494SOL    HW123532   4.687   5.984   6.488  0.1050 -0.1997 -0.0210
 7494SOL    HW223533   4.820   5.914   6.500 -0.0506 -0.1807  2.1139
 7495SOL     OW23534   4.351   7.952   1.238  0.1508 -0.4002 -0.1587
 7495SOL    HW123535   4.261   7.945   1.271 -0.2526 -0.8409 -1.2901
 7495SOL    HW223536   4.400   7.990   1.310 -1.4906  2.5431 -0.4383
 7496SOL     OW23537   4.852   6.038   0.804  0.3531 -0.1883 -0.5257
 7496SOL    HW123538   4.830   5.949   0.775 -0.6376  0.6045 -2.3577
 7496SOL    HW223539   4.942   6.051   0.773  0.2227 -0.2753 -0.9472
 7497SOL     OW23540   4.547   5.611   5.742  0.5779 -0.0992 -0.0904
 7497SOL    HW123541   4.627   5.584   5.696  0.7214  0.6901 -0.3260
 7497SOL    HW223542   4.578   5.664   5.815  0.2869 -0.2262  0.1276
 7498SOL     OW23543   4.727   7.565   2.189 -0.3164  0.1492 -0.3980
 7498SOL    HW123544   4.648   7.618   2.201  0.6296  1.7323 -0.8362
 7498SOL    HW223545   4.759   7.549   2.277  0.9769  2.9094 -0.2498
 7499SOL     OW23546   6.740   3.459   4.463  0.1699  0.2682 -0.1757
 7499SOL    HW123547   6.811   3.506   4.507  0.3769 -0.1618 -0.0491
 7499SOL    HW223548   6.693   3.415   4.534  0.6773 -0.6626 -0.3967
 7500SOL     OW23549   6.476   5.853   2.884 -0.4979  0.3189  0.3386
 7500SOL    HW123550   6.445   5.865   2.974  0.9116  0.2178  0.8663
 7500SOL    HW223551   6.517   5.937   2.862 -2.0168  0.8142 -0.7224
 7501SOL     OW23552   5.417   1.705   1.901 -0.0069 -0.9176  0.1149
 7501SOL    HW123553   5.382   1.792   1.923  2.3533  0.0688  0.2798
 7501SOL    HW223554   5.419   1.704   1.805  3.0536  0.7142  0.0065
 7502SOL     OW23555   8.022   2.972   5.975 -0.6697 -0.3224 -0.1281
 7502SOL    HW123556   8.065   2.918   5.908 -0.3187  1.3175 -1.2689
 7502SOL    HW223557   8.094   3.003   6.030 -0.6537  0.4924 -0.6031
 7503SOL     OW23558   4.778   5.700   5.042 -0.5121  0.2458  0.3697
 7503SOL    HW123559   4.692   5.657   5.044 -0.0820 -0.6077  0.9959
 7503SOL    HW223560   4.797   5.713   4.949 -0.1338 -2.0000  0.0940
 7504SOL     OW23561   7.118   0.828   6.522 -0.3616  0.0247 -0.1744
 7504SOL    HW123562   7.151   0.898   6.579  1.5712 -0.0651 -1.1209
 7504SOL    HW223563   7.093   0.873   6.441 -2.9510  0.1265  0.5650
 7505SOL     OW23564   8.191   2.924   1.792  0.1403 -0.0335  0.6175
 7505SOL    HW123565   8.114   2.874   1.765 -0.8693  1.1601  1.1767
 7505SOL    HW223566   8.199   2.907   1.886  0.6253 -0.2264  0.5448
 7506SOL     OW23567   7.129   3.952   8.205 -0.4779 -0.5276  0.4947
 7506SOL    HW123568   7.198   3.892   8.179  0.0349 -0.2426  1.1895
 7506SOL    HW223569   7.057   3.896   8.234  0.4802 -0.8365  2.4241
 7507SOL     OW23570   4.255   7.220   3.452  0.0505 -0.1652  0.4523
 7507SOL    HW123571   4.171   7.179   3.472  0.1315 -0.0198  1.1254
 7507SOL    HW223572   4.269   7.281   3.524  1.3980 -1.1849  1.1005
 7508SOL     OW23573   0.954   5.997   0.367 -0.3098 -0.4689 -0.2695
 7508SOL    HW123574   0.991   5.916   0.332 -0.9205 -1.0984  0.4927
 7508SOL    HW223575   0.877   5.968   0.417 -0.6032  0.5959 -0.0881
 7509SOL     OW23576   7.437   5.068   0.611  0.1054 -0.4063 -0.4612
 7509SOL    HW123577   7.344   5.057   0.593  0.4891 -1.2056 -2.1289
 7509SOL    HW223578   7.475   4.982   0.594  1.3180  0.2094 -0.9827
 7510SOL     OW23579   5.632   0.146   0.003  0.1600 -0.5233 -0.1442
 7510SOL    HW123580   5.640   0.055   0.031  2.8717  0.6416  3.5677
 7510SOL    HW223581   5.681   0.151  -0.079  1.3718 -2.1171  0.4548
 7511SOL     OW23582   4.266   5.213   2.749  0.3024 -0.3281  0.7151
 7511SOL    HW123583   4.317   5.174   2.820 -0.5756 -0.1638  1.4543
 7511SOL    HW223584   4.226   5.291   2.788  1.5978  1.0394 -0.5922
 7512SOL     OW23585   2.264   5.988   1.965  0.7575  0.3522 -0.0100
 7512SOL    HW123586   2.198   6.010   1.899 -0.5169 -0.0992  1.0647
 7512SOL    HW223587   2.335   6.050   1.950  1.0629 -0.5036 -2.5827
 7513SOL     OW23588   1.217   1.521   3.184  0.4566  0.4131 -0.0305
 7513SOL    HW123589   1.283   1.485   3.244  0.8845  0.9353 -0.1908
 7513SOL    HW223590   1.134   1.485   3.217  0.7621  0.1453  0.4649
 7514SOL     OW23591   6.724   2.724   2.570  0.5833  0.2865 -0.6002
 7514SOL    HW123592   6.653   2.684   2.621  0.7172  0.5376 -0.2079
 7514SOL    HW223593   6.752   2.656   2.510 -1.6294  0.8955 -2.4904
 7515SOL     OW23594   5.571   0.590   5.875 -0.0536 -0.5274 -0.1248
 7515SOL    HW123595   5.512   0.636   5.816  1.1820  1.2510 -0.0708
 7515SOL    HW223596   5.607   0.519   5.822 -0.5394 -0.2563 -0.8430
 7516SOL     OW23597   4.742   5.534   0.582 -0.1288 -0.2417  0.0832
 7516SOL    HW123598   4.723   5.454   0.533  4.2098 -0.6374 -1.4404
 7516SOL    HW223599   4.737   5.603   0.516  0.8682 -0.0475  0.1899
 7517SOL     OW23600   0.784   1.472   4.700 -0.3242  0.3977 -0.3031
 7517SOL    HW123601   0.689   1.468   4.692 -0.2068 -0.3988 -1.7310
 7517SOL    HW223602   0.801   1.457   4.793 -1.5817  0.5938 -0.0173
 7518SOL     OW23603   6.747   1.751   3.076  0.3302 -0.1731  0.3483
 7518SOL    HW123604   6.834   1.731   3.042  1.0449  1.4805  1.0888
 7518SOL    HW223605   6.709   1.666   3.097  1.3502 -0.9896 -0.9629
 7519SOL     OW23606   3.693   1.358   5.275  0.5107  0.2990 -0.2382
 7519SOL    HW123607   3.619   1.400   5.320  0.5309 -1.3345  1.4274
 7519SOL    HW223608   3.672   1.368   5.182  0.1938  3.3250  0.0460
 7520SOL     OW23609   5.169   2.531   6.892 -0.7120 -0.0808 -0.0153
 7520SOL    HW123610   5.107   2.460   6.876 -1.0937  0.3169 -0.3415
 7520SOL    HW223611   5.160   2.550   6.985 -0.7278 -0.3511  0.0393
 7521SOL     OW23612   7.559   4.601   4.388 -0.6131 -0.3316 -0.2590
 7521SOL    HW123613   7.591   4.548   4.460 -0.2575 -0.8169 -0.7593
 7521SOL    HW223614   7.638   4.624   4.338 -0.4221  2.6340  1.1925
 7522SOL     OW23615   6.527   7.391   7.391  1.0192 -0.4442  0.0515
 7522SOL    HW123616   6.605   7.370   7.340  0.8954 -0.0297 -0.3197
 7522SOL    HW223617   6.461   7.328   7.361  0.6778  0.3763 -0.9855
 7523SOL     OW23618   0.855   0.529   3.902  0.1366  0.0094 -0.0628
 7523SOL    HW123619   0.900   0.486   3.829 -2.4680  0.2396 -1.9603
 7523SOL    HW223620   0.880   0.621   3.894 -0.2941  0.0737 -0.8719
 7524SOL     OW23621   1.569   5.531   7.489  0.1285  0.2288  0.2045
 7524SOL    HW123622   1.588   5.618   7.523  1.1204  0.5892 -1.1820
 7524SOL    HW223623   1.476   5.534   7.464  0.6773  1.6995 -1.9532
 7525SOL     OW23624   1.619   4.240   7.094 -0.3064  0.2650 -0.2276
 7525SOL    HW123625   1.674   4.208   7.023 -1.4981 -1.2336 -0.5276
 7525SOL    HW223626   1.554   4.296   7.050 -0.7266 -0.2414 -0.2560
 7526SOL     OW23627   4.727   2.971   6.901  0.1041  0.2362 -0.2466
 7526SOL    HW123628   4.783   3.045   6.922 -0.5127  0.8104 -0.6087
 7526SOL    HW223629   4.678   2.998   6.824 -0.8381 -0.1672  0.1905
 7527SOL     OW23630   5.015   4.372   5.670 -0.1902  0.7442 -0.8001
 7527SOL    HW123631   5.019   4.421   5.752 -1.0971  2.5711 -1.7914
 7527SOL    HW223632   4.939   4.408   5.625 -1.6486 -2.4174 -1.1221
 7528SOL     OW23633   3.436   2.310   4.844 -0.2507 -0.0361  0.5065
 7528SOL    HW123634   3.530   2.294   4.835 -0.0175  0.3420  2.1078
 7528SOL    HW223635   3.427   2.356   4.927 -1.8159  0.3415  0.1513
 7529SOL     OW23636   3.198   4.842   7.606  0.6276  0.1252  0.0891
 7529SOL    HW123637   3.205   4.898   7.529 -0.7542  0.6943  0.3458
 7529SOL    HW223638   3.114   4.865   7.645  1.4892  0.2169  2.0540
 7530SOL     OW23639   4.776   4.823   4.582 -0.1552  0.7239  0.1072
 7530SOL    HW123640   4.841   4.786   4.642  0.9541  1.3670 -0.6465
 7530SOL    HW223641   4.706   4.853   4.639  0.7949  1.1749  1.0868
 7531SOL     OW23642   3.221   1.743   3.350  0.1014  0.2947  0.0398
 7531SOL    HW123643   3.178   1.661   3.328 -0.3919  0.1031  1.5775
 7531SOL    HW223644   3.149   1.804   3.366  0.4566  1.2321 -1.6560
 7532SOL     OW23645   1.452   3.874   2.104  0.1936  0.0645 -0.2907
 7532SOL    HW123646   1.431   3.896   2.013  0.2383  0.8471 -0.1116
 7532SOL    HW223647   1.367   3.854   2.143  0.0781  0.5935 -0.2717
 7533SOL     OW23648   7.761   0.375   7.790 -0.0986 -0.2634 -0.1180
 7533SOL    HW123649   7.752   0.284   7.819 -1.6797 -0.2487 -0.4808
 7533SOL    HW223650   7.702   0.424   7.847 -0.7023  0.2441 -1.1497
 7534SOL     OW23651   3.996   3.265   6.202 -0.1359 -0.3072 -0.3862
 7534SOL    HW123652   4.063   3.205   6.233  1.2799  1.3360 -0.0940
 7534SOL    HW223653   4.041   3.349   6.191 -1.9211  0.6345 -1.1654
 7535SOL     OW23654   5.088   6.346   7.463 -0.5871 -0.5338 -0.7378
 7535SOL    HW123655   5.161   6.322   7.405 -0.7752 -0.8775 -0.8346
 7535SOL    HW223656   5.017   6.370   7.404  0.4053  3.0883 -0.7492
 7536SOL     OW23657   0.528   2.759   5.404  0.9800  0.7136  0.0577
 7536SOL    HW123658   0.571   2.740   5.487  0.3235  0.9395  0.4606
 7536SOL    HW223659   0.585   2.722   5.337  0.8667 -0.6180  0.6831
 7537SOL     OW23660   2.321   2.066   6.301  0.0312  0.0579 -0.1922
 7537SOL    HW123661   2.393   2.127   6.311 -0.3614  0.7929 -1.6272
 7537SOL    HW223662   2.358   1.992   6.253  0.2910 -0.4581  0.7810
 7538SOL     OW23663   0.755   7.858   3.771  0.9764  0.1563  0.3400
 7538SOL    HW123664   0.780   7.767   3.757  1.1546  0.0814  1.0973
 7538SOL    HW223665   0.750   7.867   3.866 -1.6813  0.2305  0.2609
 7539SOL     OW23666   0.481   6.236   1.231  0.1024 -0.6177  0.0296
 7539SOL    HW123667   0.533   6.156   1.223 -1.6668 -1.7615 -0.4830
 7539SOL    HW223668   0.486   6.257   1.325  0.6404 -1.2716  0.1626
 7540SOL     OW23669   3.368   0.173   0.400  0.0426  0.2411  0.0975
 7540SOL    HW123670   3.382   0.081   0.422 -0.6287  1.1129  5.5087
 7540SOL    HW223671   3.454   0.214   0.409 -0.2206  0.6041  1.0992
 7541SOL     OW23672   2.876   5.606   0.693  0.5292  0.2668 -0.1383
 7541SOL    HW123673   2.942   5.633   0.758  0.5107 -0.6625  0.2758
 7541SOL    HW223674   2.793   5.635   0.731  0.5904  0.3917 -0.0985
 7542SOL     OW23675   6.418   3.870   1.144 -0.4478 -0.2019 -0.2147
 7542SOL    HW123676   6.402   3.776   1.136 -0.0507 -0.4803  1.8001
 7542SOL    HW223677   6.512   3.877   1.160  0.1131  0.8020 -3.2577
 7543SOL     OW23678   7.304   1.125   7.292 -0.1166 -0.0303 -0.2155
 7543SOL    HW123679   7.368   1.058   7.314 -2.5944 -2.3183  0.6508
 7543SOL    HW223680   7.303   1.184   7.368  1.2686  0.3368 -0.4701
 7544SOL     OW23681   6.972   7.760   4.048  0.0784  0.0367 -0.3388
 7544SOL    HW123682   6.957   7.826   3.981  1.1573  1.7047  0.9673
 7544SOL    HW223683   7.054   7.718   4.021 -0.2959 -0.3668 -0.8613
 7545SOL     OW23684   4.754   4.702   1.046  0.1081  0.7905  0.5284
 7545SOL    HW123685   4.845   4.727   1.066  0.0506  1.6860 -0.2398
 7545SOL    HW223686   4.702   4.752   1.110  0.2212 -1.5020  2.5502
 7546SOL     OW23687   1.476   2.684   4.388  0.0326  0.7511 -0.2787
 7546SOL    HW123688   1.433   2.615   4.339  0.1285  0.2226  0.3700
 7546SOL    HW223689   1.568   2.658   4.392 -0.0364  0.6058  0.4762
 7547SOL     OW23690   4.502   5.551   3.925  0.0975 -0.3100  0.1073
 7547SOL    HW123691   4.445   5.621   3.955 -0.4688 -0.4915 -0.5323
 7547SOL    HW223692   4.466   5.472   3.965 -0.6841 -0.5592 -1.0433
 7548SOL     OW23693   2.784   0.001   8.176 -0.3530 -0.0757 -0.0614
 7548SOL    HW123694   2.872  -0.014   8.142  0.3831  0.3186  1.5723
 7548SOL    HW223695   2.730  -0.067   8.135  1.0279 -1.2864  0.0547
 7549SOL     OW23696   1.085   0.913   7.243 -0.7555 -0.0973  0.3693
 7549SOL    HW123697   1.151   0.941   7.180 -0.3712 -2.2360 -0.2650
 7549SOL    HW223698   1.002   0.918   7.196 -0.7598  0.4116  0.4261
 7550SOL     OW23699   7.444   3.495   7.070  0.0957 -0.6424  0.3207
 7550SOL    HW123700   7.393   3.576   7.068  0.8835 -0.1462 -0.5265
 7550SOL    HW223701   7.522   3.515   7.018  0.7963 -1.6172  0.9561
 7551SOL     OW23702   0.713   0.415   0.055  0.4084  0.2895  0.2434
 7551SOL    HW123703   0.639   0.383   0.005  0.4927 -2.4813  1.7274
 7551SOL    HW223704   0.785   0.355   0.034  1.0832  0.4699  1.8768
 7552SOL     OW23705   3.119   4.562   2.223  0.0209 -0.3090 -0.3044
 7552SOL    HW123706   3.073   4.501   2.281  0.6188 -0.7997 -0.3333
 7552SOL    HW223707   3.061   4.638   2.217 -1.4569 -1.4506 -1.4508
 7553SOL     OW23708   7.284   5.024   1.585  0.1496 -0.1629  0.6266
 7553SOL    HW123709   7.259   4.937   1.616 -1.1389  0.2354  0.7771
 7553SOL    HW223710   7.376   5.033   1.610  1.0322 -2.3718 -1.4817
 7554SOL     OW23711   5.752   2.285   1.365 -0.0421 -0.1094 -0.0219
 7554SOL    HW123712   5.733   2.368   1.409 -2.6392 -1.5577  1.9240
 7554SOL    HW223713   5.712   2.293   1.279 -1.7100  0.1436  0.7433
 7555SOL     OW23714   3.963   1.403   3.026  0.1388 -0.3983  0.0939
 7555SOL    HW123715   3.896   1.368   3.085 -0.0685 -0.8416 -0.3947
 7555SOL    HW223716   4.038   1.419   3.082 -0.2158 -0.3624  0.5639
 7556SOL     OW23717   5.011   0.002   5.518  0.2705 -0.0253  0.0335
 7556SOL    HW123718   4.922   0.035   5.525  0.2389 -0.3471  5.4077
 7556SOL    HW223719   5.059   0.070   5.471 -2.2733  1.3913 -0.6450
 7557SOL     OW23720   6.676   5.788   0.405 -0.0245 -0.4581  0.1698
 7557SOL    HW123721   6.600   5.839   0.376 -0.4287 -1.5565 -0.7620
 7557SOL    HW223722   6.742   5.803   0.338 -0.0509 -0.9354  0.0334
 7558SOL     OW23723   6.923   5.745   7.896  0.5044  0.0397 -0.1650
 7558SOL    HW123724   6.920   5.841   7.890 -1.5005  0.1575  1.5444
 7558SOL    HW223725   6.912   5.727   7.989  0.8901 -1.8794 -0.4552
 7559SOL     OW23726   6.336   5.873   3.604 -0.1580 -0.1812 -0.5959
 7559SOL    HW123727   6.416   5.821   3.607 -1.4933 -2.3442 -0.2849
 7559SOL    HW223728   6.337   5.923   3.685  0.4516 -0.8708 -0.1634
 7560SOL     OW23729   5.988   2.933   7.734 -0.4172  0.1168 -0.0186
 7560SOL    HW123730   6.032   2.920   7.650 -1.4538 -0.0469 -0.5522
 7560SOL    HW223731   6.059   2.946   7.797  0.3626  0.5151 -0.9640
 7561SOL     OW23732   1.579   3.498   7.412 -0.1673 -0.1227  0.1507
 7561SOL    HW123733   1.590   3.440   7.337 -2.3063  0.2846 -0.5284
 7561SOL    HW223734   1.497   3.543   7.396 -0.4976  0.2527  2.5773
 7562SOL     OW23735   1.165   5.745   1.609  0.0533 -0.2943 -0.1655
 7562SOL    HW123736   1.259   5.766   1.613  0.2579 -0.5021 -2.5481
 7562SOL    HW223737   1.125   5.804   1.672  1.6158  0.9964 -0.3030
 7563SOL     OW23738   7.953   3.424   0.571 -0.2108 -0.1373  0.0161
 7563SOL    HW123739   7.960   3.329   0.576  1.2820 -0.0455  0.2506
 7563SOL    HW223740   8.043   3.454   0.553 -0.8509  1.1486 -1.3173
 7564SOL     OW23741   0.899   6.463   1.934 -0.4450  0.3602 -0.0688
 7564SOL    HW123742   0.878   6.370   1.935  1.2236 -0.0544 -0.1323
 7564SOL    HW223743   0.992   6.467   1.959 -0.3102  1.9514 -0.6861
 7565SOL     OW23744   5.988   6.895   4.617 -0.4421  0.1902  0.2098
 7565SOL    HW123745   6.013   6.890   4.525  1.2036 -2.8567  0.7050
 7565SOL    HW223746   6.036   6.970   4.651  2.3699 -1.1410 -0.5461
 7566SOL     OW23747   2.955   3.817   1.153 -0.4315  0.0120 -0.2188
 7566SOL    HW123748   2.987   3.907   1.152  2.7944 -0.9835  0.4302
 7566SOL    HW223749   2.859   3.825   1.151 -0.2548  3.3688 -1.3538
 7567SOL     OW23750   4.949   4.165   6.571 -0.5097 -0.1808  0.5111
 7567SOL    HW123751   5.035   4.204   6.552 -1.0307  3.0011  3.5899
 7567SOL    HW223752   4.968   4.098   6.636 -0.2937  0.3228  0.9773
 7568SOL     OW23753   5.384   7.354   0.672 -0.4898  0.1879 -0.3135
 7568SOL    HW123754   5.445   7.347   0.746 -1.2746 -1.5218  0.2245
 7568SOL    HW223755   5.311   7.405   0.706 -1.7466 -2.1751  0.8233
 7569SOL     OW23756   1.871   1.271   8.169  0.1258  0.0209 -0.2154
 7569SOL    HW123757   1.869   1.176   8.183 -0.4093 -0.2465 -1.8483
 7569SOL    HW223758   1.922   1.305   8.242 -1.1506 -1.3235  1.3891
 7570SOL     OW23759   2.128   0.990   1.643  0.4443 -0.6475  0.0328
 7570SOL    HW123760   2.053   0.983   1.703  0.7954 -0.8960  0.4437
 7570SOL    HW223761   2.203   1.003   1.700  0.8655 -1.4703 -0.3164
 7571SOL     OW23762   1.944   4.560   3.565 -0.0905  0.2233  0.1650
 7571SOL    HW123763   1.895   4.478   3.569 -0.2784  0.3536  0.6914
 7571SOL    HW223764   2.001   4.551   3.489 -0.7503 -0.0332 -0.3107
 7572SOL     OW23765   6.640   6.524   1.286 -0.4370 -0.4364 -0.0649
 7572SOL    HW123766   6.624   6.615   1.264 -0.7656 -0.5463 -0.2926
 7572SOL    HW223767   6.735   6.517   1.294 -0.4395  0.0393  0.4630
 7573SOL     OW23768   5.497   6.901   6.026 -0.2731 -0.4966 -0.5172
 7573SOL    HW123769   5.404   6.897   6.050 -0.5329 -0.3448 -1.4827
 7573SOL    HW223770   5.543   6.902   6.111 -1.0477 -2.4088 -0.0170
 7574SOL     OW23771   3.250   7.192   1.328  0.1022  0.0348 -0.3069
 7574SOL    HW123772   3.267   7.235   1.244  1.3460  0.5490  0.1814
 7574SOL    HW223773   3.245   7.265   1.391 -1.9877 -0.2422 -0.0748
 7575SOL     OW23774   6.817   0.202   2.158  0.1040  0.0949 -0.1009
 7575SOL    HW123775   6.726   0.178   2.174 -0.5122  0.3848 -2.8027
 7575SOL    HW223776   6.820   0.226   2.066  2.9140  0.2080 -0.0610
 7576SOL     OW23777   4.997   0.551   3.177  0.1499 -0.4457  0.1244
 7576SOL    HW123778   5.032   0.602   3.250 -1.3087  0.4507  0.2268
 7576SOL    HW223779   5.069   0.548   3.114  0.3961  1.4506  0.2637
 7577SOL     OW23780   6.814   6.066   4.158 -0.7257 -0.1339  0.4217
 7577SOL    HW123781   6.728   6.108   4.150 -0.4819  0.0373 -1.6862
 7577SOL    HW223782   6.817   6.004   4.085  0.6626 -0.6738  0.9121
 7578SOL     OW23783   4.673   4.256   7.288  0.3222 -0.1091  0.2987
 7578SOL    HW123784   4.642   4.302   7.210  2.2063  0.4876 -0.1463
 7578SOL    HW223785   4.765   4.282   7.297  0.8907 -2.1992  1.2219
 7579SOL     OW23786   3.153   4.516   6.187 -0.7540  0.4409 -0.1629
 7579SOL    HW123787   3.228   4.542   6.134 -1.4398  0.1669 -1.2914
 7579SOL    HW223788   3.158   4.572   6.264  1.6390 -0.7809  0.6982
 7580SOL     OW23789   4.452   7.771   2.877  0.0749 -0.7809  0.6540
 7580SOL    HW123790   4.514   7.737   2.941  2.1077 -0.2316 -0.9139
 7580SOL    HW223791   4.389   7.822   2.928  1.9145  0.0628  2.1636
 7581SOL     OW23792   4.648   6.169   6.600 -0.0825 -0.2327  0.3951
 7581SOL    HW123793   4.602   6.228   6.659 -0.9724 -0.9153  0.4196
 7581SOL    HW223794   4.604   6.182   6.515  0.2113 -0.3226  0.2266
 7582SOL     OW23795   0.937   1.087   1.596 -0.0036 -0.1874 -0.3199
 7582SOL    HW123796   0.913   1.034   1.520  0.9518 -0.4107 -0.4776
 7582SOL    HW223797   0.902   1.039   1.670  1.4649 -1.4471 -0.3989
 7583SOL     OW23798   1.179   5.268   7.011  0.3556 -0.3636  0.4827
 7583SOL    HW123799   1.200   5.238   6.922  2.5849  1.4625  0.3083
 7583SOL    HW223800   1.154   5.188   7.058  1.6873 -1.7892 -1.0985
 7584SOL     OW23801   2.565   0.795   4.886  0.1778 -0.2869  0.5794
 7584SOL    HW123802   2.515   0.792   4.805 -0.6586 -1.6909  1.1030
 7584SOL    HW223803   2.550   0.883   4.920  2.1523  1.0503 -1.6988
 7585SOL     OW23804   7.950   5.084   2.770  0.6992  0.6220 -0.5170
 7585SOL    HW123805   7.902   5.167   2.767 -0.4368  0.0288  0.4746
 7585SOL    HW223806   8.043   5.110   2.774  0.3610  1.8314 -0.1953
 7586SOL     OW23807   2.032   1.613   2.692 -0.0874  0.0602 -0.0523
 7586SOL    HW123808   2.011   1.628   2.784  1.0854 -0.3281  0.2957
 7586SOL    HW223809   2.002   1.692   2.647 -1.4454 -0.0994  0.5156
 7587SOL     OW23810   0.154   4.859   1.792  0.2207 -0.4262  0.6716
 7587SOL    HW123811   0.164   4.815   1.876 -2.1448  0.0266  1.2714
 7587SOL    HW223812   0.141   4.788   1.729  0.6130 -0.7152  0.9107
 7588SOL     OW23813   6.469   4.593   6.003 -0.1780  0.2357  0.0437
 7588SOL    HW123814   6.499   4.674   6.044 -2.8105  1.4419 -0.2338
 7588SOL    HW223815   6.464   4.614   5.910 -1.2528 -0.0991  0.0168
 7589SOL     OW23816   3.399   3.612   1.589  0.4724 -0.4505  0.2087
 7589SOL    HW123817   3.454   3.629   1.666  0.2197  2.0810 -0.0863
 7589SOL    HW223818   3.309   3.625   1.620  0.4090  1.5693 -0.6491
 7590SOL     OW23819   2.812   6.893   7.666  0.0188  0.3503 -0.4405
 7590SOL    HW123820   2.891   6.854   7.703 -0.6524  0.0979  0.7754
 7590SOL    HW223821   2.744   6.826   7.678 -0.4141  0.6038 -1.3685
 7591SOL     OW23822   0.649   6.883   1.976 -0.1754 -0.2258 -0.3453
 7591SOL    HW123823   0.570   6.865   1.925 -0.1692 -0.0981 -0.3999
 7591SOL    HW223824   0.680   6.797   2.004  0.9182 -0.4803 -2.1806
 7592SOL     OW23825   1.165   6.672   5.197  0.1207  0.2969  0.3443
 7592SOL    HW123826   1.177   6.582   5.166  0.0175  0.4670 -0.1949
 7592SOL    HW223827   1.174   6.726   5.119  2.7753  0.9837  1.0152
 7593SOL     OW23828   5.373   1.116   2.168 -0.1581  0.1721 -0.0897
 7593SOL    HW123829   5.362   1.201   2.125 -0.0769 -0.4208 -1.3394
 7593SOL    HW223830   5.412   1.137   2.253 -1.6504  1.5165  0.3270
 7594SOL     OW23831   7.113   1.722   6.405  0.6617 -0.3866  0.4962
 7594SOL    HW123832   7.065   1.639   6.402 -0.4000  0.1893 -2.3428
 7594SOL    HW223833   7.121   1.748   6.313  2.3254  1.9033  1.1968
 7595SOL     OW23834   4.076   3.452   0.208 -0.0058 -0.4535  0.0743
 7595SOL    HW123835   4.098   3.543   0.222  1.5344 -0.6342 -0.9828
 7595SOL    HW223836   4.101   3.408   0.289  1.4748 -0.2877 -0.2676
 7596SOL     OW23837   6.275   5.173   0.611 -0.1695 -0.8430 -0.0796
 7596SOL    HW123838   6.248   5.240   0.673  0.4475 -1.4727  0.8884
 7596SOL    HW223839   6.196   5.152   0.563 -0.2640  0.9789 -0.8150
 7597SOL     OW23840   7.318   4.900   1.892 -0.5151 -0.2187 -0.1333
 7597SOL    HW123841   7.414   4.901   1.887 -0.4403 -0.6080  1.0839
 7597SOL    HW223842   7.294   4.993   1.891 -0.1073 -0.1085 -0.0596
 7598SOL     OW23843   1.302   2.866   2.056 -0.4289 -0.1715 -0.1573
 7598SOL    HW123844   1.378   2.920   2.035 -0.9313  0.1390 -1.2584
 7598SOL    HW223845   1.323   2.826   2.140  0.3134  1.0937  0.2855
 7599SOL     OW23846   2.774   6.919   5.461  0.0789  0.1606 -0.2178
 7599SOL    HW123847   2.761   6.920   5.366 -2.1595 -0.8735  0.0053
 7599SOL    HW223848   2.825   6.839   5.477  0.3673  0.2773 -0.5376
 7600SOL     OW23849   1.537   3.807   6.880 -0.3386 -0.6520 -0.0104
 7600SOL    HW123850   1.569   3.757   6.805 -0.0588 -0.9470  0.3003
 7600SOL    HW223851   1.516   3.740   6.946  1.2836 -0.3242  0.8977
 7601SOL     OW23852   1.069   6.050   5.074 -0.0212  0.3519  0.6426
 7601SOL    HW123853   0.997   6.016   5.127 -0.4913  1.1795  0.5604
 7601SOL    HW223854   1.037   6.045   4.984  0.9543 -1.4916  0.3433
 7602SOL     OW23855   1.594   3.036   6.764 -0.6406 -0.1522  0.2732
 7602SOL    HW123856   1.567   3.123   6.735 -1.0205 -0.2650  0.2870
 7602SOL    HW223857   1.529   3.011   6.829  0.2622  0.1515  1.3285
 7603SOL     OW23858   5.553   7.762   8.281 -0.4048 -0.1980 -0.1151
 7603SOL    HW123859   5.589   7.754   8.192 -0.6877  0.2813 -0.2814
 7603SOL    HW223860   5.617   7.719   8.337 -0.8252 -1.6126 -0.6830
 7604SOL     OW23861   2.287   2.905   7.328  0.2962  0.1482  0.1308
 7604SOL    HW123862   2.344   2.892   7.252 -0.4090  0.5080 -0.4782
 7604SOL    HW223863   2.230   2.977   7.303  1.1177  1.3815  1.6561
 7605SOL     OW23864   6.442   4.662   0.785  0.4078 -0.2456  0.5746
 7605SOL    HW123865   6.436   4.609   0.705  1.8803  1.3757 -0.6781
 7605SOL    HW223866   6.392   4.612   0.850 -0.0990 -2.0610 -1.1014
 7606SOL     OW23867   7.142   7.615   2.329  0.3958  0.1094  0.1505
 7606SOL    HW123868   7.094   7.573   2.399  1.1722  1.7425  1.7537
 7606SOL    HW223869   7.228   7.573   2.330 -0.0073 -0.7937 -0.7744
 7607SOL     OW23870   5.783   5.301   2.189 -0.3725  0.0227  0.3613
 7607SOL    HW123871   5.868   5.293   2.145 -0.6345 -1.5955  0.0873
 7607SOL    HW223872   5.721   5.319   2.118 -0.6389 -1.5337  0.1698
 7608SOL     OW23873   6.775   5.927   2.494  0.0402  0.1801  0.1388
 7608SOL    HW123874   6.781   5.986   2.419 -1.1862  1.7124  1.1953
 7608SOL    HW223875   6.865   5.897   2.508  0.2817 -0.1962 -1.9436
 7609SOL     OW23876   5.719   3.597   0.201  0.3134  0.1077 -0.2350
 7609SOL    HW123877   5.715   3.672   0.142 -2.2431  0.8670  0.7644
 7609SOL    HW223878   5.707   3.634   0.288  0.0837 -1.3548  0.3789
 7610SOL     OW23879   7.350   5.590   7.676  0.2339 -0.1670 -0.2308
 7610SOL    HW123880   7.440   5.620   7.690  0.1993  0.1310 -0.6548
 7610SOL    HW223881   7.347   5.504   7.720  1.5923 -1.6032 -2.7328
 7611SOL     OW23882   4.525   3.139   0.482  0.1337 -0.3465  0.2938
 7611SOL    HW123883   4.544   3.046   0.475  0.3582 -0.2722 -0.1729
 7611SOL    HW223884   4.522   3.169   0.391  1.5027  0.3836  0.4534
 7612SOL     OW23885   4.301   6.018   6.022  0.0720  0.3651  0.2199
 7612SOL    HW123886   4.247   6.096   6.035 -0.6461 -0.3618  1.9216
 7612SOL    HW223887   4.241   5.952   5.987  0.5972  0.4546 -0.8803
 7613SOL     OW23888   2.901   7.135   0.829 -0.1395 -0.2664 -0.8752
 7613SOL    HW123889   2.850   7.211   0.858  1.9099  0.7457  0.3520
 7613SOL    HW223890   2.925   7.155   0.739 -1.6986 -0.6800 -1.4146
 7614SOL     OW23891   3.863   3.941   2.730  0.3407  0.5377  0.4327
 7614SOL    HW123892   3.837   4.025   2.769 -0.5395  0.0295  0.9744
 7614SOL    HW223893   3.849   3.953   2.636 -2.8335  0.0216  0.7351
 7615SOL     OW23894   4.233   0.321   4.829  0.9747 -0.3626  0.5986
 7615SOL    HW123895   4.230   0.299   4.922 -2.2423 -0.9224  0.4576
 7615SOL    HW223896   4.154   0.372   4.813  2.0668  0.8000 -1.6208
 7616SOL     OW23897   0.184   5.084   2.698  0.0165 -0.6054  0.1155
 7616SOL    HW123898   0.248   5.142   2.740 -1.2010 -0.1510  1.4466
 7616SOL    HW223899   0.233   5.004   2.679  1.2647  0.1605  0.0049
 7617SOL     OW23900   4.839   6.687   0.002 -0.1998 -0.1514  0.4526
 7617SOL    HW123901   4.794   6.710  -0.080  0.5627  1.0124  0.3318
 7617SOL    HW223902   4.788   6.731   0.070 -1.1732 -1.5900  0.7040
 7618SOL     OW23903   5.639   1.548   0.658  0.0060 -0.0743  0.5202
 7618SOL    HW123904   5.674   1.466   0.693  1.1657 -0.0592 -0.5250
 7618SOL    HW223905   5.559   1.522   0.611 -0.0770 -0.4783  0.8841
 7619SOL     OW23906   0.487   6.974   0.263  0.6527 -0.3406  0.1884
 7619SOL    HW123907   0.399   6.984   0.300 -0.5069  3.0970 -2.7979
 7619SOL    HW223908   0.539   7.043   0.306  1.1955 -0.7591  0.2120
 7620SOL     OW23909   5.736   7.379   2.984  0.4827 -0.1966  0.5002
 7620SOL    HW123910   5.780   7.456   3.020  0.6024  0.8267 -1.6598
 7620SOL    HW223911   5.807   7.319   2.962  0.4604 -0.5024  1.2494
 7621SOL     OW23912   4.645   7.418   6.125  0.4090  0.0225 -0.4133
 7621SOL    HW123913   4.615   7.403   6.214  0.4685 -0.9697 -0.5512
 7621SOL    HW223914   4.677   7.333   6.095 -2.3035 -0.4409 -2.3883
 7622SOL     OW23915   5.105   7.742   7.830 -0.2656 -0.9392  0.2466
 7622SOL    HW123916   5.198   7.752   7.851 -0.5791  0.4085  1.1067
 7622SOL    HW223917   5.100   7.754   7.735 -0.0478  3.9001  0.6192
 7623SOL     OW23918   2.914   7.061   4.079 -0.2314  0.1693 -0.0486
 7623SOL    HW123919   2.894   7.149   4.111 -1.0227 -0.5477  1.5533
 7623SOL    HW223920   3.006   7.047   4.102 -0.2823  0.3446  0.2590
 7624SOL     OW23921   2.919   6.116   0.280  0.0529 -0.4438 -0.0737
 7624SOL    HW123922   2.882   6.174   0.213 -0.3952  0.5924  1.0399
 7624SOL    HW223923   2.980   6.171   0.328 -1.6665 -0.3190  2.1338
 7625SOL     OW23924   4.967   0.402   4.413 -0.2825 -0.1374 -0.4868
 7625SOL    HW123925   4.945   0.452   4.335 -0.3237 -0.7193 -0.8576
 7625SOL    HW223926   4.896   0.422   4.475 -0.3111  0.2355 -0.6396
 7626SOL     OW23927   7.224   7.574   3.755 -0.3517 -0.6871 -0.0657
 7626SOL    HW123928   7.291   7.569   3.687  0.3088 -1.4521  0.6193
 7626SOL    HW223929   7.169   7.648   3.729  0.4360 -0.3803 -0.9264
 7627SOL     OW23930   0.949   3.666   4.239  0.0966 -0.3012  0.0136
 7627SOL    HW123931   0.911   3.616   4.167 -0.3302  0.0891 -0.0407
 7627SOL    HW223932   1.008   3.605   4.282  0.7388 -0.4007 -0.9658
 7628SOL     OW23933   3.492   7.161   4.384 -0.0950 -0.4721  0.4013
 7628SOL    HW123934   3.581   7.164   4.348 -0.4504  0.2470 -0.4645
 7628SOL    HW223935   3.461   7.073   4.362  0.7562 -1.1023  1.6316
 7629SOL     OW23936   5.859   5.661   2.573  0.3163 -0.0951 -0.5668
 7629SOL    HW123937   5.941   5.637   2.532  0.7581  0.6770 -0.1533
 7629SOL    HW223938   5.850   5.755   2.557  0.1096  0.0648  0.3896
 7630SOL     OW23939   3.744   6.620   4.815  0.4779 -0.4061  0.3648
 7630SOL    HW123940   3.665   6.662   4.849 -0.7139 -1.4506 -0.9845
 7630SOL    HW223941   3.720   6.528   4.807  1.2441 -0.4721 -1.6460
 7631SOL     OW23942   3.504   1.468   5.681  0.2165 -0.1276 -0.0751
 7631SOL    HW123943   3.545   1.507   5.758  1.1969 -2.3376  0.5857
 7631SOL    HW223944   3.425   1.426   5.714 -0.2437  0.2998 -0.5964
 7632SOL     OW23945   0.051   7.212   2.255  0.1782 -0.5783 -0.5531
 7632SOL    HW123946   0.082   7.257   2.176  2.6817 -0.9838  0.1141
 7632SOL    HW223947   0.053   7.280   2.323 -2.3315 -0.1328 -0.8504
 7633SOL     OW23948   3.266   3.093   0.598  0.4213 -0.2224  0.2664
 7633SOL    HW123949   3.216   3.023   0.556  0.2765 -1.0161  1.7076
 7633SOL    HW223950   3.291   3.057   0.683  1.9660  0.8018  0.2802
 7634SOL     OW23951   7.242   1.458   8.027  0.0057  0.0599  0.5647
 7634SOL    HW123952   7.283   1.421   7.948  0.0209  0.0887  0.5588
 7634SOL    HW223953   7.270   1.549   8.028 -2.1507  0.8150 -0.8524
 7635SOL     OW23954   2.101   2.210   5.794  0.2199 -0.2342  0.3904
 7635SOL    HW123955   2.106   2.287   5.851  0.7008 -1.0160  1.4553
 7635SOL    HW223956   2.140   2.140   5.846  1.4154 -0.8201 -1.2075
 7636SOL     OW23957   6.132   4.355   5.564  0.0271  0.0784 -0.7593
 7636SOL    HW123958   6.119   4.266   5.531  1.3125 -1.6253  2.8160
 7636SOL    HW223959   6.227   4.366   5.566  0.1625 -0.4125  2.9808
 7637SOL     OW23960   2.029   6.964   3.839  0.0371  0.5017 -0.0983
 7637SOL    HW123961   2.028   6.899   3.909 -0.9923  0.7263  0.1141
 7637SOL    HW223962   2.038   6.913   3.759  0.6143  0.1998  0.1510
 7638SOL     OW23963   0.727   8.062   1.714  0.2853  0.1876 -0.2819
 7638SOL    HW123964   0.670   8.098   1.645 -1.1712 -3.1347 -0.9951
 7638SOL    HW223965   0.668   8.047   1.788  1.3435  1.3520  0.8542
 7639SOL     OW23966   7.438   3.044   1.762  0.1548 -0.4908  0.1536
 7639SOL    HW123967   7.353   2.999   1.764 -0.2032  0.1347 -0.4917
 7639SOL    HW223968   7.461   3.046   1.669  0.5330 -0.0172  0.2585
 7640SOL     OW23969   2.444   0.012   7.866  0.8595 -0.1911  0.3091
 7640SOL    HW123970   2.480   0.011   7.777 -2.0513  1.8828 -1.0693
 7640SOL    HW223971   2.414   0.102   7.879 -1.1072 -1.0403  2.3675
 7641SOL     OW23972   0.883   2.188   2.719  0.0742  0.6598  0.0590
 7641SOL    HW123973   0.809   2.239   2.687 -0.3355 -0.3034 -0.5734
 7641SOL    HW223974   0.958   2.247   2.714 -0.7484  1.8934  1.3772
 7642SOL     OW23975   5.670   3.603   8.098  0.2183  0.6552 -0.3577
 7642SOL    HW123976   5.759   3.596   8.133 -0.4941  1.7584  1.8204
 7642SOL    HW223977   5.633   3.516   8.110  0.4060  0.6832  0.4372
 7643SOL     OW23978   3.335   2.850   8.204  0.1723 -0.2060  0.1907
 7643SOL    HW123979   3.349   2.943   8.222 -0.5031  0.0169 -0.3751
 7643SOL    HW223980   3.284   2.819   8.280 -1.0225  0.2825 -0.3887
 7644SOL     OW23981   7.604   0.471   4.617  0.1486 -0.1699 -0.6228
 7644SOL    HW123982   7.539   0.447   4.551  0.1174  0.3669 -0.7879
 7644SOL    HW223983   7.570   0.433   4.699 -1.6687  2.1534 -0.1932
 7645SOL     OW23984   1.382   0.458   1.645 -0.1712 -0.3750  0.0011
 7645SOL    HW123985   1.391   0.439   1.739  2.1031 -1.0545 -0.2893
 7645SOL    HW223986   1.470   0.480   1.617 -1.0667  1.2265 -1.7287
 7646SOL     OW23987   2.223   1.586   3.010  0.0944 -0.3532 -0.0088
 7646SOL    HW123988   2.290   1.582   2.942  2.8321  3.2878  2.1031
 7646SOL    HW223989   2.267   1.629   3.084 -4.0598  0.4774  2.2677
 7647SOL     OW23990   6.172   4.276   7.068 -0.0780  0.2455  0.4339
 7647SOL    HW123991   6.152   4.344   7.005  0.2583 -0.3696 -0.3553
 7647SOL    HW223992   6.093   4.267   7.121 -1.5110 -1.2416 -1.7644
 7648SOL     OW23993   4.493   6.422   3.061 -1.0234 -0.5840 -0.8278
 7648SOL    HW123994   4.454   6.428   3.148 -1.1501  0.7666 -0.9565
 7648SOL    HW223995   4.573   6.372   3.074 -1.5364 -1.2472 -0.1232
 7649SOL     OW23996   8.043   5.719   3.125  0.1255  0.0231 -0.3400
 7649SOL    HW123997   8.097   5.784   3.171 -1.4123  0.4799  0.9290
 7649SOL    HW223998   8.039   5.751   3.035  1.1094  0.5251 -0.2216
 7650SOL     OW23999   7.307   0.608   5.037 -0.0719  0.3429  0.8716
 7650SOL    HW124000   7.291   0.513   5.040  0.5707  0.1125 -1.3285
 7650SOL    HW224001   7.397   0.617   5.066  0.1489  0.1771  0.2466
 7651SOL     OW24002   1.648   7.834   5.625 -0.2262  0.0652  0.5148
 7651SOL    HW124003   1.573   7.865   5.677 -0.9923  0.5036 -0.7966
 7651SOL    HW224004   1.609   7.787   5.552  0.7184  0.9934 -0.6436
 7652SOL     OW24005   0.439   4.098   2.714 -0.4445 -0.0519  0.4158
 7652SOL    HW124006   0.417   4.124   2.624 -0.8026 -1.5739  0.0422
 7652SOL    HW224007   0.355   4.095   2.759 -0.5994 -1.8191  0.0850
 7653SOL     OW24008   8.228   1.668   6.403 -0.4316  0.4306  0.0529
 7653SOL    HW124009   8.259   1.580   6.423  0.9946  0.8291 -0.3149
 7653SOL    HW224010   8.161   1.685   6.470 -0.2264 -0.6493  0.5618
 7654SOL     OW24011   4.906   4.770   7.412 -0.3529  0.1370  0.3910
 7654SOL    HW124012   4.880   4.839   7.350 -0.8355  0.0732  0.5202
 7654SOL    HW224013   5.002   4.772   7.411 -0.3614  0.5790  0.1320
 7655SOL     OW24014   4.720   4.821   2.927  0.5833  0.9779 -0.3306
 7655SOL    HW124015   4.713   4.750   2.991 -2.3603  0.3926 -1.1578
 7655SOL    HW224016   4.667   4.892   2.963  0.9391  1.5763 -0.9584
 7656SOL     OW24017   0.620   5.311   1.516 -0.1384 -0.0379  0.3308
 7656SOL    HW124018   0.678   5.241   1.487 -1.1854 -0.2125 -1.5064
 7656SOL    HW224019   0.671   5.391   1.507  1.0291 -0.5012  2.3347
 7657SOL     OW24020   3.674   2.646   6.450 -0.1910 -0.0465  0.7872
 7657SOL    HW124021   3.619   2.604   6.516 -1.7506 -0.1279 -0.5194
 7657SOL    HW224022   3.699   2.730   6.489 -1.1488 -0.0577  1.4413
 7658SOL     OW24023   0.995   2.445   1.262 -0.1623 -0.5124 -0.7325
 7658SOL    HW124024   0.919   2.430   1.205 -1.6072  1.8004  0.4725
 7658SOL    HW224025   0.983   2.533   1.296  2.2067 -0.7236  0.8683
 7659SOL     OW24026   7.894   4.491   6.101 -0.2769  0.7886 -0.0059
 7659SOL    HW124027   7.906   4.396   6.096  0.2158  0.8856 -0.7695
 7659SOL    HW224028   7.802   4.502   6.125  0.1149  0.0934  1.9912
 7660SOL     OW24029   4.754   2.482   0.710  0.1029 -0.1078 -0.4280
 7660SOL    HW124030   4.824   2.525   0.662  2.0647 -1.1218  1.3770
 7660SOL    HW224031   4.780   2.487   0.802 -0.4418 -3.4524  0.0482
 7661SOL     OW24032   5.001   4.695   7.024  0.2921 -0.1863 -0.5419
 7661SOL    HW124033   5.032   4.613   7.062 -0.0928 -0.7206 -1.3531
 7661SOL    HW224034   5.062   4.761   7.056  1.2664 -0.9625 -0.7751
 7662SOL     OW24035   6.585   4.365   6.234 -0.5941  0.1612  0.4230
 7662SOL    HW124036   6.556   4.311   6.161 -0.7553  0.4882  0.2450
 7662SOL    HW224037   6.618   4.445   6.193  0.6353 -0.2250  0.6093
 7663SOL     OW24038   3.699   5.762   5.140 -0.4429 -0.4965  0.2360
 7663SOL    HW124039   3.638   5.792   5.208 -1.0268 -1.2707  0.0650
 7663SOL    HW224040   3.654   5.781   5.058  0.8724  1.8144 -0.0529
 7664SOL     OW24041   6.035   0.697   0.291 -0.0302  1.2167  0.1779
 7664SOL    HW124042   6.011   0.782   0.328 -0.7346  0.9914  0.2641
 7664SOL    HW224043   6.027   0.710   0.196 -2.4390  0.6426  0.2257
 7665SOL     OW24044   4.425   1.544   4.676 -0.0652  0.0300  0.4125
 7665SOL    HW124045   4.414   1.626   4.724  0.5597 -0.1815  0.9375
 7665SOL    HW224046   4.506   1.556   4.625 -0.5412  0.1281 -0.3408
 7666SOL     OW24047   5.153   4.908   2.502 -0.6962 -0.0537  0.2474
 7666SOL    HW124048   5.103   4.950   2.432 -0.1752 -1.1315 -0.8218
 7666SOL    HW224049   5.088   4.886   2.569 -0.9936  2.2623  0.7878
 7667SOL     OW24050   0.600   0.192   0.873 -0.1578 -0.2663  0.0259
 7667SOL    HW124051   0.550   0.223   0.797  2.5428  0.7391 -1.4739
 7667SOL    HW224052   0.573   0.250   0.945 -0.6379  0.6801 -0.9019
 7668SOL     OW24053   3.397   2.253   7.845 -0.1064 -0.1771 -0.1993
 7668SOL    HW124054   3.433   2.316   7.782 -1.4532 -0.3871 -1.2211
 7668SOL    HW224055   3.372   2.306   7.921  0.8945  0.1728 -0.0983
 7669SOL     OW24056   5.627   3.428   7.837  0.4739 -0.4794  0.2140
 7669SOL    HW124057   5.666   3.504   7.880 -1.4537 -0.0724  1.3495
 7669SOL    HW224058   5.570   3.390   7.903 -2.4193  0.0077 -1.8438
 7670SOL     OW24059   0.764   6.678   7.332  0.4030 -0.1231  0.8684
 7670SOL    HW124060   0.854   6.683   7.362  0.0929 -1.2903  2.1207
 7670SOL    HW224061   0.711   6.700   7.409 -0.3888  0.2975  0.2278
 7671SOL     OW24062   6.122   2.838   0.922  0.4604 -0.5506 -0.3342
 7671SOL    HW124063   6.068   2.868   0.994  0.6049 -0.7656 -0.1379
 7671SOL    HW224064   6.160   2.756   0.952 -0.2398 -1.1434 -1.0210
 7672SOL     OW24065   2.452   3.638   6.533 -0.4710  0.1824 -0.1012
 7672SOL    HW124066   2.366   3.606   6.559  0.3667 -4.0232 -1.6817
 7672SOL    HW224067   2.504   3.638   6.613 -1.3465  0.5346  0.4674
 7673SOL     OW24068   5.802   6.381   2.623 -0.2900  0.1168 -0.1911
 7673SOL    HW124069   5.811   6.357   2.715 -0.8037 -0.8393 -0.3752
 7673SOL    HW224070   5.824   6.474   2.620 -0.3541  0.1803  0.9076
 7674SOL     OW24071   3.936   2.191   6.878 -0.1235 -0.1888 -0.2839
 7674SOL    HW124072   4.026   2.223   6.883  0.2457 -1.2252 -0.2337
 7674SOL    HW224073   3.936   2.126   6.809 -0.4288 -1.4637  0.8719
 7675SOL     OW24074   3.256   5.646   3.887  0.1926 -0.5070 -0.0950
 7675SOL    HW124075   3.213   5.581   3.943 -1.0736 -0.8357 -1.3685
 7675SOL    HW224076   3.272   5.720   3.945 -1.7919 -0.5140  0.5620
 7676SOL     OW24077   6.995   0.138   7.162  0.2830 -0.4043 -0.2079
 7676SOL    HW124078   7.080   0.175   7.187  0.2029  0.6866 -1.4138
 7676SOL    HW224079   7.016   0.070   7.098  0.2794 -0.4460 -0.1647
 7677SOL     OW24080   4.323   5.732   3.985 -0.0209  0.1570 -0.0267
 7677SOL    HW124081   4.275   5.748   4.066 -0.4803 -0.7947 -0.0967
 7677SOL    HW224082   4.261   5.755   3.916 -0.7282 -1.8364 -0.1332
 7678SOL     OW24083   2.773   6.526   0.603  0.0275 -0.7755 -0.2279
 7678SOL    HW124084   2.766   6.523   0.698  0.7161  0.3537 -0.1292
 7678SOL    HW224085   2.857   6.484   0.584 -1.3497 -3.6371 -0.5858
 7679SOL     OW24086   0.505   4.965   4.009  0.3047  0.5285  0.7227
 7679SOL    HW124087   0.412   4.988   4.007  0.1549 -0.0905  0.0008
 7679SOL    HW224088   0.514   4.896   3.943  1.5467  1.5670 -0.2420
 7680SOL     OW24089   6.424   4.468   7.286 -0.1691 -0.2581 -0.0852
 7680SOL    HW124090   6.515   4.481   7.312  0.1123  0.3580 -1.2781
 7680SOL    HW224091   6.413   4.373   7.283  1.2577 -0.4458 -2.4322
 7681SOL     OW24092   7.224   0.231   7.246  0.1849 -0.1468 -0.4088
 7681SOL    HW124093   7.298   0.172   7.262  0.6342  0.8129  1.3785
 7681SOL    HW224094   7.222   0.288   7.324 -0.8934  1.4654 -1.5486
 7682SOL     OW24095   5.834   3.562   1.196 -0.4095 -0.0681 -0.2632
 7682SOL    HW124096   5.916   3.580   1.150 -1.8266  0.2274 -2.8363
 7682SOL    HW224097   5.824   3.635   1.256  1.2636 -0.1940  0.2268
 7683SOL     OW24098   4.650   2.200   7.019  0.2263 -0.3091 -0.4877
 7683SOL    HW124099   4.554   2.196   7.026  0.1898  0.0902 -0.7322
 7683SOL    HW224100   4.673   2.282   7.062  0.6365 -1.2648  1.2356
 7684SOL     OW24101   3.645   1.314   1.502 -0.1527 -0.1629 -0.0317
 7684SOL    HW124102   3.682   1.230   1.530 -0.1791 -0.5723 -1.1637
 7684SOL    HW224103   3.551   1.305   1.517 -0.0709 -0.0253  0.5952
 7685SOL     OW24104   6.586   4.742   1.578  0.5848  0.0632  0.8276
 7685SOL    HW124105   6.591   4.822   1.525  0.3639  0.8004  1.8883
 7685SOL    HW224106   6.676   4.709   1.580  0.5690 -0.0700 -0.1233
 7686SOL     OW24107   7.011   4.438   0.550 -0.1851 -0.4992  0.3349
 7686SOL    HW124108   6.988   4.380   0.477  3.2241  0.0891 -1.4153
 7686SOL    HW224109   7.092   4.401   0.586 -0.4625  0.6117  2.2451
 7687SOL     OW24110   1.368   5.313   3.203  0.5002  0.2748  0.3256
 7687SOL    HW124111   1.327   5.344   3.122 -0.8042  1.1725  1.2940
 7687SOL    HW224112   1.453   5.280   3.175  0.2726  0.9961 -1.3494
 7688SOL     OW24113   3.361   4.661   0.231 -0.4034 -0.6468 -0.0790
 7688SOL    HW124114   3.341   4.580   0.184  0.7253 -0.7311 -0.4443
 7688SOL    HW224115   3.363   4.636   0.323  0.4179 -1.1544 -0.2237
 7689SOL     OW24116   6.875   0.288   6.149  0.4920 -0.1810  0.3433
 7689SOL    HW124117   6.831   0.231   6.212  1.8657  0.1078  1.5850
 7689SOL    HW224118   6.968   0.275   6.165  0.8811  2.7846  1.0509
 7690SOL     OW24119   4.774   1.980   7.121 -0.3413 -0.1983  0.0418
 7690SOL    HW124120   4.790   1.917   7.051  1.3234  0.7510 -0.4771
 7690SOL    HW224121   4.733   2.055   7.077 -1.0791 -0.3592  0.4329
 7691SOL     OW24122   2.386   3.538   7.556 -0.2966  0.1306 -0.4284
 7691SOL    HW124123   2.332   3.460   7.545 -0.5048  0.1781  0.2084
 7691SOL    HW224124   2.323   3.610   7.569 -0.1733  0.7354 -2.7796
 7692SOL     OW24125   2.944   0.878   4.012 -0.1060  0.4303  0.2338
 7692SOL    HW124126   3.021   0.878   3.954 -0.3988  0.0295 -0.1561
 7692SOL    HW224127   2.885   0.813   3.974 -1.3432  1.8695 -0.4052
 7693SOL     OW24128   6.296   6.842   1.495 -0.3737 -0.1641  0.1325
 7693SOL    HW124129   6.390   6.857   1.502 -0.6017  2.3347 -1.1281
 7693SOL    HW224130   6.283   6.812   1.405 -0.9156  0.9914 -0.1886
 7694SOL     OW24131   0.896   2.186   1.364  0.4814 -0.3718  0.7275
 7694SOL    HW124132   0.965   2.244   1.332  2.1135 -2.6062 -0.1065
 7694SOL    HW224133   0.840   2.242   1.417  1.5066  2.0725 -0.6097
 7695SOL     OW24134   3.415   1.919   3.976 -0.0720 -0.0030 -0.6228
 7695SOL    HW124135   3.395   1.926   3.883 -1.0639  0.6822 -0.3712
 7695SOL    HW224136   3.357   1.850   4.008  0.3240 -0.2920 -0.5196
 7696SOL     OW24137   6.635   1.434   0.491 -0.0647 -0.0922  0.1116
 7696SOL    HW124138   6.584   1.494   0.544 -0.2959 -0.6526  0.5365
 7696SOL    HW224139   6.577   1.409   0.419  0.3196  0.8253 -0.5341
 7697SOL     OW24140   5.328   6.769   6.962  0.1298 -0.3223  0.0405
 7697SOL    HW124141   5.261   6.716   7.005 -1.3986  1.1722 -0.3601
 7697SOL    HW224142   5.377   6.707   6.908 -0.1209 -1.6569  1.3077
 7698SOL     OW24143   0.766   0.105   6.493  0.7009  0.3008 -0.0707
 7698SOL    HW124144   0.826   0.046   6.448  1.0794  1.0899 -0.6278
 7698SOL    HW224145   0.699   0.126   6.427 -0.3754 -0.7944  0.6250
 7699SOL     OW24146   6.726   2.921   5.201 -0.4512 -0.2139  0.3507
 7699SOL    HW124147   6.639   2.935   5.240  1.0844  2.7326  3.3111
 7699SOL    HW224148   6.762   3.010   5.191  1.1644 -1.1127 -3.7488
 7700SOL     OW24149   7.970   4.599   5.559 -0.2509 -0.0971  0.1280
 7700SOL    HW124150   7.968   4.692   5.583 -0.3034 -0.1513  0.3380
 7700SOL    HW224151   7.959   4.553   5.642  1.4581 -0.3145  0.2826
 7701SOL     OW24152   2.097   2.352   2.743 -0.2127 -0.1791 -0.3937
 7701SOL    HW124153   2.021   2.294   2.735 -1.0978  0.6509  1.3570
 7701SOL    HW224154   2.165   2.297   2.782 -1.2818  0.0385  1.9866
 7702SOL     OW24155   5.589   7.485   6.208  0.1071 -0.4032  0.2766
 7702SOL    HW124156   5.657   7.455   6.268  0.4064  1.4622  0.9111
 7702SOL    HW224157   5.617   7.572   6.180 -1.4549 -0.0594 -0.3329
 7703SOL     OW24158   7.963   4.776   3.069 -0.0741  0.3943 -0.4158
 7703SOL    HW124159   8.041   4.795   3.120  0.8084  0.9822 -1.9205
 7703SOL    HW224160   7.992   4.713   3.002 -0.6312  1.3588 -1.6030
 7704SOL     OW24161   6.069   5.891   7.598 -0.5676 -0.3131 -0.1166
 7704SOL    HW124162   6.058   5.798   7.578  0.6925 -0.0766 -2.2119
 7704SOL    HW224163   6.144   5.894   7.657  2.3592 -0.4670 -3.4985
 7705SOL     OW24164   0.151   2.385   8.281 -0.2838 -0.0806 -0.4190
 7705SOL    HW124165   0.176   2.301   8.243  0.6736  0.2501 -0.5412
 7705SOL    HW224166   0.232   2.420   8.319 -0.9632  0.1493  0.8788
 7706SOL     OW24167   4.952   6.833   1.023  0.3985 -0.7263 -0.7735
 7706SOL    HW124168   5.044   6.832   0.997  0.4423 -3.4858 -0.7932
 7706SOL    HW224169   4.954   6.816   1.117 -0.1022 -0.2878 -0.6789
 7707SOL     OW24170   5.854   7.093   7.100 -0.2542 -0.4238  0.7041
 7707SOL    HW124171   5.833   7.000   7.102 -1.4630 -0.2541 -1.3504
 7707SOL    HW224172   5.797   7.129   7.032  1.3809  1.5099  0.2461
 7708SOL     OW24173   0.823   2.667   1.806 -0.0161 -0.0608  0.0253
 7708SOL    HW124174   0.764   2.644   1.877  1.0173 -0.6764  0.7034
 7708SOL    HW224175   0.910   2.665   1.845  0.4445  1.2211 -0.8528
 7709SOL     OW24176   2.266   7.065   0.892 -0.2868 -0.0314  0.5313
 7709SOL    HW124177   2.355   7.064   0.928 -0.4926 -1.5340  1.0868
 7709SOL    HW224178   2.230   7.150   0.920  1.3591  1.1709 -0.7938
 7710SOL     OW24179   7.150   6.763   2.585 -0.5095 -0.0771  0.3527
 7710SOL    HW124180   7.139   6.827   2.515  1.7902  1.6464  1.4422
 7710SOL    HW224181   7.086   6.694   2.565  1.3146 -0.7347 -4.6162
 7711SOL     OW24182   4.385   3.546   2.694 -0.6097 -0.4230 -0.6322
 7711SOL    HW124183   4.408   3.625   2.645 -2.0353  1.0448  0.8959
 7711SOL    HW224184   4.452   3.540   2.762 -2.2976  1.5638  1.3732
 7712SOL     OW24185   6.357   7.273   0.836  0.8668  0.2664 -0.1745
 7712SOL    HW124186   6.352   7.316   0.750  0.7042  1.0121  0.2002
 7712SOL    HW224187   6.396   7.339   0.893 -1.0971  0.6352  0.8528
 7713SOL     OW24188   2.241   0.986   6.376 -0.4475  0.3132  0.4138
 7713SOL    HW124189   2.322   1.024   6.342  0.6613 -0.4819  2.0041
 7713SOL    HW224190   2.269   0.933   6.451 -2.4693  0.1503  1.1274
 7714SOL     OW24191   0.745   5.152   7.878  0.5025 -0.1637  0.0598
 7714SOL    HW124192   0.765   5.065   7.843  0.0794 -0.1655 -0.1807
 7714SOL    HW224193   0.796   5.212   7.824 -0.5504 -0.1229 -0.9210
 7715SOL     OW24194   7.840   6.359   0.907  0.2440  0.3437 -0.6016
 7715SOL    HW124195   7.799   6.273   0.918  1.0354 -0.4899 -3.4615
 7715SOL    HW224196   7.797   6.396   0.831  2.2699  0.9714 -1.5125
 7716SOL     OW24197   0.111   2.893   4.264 -0.0846  0.1864 -0.3399
 7716SOL    HW124198   0.028   2.845   4.269  0.4977 -0.8418 -0.5008
 7716SOL    HW224199   0.112   2.929   4.175  0.0101 -0.4899 -0.6195
 7717SOL     OW24200   3.019   3.122   7.902  0.6576  0.0658 -0.2483
 7717SOL    HW124201   3.059   3.073   7.830  0.7996 -4.3788  2.4702
 7717SOL    HW224202   3.089   3.132   7.966 -0.5385 -0.4103  1.1915
 7718SOL     OW24203   6.226   6.181   6.863 -0.3685 -0.1850  0.4352
 7718SOL    HW124204   6.246   6.274   6.867 -0.5302 -0.1369  0.1276
 7718SOL    HW224205   6.179   6.169   6.781 -0.6589 -0.4805  0.6375
 7719SOL     OW24206   0.772   6.981   0.125  0.1635  0.1466  0.6798
 7719SOL    HW124207   0.761   7.027   0.208  0.9795 -0.0092  0.8771
 7719SOL    HW224208   0.755   7.047   0.058  0.5719  0.5401  0.9623
 7720SOL     OW24209   1.817   5.884   3.872  0.2127  0.5989 -0.0026
 7720SOL    HW124210   1.757   5.810   3.880  1.6440 -0.7270 -0.9817
 7720SOL    HW224211   1.791   5.929   3.791 -0.7717  1.3239  0.6872
 7721SOL     OW24212   3.987   1.417   7.946 -0.1393 -0.1993 -0.7037
 7721SOL    HW124213   3.932   1.426   7.869 -1.4455 -1.3981  0.0284
 7721SOL    HW224214   3.963   1.491   8.002  0.1438  0.1565 -1.0493
 7722SOL     OW24215   5.119   0.497   2.937 -1.1614  0.4495 -0.0750
 7722SOL    HW124216   5.074   0.524   2.857 -0.9922 -1.1270 -0.7279
 7722SOL    HW224217   5.097   0.405   2.948  1.6049 -0.3329 -0.2727
 7723SOL     OW24218   0.284   4.240   3.456  0.0503  0.0757  0.3117
 7723SOL    HW124219   0.355   4.302   3.474 -1.0170  1.1094  1.0740
 7723SOL    HW224220   0.247   4.269   3.373  0.4239 -0.3824 -0.0188
 7724SOL     OW24221   1.031   0.356   0.691  0.1992 -0.9294  0.4271
 7724SOL    HW124222   1.005   0.421   0.756  1.2928 -0.8684  0.8278
 7724SOL    HW224223   1.018   0.271   0.735  0.8571 -0.8910  0.7172
 7725SOL     OW24224   4.294   7.096   6.141 -0.4854  0.4233 -0.2604
 7725SOL    HW124225   4.213   7.139   6.117 -0.5477  0.0591 -0.7321
 7725SOL    HW224226   4.310   7.122   6.231 -0.4131  1.5841 -0.5931
 7726SOL     OW24227   6.002   1.235   7.420 -0.4583  0.0845  0.5220
 7726SOL    HW124228   6.065   1.166   7.404 -1.3905 -0.5781 -0.4197
 7726SOL    HW224229   6.048   1.316   7.398 -0.1833 -0.4475 -0.9437
 7727SOL     OW24230   3.303   5.467   1.304 -0.3513  0.4369  0.0058
 7727SOL    HW124231   3.268   5.497   1.388  0.6098 -1.3329  1.1205
 7727SOL    HW224232   3.378   5.412   1.328 -0.0125 -0.0696 -2.0269
 7728SOL     OW24233   2.525   5.028   6.548 -1.1716 -0.0561 -0.5349
 7728SOL    HW124234   2.522   4.937   6.579  0.9805  0.1869  0.5230
 7728SOL    HW224235   2.463   5.075   6.603 -0.4599 -0.4359  0.6220
 7729SOL     OW24236   7.188   4.790   3.688  0.2257  0.3323  0.5099
 7729SOL    HW124237   7.140   4.824   3.612  0.2438  0.8743  0.7357
 7729SOL    HW224238   7.139   4.712   3.714  0.0943  0.2659  0.0746
 7730SOL     OW24239   5.815   7.949   3.227 -0.0276  0.0767  0.2157
 7730SOL    HW124240   5.790   7.891   3.155  1.3605  0.2544 -0.4529
 7730SOL    HW224241   5.860   7.892   3.290 -1.4593 -0.1237  1.0847
 7731SOL     OW24242   6.095   2.328   4.340  0.3303  0.6010 -0.3218
 7731SOL    HW124243   6.008   2.367   4.328  0.8739  2.0741  0.2965
 7731SOL    HW224244   6.117   2.291   4.255 -1.2457 -0.5681 -0.2717
 7732SOL     OW24245   4.854   4.523   0.502  0.0752  0.3919 -0.4140
 7732SOL    HW124246   4.813   4.599   0.544 -0.4893  0.4448 -1.0492
 7732SOL    HW224247   4.948   4.538   0.513 -0.0421  0.8415  0.0573
 7733SOL     OW24248   5.651   3.437   1.654 -0.1574  0.5297  0.1145
 7733SOL    HW124249   5.625   3.351   1.622 -1.7730  0.9961  0.0847
 7733SOL    HW224250   5.743   3.427   1.679 -0.5288 -1.4012  0.8632
 7734SOL     OW24251   2.233   0.373   0.027 -0.1724  0.0592  0.0353
 7734SOL    HW124252   2.174   0.317   0.078  1.3501  0.0934  1.9299
 7734SOL    HW224253   2.301   0.314  -0.005 -1.5523 -0.1479 -2.8968
 7735SOL     OW24254   6.060   7.885   1.642 -0.4253 -0.7874  0.3588
 7735SOL    HW124255   6.079   7.893   1.736  0.4471  0.0399  0.1246
 7735SOL    HW224256   6.035   7.974   1.615  0.8675 -0.6663 -0.5085
 7736SOL     OW24257   6.906   3.075   2.721 -0.2494 -0.2915 -0.4021
 7736SOL    HW124258   6.949   3.150   2.680 -2.1735  1.7820  1.1621
 7736SOL    HW224259   6.820   3.071   2.679 -0.4840 -1.0970  0.1359
 7737SOL     OW24260   2.119   7.629   3.590 -0.1777  0.0319 -0.0229
 7737SOL    HW124261   2.061   7.564   3.628 -2.6731  2.0668 -0.1258
 7737SOL    HW224262   2.101   7.625   3.496  2.4765 -1.6599 -0.5712
 7738SOL     OW24263   8.081   7.331   0.526  0.5494  0.4931 -0.4099
 7738SOL    HW124264   7.987   7.339   0.510  0.8461  0.6603 -2.3004
 7738SOL    HW224265   8.089   7.326   0.621 -1.3329  0.9413 -0.1927
 7739SOL     OW24266   8.197   8.072   4.215  0.2454  0.5084 -0.0708
 7739SOL    HW124267   8.153   8.126   4.282 -0.8634  1.2889 -1.3639
 7739SOL    HW224268   8.221   8.135   4.147  0.1323 -0.4549 -1.0149
 7740SOL     OW24269   3.767   4.565   2.723  0.1622  0.0974 -0.3310
 7740SOL    HW124270   3.850   4.579   2.768  0.7308 -0.3215 -1.2330
 7740SOL    HW224271   3.790   4.561   2.631 -0.8968  0.2291 -0.6134
 7741SOL     OW24272   5.093   3.459   2.751 -0.0473  0.0868  0.6167
 7741SOL    HW124273   5.117   3.521   2.681  1.0853 -0.5139  0.4485
 7741SOL    HW224274   5.134   3.496   2.829 -0.9636  0.5363  0.8947
 7742SOL     OW24275   3.537   3.641   0.884  0.0964  0.7480  0.5115
 7742SOL    HW124276   3.560   3.712   0.824 -2.2124  0.9619 -0.1805
 7742SOL    HW224277   3.599   3.571   0.862  0.8190  1.6578 -0.4837
 7743SOL     OW24278   0.011   6.628   5.776 -0.4113  0.2989  0.4011
 7743SOL    HW124279   0.083   6.645   5.836  0.6374 -2.4936  0.1188
 7743SOL    HW224280   0.046   6.562   5.716 -2.6892  0.0814 -0.7852
 7744SOL     OW24281   2.676   5.944   7.631 -0.3290 -0.3715 -0.0382
 7744SOL    HW124282   2.643   5.984   7.550  0.6510  0.4893 -0.0324
 7744SOL    HW224283   2.612   5.969   7.698  0.6721  2.0188  0.1507
 7745SOL     OW24284   2.316   3.730   6.927  0.5095  0.2616  0.0128
 7745SOL    HW124285   2.260   3.713   6.851 -1.3733 -0.3781  1.4670
 7745SOL    HW224286   2.399   3.688   6.905  0.1274  0.3427 -1.8013
 7746SOL     OW24287   7.785   3.105   3.895  0.3682 -0.4519 -0.0090
 7746SOL    HW124288   7.810   3.063   3.977 -0.2411  0.2816  0.5620
 7746SOL    HW224289   7.693   3.129   3.907  0.1739 -0.6198 -1.0289
 7747SOL     OW24290   7.783   6.205   1.282  0.3976 -0.6380  0.2448
 7747SOL    HW124291   7.832   6.141   1.231  0.7684 -0.8985  0.9164
 7747SOL    HW224292   7.823   6.289   1.259  0.9298 -0.8121  0.5114
 7748SOL     OW24293   3.920   5.517   7.817  0.0626  0.1613  0.0130
 7748SOL    HW124294   3.834   5.497   7.780  0.6591 -2.2734 -0.2830
 7748SOL    HW224295   3.906   5.523   7.911 -0.2058 -2.3238  0.2116
 7749SOL     OW24296   6.145   7.211   6.209 -0.8121 -0.0348 -0.0064
 7749SOL    HW124297   6.093   7.290   6.223 -0.8070 -0.0446  0.0693
 7749SOL    HW224298   6.232   7.234   6.243 -0.8215 -0.0864  0.0516
 7750SOL     OW24299   4.554   0.879   0.261  0.3171 -0.6962  0.1316
 7750SOL    HW124300   4.626   0.879   0.323  0.9635  0.6612 -0.5721
 7750SOL    HW224301   4.542   0.971   0.239 -1.0188 -0.9908 -0.4788
 7751SOL     OW24302   6.783   5.880   5.557 -0.7384  0.3685 -0.0895
 7751SOL    HW124303   6.806   5.964   5.518  1.8703  0.6519  1.7432
 7751SOL    HW224304   6.704   5.897   5.607  0.9282  2.4801  2.0887
 7752SOL     OW24305   4.106   7.702   3.874  0.1870 -0.1739 -0.2526
 7752SOL    HW124306   4.048   7.772   3.906  2.1879  0.9263  1.2101
 7752SOL    HW224307   4.121   7.647   3.951  2.1525  0.3802 -0.1864
 7753SOL     OW24308   7.065   0.053   2.531 -0.1403 -0.1029  0.5743
 7753SOL    HW124309   7.132   0.049   2.600  1.6365  0.8526 -0.9910
 7753SOL    HW224310   7.073  -0.032   2.487  2.0358  0.9696 -1.2821
 7754SOL     OW24311   5.301   8.064   1.106 -0.1072  0.8864 -0.6092
 7754SOL    HW124312   5.336   7.976   1.094  0.2227  0.6939  1.4428
 7754SOL    HW224313   5.211   8.059   1.073  0.2119  0.0523 -1.3778
 7755SOL     OW24314   7.789   3.523   5.580  1.0354 -0.0192 -0.2055
 7755SOL    HW124315   7.783   3.617   5.596  1.8475  0.0170 -0.0533
 7755SOL    HW224316   7.877   3.499   5.611  0.2971 -1.0995  1.1909
 7756SOL     OW24317   6.061   6.586   6.217 -0.1212 -0.2306 -0.6555
 7756SOL    HW124318   5.984   6.531   6.202 -0.1983  0.0436 -1.2821
 7756SOL    HW224319   6.047   6.663   6.161  0.3187  0.1042 -0.3130
 7757SOL     OW24320   2.022   2.053   0.214 -0.5257  0.0114 -0.1255
 7757SOL    HW124321   1.928   2.068   0.211 -0.2633  2.1924  0.2676
 7757SOL    HW224322   2.052   2.074   0.125 -0.4311 -0.9240 -0.3197
 7758SOL     OW24323   4.447   1.324   2.219 -0.1316 -0.1627 -0.2431
 7758SOL    HW124324   4.383   1.353   2.154 -1.5022  0.4493  1.3008
 7758SOL    HW224325   4.522   1.292   2.168 -2.0707 -1.9307 -2.1657
 7759SOL     OW24326   5.478   3.977   5.315  0.2843  0.5276 -0.2096
 7759SOL    HW124327   5.520   4.063   5.318  2.1212 -0.3602  1.6646
 7759SOL    HW224328   5.434   3.976   5.230 -0.0808  3.4140 -0.1787
 7760SOL     OW24329   4.163   2.851   7.885  0.1136 -0.3510 -0.2561
 7760SOL    HW124330   4.144   2.882   7.973 -0.7104  0.9211 -0.8456
 7760SOL    HW224331   4.107   2.904   7.828 -0.4591 -2.1086 -1.4454
 7761SOL     OW24332   6.247   0.058   2.326  0.0358  0.2690  0.5231
 7761SOL    HW124333   6.193   0.026   2.398 -0.2667 -0.7363 -0.1204
 7761SOL    HW224334   6.298  -0.019   2.298 -0.1700  0.5142 -0.5973
 7762SOL     OW24335   6.797   6.048   2.961 -0.0528 -0.2561  0.3524
 7762SOL    HW124336   6.736   6.071   2.892 -0.5234 -1.2144  0.4405
 7762SOL    HW224337   6.823   6.132   3.000  1.5214  0.4746 -2.0471
 7763SOL     OW24338   0.291   4.744   7.578  0.2481 -0.0843  0.3186
 7763SOL    HW124339   0.323   4.831   7.605  0.1569  0.1395 -0.2865
 7763SOL    HW224340   0.370   4.690   7.572  0.2604 -0.1720  1.1401
 7764SOL     OW24341   3.731   4.743   6.852  0.1018 -0.4530 -0.5492
 7764SOL    HW124342   3.686   4.669   6.811  0.7254 -0.7830 -0.6620
 7764SOL    HW224343   3.724   4.727   6.946 -0.5799 -0.1541 -0.5443
 7765SOL     OW24344   7.353   0.550   7.780 -0.2800  0.4032  0.1309
 7765SOL    HW124345   7.433   0.517   7.739 -0.2614  0.6152 -0.0063
 7765SOL    HW224346   7.313   0.474   7.821 -0.9345 -0.0639 -1.3202
 7766SOL     OW24347   2.574   3.223   2.921 -0.4685 -0.2967  0.1924
 7766SOL    HW124348   2.509   3.189   2.859 -0.5917 -1.0301  0.7119
 7766SOL    HW224349   2.538   3.203   3.007  0.1643 -0.1668  0.4939
 7767SOL     OW24350   4.748   0.473   4.561  0.1976  0.0581 -0.2648
 7767SOL    HW124351   4.710   0.413   4.625  0.8270  0.0946  0.1497
 7767SOL    HW224352   4.751   0.557   4.605  2.3480 -0.2870  0.3676
 7768SOL     OW24353   5.382   0.743   4.262  0.2834  0.6356  0.4298
 7768SOL    HW124354   5.431   0.684   4.205  0.5027  1.9242 -0.7699
 7768SOL    HW224355   5.410   0.831   4.236 -2.3913  1.4257 -0.0775
 7769SOL     OW24356   5.661   0.539   4.414 -0.0159 -0.2219 -0.3481
 7769SOL    HW124357   5.711   0.457   4.411 -0.1631 -0.3708  0.7653
 7769SOL    HW224358   5.715   0.602   4.367  0.4069 -0.8019 -0.6503
 7770SOL     OW24359   0.905   6.515   0.047 -0.2983 -0.0331  0.0639
 7770SOL    HW124360   0.864   6.450   0.105 -0.3846 -0.2763 -0.2654
 7770SOL    HW224361   0.840   6.585   0.041  1.0148  1.6239  2.9416
 7771SOL     OW24362   4.650   7.936   0.677 -0.0021  0.2704  0.4578
 7771SOL    HW124363   4.679   7.924   0.586  1.3103 -0.2041  0.9156
 7771SOL    HW224364   4.686   8.021   0.702  1.2442 -0.4209  1.1027
 7772SOL     OW24365   6.709   6.054   3.741 -0.3814 -0.1595 -0.1581
 7772SOL    HW124366   6.750   6.125   3.790  0.7493 -1.2908  0.6071
 7772SOL    HW224367   6.615   6.064   3.758 -0.4211  1.9885 -1.2601
 7773SOL     OW24368   4.095   5.972   8.066 -0.5546 -0.2882  0.1636
 7773SOL    HW124369   4.074   5.892   8.018  1.4487 -0.3879 -0.6672
 7773SOL    HW224370   4.152   6.021   8.006 -0.1031  0.8107  1.4351
 7774SOL     OW24371   7.272   5.720   7.905 -0.1787  0.2352  0.0536
 7774SOL    HW124372   7.266   5.675   7.822  0.6643  0.6409 -0.2401
 7774SOL    HW224373   7.286   5.812   7.882  0.6391  0.2733  0.6243
 7775SOL     OW24374   1.829   8.021   2.144  0.3149 -0.0121  0.5886
 7775SOL    HW124375   1.895   8.046   2.080  0.3129 -0.6126  0.3477
 7775SOL    HW224376   1.807   7.930   2.123 -1.4941  0.5365 -0.1089
 7776SOL     OW24377   2.811   3.614   2.879  0.2393  0.8620  0.0909
 7776SOL    HW124378   2.733   3.669   2.878  1.1291  2.2859  1.9631
 7776SOL    HW224379   2.783   3.531   2.842 -1.9988  1.5366  0.1605
 7777SOL     OW24380   2.997   2.027   5.579  0.2652 -0.1043 -0.7594
 7777SOL    HW124381   2.955   2.009   5.495  0.6750 -0.2556 -0.9329
 7777SOL    HW224382   2.928   2.068   5.632 -0.0270 -0.1166 -1.1275
 7778SOL     OW24383   3.016   4.459   7.313  0.2767  0.4186 -0.3143
 7778SOL    HW124384   2.987   4.538   7.358  0.4278 -0.1271  0.7790
 7778SOL    HW224385   3.005   4.479   7.220 -0.3127  1.4764 -0.0355
 7779SOL     OW24386   4.797   7.841   2.852  0.5183 -0.0424  0.6556
 7779SOL    HW124387   4.770   7.850   2.944 -0.6083  3.3078  0.1050
 7779SOL    HW224388   4.869   7.903   2.842  0.2293  0.0863 -0.8586
 7780SOL     OW24389   0.220   3.709   0.471 -0.6200 -0.2174 -0.3286
 7780SOL    HW124390   0.206   3.685   0.379 -1.5560  0.1268 -0.2871
 7780SOL    HW224391   0.220   3.805   0.471 -2.0965 -0.1837  0.2139
 7781SOL     OW24392   7.860   2.383   0.079 -0.1816 -0.4881  0.0581
 7781SOL    HW124393   7.849   2.453   0.015 -0.4442 -1.4636 -0.9905
 7781SOL    HW224394   7.771   2.357   0.102 -0.0864 -0.3241  0.6251
 7782SOL     OW24395   1.030   3.802   0.256 -0.0971 -0.3346  0.2015
 7782SOL    HW124396   1.050   3.723   0.305 -0.3047 -0.1577  0.5683
 7782SOL    HW224397   1.084   3.795   0.177  0.3338 -0.5546  0.5115
 7783SOL     OW24398   3.264   7.696   1.145  0.0030  0.1320 -0.4106
 7783SOL    HW124399   3.278   7.625   1.208  0.2079 -0.3765 -1.0213
 7783SOL    HW224400   3.310   7.771   1.183 -1.5283  0.3877  1.0085
 7784SOL     OW24401   7.923   2.755   3.724  0.4014 -0.0673 -0.9165
 7784SOL    HW124402   7.939   2.849   3.720  0.4077 -0.0065  0.1595
 7784SOL    HW224403   7.986   2.717   3.664  0.5537  0.6008 -1.1838
 7785SOL     OW24404   1.122   7.900   1.054  0.2774  1.0346  0.4049
 7785SOL    HW124405   1.081   7.973   1.100 -1.3233  0.8053 -0.5480
 7785SOL    HW224406   1.050   7.838   1.040  0.8874  0.7032 -1.5524
 7786SOL     OW24407   4.416   6.191   1.028  0.2249  0.1171  1.0050
 7786SOL    HW124408   4.414   6.234   0.943  1.6799 -1.1199  0.3029
 7786SOL    HW224409   4.325   6.164   1.043 -0.0313  0.2347 -0.2122
 7787SOL     OW24410   0.174   5.870   4.211  0.2365  0.1265  0.3853
 7787SOL    HW124411   0.234   5.927   4.163  1.2874 -1.5796 -0.4691
 7787SOL    HW224412   0.115   5.836   4.144  0.5584 -0.8753  0.5839
 7788SOL     OW24413   0.536   2.808   2.374 -0.4514 -0.1305  0.6178
 7788SOL    HW124414   0.498   2.862   2.304  0.0288  0.0141  0.4628
 7788SOL    HW224415   0.596   2.867   2.419  1.5045 -1.0051 -0.7152
 7789SOL     OW24416   5.373   6.515   3.665 -0.4777  0.1190 -0.0039
 7789SOL    HW124417   5.327   6.497   3.584 -0.9762 -0.6395  0.4373
 7789SOL    HW224418   5.430   6.590   3.645 -1.9244  1.1076 -0.5615
 7790SOL     OW24419   1.218   0.990   7.993  0.0170  0.5279 -0.3999
 7790SOL    HW124420   1.301   0.958   7.956  1.0541  2.8257 -0.1938
 7790SOL    HW224421   1.172   1.027   7.918  0.2932  1.4589 -0.1252
 7791SOL     OW24422   3.503   1.570   5.169  0.1331  0.6803  0.8563
 7791SOL    HW124423   3.518   1.586   5.076 -0.0558  0.2457  0.7469
 7791SOL    HW224424   3.411   1.545   5.175  0.3543 -0.1467  1.0349
 7792SOL     OW24425   5.960   3.431   3.284  0.1784  0.1875  0.0381
 7792SOL    HW124426   5.943   3.461   3.373  0.6820  1.9653 -0.4273
 7792SOL    HW224427   5.906   3.352   3.275 -0.9920  0.7738  1.4363
 7793SOL     OW24428   1.827   0.006   6.890 -0.1995 -0.0469 -0.1312
 7793SOL    HW124429   1.767   0.079   6.878  0.1165  0.5141  1.4229
 7793SOL    HW224430   1.808  -0.027   6.978  2.3505  0.7688  0.8359
 7794SOL     OW24431   4.534   4.295   2.403  0.7720 -0.0234 -0.4337
 7794SOL    HW124432   4.499   4.383   2.420  0.1420 -0.4340  0.4600
 7794SOL    HW224433   4.466   4.236   2.432  1.5323 -0.8265 -0.2411
 7795SOL     OW24434   3.832   1.193   6.496  0.2598  0.3093 -0.1140
 7795SOL    HW124435   3.834   1.106   6.535  0.4104  0.8551  1.1588
 7795SOL    HW224436   3.741   1.221   6.503  0.6739  1.3854  2.2380
 7796SOL     OW24437   8.057   6.507   5.884  0.0003  0.0050 -0.3440
 7796SOL    HW124438   7.969   6.488   5.852  0.8425 -3.5036 -1.0444
 7796SOL    HW224439   8.100   6.550   5.810 -0.7821  0.7369 -0.3920
 7797SOL     OW24440   7.715   5.221   3.185  0.4460 -0.2319 -0.2999
 7797SOL    HW124441   7.685   5.301   3.228  0.8991 -0.1147 -0.1995
 7797SOL    HW224442   7.693   5.151   3.247 -0.0538 -0.2044 -0.4370
 7798SOL     OW24443   6.584   3.608   1.226  0.0639  0.0309  0.3023
 7798SOL    HW124444   6.586   3.541   1.295 -0.3844  0.7368  1.0186
 7798SOL    HW224445   6.635   3.681   1.261 -0.4223  0.5176  0.0174
 7799SOL     OW24446   8.248   6.903   0.295 -0.2731 -0.5345  0.5272
 7799SOL    HW124447   8.291   6.978   0.336 -2.0079  1.6000 -1.2690
 7799SOL    HW224448   8.194   6.866   0.365 -1.0954  1.3209  0.9502
 7800SOL     OW24449   6.097   3.185   6.429 -0.3421  0.4834  0.2654
 7800SOL    HW124450   6.049   3.267   6.415 -1.2381  0.1504  1.2446
 7800SOL    HW224451   6.033   3.116   6.413  0.2725 -0.0300 -0.0573
 7801SOL     OW24452   5.975   4.929   1.830 -0.1623  0.0305 -0.2681
 7801SOL    HW124453   5.977   4.891   1.918  0.8697  2.2274  0.7364
 7801SOL    HW224454   5.948   4.857   1.773 -0.4013 -1.5795  1.7705
 7802SOL     OW24455   5.368   4.643   0.575 -0.2058 -0.2905  0.2454
 7802SOL    HW124456   5.367   4.627   0.669 -1.4644  0.0870  0.3220
 7802SOL    HW224457   5.447   4.695   0.560  1.6339 -2.8192  0.6091
 7803SOL     OW24458   1.085   5.408   3.417 -0.3465 -0.4039 -0.5121
 7803SOL    HW124459   1.058   5.495   3.447 -0.3611 -0.5999  0.0509
 7803SOL    HW224460   1.137   5.425   3.339  0.2559  0.1559  0.0038
 7804SOL     OW24461   2.292   3.994   4.779 -0.3792  0.2879 -0.4475
 7804SOL    HW124462   2.350   3.999   4.704  0.4529  1.4854  0.2404
 7804SOL    HW224463   2.248   4.079   4.782  2.1306  1.7004  2.3118
 7805SOL     OW24464   1.571   5.779   3.515 -0.0446  0.6277  0.3554
 7805SOL    HW124465   1.533   5.691   3.507  1.3925  0.1760 -2.9444
 7805SOL    HW224466   1.502   5.831   3.556 -1.5038 -1.6891  1.0381
 7806SOL     OW24467   6.469   5.942   7.168  0.0370  0.7785  0.3094
 7806SOL    HW124468   6.446   5.850   7.181 -2.8401  1.4722  0.9795
 7806SOL    HW224469   6.480   5.951   7.074  0.3279 -0.2444  0.2331
 7807SOL     OW24470   3.139   5.219   0.820 -0.2982  0.3591 -0.0826
 7807SOL    HW124471   3.217   5.170   0.847 -1.4610 -2.0394 -0.8114
 7807SOL    HW224472   3.172   5.307   0.802  1.8965 -0.0661  1.3748
 7808SOL     OW24473   1.133   1.826   5.756 -0.5160 -0.4029 -0.3940
 7808SOL    HW124474   1.106   1.836   5.847 -1.1181  1.7915 -0.7504
 7808SOL    HW224475   1.127   1.914   5.719 -0.3545 -1.2326 -2.5812
 7809SOL     OW24476   1.964   5.767   3.533 -0.4132 -0.3642  0.3503
 7809SOL    HW124477   1.907   5.843   3.543 -1.7666 -1.1756 -0.8292
 7809SOL    HW224478   1.909   5.692   3.556 -0.8375 -1.4454 -3.4364
 7810SOL     OW24479   3.105   2.241   5.872  0.0549 -0.0427 -0.5308
 7810SOL    HW124480   3.177   2.250   5.809  1.9308 -0.1822  1.4980
 7810SOL    HW224481   3.068   2.329   5.879 -0.4670 -0.0957 -2.0528
 7811SOL     OW24482   0.129   8.194   7.530 -0.0556  0.3162  0.6248
 7811SOL    HW124483   0.088   8.212   7.446  1.1513 -0.3113 -0.1281
 7811SOL    HW224484   0.099   8.106   7.553 -0.0556  0.3243  0.6566
 7812SOL     OW24485   1.395   5.855   4.597 -0.7278  0.6654 -0.0657
 7812SOL    HW124486   1.430   5.832   4.511 -0.1411 -1.4867  0.7006
 7812SOL    HW224487   1.300   5.846   4.587 -0.6227 -0.1769 -0.3221
 7813SOL     OW24488   0.040   6.699   2.492  0.1411 -0.1748 -0.1553
 7813SOL    HW124489   0.126   6.702   2.535 -0.0648  0.0643  0.2417
 7813SOL    HW224490   0.053   6.749   2.411  0.0522  0.9191  0.4921
 7814SOL     OW24491   2.724   5.092   7.577 -0.3358  0.2965  0.2671
 7814SOL    HW124492   2.647   5.091   7.520  0.3634  0.7159 -0.6974
 7814SOL    HW224493   2.765   5.176   7.561  1.2397 -0.5781 -0.4737
 7815SOL     OW24494   7.718   2.631   4.837  0.8049  0.2709 -0.4290
 7815SOL    HW124495   7.625   2.612   4.827  0.7943 -0.2700  0.5355
 7815SOL    HW224496   7.762   2.564   4.784  0.6500  0.3979 -0.7191
 7816SOL     OW24497   3.864   7.487   3.369 -0.6983  0.4346 -0.0144
 7816SOL    HW124498   3.900   7.472   3.457  3.0150  3.0635 -0.8664
 7816SOL    HW224499   3.806   7.563   3.379 -1.2496 -0.0114  0.2934
 7817SOL     OW24500   5.078   5.340   6.961 -0.1803 -0.0940  0.0291
 7817SOL    HW124501   5.136   5.404   7.003 -2.5504  0.7376  2.3284
 7817SOL    HW224502   5.045   5.385   6.883  1.1786 -0.0552 -0.5357
 7818SOL     OW24503   2.659   1.541   5.692  0.1530 -0.0424 -0.2053
 7818SOL    HW124504   2.679   1.521   5.783  0.7122 -0.5018 -0.4276
 7818SOL    HW224505   2.737   1.586   5.659 -0.0071  0.0341 -0.4838
 7819SOL     OW24506   2.579   3.629   6.859 -0.4564  0.2575 -0.4469
 7819SOL    HW124507   2.634   3.673   6.794 -0.2213 -0.5490 -0.7995
 7819SOL    HW224508   2.635   3.560   6.895 -1.4636 -1.0754 -1.3553
 7820SOL     OW24509   2.422   0.974   8.244  0.2309 -0.3781  0.1069
 7820SOL    HW124510   2.446   0.901   8.300 -0.3450 -0.0080  0.8461
 7820SOL    HW224511   2.431   0.940   8.155  1.4463 -0.8719  0.4038
 7821SOL     OW24512   1.370   5.947   7.809  0.7231 -0.5216  0.1289
 7821SOL    HW124513   1.333   6.014   7.752  0.2258 -1.3220 -0.5091
 7821SOL    HW224514   1.341   5.972   7.897  0.2216 -0.1191 -0.1474
 7822SOL     OW24515   1.831   3.370   4.096 -0.3995 -0.0670 -0.2612
 7822SOL    HW124516   1.915   3.415   4.107 -0.2570 -0.9230  3.8817
 7822SOL    HW224517   1.765   3.438   4.110 -0.2786 -0.0924  0.4911
 7823SOL     OW24518   6.403   6.146   5.977  0.0643  0.0372  0.1381
 7823SOL    HW124519   6.354   6.072   5.940 -0.0931  0.8719 -1.3904
 7823SOL    HW224520   6.493   6.132   5.948 -0.0409  0.6557 -0.4882
 7824SOL     OW24521   1.297   8.044   0.909  0.0672 -0.1180 -0.6134
 7824SOL    HW124522   1.225   8.010   0.962 -1.9823  0.8549 -2.6267
 7824SOL    HW224523   1.320   8.127   0.950  0.7979 -0.9094  0.6388
 7825SOL     OW24524   2.472   1.154   7.403 -0.1197  0.4135  0.6422
 7825SOL    HW124525   2.521   1.233   7.382 -0.6970  0.4790 -0.5814
 7825SOL    HW224526   2.437   1.124   7.318  0.1766 -1.2118  1.0528
 7826SOL     OW24527   4.890   0.523   4.158 -0.4227  0.1809 -0.3491
 7826SOL    HW124528   4.863   0.614   4.174  0.4265  0.4071 -0.1248
 7826SOL    HW224529   4.930   0.525   4.071  0.4844  0.2414  0.0565
 7827SOL     OW24530   0.105   2.356   3.781  0.0240  0.3153  0.3400
 7827SOL    HW124531   0.089   2.324   3.693  1.4666  0.4004  0.0253
 7827SOL    HW224532   0.087   2.450   3.776  0.3142  0.3565  0.0896
 7828SOL     OW24533   3.108   2.285   7.523  0.6808  0.7245 -0.3696
 7828SOL    HW124534   3.045   2.340   7.569  1.5032  1.0230  0.4125
 7828SOL    HW224535   3.054   2.223   7.474 -0.2685  1.9799 -1.0001
 7829SOL     OW24536   4.120   2.423   0.469 -0.1462 -0.4527 -0.1714
 7829SOL    HW124537   4.203   2.420   0.422 -0.4818  1.9360 -1.0956
 7829SOL    HW224538   4.061   2.368   0.418  1.0148 -2.8993  0.9908
 7830SOL     OW24539   3.947   0.517   2.808 -0.5213 -0.0477  1.0744
 7830SOL    HW124540   3.922   0.544   2.719 -1.4887 -1.0588  1.0122
 7830SOL    HW224541   4.023   0.571   2.829 -0.7515  0.7625 -0.0671
 7831SOL     OW24542   7.922   1.336   4.981  0.3228  0.0819  0.0037
 7831SOL    HW124543   7.839   1.340   5.029  0.1149  0.7969 -0.4005
 7831SOL    HW224544   7.906   1.274   4.910  1.0541 -2.0560  1.6111
 7832SOL     OW24545   5.479   2.967   1.831  0.0328  1.2172 -0.0125
 7832SOL    HW124546   5.435   2.927   1.756  0.0492  1.0623  0.0615
 7832SOL    HW224547   5.408   2.994   1.889  0.0306  1.0674  0.0550
 7833SOL     OW24548   2.304   5.098   4.159  0.2886  0.2958  0.2260
 7833SOL    HW124549   2.221   5.114   4.205  0.4956  3.1637 -0.1967
 7833SOL    HW224550   2.293   5.143   4.075  2.2096  0.5654  0.0905
 7834SOL     OW24551   1.775   6.853   5.488  0.0441  0.0985 -0.5294
 7834SOL    HW124552   1.820   6.924   5.442 -1.0659  0.9322 -0.3526
 7834SOL    HW224553   1.730   6.895   5.561 -1.6586 -0.5646 -1.1492
 7835SOL     OW24554   7.893   5.821   1.553  0.1188  0.0896  0.0966
 7835SOL    HW124555   7.920   5.733   1.580 -0.4923 -0.0158  0.3793
 7835SOL    HW224556   7.799   5.825   1.573  0.4715  1.4079  1.7093
 7836SOL     OW24557   6.382   2.465   0.087 -0.1887 -0.7359 -0.3801
 7836SOL    HW124558   6.453   2.500   0.033  0.5473 -1.3791  0.1489
 7836SOL    HW224559   6.419   2.460   0.175 -1.4078  0.4001  0.2363
 7837SOL     OW24560   1.257   3.667   6.017  0.7575 -0.0285  0.3385
 7837SOL    HW124561   1.344   3.630   6.009  0.4253 -1.1803  1.6561
 7837SOL    HW224562   1.198   3.598   5.985  0.3664  1.3756 -2.2171
 7838SOL     OW24563   1.489   1.766   3.302 -0.4057  0.7204  0.2744
 7838SOL    HW124564   1.409   1.721   3.274 -1.4018  2.2672  0.4857
 7838SOL    HW224565   1.494   1.843   3.245  2.0044 -0.2849 -1.0050
 7839SOL     OW24566   2.557   4.655   5.069 -0.2614  0.1057  0.3627
 7839SOL    HW124567   2.521   4.738   5.100 -2.3919  0.1216 -1.9083
 7839SOL    HW224568   2.635   4.680   5.019 -0.5901  0.7024  0.1380
 7840SOL     OW24569   3.850   2.049   5.523 -0.0080  0.3388  0.0256
 7840SOL    HW124570   3.861   2.112   5.594  0.6853  0.6528 -0.3574
 7840SOL    HW224571   3.781   1.990   5.554 -0.3961  1.0512  0.5448
 7841SOL     OW24572   0.645   3.645   8.093 -0.7074  0.7221  0.4155
 7841SOL    HW124573   0.614   3.716   8.150 -0.8430 -0.8882  2.4863
 7841SOL    HW224574   0.610   3.566   8.134  2.5227 -0.8670  0.3965
 7842SOL     OW24575   3.608   5.133   7.425 -0.1700  0.3248  0.7574
 7842SOL    HW124576   3.691   5.151   7.469  0.5563  0.1203 -0.4983
 7842SOL    HW224577   3.576   5.053   7.468  0.4930  0.1648  0.9690
 7843SOL     OW24578   2.758   0.305   2.890  0.0029 -0.6720 -0.0210
 7843SOL    HW124579   2.680   0.316   2.835 -0.4518 -2.1520  0.2900
 7843SOL    HW224580   2.766   0.210   2.901  0.6708 -0.4471  1.6435
 7844SOL     OW24581   4.980   0.042   6.161 -0.3461  0.5644 -0.0813
 7844SOL    HW124582   5.056   0.097   6.180  0.3467 -0.4081  0.0275
 7844SOL    HW224583   4.993   0.014   6.071  0.8107 -1.6877  0.7148
 7845SOL     OW24584   0.309   5.745   2.678  0.0786 -0.0377 -0.4703
 7845SOL    HW124585   0.248   5.788   2.738  0.7509  0.8096 -0.3747
 7845SOL    HW224586   0.293   5.652   2.691 -0.7612  0.1551 -0.0028
 7846SOL     OW24587   8.119   0.950   8.234 -0.2904 -0.3006  0.1373
 7846SOL    HW124588   8.143   1.031   8.190  0.3239 -0.2136  0.6142
 7846SOL    HW224589   8.170   0.951   8.315 -1.3896 -0.4601  0.8516
 7847SOL     OW24590   2.499   0.697   3.556 -0.5172 -0.2837 -0.0322
 7847SOL    HW124591   2.467   0.741   3.478 -1.7041 -1.5360 -0.2866
 7847SOL    HW224592   2.455   0.741   3.629 -0.6055 -0.1132 -0.1899
 7848SOL     OW24593   6.591   7.688   4.535  0.1748 -0.7817  0.1133
 7848SOL    HW124594   6.675   7.660   4.573  0.1122 -1.0719  0.0413
 7848SOL    HW224595   6.597   7.663   4.443 -0.1767 -1.2233  0.2089
 7849SOL     OW24596   5.375   5.739   7.624 -0.3845  0.5110 -0.3584
 7849SOL    HW124597   5.393   5.775   7.710  0.3905 -1.7657  0.5246
 7849SOL    HW224598   5.371   5.815   7.566 -1.0210  2.1139  1.6612
 7850SOL     OW24599   6.506   7.536   5.411  0.0446  0.3242 -0.0825
 7850SOL    HW124600   6.529   7.496   5.495  0.2442 -2.1746 -1.2297
 7850SOL    HW224601   6.444   7.605   5.433  1.0663  0.5924  2.2056
 7851SOL     OW24602   4.310   2.168   4.803 -1.0397  0.1758 -0.7747
 7851SOL    HW124603   4.244   2.107   4.837  0.0593 -1.3799 -1.2798
 7851SOL    HW224604   4.393   2.128   4.827 -0.2692  1.1451 -1.7404
 7852SOL     OW24605   1.730   6.564   2.287  0.5674 -0.5302 -0.3072
 7852SOL    HW124606   1.779   6.520   2.357 -0.7236 -1.6732 -0.0712
 7852SOL    HW224607   1.722   6.497   2.219  0.1648 -0.0443 -0.7361
 7853SOL     OW24608   6.454   4.309   0.256  0.3681 -0.2420  0.2908
 7853SOL    HW124609   6.440   4.403   0.250  1.6296 -0.1385 -1.7812
 7853SOL    HW224610   6.372   4.270   0.228  0.1932  0.2550  0.1060
 7854SOL     OW24611   3.872   0.145   7.978  0.1980  0.3039  0.4941
 7854SOL    HW124612   3.814   0.198   7.923  0.6089 -0.7035 -0.9657
 7854SOL    HW224613   3.839   0.158   8.067  0.3624  3.0714  0.2367
 7855SOL     OW24614   0.050   4.270   2.028 -0.4339  0.1125  0.1256
 7855SOL    HW124615   0.123   4.210   2.016  0.2225  0.9674 -0.2779
 7855SOL    HW224616  -0.003   4.259   1.949 -1.5064 -1.4713  0.9906
 7856SOL     OW24617   8.062   7.817   0.456 -0.4668 -0.7572  0.0889
 7856SOL    HW124618   7.990   7.870   0.492 -1.4934 -1.4876 -0.8476
 7856SOL    HW224619   8.111   7.788   0.534 -0.6265  0.5019  0.6845
 7857SOL     OW24620   5.970   6.820   0.860 -0.2393 -0.7840 -0.2809
 7857SOL    HW124621   5.918   6.866   0.926  0.8899  1.4281 -0.8216
 7857SOL    HW224622   6.060   6.846   0.879  0.2105 -0.9065 -2.0598
 7858SOL     OW24623   4.100   2.431   5.369 -0.0503 -0.6423 -0.5582
 7858SOL    HW124624   4.080   2.364   5.433 -0.6653 -0.5503 -0.6424
 7858SOL    HW224625   4.184   2.405   5.332  0.4191 -0.5775  0.4323
 7859SOL     OW24626   1.312   1.817   0.092 -0.2209  0.2661 -0.1301
 7859SOL    HW124627   1.370   1.748   0.125 -0.8042  0.3001  1.0519
 7859SOL    HW224628   1.234   1.770   0.062 -0.6141  0.3946  0.6655
 7860SOL     OW24629   6.055   0.961   5.637 -0.1736 -0.0579  0.1071
 7860SOL    HW124630   6.027   1.053   5.635 -1.6928 -0.5030 -0.7487
 7860SOL    HW224631   6.039   0.934   5.728  1.8286  0.9256  0.8161
 7861SOL     OW24632   0.325   2.127   1.028 -0.0796 -0.1582  0.6426
 7861SOL    HW124633   0.304   2.049   1.078 -0.5588 -0.7659 -0.4914
 7861SOL    HW224634   0.377   2.181   1.089  1.5681 -2.0036  0.9638
 7862SOL     OW24635   2.685   1.822   1.433  0.3752  0.2561 -0.5727
 7862SOL    HW124636   2.618   1.769   1.476 -0.7311  2.0242  0.0165
 7862SOL    HW224637   2.760   1.819   1.492 -0.7499  1.7575  1.0557
 7863SOL     OW24638   2.182   3.443   2.763  0.2753  0.0106 -0.2006
 7863SOL    HW124639   2.122   3.450   2.689  2.3652 -1.1039 -2.1254
 7863SOL    HW224640   2.253   3.504   2.742  0.1367  0.8820  1.7217
 7864SOL     OW24641   3.176   7.274   4.850 -0.7560  0.3150 -0.2231
 7864SOL    HW124642   3.134   7.338   4.908 -0.9617  0.3414 -0.4010
 7864SOL    HW224643   3.262   7.259   4.889 -1.8178 -1.6294  1.5852
 7865SOL     OW24644   1.383   5.165   4.248  0.0413 -0.2710 -0.1097
 7865SOL    HW124645   1.315   5.207   4.300 -1.6749 -2.0779 -0.7841
 7865SOL    HW224646   1.399   5.081   4.293  0.7463 -0.5239 -0.8041
 7866SOL     OW24647   5.007   6.123   5.053 -0.4595 -0.4150 -0.1475
 7866SOL    HW124648   4.990   6.055   4.988  0.1849  0.3895 -1.1970
 7866SOL    HW224649   4.935   6.114   5.116 -0.2956 -2.1494 -0.1536
 7867SOL     OW24650   4.992   5.823   3.165 -1.0402  0.0474 -0.5240
 7867SOL    HW124651   5.002   5.809   3.071  0.5769 -1.4204 -0.1922
 7867SOL    HW224652   5.073   5.867   3.191 -1.8525  1.2469  0.0721
 7868SOL     OW24653   6.378   5.749   2.351 -0.2111  0.5074 -0.3269
 7868SOL    HW124654   6.453   5.723   2.404 -0.0019 -1.5003 -1.5111
 7868SOL    HW224655   6.412   5.816   2.291  0.4602  0.1547 -0.3449
 7869SOL     OW24656   8.159   4.736   2.132  0.1494  0.4822 -0.3602
 7869SOL    HW124657   8.126   4.756   2.045  1.2040 -1.0952 -1.1757
 7869SOL    HW224658   8.085   4.751   2.191 -1.0561  0.0027 -1.7236
 7870SOL     OW24659   1.209   0.640   7.765  0.0605  0.6769 -0.1637
 7870SOL    HW124660   1.272   0.661   7.696 -0.6884  0.5222 -0.9204
 7870SOL    HW224661   1.125   0.670   7.730 -0.2579  1.0875  0.9146
 7871SOL     OW24662   4.478   2.420   4.137  0.4440 -0.3309 -0.0716
 7871SOL    HW124663   4.556   2.411   4.191 -0.8693  0.1554  2.0401
 7871SOL    HW224664   4.494   2.499   4.085  1.9818 -1.1290 -0.8753
 7872SOL     OW24665   6.403   5.104   3.875  0.0167 -0.0643  0.1082
 7872SOL    HW124666   6.459   5.165   3.924 -2.3936  0.5887  2.2535
 7872SOL    HW224667   6.398   5.141   3.787  1.4043  0.8729  0.3886
 7873SOL     OW24668   4.021   5.236   1.276 -0.3576  0.6487  0.2159
 7873SOL    HW124669   3.982   5.301   1.334  0.5033  0.9709  0.4472
 7873SOL    HW224670   3.991   5.261   1.188 -1.3515  0.3839  0.4578
 7874SOL     OW24671   6.648   0.595   4.667 -0.3663 -0.2110  0.6880
 7874SOL    HW124672   6.636   0.500   4.671 -1.3208 -0.0753  1.7451
 7874SOL    HW224673   6.707   0.609   4.593  1.5590 -1.7719  1.8477
 7875SOL     OW24674   3.331   7.706   5.499  0.2791  0.2582 -0.1939
 7875SOL    HW124675   3.249   7.705   5.550  1.2751  0.5062  1.4816
 7875SOL    HW224676   3.349   7.798   5.483 -0.2140  0.1672 -1.3464
 7876SOL     OW24677   7.432   2.123   4.638 -0.0428 -0.2533  0.0892
 7876SOL    HW124678   7.437   2.062   4.712 -0.4834  0.8484  1.0512
 7876SOL    HW224679   7.488   2.196   4.663 -1.0675  0.6470 -0.1610
 7877SOL     OW24680   3.671   7.515   0.339 -0.8015  0.4159  0.1533
 7877SOL    HW124681   3.589   7.557   0.365  0.2600  1.4453  2.0942
 7877SOL    HW224682   3.716   7.580   0.286  0.5553  1.6582  2.6241
 7878SOL     OW24683   1.816   0.997   8.103 -0.2137  0.2678 -0.1428
 7878SOL    HW124684   1.720   1.003   8.107 -0.1884  1.3649 -0.7914
 7878SOL    HW224685   1.832   0.908   8.072 -1.0605  0.2983 -0.7192
 7879SOL     OW24686   1.027   6.795   0.493 -0.7518 -0.1625 -0.7715
 7879SOL    HW124687   1.019   6.707   0.529 -0.8204  0.3171  0.4202
 7879SOL    HW224688   0.944   6.838   0.514 -0.7521  0.1697 -1.4150
 7880SOL     OW24689   5.197   0.900   8.112 -0.1351  0.2619 -0.0199
 7880SOL    HW124690   5.169   0.921   8.201  0.7082  0.5570  0.1893
 7880SOL    HW224691   5.273   0.843   8.124 -0.6200 -0.5183 -0.5669
 7881SOL     OW24692   6.892   4.064   3.336  0.4688 -0.3395  0.1925
 7881SOL    HW124693   6.898   4.006   3.412  1.0056 -1.2099 -0.4927
 7881SOL    HW224694   6.814   4.034   3.288  0.0772  0.2651  0.4325
 7882SOL     OW24695   7.306   1.475   5.481  0.3217 -0.5270  0.7951
 7882SOL    HW124696   7.321   1.387   5.447 -0.5423 -0.0713 -0.9015
 7882SOL    HW224697   7.335   1.533   5.410 -0.4982  0.5087  1.2724
 7883SOL     OW24698   4.890   0.333   7.545 -0.0536  0.3232 -0.3697
 7883SOL    HW124699   4.967   0.386   7.566 -0.1013  0.1799  0.1747
 7883SOL    HW224700   4.880   0.274   7.619 -0.1227 -0.3178 -0.8817
 7884SOL     OW24701   0.616   3.170   1.596 -0.0043  0.0930 -0.1957
 7884SOL    HW124702   0.571   3.124   1.667 -0.2364  1.7065  0.7444
 7884SOL    HW224703   0.681   3.225   1.639  1.2701 -0.4203 -1.3908
 7885SOL     OW24704   1.171   5.489   6.825 -0.9903  0.1601 -0.0452
 7885SOL    HW124705   1.150   5.530   6.742  1.7524  1.7989 -0.0311
 7885SOL    HW224706   1.252   5.440   6.809 -1.6827 -1.4765  1.1085
 7886SOL     OW24707   6.634   5.389   1.462  0.0579  0.1763 -0.5769
 7886SOL    HW124708   6.653   5.394   1.368 -1.9180  2.1362 -0.9643
 7886SOL    HW224709   6.554   5.336   1.467 -0.0532  0.3948 -0.0303
 7887SOL     OW24710   7.992   6.491   3.489 -0.6026  0.3587  0.1301
 7887SOL    HW124711   7.972   6.541   3.410 -0.7059  1.1298  0.6364
 7887SOL    HW224712   7.967   6.401   3.468  0.5030  0.3244 -1.1362
 7888SOL     OW24713   1.897   6.687   1.899  0.1309  0.4717 -0.9886
 7888SOL    HW124714   1.963   6.654   1.839  0.4056  0.6592 -0.7894
 7888SOL    HW224715   1.914   6.781   1.904  0.6434  0.3365  0.0354
 7889SOL     OW24716   5.097   4.511   2.478 -0.2668 -0.5534  0.4574
 7889SOL    HW124717   5.131   4.485   2.563 -1.4244 -0.5081  0.9479
 7889SOL    HW224718   5.175   4.518   2.422  0.3894 -1.8308  1.1585
 7890SOL     OW24719   1.306   1.830   4.575 -0.0386  0.1201  0.4736
 7890SOL    HW124720   1.249   1.753   4.576 -1.4062  1.1005  1.0841
 7890SOL    HW224721   1.296   1.869   4.662  0.5755  1.0164  0.1587
 7891SOL     OW24722   2.569   4.268   1.975 -0.4906 -0.4244 -0.0934
 7891SOL    HW124723   2.537   4.231   2.057 -0.3886 -1.3587 -0.4616
 7891SOL    HW224724   2.578   4.362   1.993  0.8370 -0.7919  1.3899
 7892SOL     OW24725   2.543   5.662   6.955  0.2911 -0.1043  0.0970
 7892SOL    HW124726   2.546   5.746   6.999 -1.6078  0.7130 -1.1852
 7892SOL    HW224727   2.569   5.680   6.865 -0.5261 -0.7841 -0.2934
 7893SOL     OW24728   3.778   6.171   1.276  0.1355  0.4176 -0.1666
 7893SOL    HW124729   3.823   6.168   1.191  0.3018  0.4010 -0.0790
 7893SOL    HW224730   3.786   6.263   1.304 -0.8816  0.6782 -0.6789
 7894SOL     OW24731   5.929   1.555   3.099  0.1616 -0.2188  0.1905
 7894SOL    HW124732   5.972   1.477   3.065 -0.1019 -1.1081  1.7974
 7894SOL    HW224733   5.903   1.532   3.188 -1.1275  1.2491  0.2476
 7895SOL     OW24734   1.594   6.152   4.048  0.0675 -0.4200  0.1749
 7895SOL    HW124735   1.511   6.195   4.069  0.8591  2.7193 -2.3636
 7895SOL    HW224736   1.643   6.155   4.130 -0.8260  1.4972  0.7016
 7896SOL     OW24737   2.931   4.272   0.137 -0.4477 -0.0144  0.3875
 7896SOL    HW124738   2.882   4.336   0.086 -0.3853 -0.8863 -0.7965
 7896SOL    HW224739   2.950   4.318   0.219  0.7590  1.9773 -0.9113
 7897SOL     OW24740   3.605   1.205   3.586  0.1882 -0.2769 -0.1594
 7897SOL    HW124741   3.582   1.223   3.678 -1.3154  0.2210 -0.6008
 7897SOL    HW224742   3.647   1.285   3.555 -1.7504  0.6237 -0.6318
 7898SOL     OW24743   5.977   7.602   4.746  0.4985 -0.3237  0.0061
 7898SOL    HW124744   5.988   7.655   4.826  0.0157 -2.0096  1.2460
 7898SOL    HW224745   6.044   7.534   4.753 -0.2616 -1.1469 -0.4584
 7899SOL     OW24746   1.477   2.285   6.942 -0.4891 -0.0639  0.2964
 7899SOL    HW124747   1.449   2.340   7.015 -1.0395  2.3060 -1.5979
 7899SOL    HW224748   1.545   2.336   6.898 -0.1047 -1.4795 -0.8212
 7900SOL     OW24749   2.861   2.630   6.005  0.0565 -0.4545  0.2627
 7900SOL    HW124750   2.809   2.651   5.928 -0.3964  1.2845  1.0054
 7900SOL    HW224751   2.809   2.564   6.051  0.2230 -1.3363 -0.7759
 7901SOL     OW24752   0.905   0.323   7.914 -0.7055  0.1743  0.0469
 7901SOL    HW124753   0.980   0.381   7.927 -1.5331  1.0156  1.3258
 7901SOL    HW224754   0.831   0.382   7.902 -1.1475 -0.6450 -1.4863
 7902SOL     OW24755   1.050   0.004   7.228  0.1918  0.0842  0.0000
 7902SOL    HW124756   1.118   0.020   7.293 -0.4269 -0.0581  0.6974
 7902SOL    HW224757   0.988  -0.054   7.271 -0.0979 -0.2320 -0.8150
 7903SOL     OW24758   6.680   6.252   7.360 -0.4502  0.1546 -0.4595
 7903SOL    HW124759   6.698   6.257   7.453 -1.8076 -0.2464 -0.1586
 7903SOL    HW224760   6.743   6.311   7.320 -0.7117  1.3424  0.8287
 7904SOL     OW24761   0.526   3.209   6.937  0.0780  0.3157 -0.3294
 7904SOL    HW124762   0.493   3.168   7.017  1.3906  0.3891  0.2794
 7904SOL    HW224763   0.620   3.188   6.936  0.2545  1.0401 -1.4052
 7905SOL     OW24764   3.693   4.581   6.594 -0.2014 -0.2476 -0.6618
 7905SOL    HW124765   3.709   4.492   6.563  0.7018 -0.1065 -0.6129
 7905SOL    HW224766   3.598   4.592   6.587 -0.4489 -1.5924  0.3875
 7906SOL     OW24767   5.368   2.723   6.542  0.2414  0.0105 -0.1460
 7906SOL    HW124768   5.302   2.793   6.538  1.7781  1.4605 -1.6670
 7906SOL    HW224769   5.345   2.664   6.470  0.3479  0.2848 -0.4078
 7907SOL     OW24770   4.284   2.076   6.498 -0.3129 -0.8085  0.7503
 7907SOL    HW124771   4.238   2.089   6.415 -0.7798  0.6913  1.2169
 7907SOL    HW224772   4.249   1.993   6.531 -0.3087 -1.2977 -0.4162
 7908SOL     OW24773   6.147   2.607   5.286  0.1928 -0.3038  0.1212
 7908SOL    HW124774   6.117   2.575   5.201  0.6593 -0.4179 -0.0035
 7908SOL    HW224775   6.067   2.616   5.338 -0.4544  2.4037 -1.1676
 7909SOL     OW24776   6.721   5.066   1.380  0.5042 -0.1774  0.1520
 7909SOL    HW124777   6.702   5.054   1.473  0.0273 -0.4388  0.0253
 7909SOL    HW224778   6.635   5.062   1.337  0.5356  1.5164 -0.1396
 7910SOL     OW24779   2.454   0.532   2.153 -0.0853  0.7238  0.4097
 7910SOL    HW124780   2.426   0.617   2.189 -0.9399  0.3456  0.6634
 7910SOL    HW224781   2.373   0.482   2.145  0.3899  0.0037  0.0575
 7911SOL     OW24782   2.054   6.533   3.264 -0.0478 -0.3358 -0.5653
 7911SOL    HW124783   2.108   6.603   3.300  0.9443  0.0028 -2.5663
 7911SOL    HW224784   2.038   6.474   3.338  0.8845  0.8902  0.6612
 7912SOL     OW24785   4.708   3.950   7.256 -0.2625  0.0675  0.5470
 7912SOL    HW124786   4.698   4.045   7.251 -0.9042  0.0661  1.5049
 7912SOL    HW224787   4.697   3.920   7.166  0.0794  0.9075  0.2134
 7913SOL     OW24788   0.922   0.093   5.408 -0.1278  0.1818  0.4432
 7913SOL    HW124789   0.939   0.101   5.502  0.4997  1.0145  0.2647
 7913SOL    HW224790   1.008   0.103   5.367 -0.5268  0.7190 -0.2755
 7914SOL     OW24791   6.954   2.287   1.038  0.2402  0.1952 -0.1444
 7914SOL    HW124792   7.020   2.352   1.062  0.2167  0.8859 -1.8367
 7914SOL    HW224793   7.004   2.213   1.004  0.3406 -1.2594  2.8164
 7915SOL     OW24794   3.309   6.419   0.364  0.6647  0.3909 -0.3702
 7915SOL    HW124795   3.355   6.340   0.391 -0.7653  0.0291  1.1403
 7915SOL    HW224796   3.343   6.488   0.421 -0.7140  0.0847  0.8836
 7916SOL     OW24797   7.705   5.252   5.595 -0.2784 -0.1079 -0.4159
 7916SOL    HW124798   7.786   5.271   5.642  0.8782 -0.3246 -2.2355
 7916SOL    HW224799   7.655   5.196   5.654  1.0919 -0.3382  0.5584
 7917SOL     OW24800   1.427   1.989   2.688  0.4353 -0.8636  0.0449
 7917SOL    HW124801   1.502   2.020   2.636 -0.6879 -1.3298 -1.9894
 7917SOL    HW224802   1.430   2.040   2.769  2.8204 -0.7440 -0.0596
 7918SOL     OW24803   4.337   1.743   7.424  0.2409 -0.1457 -0.3198
 7918SOL    HW124804   4.417   1.694   7.404  0.1287 -1.4251  2.0796
 7918SOL    HW224805   4.268   1.694   7.379  0.7517  1.2705 -2.8650
 7919SOL     OW24806   1.164   8.017   2.497  0.2770  0.2048 -0.1817
 7919SOL    HW124807   1.107   7.962   2.444 -2.0905  2.6790 -0.3949
 7919SOL    HW224808   1.252   8.001   2.463 -0.6196 -1.5797 -1.8180
 7920SOL     OW24809   0.527   4.814   1.499 -0.8763 -0.4487  0.5138
 7920SOL    HW124810   0.555   4.877   1.566 -0.7029  1.1710 -1.0172
 7920SOL    HW224811   0.608   4.773   1.470 -0.6763  0.4468 -0.2297
 7921SOL     OW24812   5.176   1.546   1.602  0.6053 -0.7096 -0.2528
 7921SOL    HW124813   5.271   1.535   1.603  0.5896 -1.5572 -2.5002
 7921SOL    HW224814   5.144   1.485   1.668  1.6541  0.5967  1.5364
 7922SOL     OW24815   6.615   7.632   1.962 -0.1071 -0.1797 -0.8244
 7922SOL    HW124816   6.593   7.622   2.055  0.5218 -1.4706 -0.7846
 7922SOL    HW224817   6.566   7.562   1.918  0.0902  0.0224 -1.3833
 7923SOL     OW24818   5.229   0.932   7.069  0.4214  0.4529 -0.0518
 7923SOL    HW124819   5.136   0.911   7.078  0.6788 -0.1722  1.3674
 7923SOL    HW224820   5.256   0.959   7.156  2.1277 -1.7443  0.1767
 7924SOL     OW24821   2.076   5.753   5.886  0.4895 -0.1881  0.4508
 7924SOL    HW124822   2.096   5.787   5.973 -0.4114 -0.4181  0.7678
 7924SOL    HW224823   2.103   5.661   5.889  3.5869  0.5742 -0.6366
 7925SOL     OW24824   3.884   5.523   1.335 -0.1356  0.5669 -0.6513
 7925SOL    HW124825   3.826   5.577   1.281 -0.5627 -0.3717 -1.1695
 7925SOL    HW224826   3.840   5.517   1.419  0.5115  2.0075 -0.1813
 7926SOL     OW24827   6.517   3.860   2.181 -0.1316 -0.2481  0.5151
 7926SOL    HW124828   6.610   3.883   2.185  0.2210 -1.7080  1.1570
 7926SOL    HW224829   6.472   3.945   2.182  1.1775  0.4939  0.0450
 7927SOL     OW24830   8.201   5.255   7.987  0.1897 -0.2964 -0.0015
 7927SOL    HW124831   8.252   5.205   8.051 -1.5913 -0.1871  1.6197
 7927SOL    HW224832   8.187   5.195   7.914  1.8609 -0.5922 -0.1075
 7928SOL     OW24833   4.682   5.804   0.739 -0.5584  0.6968  0.4281
 7928SOL    HW124834   4.591   5.783   0.762 -0.9165  0.1544 -1.2891
 7928SOL    HW224835   4.682   5.807   0.643  1.0467  1.6415  0.4229
 7929SOL     OW24836   3.188   7.053   6.497 -0.1631 -0.0229  0.1613
 7929SOL    HW124837   3.270   7.062   6.546  0.6097 -0.1993 -1.0415
 7929SOL    HW224838   3.212   7.076   6.407 -0.6465 -3.2489 -0.9163
 7930SOL     OW24839   7.923   6.231   0.550 -0.4228 -0.1627  0.2504
 7930SOL    HW124840   7.845   6.214   0.603 -1.3059  1.4484 -0.4503
 7930SOL    HW224841   7.889   6.251   0.463  0.8525 -0.4388 -0.3291
 7931SOL     OW24842   3.334   3.261   3.820 -0.0396 -0.3146  0.4882
 7931SOL    HW124843   3.395   3.259   3.894 -0.5266  4.3820  1.3266
 7931SOL    HW224844   3.270   3.192   3.840  3.0669 -3.2490  1.1901
 7932SOL     OW24845   6.639   0.208   3.264 -0.4115  0.1123 -0.6022
 7932SOL    HW124846   6.559   0.183   3.217 -1.2103  1.2796  0.0858
 7932SOL    HW224847   6.692   0.252   3.198 -0.6288 -0.0560 -0.8946
 7933SOL     OW24848   1.066   7.327   4.960  0.4102 -0.2446  1.1040
 7933SOL    HW124849   1.039   7.397   4.899  1.2859 -0.3534  0.5753
 7933SOL    HW224850   1.080   7.372   5.043  0.6340  0.1576  0.8516
 7934SOL     OW24851   0.987   4.211   3.967  0.4139  0.4231  0.8827
 7934SOL    HW124852   0.899   4.236   3.938 -0.7051 -1.2338  2.6352
 7934SOL    HW224853   0.982   4.213   4.062  2.2411  0.1296  1.0094
 7935SOL     OW24854   7.031   4.909   3.499 -0.6181  0.0291 -0.6785
 7935SOL    HW124855   7.100   4.964   3.462  0.4227 -0.7617  0.0197
 7935SOL    HW224856   6.993   4.865   3.422  0.4245 -0.3660 -1.0011
 7936SOL     OW24857   0.224   6.543   4.347  0.5035 -0.1588 -0.3764
 7936SOL    HW124858   0.169   6.620   4.363 -0.0508 -0.6011 -0.1164
 7936SOL    HW224859   0.305   6.561   4.393  0.2382  0.1139 -0.0134
 7937SOL     OW24860   6.936   8.251   0.236  0.1642 -0.3048 -0.6644
 7937SOL    HW124861   7.031   8.242   0.247 -0.0555 -1.2960  0.7904
 7937SOL    HW224862   6.913   8.325   0.293 -0.1584 -1.3156  0.5643
 7938SOL     OW24863   6.637   3.514   4.234 -0.3578  0.2908  0.7070
 7938SOL    HW124864   6.673   3.507   4.323 -0.4834 -0.8655  0.6759
 7938SOL    HW224865   6.671   3.597   4.201  1.0618 -0.0564  1.2315
 7939SOL     OW24866   6.261   5.867   1.956  0.4758  0.1622 -0.6420
 7939SOL    HW124867   6.280   5.862   1.862  0.2603 -1.1621 -0.6293
 7939SOL    HW224868   6.298   5.787   1.992 -0.2926  0.2035  0.2608
 7940SOL     OW24869   4.520   6.283   6.363 -0.5206  0.4931  0.7555
 7940SOL    HW124870   4.435   6.296   6.406 -0.1513  1.7396  1.1640
 7940SOL    HW224871   4.510   6.327   6.279 -1.0627 -1.4746 -0.2533
 7941SOL     OW24872   0.677   1.226   0.158  0.2844  0.0417 -0.5637
 7941SOL    HW124873   0.759   1.177   0.162  0.7285  0.8064  0.1664
 7941SOL    HW224874   0.642   1.208   0.071  1.7835  0.5729 -1.3157
 7942SOL     OW24875   7.780   0.791   0.446  0.0434 -0.0239 -0.4485
 7942SOL    HW124876   7.794   0.749   0.531 -0.4132 -1.6807 -1.1349
 7942SOL    HW224877   7.859   0.771   0.396 -0.2356 -0.1938 -0.8305
 7943SOL     OW24878   1.561   7.759   6.914  0.7125 -0.1440 -0.1944
 7943SOL    HW124879   1.554   7.745   7.008  0.4804 -1.0171 -0.3250
 7943SOL    HW224880   1.542   7.673   6.876 -0.1826  0.4110 -1.0696
 7944SOL     OW24881   6.265   2.331   1.956 -0.4398 -0.2351  0.6449
 7944SOL    HW124882   6.205   2.285   1.897 -0.8963 -2.7006  2.8341
 7944SOL    HW224883   6.210   2.397   1.999 -0.7741 -0.2732  0.2837
 7945SOL     OW24884   3.412   6.671   3.823  0.0417 -0.2144 -0.3794
 7945SOL    HW124885   3.503   6.700   3.820  0.2154 -0.7789 -1.6567
 7945SOL    HW224886   3.417   6.577   3.803 -0.7019 -0.6189  1.1715
 7946SOL     OW24887   3.050   0.731   3.146 -0.5337 -0.5340 -0.8317
 7946SOL    HW124888   3.003   0.681   3.214 -0.1183 -1.5989 -1.2982
 7946SOL    HW224889   3.142   0.721   3.168 -0.4697  1.2365 -0.1382
 7947SOL     OW24890   7.249   1.062   6.643 -0.5272  0.3244  0.2358
 7947SOL    HW124891   7.284   1.076   6.732  0.4576  0.5821 -0.1772
 7947SOL    HW224892   7.160   1.096   6.647 -0.0287  1.6652  0.7532
 7948SOL     OW24893   3.783   4.300   0.808  0.6332 -0.1046 -0.0998
 7948SOL    HW124894   3.842   4.369   0.839  0.7572  0.5063 -1.6120
 7948SOL    HW224895   3.831   4.258   0.736  0.6699 -1.9806  0.9465
 7949SOL     OW24896   6.967   0.241   1.371 -0.0611  0.2773 -0.4992
 7949SOL    HW124897   7.017   0.290   1.307 -0.2654 -0.6409 -1.3955
 7949SOL    HW224898   6.984   0.149   1.350 -0.8276 -0.0438  0.2040
 7950SOL     OW24899   5.743   2.803   1.302  0.2850 -0.0337 -0.6697
 7950SOL    HW124900   5.818   2.813   1.244  1.0433 -0.5431  0.2010
 7950SOL    HW224901   5.748   2.877   1.362 -0.0352  0.0415 -0.7303
 7951SOL     OW24902   6.712   6.998   2.327  0.6849 -0.2596  0.4419
 7951SOL    HW124903   6.632   7.050   2.335  0.4535 -0.4693 -0.3384
 7951SOL    HW224904   6.761   7.040   2.256  0.3994 -1.2014 -0.3452
 7952SOL     OW24905   4.252   3.318   7.298  0.1452  0.0272 -0.3116
 7952SOL    HW124906   4.166   3.332   7.258  1.3433 -2.2161 -4.1941
 7952SOL    HW224907   4.302   3.396   7.276 -0.0363  0.0454 -0.6632
 7953SOL     OW24908   0.812   2.088   4.560  0.3446  0.0615  0.1134
 7953SOL    HW124909   0.719   2.083   4.535  0.7785 -1.7732 -1.3201
 7953SOL    HW224910   0.856   2.114   4.479  1.0906  1.2268  0.8671
 7954SOL     OW24911   1.340   5.256   0.241 -0.1039  0.4895 -0.3803
 7954SOL    HW124912   1.281   5.188   0.274 -0.3031  1.2041  0.7676
 7954SOL    HW224913   1.352   5.233   0.149 -1.7257 -0.0106 -0.5097
 7955SOL     OW24914   5.108   5.136   0.927 -0.3853  0.1011 -0.6220
 7955SOL    HW124915   5.194   5.096   0.916 -0.7017 -1.5444  2.0804
 7955SOL    HW224916   5.046   5.063   0.923 -1.1534  0.4298  2.4808
 7956SOL     OW24917   2.473   7.546   1.542  0.0731  0.6667  0.0635
 7956SOL    HW124918   2.415   7.610   1.502 -1.6617  0.1778  1.6553
 7956SOL    HW224919   2.424   7.464   1.539  1.2879 -0.0801  0.1611
 7957SOL     OW24920   3.939   1.058   2.234 -0.5868 -0.0176  0.3730
 7957SOL    HW124921   4.014   1.013   2.274 -0.2236 -0.8444 -1.1870
 7957SOL    HW224922   3.955   1.151   2.252  0.6166 -0.2130  0.4086
 7958SOL     OW24923   4.792   0.589   1.132 -0.2452 -0.4930  0.3154
 7958SOL    HW124924   4.803   0.615   1.223  0.6309 -0.1911  0.1331
 7958SOL    HW224925   4.859   0.522   1.118  1.6069  1.4728 -0.8626
 7959SOL     OW24926   1.336   7.827   1.194  0.0516  0.5248 -0.4570
 7959SOL    HW124927   1.272   7.875   1.142 -0.7902  0.4100  0.4413
 7959SOL    HW224928   1.295   7.742   1.209  1.4662 -0.4721 -1.9120
 7960SOL     OW24929   6.773   5.622   1.192 -0.2136 -0.0030 -0.1587
 7960SOL    HW124930   6.799   5.533   1.215  0.7971  0.7928  2.1824
 7960SOL    HW224931   6.841   5.651   1.131  0.4913 -0.2888  0.4581
 7961SOL     OW24932   8.160   3.110   7.467 -0.0919 -0.0924  0.1842
 7961SOL    HW124933   8.204   3.191   7.439 -0.8374 -0.2404 -1.5397
 7961SOL    HW224934   8.073   3.139   7.495  0.3385 -0.0662  1.5682
 7962SOL     OW24935   5.565   4.577   3.253  0.2275  0.7367  0.2428
 7962SOL    HW124936   5.657   4.556   3.266  0.1235  1.6047  3.0304
 7962SOL    HW224937   5.566   4.660   3.204  0.8757  0.2337 -0.6150
 7963SOL     OW24938   2.855   1.231   5.589 -0.3414 -0.1004 -0.4067
 7963SOL    HW124939   2.810   1.183   5.659 -2.2146 -0.4722 -1.7660
 7963SOL    HW224940   2.873   1.164   5.523  2.2215  0.0666  0.0339
 7964SOL     OW24941   2.963   6.692   3.765 -0.1679 -0.1206 -0.1225
 7964SOL    HW124942   2.941   6.740   3.845  0.4880 -0.3768  0.2240
 7964SOL    HW224943   3.054   6.664   3.779  0.1630  0.3790 -1.2357
 7965SOL     OW24944   4.159   5.805   0.809  0.2334 -0.4587  0.0930
 7965SOL    HW124945   4.175   5.848   0.725 -0.1471 -0.6776 -0.0922
 7965SOL    HW224946   4.066   5.784   0.809  0.2788 -0.6856  0.4631
 7966SOL     OW24947   0.879   5.912   0.691 -0.0734 -0.4931 -0.0448
 7966SOL    HW124948   0.903   5.819   0.697  0.1050 -0.6500 -2.2113
 7966SOL    HW224949   0.814   5.915   0.621  2.1092  1.3215 -2.1648
 7967SOL     OW24950   6.550   7.909   7.327  0.2632  0.2216  0.1057
 7967SOL    HW124951   6.538   7.936   7.418  1.6596 -3.3498  1.5228
 7967SOL    HW224952   6.522   7.817   7.325 -0.5865  0.4142 -3.3288
 7968SOL     OW24953   2.378   8.254   4.363  0.2027 -0.4439 -0.1008
 7968SOL    HW124954   2.381   8.339   4.319  1.5107  0.2800  1.2814
 7968SOL    HW224955   2.465   8.217   4.350 -0.4947 -1.8010 -1.0609
 7969SOL     OW24956   5.932   5.927   2.844  0.1518  0.2435 -0.0044
 7969SOL    HW124957   5.864   5.861   2.855  1.5003 -1.2349 -0.1741
 7969SOL    HW224958   5.938   5.940   2.750  2.1099 -1.9260 -0.2735
 7970SOL     OW24959   2.121   3.967   2.028 -0.1645 -0.1682  0.3427
 7970SOL    HW124960   2.198   3.915   2.004 -0.5383 -0.4434 -0.2671
 7970SOL    HW224961   2.053   3.941   1.966 -0.5652  0.5394  0.4651
 7971SOL     OW24962   0.804   2.547   2.319 -0.6326 -0.2842 -0.1735
 7971SOL    HW124963   0.845   2.489   2.254  0.5596  1.1583 -0.7548
 7971SOL    HW224964   0.832   2.511   2.403  2.5050  0.9861 -0.5329
 7972SOL     OW24965   7.452   7.580   1.361 -0.5161  0.1089  0.1582
 7972SOL    HW124966   7.458   7.638   1.437 -2.9993 -1.0666  1.3561
 7972SOL    HW224967   7.505   7.504   1.385 -1.1819 -0.1994  0.6692
 7973SOL     OW24968   4.134   4.026   2.677  0.3217 -0.5594  0.4960
 7973SOL    HW124969   4.211   4.039   2.732 -0.0631 -2.8254  1.6648
 7973SOL    HW224970   4.060   4.022   2.738 -0.5475 -0.0845 -0.4666
 7974SOL     OW24971   0.853   0.690   2.869 -0.0245  0.1764  0.1051
 7974SOL    HW124972   0.836   0.634   2.944 -1.1052 -0.5657 -0.6500
 7974SOL    HW224973   0.898   0.767   2.905 -0.0298 -0.4107  1.4073
 7975SOL     OW24974   5.760   4.005   3.503  0.4006  0.2591 -0.2501
 7975SOL    HW124975   5.791   4.000   3.593  0.7556 -0.5870 -0.4108
 7975SOL    HW224976   5.688   3.942   3.498 -0.4127  1.1695 -0.2574
 7976SOL     OW24977   7.337   3.860   0.688  0.1031 -0.0378  0.8958
 7976SOL    HW124978   7.393   3.785   0.667 -0.5037 -0.3426  0.3335
 7976SOL    HW224979   7.271   3.824   0.748 -0.9817 -0.2956 -0.3954
 7977SOL     OW24980   1.199   6.009   5.456 -0.7144 -0.1808  0.0052
 7977SOL    HW124981   1.167   6.097   5.436 -0.5528 -0.9318 -4.5432
 7977SOL    HW224982   1.121   5.954   5.451 -0.8211 -0.4068  2.8657
 7978SOL     OW24983   2.921   3.207   5.433  0.4551 -0.0534  0.5501
 7978SOL    HW124984   2.870   3.186   5.355  0.1513 -0.4408  0.8477
 7978SOL    HW224985   3.000   3.154   5.426  1.2088  1.1490 -0.3141
 7979SOL     OW24986   6.842   0.935   2.006  0.4128 -0.0866  0.1686
 7979SOL    HW124987   6.914   0.902   1.953  0.6185  0.6451 -0.0169
 7979SOL    HW224988   6.867   0.915   2.096  0.0527 -1.3543  0.0161
 7980SOL     OW24989   1.879   0.454   6.370 -0.2968  0.3878  0.6765
 7980SOL    HW124990   1.902   0.516   6.440  1.0415  1.3994 -0.5942
 7980SOL    HW224991   1.909   0.369   6.403  0.2693  0.8376  1.3661
 7981SOL     OW24992   2.873   5.469   1.018 -0.1560  0.1429 -0.1720
 7981SOL    HW124993   2.935   5.513   0.960 -1.0754  0.2835 -1.0672
 7981SOL    HW224994   2.794   5.522   1.015 -2.1578 -2.5718 -3.1057
 7982SOL     OW24995   3.095   4.699   1.923 -0.8373  0.2379  0.0963
 7982SOL    HW124996   3.159   4.762   1.958  0.7673 -0.0499 -2.1125
 7982SOL    HW224997   3.060   4.655   2.001  1.5989  0.4985  1.4431
 7983SOL     OW24998   1.344   1.283   6.793 -0.1090  0.2102  0.2570
 7983SOL    HW124999   1.267   1.300   6.848  1.3216  2.5317  1.6642
 7983SOL    HW225000   1.326   1.330   6.712 -0.2369  0.6482  0.5350
 7984SOL     OW25001   3.443   2.208   0.596  0.4110  0.3727 -0.7836
 7984SOL    HW125002   3.457   2.201   0.690 -0.9816  1.0060 -0.5143
 7984SOL    HW225003   3.432   2.118   0.566 -0.4955  0.2551 -0.1159
 7985SOL     OW25004   5.280   2.968   0.600 -0.3913  0.4138  0.1304
 7985SOL    HW125005   5.292   3.060   0.575  1.4692  0.7991  2.1036
 7985SOL    HW225006   5.368   2.939   0.623 -1.2458 -1.2992  1.3952
 7986SOL     OW25007   3.251   5.472   2.467 -0.3032 -0.3679 -0.1419
 7986SOL    HW125008   3.201   5.433   2.538 -0.2952 -0.0253  0.0506
 7986SOL    HW225009   3.307   5.401   2.436 -0.5151 -0.5989 -0.0018
 7987SOL     OW25010   5.581   8.191   5.405  0.6999  0.2581 -0.0800
 7987SOL    HW125011   5.671   8.207   5.378  0.4497  0.5567 -0.7509
 7987SOL    HW225012   5.544   8.137   5.335  0.3591  0.1306  0.1960
 7988SOL     OW25013   3.103   4.113   3.737 -0.4690  0.5690  0.1556
 7988SOL    HW125014   3.156   4.039   3.707 -1.7375 -0.3599  0.0716
 7988SOL    HW225015   3.155   4.190   3.718  0.9842 -0.3127  0.4085
 7989SOL     OW25016   4.389   1.633   7.017 -0.1222 -0.0986 -0.4142
 7989SOL    HW125017   4.309   1.671   6.981  1.1453  0.7311 -2.5335
 7989SOL    HW225018   4.369   1.540   7.025 -1.6460  0.2355  0.2260
 7990SOL     OW25019   1.862   7.073   4.927  0.1132 -0.2657  0.1136
 7990SOL    HW125020   1.903   7.005   4.873 -2.6267 -1.0826 -1.1102
 7990SOL    HW225021   1.771   7.045   4.935 -0.8267  2.6581  0.6056
 7991SOL     OW25022   4.300   2.205   4.539 -0.0810  0.2575 -0.1018
 7991SOL    HW125023   4.219   2.154   4.542 -1.2084  1.9859  1.7704
 7991SOL    HW225024   4.332   2.204   4.629  1.2139  0.7814 -0.5334
 7992SOL     OW25025   1.681   7.449   3.457  0.0518  0.1714  0.1872
 7992SOL    HW125026   1.592   7.413   3.447 -0.7807  2.0683  0.3460
 7992SOL    HW225027   1.677   7.497   3.539  1.4847 -0.3274  0.5705
 7993SOL     OW25028   0.122   3.229   6.626  0.3220 -0.4247 -0.3736
 7993SOL    HW125029   0.057   3.183   6.680  0.1204 -0.6481 -0.8041
 7993SOL    HW225030   0.129   3.316   6.666 -0.3663 -0.3414 -0.4298
 7994SOL     OW25031   7.756   2.145   1.334 -0.3057 -0.5352 -0.0950
 7994SOL    HW125032   7.759   2.131   1.429  0.5601  0.9383  0.1289
 7994SOL    HW225033   7.831   2.203   1.316 -1.1786  0.2109 -1.4921
 7995SOL     OW25034   7.462   2.261   6.894 -0.3803 -0.5142  0.0641
 7995SOL    HW125035   7.377   2.301   6.913 -0.6991 -0.4790 -1.3300
 7995SOL    HW225036   7.507   2.325   6.838  0.7622 -0.3431  1.1177
 7996SOL     OW25037   7.733   0.834   0.869 -0.6324 -0.4780 -0.1794
 7996SOL    HW125038   7.678   0.761   0.839 -1.5737  0.4089 -0.6577
 7996SOL    HW225039   7.691   0.863   0.950 -1.0117  0.3473 -0.6631
 7997SOL     OW25040   4.161   7.472   2.965 -0.9730  0.0084  0.6249
 7997SOL    HW125041   4.245   7.490   2.924 -1.0434 -1.2361 -0.1017
 7997SOL    HW225042   4.096   7.514   2.908 -0.8673  0.9057  1.1464
 7998SOL     OW25043   2.701   0.808   2.226 -0.0030  1.0167 -0.7351
 7998SOL    HW125044   2.706   0.713   2.215 -0.1652  0.7297  1.2631
 7998SOL    HW225045   2.739   0.844   2.145  2.6724 -0.7512 -0.3975
 7999SOL     OW25046   1.401   3.653   6.625  0.3743 -0.2443  0.3394
 7999SOL    HW125047   1.333   3.588   6.642  1.6875 -1.6962  0.1900
 7999SOL    HW225048   1.393   3.672   6.531  0.2087 -0.4400  0.3132
 8000SOL     OW25049   8.180   6.954   3.065  0.3411  0.4142  0.2036
 8000SOL    HW125050   8.157   7.020   3.000 -1.2092  1.4829  1.7611
 8000SOL    HW225051   8.205   7.003   3.143  1.1125 -0.8486  0.8017
 8001SOL     OW25052   3.374   2.209   7.549  0.1502  0.3012 -0.1814
 8001SOL    HW125053   3.418   2.268   7.611  1.9129  0.9186 -1.9012
 8001SOL    HW225054   3.281   2.219   7.568  0.6161 -0.5839  3.2319
 8002SOL     OW25055   6.492   7.240   3.592 -0.0268  0.6963 -0.0218
 8002SOL    HW125056   6.521   7.173   3.654  1.3802 -2.0093 -3.2741
 8002SOL    HW225057   6.559   7.308   3.598 -1.4385  1.9913  3.2852
 8003SOL     OW25058   2.320   3.381   7.028  0.3362  0.3218 -0.4717
 8003SOL    HW125059   2.233   3.420   7.016 -0.0599 -0.8416 -1.5966
 8003SOL    HW225060   2.370   3.449   7.073 -1.1153  1.0650  0.1213
 8004SOL     OW25061   3.015   0.825   7.280  0.4563 -0.2024  0.1839
 8004SOL    HW125062   3.046   0.794   7.195 -0.3464  1.0340 -0.5827
 8004SOL    HW225063   2.922   0.841   7.268  0.4063  0.3602  1.1914
 8005SOL     OW25064   2.888   2.765   2.432 -0.1025 -0.2324 -0.2372
 8005SOL    HW125065   2.856   2.801   2.349 -1.0837  0.4193  0.4016
 8005SOL    HW225066   2.838   2.811   2.499 -0.0868 -1.5009  0.6889
 8006SOL     OW25067   2.426   5.969   6.247  0.0598  0.2886  0.4476
 8006SOL    HW125068   2.391   5.880   6.234 -1.7077  0.7363  1.7625
 8006SOL    HW225069   2.520   5.960   6.231 -0.2407 -1.5599 -0.6127
 8007SOL     OW25070   0.126   5.085   2.418  0.9928  0.4429 -0.1594
 8007SOL    HW125071   0.171   5.095   2.502 -0.5290  0.1259  0.7411
 8007SOL    HW225072   0.175   5.017   2.372  1.5927  0.3121  0.6475
 8008SOL     OW25073   6.663   6.567   4.550  0.5108 -0.3857 -0.1443
 8008SOL    HW125074   6.575   6.576   4.588  0.6806  0.5010  0.0652
 8008SOL    HW225075   6.677   6.649   4.502  0.7601 -1.0145 -1.1767
 8009SOL     OW25076   1.841   4.401   7.397  0.0156 -0.2476 -0.3988
 8009SOL    HW125077   1.758   4.399   7.445  0.3644  0.5759  0.2597
 8009SOL    HW225078   1.854   4.310   7.369 -0.5435 -0.6125  0.4701
 8010SOL     OW25079   3.659   1.195   1.227 -0.1730  0.3128  0.2967
 8010SOL    HW125080   3.617   1.125   1.276  1.5606  0.6732  2.4391
 8010SOL    HW225081   3.705   1.151   1.155 -0.3393 -0.5695  0.7274
 8011SOL     OW25082   2.421   6.458   6.303  0.0625  0.1944 -0.6797
 8011SOL    HW125083   2.451   6.388   6.244  0.6610  1.3390 -1.7902
 8011SOL    HW225084   2.325   6.456   6.296 -0.0957 -1.9391  1.0518
 8012SOL     OW25085   1.056   6.817   7.039 -0.3776  0.2223  0.2887
 8012SOL    HW125086   1.066   6.835   6.945 -0.4048 -0.3826  0.1629
 8012SOL    HW225087   1.145   6.827   7.074 -0.2478 -0.1754  0.0808
 8013SOL     OW25088   5.182   7.466   5.767 -1.0011  0.4719 -0.1141
 8013SOL    HW125089   5.206   7.555   5.740  1.4604  0.1216  0.6014
 8013SOL    HW225090   5.255   7.412   5.735 -2.0906 -1.1885  0.1153
 8014SOL     OW25091   3.594   6.315   7.252 -0.1439 -0.5871  0.3186
 8014SOL    HW125092   3.541   6.316   7.172 -0.4379 -0.8414  0.5039
 8014SOL    HW225093   3.633   6.227   7.253  1.6330  0.1361 -0.6715
 8015SOL     OW25094   3.064   1.373   4.615 -0.6408  0.3550 -0.3802
 8015SOL    HW125095   3.038   1.300   4.559  0.1572 -0.5632  0.4232
 8015SOL    HW225096   3.014   1.360   4.696  0.5173 -0.0977  0.2843
 8016SOL     OW25097   7.242   6.998   0.781  0.1746  0.5746 -0.3026
 8016SOL    HW125098   7.203   7.081   0.807 -0.1040  0.2910  0.1956
 8016SOL    HW225099   7.171   6.934   0.789  0.6338  0.1220  0.2404
 8017SOL     OW25100   2.331   2.450   5.465 -0.1014 -0.5328  0.1628
 8017SOL    HW125101   2.303   2.488   5.382 -0.1867 -2.0040 -0.5239
 8017SOL    HW225102   2.260   2.390   5.489 -0.1317 -0.0346  1.3722
 8018SOL     OW25103   7.483   0.365   6.771  0.1086  0.1005 -0.1671
 8018SOL    HW125104   7.497   0.442   6.715  0.9381 -0.7847 -1.2134
 8018SOL    HW225105   7.388   0.360   6.781  0.0831  2.6893  2.0088
 8019SOL     OW25106   2.647   3.708   1.249 -0.6410  0.0885 -0.3906
 8019SOL    HW125107   2.557   3.675   1.256 -0.4916 -0.1026  0.7751
 8019SOL    HW225108   2.687   3.688   1.333 -0.0139  1.7120 -0.2573
 8020SOL     OW25109   5.043   7.337   0.298  0.0641 -0.0850 -0.2366
 8020SOL    HW125110   5.046   7.243   0.318  0.0572  0.1298  0.8632
 8020SOL    HW225111   5.063   7.379   0.382 -3.2877  0.9535  0.1508
 8021SOL     OW25112   6.927   2.570   7.590 -0.7024  0.3402  0.3869
 8021SOL    HW125113   6.862   2.576   7.660 -0.3891  0.6965  0.6527
 8021SOL    HW225114   6.975   2.652   7.595  0.1321 -0.1403  0.5613
 8022SOL     OW25115   6.329   0.189   4.950 -0.4693 -0.7113  0.4885
 8022SOL    HW125116   6.340   0.211   5.043 -0.8253 -1.0812  0.6230
 8022SOL    HW225117   6.416   0.201   4.912 -0.4660  0.0888  0.7290
 8023SOL     OW25118   0.994   3.815   5.519 -0.0397 -0.3919 -0.2362
 8023SOL    HW125119   1.031   3.903   5.520 -0.0847 -0.3667 -0.5780
 8023SOL    HW225120   0.951   3.808   5.434  1.6073 -1.4077 -1.0535
 8024SOL     OW25121   3.778   5.987   8.274  0.2264  0.2727  0.1389
 8024SOL    HW125122   3.856   6.039   8.292  0.1179  0.7935 -0.8441
 8024SOL    HW225123   3.755   6.008   8.183 -0.8032 -0.2070  0.2748
 8025SOL     OW25124   1.696   4.543   0.467  0.7395 -0.3409 -0.5042
 8025SOL    HW125125   1.605   4.516   0.477  0.5309  0.3220 -0.5686
 8025SOL    HW225126   1.745   4.488   0.529  0.2646 -0.5027 -0.2712
 8026SOL     OW25127   4.182   7.029   0.146 -0.4291  0.0487  0.3066
 8026SOL    HW125128   4.136   6.975   0.082 -0.1305  0.3719 -0.1831
 8026SOL    HW225129   4.218   6.967   0.209 -0.5317 -0.2816  0.0400
 8027SOL     OW25130   2.048   8.046   7.484  0.1779  0.5955  0.4623
 8027SOL    HW125131   2.026   8.137   7.501  1.5053  1.0025  0.1691
 8027SOL    HW225132   1.999   8.023   7.405 -1.0557  0.6723  1.1832
 8028SOL     OW25133   5.924   3.537   5.379 -0.0015  0.1479 -0.2306
 8028SOL    HW125134   6.006   3.492   5.397  0.2905  1.0730  0.8890
 8028SOL    HW225135   5.920   3.543   5.284 -0.3347 -2.6662 -0.4607
 8029SOL     OW25136   7.293   5.682   6.924  0.4701  0.1869  0.3891
 8029SOL    HW125137   7.292   5.603   6.977  1.7536  1.5889  2.6877
 8029SOL    HW225138   7.219   5.734   6.956 -0.9880 -0.4192 -1.7903
 8030SOL     OW25139   4.712   2.355   7.359 -0.4167  0.2514 -0.0334
 8030SOL    HW125140   4.796   2.314   7.380 -1.2235 -2.2261 -1.2526
 8030SOL    HW225141   4.733   2.448   7.349  1.8854 -0.0792  1.0845
 8031SOL     OW25142   2.122   6.707   1.728  0.1074 -0.3804  0.0730
 8031SOL    HW125143   2.145   6.661   1.647  0.6305  1.1480 -0.6918
 8031SOL    HW225144   2.094   6.794   1.698  0.2311  0.1848  1.5320
 8032SOL     OW25145   2.926   1.889   2.789  0.7813  0.2977  0.0550
 8032SOL    HW125146   2.975   1.956   2.837  1.2869 -0.3343  0.4391
 8032SOL    HW225147   2.987   1.816   2.780  0.0192 -0.3809  0.2460
 8033SOL     OW25148   8.245   0.350   2.558 -0.3253 -0.5429 -0.2178
 8033SOL    HW125149   8.339   0.331   2.554 -0.5285 -1.3682 -2.4472
 8033SOL    HW225150   8.236   0.437   2.519 -0.4556 -0.2429  0.4666
 8034SOL     OW25151   1.856   2.726   2.592  0.0472 -0.0891 -0.5502
 8034SOL    HW125152   1.817   2.812   2.609  0.0113 -0.2146  0.0394
 8034SOL    HW225153   1.868   2.688   2.679 -0.4805 -0.9228 -0.8285
 8035SOL     OW25154   1.311   8.007   2.095 -0.2239 -0.0114  0.7137
 8035SOL    HW125155   1.263   7.954   2.159 -0.0318  0.3072  1.1230
 8035SOL    HW225156   1.351   7.942   2.037  0.7792 -0.3636  1.7597
 8036SOL     OW25157   4.562   4.018   4.476 -0.5673 -0.1588 -0.0166
 8036SOL    HW125158   4.496   4.077   4.438  0.6778  0.8298 -0.7041
 8036SOL    HW225159   4.563   3.942   4.417  0.1515  0.6205 -1.0418
 8037SOL     OW25160   0.862   2.951   3.397 -0.0104 -0.0364  0.3854
 8037SOL    HW125161   0.886   2.895   3.323 -0.9380 -0.8014  0.6397
 8037SOL    HW225162   0.923   2.927   3.467 -0.5110 -0.8678  0.5475
 8038SOL     OW25163   5.181   4.110   8.245  0.0473 -0.4275 -0.1423
 8038SOL    HW125164   5.204   4.199   8.271  1.1716 -0.4674 -0.8959
 8038SOL    HW225165   5.169   4.063   8.327 -2.1299  0.7509  0.3033
 8039SOL     OW25166   7.510   3.024   5.898 -0.4576  0.0289  0.5833
 8039SOL    HW125167   7.485   2.958   5.833 -1.4174  0.8557  0.0899
 8039SOL    HW225168   7.579   2.982   5.949 -0.7760 -1.2140  0.0295
 8040SOL     OW25169   7.816   1.375   3.408  0.6216 -0.0372  0.3836
 8040SOL    HW125170   7.872   1.357   3.483 -0.6848 -1.2013  1.1430
 8040SOL    HW225171   7.826   1.298   3.351  2.6429  1.4130 -1.3957
 8041SOL     OW25172   6.745   4.088   1.941  0.1279  0.1624  0.0501
 8041SOL    HW125173   6.674   4.152   1.953 -0.3310 -0.4450  0.6318
 8041SOL    HW225174   6.736   4.060   1.850 -2.3350 -2.1498  0.8866
 8042SOL     OW25175   5.990   7.459   0.399  0.0946  0.2479  0.5440
 8042SOL    HW125176   6.004   7.549   0.429  1.2752 -0.1714  1.3307
 8042SOL    HW225177   5.933   7.420   0.466  0.0467  0.2459  0.5024
 8043SOL     OW25178   4.540   1.879   5.260 -0.1217 -0.1725  0.6871
 8043SOL    HW125179   4.515   1.810   5.322  0.7566  0.1603  1.4362
 8043SOL    HW225180   4.591   1.941   5.312 -1.0269  1.1471  0.0635
 8044SOL     OW25181   3.174   1.011   0.207 -0.1253  0.2734  0.0086
 8044SOL    HW125182   3.257   0.987   0.166 -0.3807 -2.7780  0.9845
 8044SOL    HW225183   3.193   1.017   0.300 -0.8281  0.2769  0.1627
 8045SOL     OW25184   2.513   0.160   6.288 -0.4499  0.0376 -0.1799
 8045SOL    HW125185   2.481   0.161   6.378  0.3679 -0.2442  0.1238
 8045SOL    HW225186   2.518   0.067   6.265 -0.6967  0.1096 -0.5307
 8046SOL     OW25187   7.353   7.908   0.623  0.0799 -0.0634 -0.2593
 8046SOL    HW125188   7.328   7.891   0.532 -0.9074  1.3914 -0.2944
 8046SOL    HW225189   7.276   7.882   0.674 -1.3273  3.3912 -0.2797
 8047SOL     OW25190   1.749   1.896   4.948  0.4229  0.6152 -0.1600
 8047SOL    HW125191   1.736   1.990   4.938  1.2281  1.2175  3.1356
 8047SOL    HW225192   1.667   1.864   4.984  1.1848  0.7335  1.8046
 8048SOL     OW25193   2.889   7.477   2.539 -0.0372  0.6682  0.1061
 8048SOL    HW125194   2.798   7.504   2.534  0.8200  3.6012 -2.4572
 8048SOL    HW225195   2.925   7.528   2.612 -0.1234  0.5593  0.2256
 8049SOL     OW25196   6.371   2.624   4.931 -0.1098  0.5044 -0.1718
 8049SOL    HW125197   6.409   2.710   4.948 -0.7494  0.3782  2.3438
 8049SOL    HW225198   6.277   2.639   4.933 -0.2371 -0.0154 -1.3756
 8050SOL     OW25199   2.456   2.727   7.962 -0.0680  0.0920  0.1343
 8050SOL    HW125200   2.525   2.789   7.985 -0.1106 -0.0808  0.7426
 8050SOL    HW225201   2.486   2.687   7.881  0.8076 -0.3743  0.6790
 8051SOL     OW25202   6.227   7.333   0.377 -0.6416 -0.9779 -0.0801
 8051SOL    HW125203   6.298   7.373   0.326 -0.1245 -1.1190  0.5153
 8051SOL    HW225204   6.152   7.390   0.363 -0.2245 -0.4470 -0.1859
 8052SOL     OW25205   0.758   7.442   3.149 -0.2819 -0.0383  0.2295
 8052SOL    HW125206   0.843   7.461   3.110 -0.2569 -0.4935  0.0616
 8052SOL    HW225207   0.736   7.354   3.118 -0.6311 -0.0805  0.5894
 8053SOL     OW25208   6.184   0.919   7.520 -0.2471  0.2924  0.1825
 8053SOL    HW125209   6.115   0.857   7.544 -1.6379  0.4195 -2.9988
 8053SOL    HW225210   6.234   0.875   7.452  1.0526  1.3096  0.4258
 8054SOL     OW25211   6.489   6.621   2.925  0.1173 -0.3616 -0.0813
 8054SOL    HW125212   6.490   6.660   3.013 -0.4744  0.8298 -0.5850
 8054SOL    HW225213   6.518   6.531   2.939  1.8808  0.3340  1.0846
 8055SOL     OW25214   4.930   1.826   5.049  0.0594 -0.1779 -0.1886
 8055SOL    HW125215   4.972   1.909   5.027  0.4704 -0.9547 -2.6395
 8055SOL    HW225216   4.903   1.836   5.140 -0.1186  2.7104 -0.4726
 8056SOL     OW25217   3.435   6.767   6.946 -0.2624 -0.0490 -0.3460
 8056SOL    HW125218   3.423   6.739   6.855  0.3146 -0.6799 -0.2330
 8056SOL    HW225219   3.394   6.698   6.998 -1.8626  1.0034 -0.1452
 8057SOL     OW25220   2.635   3.304   5.443 -0.4230 -0.3338 -0.6663
 8057SOL    HW125221   2.677   3.266   5.366 -0.1085  2.9026 -2.2547
 8057SOL    HW225222   2.706   3.318   5.505 -0.3415 -1.0228 -0.5910
 8058SOL     OW25223   0.872   4.213   1.751  0.1379 -0.2210  0.6898
 8058SOL    HW125224   0.794   4.227   1.805  0.0769 -0.0959  0.5694
 8058SOL    HW225225   0.874   4.288   1.692  0.2250 -0.3388  0.5424
 8059SOL     OW25226   6.317   6.570   6.310 -0.2052  0.2813  0.8592
 8059SOL    HW125227   6.228   6.564   6.276  0.9482  1.6848 -2.9233
 8059SOL    HW225228   6.362   6.494   6.274  0.4662  0.3410  1.5452
 8060SOL     OW25229   2.625   7.542   2.529  0.3238 -0.1513  0.3451
 8060SOL    HW125230   2.559   7.514   2.465 -0.0295 -0.1996  0.7302
 8060SOL    HW225231   2.635   7.636   2.514  2.2951 -0.6003 -1.6889
 8061SOL     OW25232   2.657   3.204   7.021 -0.4801 -0.1674 -0.3283
 8061SOL    HW125233   2.700   3.133   6.974 -1.6599  0.8903 -3.3050
 8061SOL    HW225234   2.565   3.178   7.024 -0.7555  0.7424 -0.5261
 8062SOL     OW25235   3.273   7.462   1.348 -0.1942 -0.9140 -0.1964
 8062SOL    HW125236   3.295   7.466   1.441  0.1554 -0.3809 -0.2986
 8062SOL    HW225237   3.186   7.501   1.343  1.0694  2.2129 -0.4852
 8063SOL     OW25238   5.009   6.058   1.865  0.7329  0.4370 -0.0555
 8063SOL    HW125239   5.046   6.107   1.791 -0.3254  1.9703  0.3824
 8063SOL    HW225240   4.924   6.028   1.833  0.4443  0.7671  0.3946
 8064SOL     OW25241   0.855   1.133   7.558  0.5437  0.3138 -0.1173
 8064SOL    HW125242   0.894   1.181   7.485 -0.2766  0.1850 -0.6528
 8064SOL    HW225243   0.880   1.042   7.544 -0.6567  0.0926 -0.9578
 8065SOL     OW25244   7.092   2.228   2.761 -0.0268  0.3478  0.1965
 8065SOL    HW125245   7.029   2.204   2.693  0.2832  1.0351 -0.3547
 8065SOL    HW225246   7.143   2.149   2.776 -1.7470 -0.5653  1.4877
 8066SOL     OW25247   3.911   4.681   0.978 -0.2348  0.1740 -0.3392
 8066SOL    HW125248   3.970   4.743   0.934  0.2688 -1.6026 -2.2982
 8066SOL    HW225249   3.922   4.701   1.071  1.7442  1.4279 -0.7671
 8067SOL     OW25250   5.306   6.715   4.078  0.4810  0.4196 -0.0248
 8067SOL    HW125251   5.238   6.777   4.050 -1.0874 -1.0853  0.2498
 8067SOL    HW225252   5.349   6.759   4.152 -0.4422  1.2664  0.0415
 8068SOL     OW25253   7.942   4.026   2.104  0.1718  0.0751 -0.0478
 8068SOL    HW125254   7.923   3.946   2.056  0.3440 -1.3994  2.1668
 8068SOL    HW225255   8.038   4.029   2.110  0.2566  1.3419 -1.4499
 8069SOL     OW25256   5.719   6.595   0.333 -0.6264 -0.2063 -0.1964
 8069SOL    HW125257   5.728   6.679   0.287  0.3739 -0.6179 -0.7927
 8069SOL    HW225258   5.770   6.605   0.413 -0.1595 -0.3728 -0.4673
 8070SOL     OW25259   4.739   7.850   3.123  0.0740  0.0733  0.0335
 8070SOL    HW125260   4.657   7.841   3.171 -1.0833  1.4792 -1.5688
 8070SOL    HW225261   4.807   7.848   3.191 -1.5285  2.9196  1.9320
 8071SOL     OW25262   4.016   1.089   3.148 -0.4348  0.2674  0.3846
 8071SOL    HW125263   3.949   1.097   3.216  0.3683  1.9898  1.0131
 8071SOL    HW225264   4.089   1.141   3.179  0.5861 -0.2374 -1.0578
 8072SOL     OW25265   0.538   0.995   1.557  0.3075 -0.3221 -0.3734
 8072SOL    HW125266   0.545   0.901   1.543  1.1987  0.1039 -3.9203
 8072SOL    HW225267   0.454   1.019   1.519  0.4486  0.4135 -0.2421
 8073SOL     OW25268   7.562   3.921   3.585 -0.1716 -0.5659 -0.2969
 8073SOL    HW125269   7.532   3.995   3.532 -0.2883  1.6802  2.5936
 8073SOL    HW225270   7.483   3.874   3.609 -0.4213  0.0029  0.0182
 8074SOL     OW25271   1.784   6.504   4.732  0.9783 -0.3748  0.4148
 8074SOL    HW125272   1.752   6.421   4.768  1.8090 -0.9270 -0.1007
 8074SOL    HW225273   1.879   6.496   4.734  1.0614 -0.2029 -1.3741
 8075SOL     OW25274   6.571   0.616   0.430 -0.5650 -0.7135 -0.3095
 8075SOL    HW125275   6.523   0.698   0.419  0.9287  0.0535 -1.4618
 8075SOL    HW225276   6.594   0.614   0.523 -0.6683  0.1473 -0.2575
 8076SOL     OW25277   0.985   1.498   7.892  0.5049 -0.1230 -0.1439
 8076SOL    HW125278   1.079   1.508   7.878  0.6178  0.9879  1.2051
 8076SOL    HW225279   0.944   1.544   7.819  1.0257  1.1842  0.3647
 8077SOL     OW25280   7.681   3.548   1.317 -0.2510  0.2810 -0.2903
 8077SOL    HW125281   7.679   3.598   1.235 -1.6844  0.7504 -0.0051
 8077SOL    HW225282   7.753   3.486   1.306 -1.6366 -1.0236 -2.7156
 8078SOL     OW25283   0.972   1.810   8.035 -0.4684 -0.4542  0.7704
 8078SOL    HW125284   0.966   1.870   8.110  0.0706  0.3627  0.1815
 8078SOL    HW225285   0.884   1.772   8.027 -1.1321  1.0498  0.5391
 8079SOL     OW25286   3.237   5.073   3.278  0.3021  0.1098  0.4886
 8079SOL    HW125287   3.177   5.005   3.249  1.3733  0.0222 -1.7043
 8079SOL    HW225288   3.322   5.047   3.243  1.3469  1.0201  2.2113
 8080SOL     OW25289   1.235   5.447   6.536  0.5608  0.3186 -0.0273
 8080SOL    HW125290   1.152   5.400   6.523 -0.4551  1.8536  0.6594
 8080SOL    HW225291   1.289   5.386   6.587 -0.4570 -0.3986  0.2311
 8081SOL     OW25292   6.686   4.947   3.738 -0.0480  0.3682  0.2633
 8081SOL    HW125293   6.693   4.881   3.808 -1.3988  0.0736  0.1541
 8081SOL    HW225294   6.688   4.896   3.657 -0.8259  0.4682  0.1705
 8082SOL     OW25295   3.521   7.016   5.098 -0.3196  0.3479  0.0584
 8082SOL    HW125296   3.515   7.097   5.047  3.8011  0.7028 -0.1652
 8082SOL    HW225297   3.484   7.039   5.183 -1.7753  1.5782 -0.8604
 8083SOL     OW25298   4.642   0.242   3.503  0.0505 -0.4077  0.2689
 8083SOL    HW125299   4.557   0.222   3.464  0.3674  1.7660 -1.7217
 8083SOL    HW225300   4.624   0.316   3.561  0.0761 -1.9821  2.4251
 8084SOL     OW25301   4.548   0.738   3.165  0.4202 -0.6188  0.3519
 8084SOL    HW125302   4.536   0.717   3.072 -1.3863 -0.2702  0.4678
 8084SOL    HW225303   4.603   0.667   3.198  0.4555 -1.1667 -0.8100
 8085SOL     OW25304   1.873   1.076   6.838  0.1354  0.2171  0.3795
 8085SOL    HW125305   1.956   1.075   6.790  0.7102 -1.5147  1.3233
 8085SOL    HW225306   1.806   1.086   6.770  1.0418  0.1218 -0.5502
 8086SOL     OW25307   6.508   6.691   2.109 -0.1283 -0.4655 -0.2739
 8086SOL    HW125308   6.494   6.694   2.015  1.1065  0.3875 -0.4575
 8086SOL    HW225309   6.489   6.781   2.139  0.8045 -0.3651  0.0648
 8087SOL     OW25310   4.433   3.732   7.732  0.3781 -0.1194  0.5480
 8087SOL    HW125311   4.347   3.764   7.759  0.2240  1.4207 -1.4541
 8087SOL    HW225312   4.415   3.669   7.662  0.8657 -0.6715  0.9037
 8088SOL     OW25313   1.064   3.082   6.269  0.1889  0.1320 -0.4242
 8088SOL    HW125314   1.015   3.160   6.243  1.1950  0.3950 -1.6095
 8088SOL    HW225315   1.120   3.111   6.340  0.8157  0.5900 -1.0950
 8089SOL     OW25316   1.931   5.403   2.898 -0.4949  0.1704  0.3619
 8089SOL    HW125317   1.875   5.374   2.970  0.3505 -1.2881  0.4668
 8089SOL    HW225318   2.003   5.450   2.942 -1.3150  1.5870  0.2597
 8090SOL     OW25319   1.910   0.828   4.731  0.1827 -0.2024 -0.4035
 8090SOL    HW125320   2.002   0.847   4.748  0.3481  0.0680 -1.4965
 8090SOL    HW225321   1.861   0.882   4.792  0.7420 -2.5646  2.3595
 8091SOL     OW25322   0.983   4.393   7.943 -0.5702  0.2274  0.2497
 8091SOL    HW125323   1.074   4.367   7.953 -0.4200  0.2178 -0.9488
 8091SOL    HW225324   0.972   4.465   8.005  0.4723  0.7319 -0.1262
 8092SOL     OW25325   8.198   2.562   4.279  0.1794 -0.1084 -0.5945
 8092SOL    HW125326   8.126   2.586   4.221  1.0901  1.6766 -1.0421
 8092SOL    HW225327   8.244   2.492   4.232 -1.6791 -1.8655  0.0704
 8093SOL     OW25328   3.749   1.109   7.440 -0.4564  0.8756  0.5019
 8093SOL    HW125329   3.768   1.048   7.368 -2.0703  0.1271  0.6883
 8093SOL    HW225330   3.775   1.195   7.405 -1.1793  0.5231 -0.9720
 8094SOL     OW25331   5.753   3.368   6.187 -0.3152  0.2968 -0.2597
 8094SOL    HW125332   5.667   3.403   6.210  0.7135  0.9133  3.3690
 8094SOL    HW225333   5.743   3.273   6.194 -0.5704  0.3949  0.9269
 8095SOL     OW25334   6.337   4.603   2.297 -0.1793 -0.0088  0.0554
 8095SOL    HW125335   6.292   4.552   2.364 -0.6654  1.0197  0.5203
 8095SOL    HW225336   6.274   4.608   2.225 -0.0718 -0.1915 -0.0522
 8096SOL     OW25337   5.473   0.883   7.962  0.0518 -0.1269  0.9313
 8096SOL    HW125338   5.560   0.848   7.940 -0.8091 -2.3710  0.9264
 8096SOL    HW225339   5.414   0.843   7.899 -0.9614  1.8066  0.5796
 8097SOL     OW25340   5.680   0.338   1.517 -0.4289  0.1515 -0.1196
 8097SOL    HW125341   5.600   0.325   1.468 -0.3112 -1.1591  0.0071
 8097SOL    HW225342   5.731   0.400   1.465 -0.9017 -0.1419 -0.9357
 8098SOL     OW25343   5.714   0.458   4.063 -0.2154 -0.3371  0.0252
 8098SOL    HW125344   5.791   0.409   4.036 -0.3685  0.0396 -1.1518
 8098SOL    HW225345   5.747   0.522   4.126 -0.0761 -2.1483  1.9242
 8099SOL     OW25346   3.150   1.992   7.766  0.8064  0.6419  0.0853
 8099SOL    HW125347   3.107   1.950   7.692  1.1749  0.1179  0.1687
 8099SOL    HW225348   3.081   2.001   7.832  0.4252  1.2984 -0.3880
 8100SOL     OW25349   0.810   4.326   6.199 -0.0347 -0.7838  0.5267
 8100SOL    HW125350   0.863   4.335   6.278 -0.0702  0.5202  0.4110
 8100SOL    HW225351   0.756   4.249   6.216 -0.5377 -0.1347  2.0723
 8101SOL     OW25352   1.886   7.224   1.074  0.0607  0.7868 -0.0269
 8101SOL    HW125353   1.904   7.309   1.113  1.9412 -0.6465  2.5359
 8101SOL    HW225354   1.972   7.191   1.047 -0.1977 -1.2680  1.3717
 8102SOL     OW25355   4.159   5.866   5.123  0.0470 -0.3279  0.7091
 8102SOL    HW125356   4.077   5.820   5.106 -0.1936  0.6203 -0.8772
 8102SOL    HW225357   4.227   5.806   5.093 -0.2533  0.1671 -1.0691
 8103SOL     OW25358   1.219   3.906   4.916  0.1922 -0.0207  0.4091
 8103SOL    HW125359   1.287   3.914   4.982  1.7105 -0.0052 -1.0730
 8103SOL    HW225360   1.252   3.842   4.854 -1.1435 -0.0037 -0.3787
 8104SOL     OW25361   0.811   0.109   7.102  0.1708  0.3129  0.2562
 8104SOL    HW125362   0.819   0.023   7.144  0.1230  1.3576  2.4936
 8104SOL    HW225363   0.901   0.135   7.085  0.3454  0.8558  1.8502
 8105SOL     OW25364   5.222   5.790   6.378 -0.4032  0.1719  0.2471
 8105SOL    HW125365   5.285   5.840   6.430  0.5964 -0.5670 -0.2242
 8105SOL    HW225366   5.204   5.846   6.302 -0.1255  0.2824  0.2604
 8106SOL     OW25367   4.415   5.862   0.396  0.3733 -0.2692 -0.0681
 8106SOL    HW125368   4.374   5.875   0.310 -1.0827  1.0681  0.7788
 8106SOL    HW225369   4.379   5.779   0.427 -0.1305 -0.1034 -0.1956
 8107SOL     OW25370   2.707   5.481   0.234  0.1504  0.4447 -0.4720
 8107SOL    HW125371   2.763   5.459   0.160  1.5666  0.3388  0.5985
 8107SOL    HW225372   2.738   5.567   0.263  0.6911 -0.1849  0.9426
 8108SOL     OW25373   5.746   6.920   0.983  0.1934  0.5429 -0.2208
 8108SOL    HW125374   5.747   7.008   0.944 -1.2230  0.4334 -0.5607
 8108SOL    HW225375   5.736   6.936   1.077 -0.0139  0.7514 -0.2760
 8109SOL     OW25376   6.449   7.373   7.907 -0.0389 -0.1736 -0.1162
 8109SOL    HW125377   6.356   7.354   7.897  0.0126 -1.1629  1.0475
 8109SOL    HW225378   6.464   7.375   8.001  1.4379 -1.7661 -0.2530
 8110SOL     OW25379   0.898   4.171   3.642  0.3234  0.1125 -0.7766
 8110SOL    HW125380   0.848   4.253   3.639  0.2432  0.0653 -0.7437
 8110SOL    HW225381   0.849   4.116   3.704  1.1564  0.5420  0.2957
 8111SOL     OW25382   3.583   1.439   4.646  0.3951 -0.1122 -0.2355
 8111SOL    HW125383   3.550   1.351   4.627 -0.2859 -0.1828  1.1395
 8111SOL    HW225384   3.668   1.443   4.602  0.7979 -1.7492  0.3275
 8112SOL     OW25385   2.314   7.795   3.679 -0.2019  0.4706 -0.2903
 8112SOL    HW125386   2.247   7.732   3.651  0.5658 -0.1630 -0.7379
 8112SOL    HW225387   2.393   7.742   3.689  0.1887  1.1743  0.4473
 8113SOL     OW25388   2.404   3.327   4.705 -0.1037 -0.1641  0.5797
 8113SOL    HW125389   2.349   3.387   4.655  1.0609  1.0369  0.6846
 8113SOL    HW225390   2.424   3.256   4.643 -1.8883 -0.7318  0.6036
 8114SOL     OW25391   5.273   5.404   5.855  0.2131 -0.0324 -0.4121
 8114SOL    HW125392   5.322   5.472   5.809  1.6373 -1.3142 -0.8705
 8114SOL    HW225393   5.223   5.360   5.786  1.4435 -1.1989 -0.6016
 8115SOL     OW25394   7.702   3.436   5.866 -0.5545 -0.5745 -0.7226
 8115SOL    HW125395   7.758   3.510   5.839 -1.0504 -0.5600 -1.7723
 8115SOL    HW225396   7.754   3.358   5.845 -0.2332 -0.5337 -0.0822
 8116SOL     OW25397   3.459   5.292   7.790  0.1694  0.1007 -0.1146
 8116SOL    HW125398   3.378   5.315   7.836  0.1806 -1.0514  0.5285
 8116SOL    HW225399   3.469   5.360   7.724 -0.9511  0.6548  0.2526
 8117SOL     OW25400   2.702   7.095   3.392 -0.0289  0.5924 -0.1510
 8117SOL    HW125401   2.640   7.084   3.463 -0.5982  1.1937 -0.5367
 8117SOL    HW225402   2.783   7.124   3.434 -0.9509  3.0387  0.1304
 8118SOL     OW25403   1.741   1.528   2.898  0.6071  0.0823  0.2862
 8118SOL    HW125404   1.832   1.557   2.908  0.2988  0.7556  1.4242
 8118SOL    HW225405   1.695   1.607   2.869  0.2983 -0.1362  0.1830
 8119SOL     OW25406   7.951   0.589   5.204 -0.5607 -0.5777 -0.6448
 8119SOL    HW125407   7.860   0.599   5.231  0.1841  1.6704  1.4026
 8119SOL    HW225408   7.953   0.624   5.115 -1.4158  1.1323 -0.0363
 8120SOL     OW25409   8.232   1.406   0.953  0.5380 -0.3523 -0.1329
 8120SOL    HW125410   8.290   1.365   0.890 -1.3365  0.7176 -2.7025
 8120SOL    HW225411   8.290   1.461   1.006  2.1079 -0.8047 -1.3226
 8121SOL     OW25412   6.177   2.154   0.799 -0.4387  0.1563 -0.2425
 8121SOL    HW125413   6.240   2.141   0.728 -0.9819 -3.0580 -0.2530
 8121SOL    HW225414   6.092   2.129   0.762 -0.7888 -1.2493  1.3805
 8122SOL     OW25415   3.624   5.334   2.412  0.2703  0.0065 -0.5285
 8122SOL    HW125416   3.542   5.287   2.405  0.7280 -1.0239  0.6314
 8122SOL    HW225417   3.608   5.417   2.367 -1.8564  0.4359  0.8875
 8123SOL     OW25418   3.782   2.469   0.980  0.7073  0.1914  0.5365
 8123SOL    HW125419   3.789   2.469   0.885 -1.5124  1.1701  0.2940
 8123SOL    HW225420   3.860   2.515   1.011  1.7374 -0.6325 -0.7368
 8124SOL     OW25421   3.034   0.297   7.899 -0.2127  0.2912  0.2111
 8124SOL    HW125422   3.018   0.229   7.834  2.8192 -0.0647 -0.2977
 8124SOL    HW225423   3.130   0.302   7.906 -0.3853  2.4713  2.3969
 8125SOL     OW25424   4.995   2.816   7.129 -0.2771 -0.5505 -0.2535
 8125SOL    HW125425   5.040   2.900   7.117 -1.6288  0.7717  2.8558
 8125SOL    HW225426   5.041   2.774   7.202 -0.9256 -1.5594 -0.3992
 8126SOL     OW25427   6.041   4.704   8.133 -0.2871  0.0337 -0.4716
 8126SOL    HW125428   6.046   4.707   8.037  0.7954  1.1897 -0.4117
 8126SOL    HW225429   5.949   4.719   8.154 -0.7339 -1.3131 -1.3377
 8127SOL     OW25430   3.615   3.295   5.892  0.6309 -0.6327 -0.8041
 8127SOL    HW125431   3.643   3.245   5.815  1.1661  0.3325 -1.2548
 8127SOL    HW225432   3.561   3.365   5.857  1.4008  0.1951 -0.3837
 8128SOL     OW25433   3.572   0.906   7.542  0.2076  0.0917 -1.1932
 8128SOL    HW125434   3.486   0.948   7.543  0.7321  1.2009 -1.2237
 8128SOL    HW225435   3.633   0.976   7.520  1.2920 -0.3514  0.2013
 8129SOL     OW25436   8.244   1.077   7.706  0.3711  0.0385 -0.1150
 8129SOL    HW125437   8.302   1.145   7.742  1.0286 -0.8469  0.5451
 8129SOL    HW225438   8.295   0.996   7.712 -0.2815 -0.4754 -1.1871
 8130SOL     OW25439   0.097   1.848   5.514  0.5276 -0.0157  0.4308
 8130SOL    HW125440   0.001   1.856   5.514  0.6747  2.3482  0.3378
 8130SOL    HW225441   0.117   1.802   5.595 -0.6843 -1.0378  0.1935
 8131SOL     OW25442   2.793   6.187   6.755  0.2058  0.3072 -0.0138
 8131SOL    HW125443   2.707   6.203   6.717  0.5056 -0.0980 -0.8979
 8131SOL    HW225444   2.805   6.258   6.818 -0.7496  0.3919  0.0844
 8132SOL     OW25445   6.833   6.672   6.614 -0.0936  0.7594  0.4742
 8132SOL    HW125446   6.778   6.611   6.564  0.1410  2.1734 -1.6148
 8132SOL    HW225447   6.919   6.667   6.572  0.1603  1.8775  0.8396
 8133SOL     OW25448   2.883   2.786   0.874 -0.1303  0.0579  0.1338
 8133SOL    HW125449   2.827   2.718   0.837 -1.4624  0.7331  0.8334
 8133SOL    HW225450   2.972   2.753   0.861 -0.6644 -0.9996 -1.0979
 8134SOL     OW25451   1.242   8.020   7.084 -0.3736  0.3694 -0.1662
 8134SOL    HW125452   1.296   8.038   7.161 -1.4954  1.6089  0.3595
 8134SOL    HW225453   1.247   7.925   7.073  0.1525  0.2220  1.1622
 8135SOL     OW25454   5.709   3.464   3.427  0.3791 -0.6783 -0.2875
 8135SOL    HW125455   5.733   3.538   3.482 -0.5247  0.7574 -1.7336
 8135SOL    HW225456   5.727   3.387   3.481 -0.5191  0.6321  2.0474
 8136SOL     OW25457   0.629   2.803   3.573 -0.1458  0.0850  0.2514
 8136SOL    HW125458   0.692   2.786   3.643  0.5743  1.4169 -0.0498
 8136SOL    HW225459   0.668   2.874   3.522 -2.7371  2.3389  1.1745
 8137SOL     OW25460   3.517   8.026   8.203  0.2195 -0.4624 -0.0194
 8137SOL    HW125461   3.493   7.935   8.185  0.1213 -0.3676 -0.3577
 8137SOL    HW225462   3.486   8.041   8.293 -0.2249 -0.5991 -0.1476
 8138SOL     OW25463   5.850   2.157   4.565  0.5296 -0.4120  0.1901
 8138SOL    HW125464   5.874   2.096   4.495  1.4419  0.2716 -0.1088
 8138SOL    HW225465   5.766   2.193   4.537  1.5367  0.9048 -1.2892
 8139SOL     OW25466   6.321   6.157   2.824 -0.0925 -0.3420 -0.1282
 8139SOL    HW125467   6.227   6.175   2.821  0.3116  2.0103 -0.7377
 8139SOL    HW225468   6.341   6.118   2.739 -0.7552 -2.5142  0.6550
 8140SOL     OW25469   5.749   0.793   7.841  0.0432 -0.1439 -0.0029
 8140SOL    HW125470   5.789   0.707   7.856  0.2860  0.0479  0.4833
 8140SOL    HW225471   5.822   0.855   7.850  0.1405  0.0217 -1.6575
 8141SOL     OW25472   4.163   2.065   1.260 -0.1003  0.3804 -0.0709
 8141SOL    HW125473   4.186   2.148   1.217  0.1252  0.6159  0.5015
 8141SOL    HW225474   4.246   2.019   1.268 -0.3050 -0.1658 -0.9180
 8142SOL     OW25475   0.213   7.504   0.340  0.0697 -0.2852 -0.0257
 8142SOL    HW125476   0.215   7.427   0.396  1.8023  0.4577  1.0356
 8142SOL    HW225477   0.218   7.578   0.401 -0.3342  0.6324 -1.0611
 8143SOL     OW25478   7.704   6.827   3.695  0.1683  0.2324  0.1501
 8143SOL    HW125479   7.648   6.846   3.619  0.6349 -1.3636 -0.6324
 8143SOL    HW225480   7.774   6.773   3.660  0.4574 -0.4582  1.7146
 8144SOL     OW25481   4.463   2.547   6.850 -0.1316  0.1926  0.5482
 8144SOL    HW125482   4.408   2.477   6.816  2.1097 -1.2921 -0.2530
 8144SOL    HW225483   4.402   2.607   6.892 -2.6222  0.0204 -2.4887
 8145SOL     OW25484   1.479   6.748   2.192  0.8441 -0.2983  0.1998
 8145SOL    HW125485   1.476   6.708   2.105  2.8557 -0.2576  0.0625
 8145SOL    HW225486   1.544   6.697   2.240 -0.4594 -0.5131  1.8180
 8146SOL     OW25487   1.205   2.051   3.093  0.4501  0.1891 -0.1673
 8146SOL    HW125488   1.120   2.068   3.134  0.2586  0.7807 -0.7884
 8146SOL    HW225489   1.216   1.956   3.099 -0.6244  0.0068 -0.7687
 8147SOL     OW25490   4.809   4.399   2.750  0.8270  0.0036 -0.5927
 8147SOL    HW125491   4.876   4.430   2.811 -0.1275  1.4929 -0.2450
 8147SOL    HW225492   4.804   4.468   2.684 -0.6905  0.1570 -0.3443
 8148SOL     OW25493   3.893   3.598   4.444 -0.3812 -0.3617 -0.1393
 8148SOL    HW125494   3.885   3.676   4.498  3.1051  0.3958 -0.5353
 8148SOL    HW225495   3.945   3.537   4.496  0.6361 -0.7146 -1.5183
 8149SOL     OW25496   7.662   6.971   1.716  0.3288  0.4277 -0.1520
 8149SOL    HW125497   7.722   7.043   1.734  1.5503 -0.0936 -1.8861
 8149SOL    HW225498   7.581   6.995   1.762  0.2191  3.5639 -1.7522
 8150SOL     OW25499   1.102   7.612   2.059 -0.3352 -0.0285 -0.0334
 8150SOL    HW125500   1.047   7.560   2.117 -0.0387  2.9201  3.1725
 8150SOL    HW225501   1.042   7.675   2.020  0.1247  0.5924  0.2619
 8151SOL     OW25502   2.604   6.334   4.792  0.0178 -0.2588 -0.1745
 8151SOL    HW125503   2.633   6.353   4.881  0.9536 -1.1783 -0.2734
 8151SOL    HW225504   2.683   6.308   4.745 -0.2739  1.2152 -1.5755
 8152SOL     OW25505   6.569   7.071   7.653  0.2242 -0.7537 -0.9387
 8152SOL    HW125506   6.509   7.114   7.715 -0.2540 -2.9088  0.1963
 8152SOL    HW225507   6.656   7.103   7.678 -0.0926 -0.6064  0.0242
 8153SOL     OW25508   5.364   8.022   4.477  0.7786  0.5533 -0.4641
 8153SOL    HW125509   5.377   7.927   4.474  2.4735  0.7185  0.3359
 8153SOL    HW225510   5.391   8.047   4.565  1.2213  1.8967 -0.9565
 8154SOL     OW25511   1.729   4.769   5.400 -0.0202  0.4914  0.9877
 8154SOL    HW125512   1.682   4.707   5.456  0.1180 -0.9944 -0.4297
 8154SOL    HW225513   1.669   4.784   5.327  0.8103  0.3037  0.2524
 8155SOL     OW25514   0.330   5.062   3.370 -0.6308 -0.0917  0.2121
 8155SOL    HW125515   0.244   5.088   3.404 -0.6917 -0.5007  0.3788
 8155SOL    HW225516   0.357   4.990   3.427  0.1864  0.5631  0.6604
 8156SOL     OW25517   6.048   6.894   5.900 -0.8148  0.7240  0.2230
 8156SOL    HW125518   6.044   6.870   5.808  1.1297  0.2776  0.2198
 8156SOL    HW225519   6.093   6.979   5.900  1.6039 -0.4783  0.8716
 8157SOL     OW25520   0.620   4.355   5.350  0.3872  0.5743 -0.6306
 8157SOL    HW125521   0.679   4.320   5.416  0.0873 -0.9794 -1.1391
 8157SOL    HW225522   0.562   4.282   5.328  0.1055  1.2093 -2.1777
 8158SOL     OW25523   7.274   7.631   3.034  0.1567  0.2983 -0.2920
 8158SOL    HW125524   7.279   7.610   3.128 -0.1855 -0.6718 -0.4778
 8158SOL    HW225525   7.253   7.548   2.992 -0.4533  0.8756 -1.1663
 8159SOL     OW25526   4.744   0.679   0.616  0.3207  0.2051  0.1910
 8159SOL    HW125527   4.690   0.612   0.656  0.2667  0.1258 -0.0123
 8159SOL    HW225528   4.825   0.680   0.668 -0.4201  1.3074  1.3851
 8160SOL     OW25529   7.524   3.419   3.204 -0.1621  0.0736 -0.4834
 8160SOL    HW125530   7.566   3.475   3.268 -2.7623  0.3780  1.1198
 8160SOL    HW225531   7.537   3.464   3.120 -0.3264  1.9452  0.4493
 8161SOL     OW25532   5.560   0.856   4.765 -0.6662 -1.1841 -0.1589
 8161SOL    HW125533   5.576   0.875   4.673  1.6102  1.7391  0.6736
 8161SOL    HW225534   5.491   0.918   4.790  1.4786  0.9470  0.8744
 8162SOL     OW25535   6.792   4.900   0.354 -0.1139 -0.0611  0.3456
 8162SOL    HW125536   6.805   4.991   0.382 -0.7295  0.3221 -0.5616
 8162SOL    HW225537   6.843   4.848   0.416  1.6063  1.0106 -0.1121
 8163SOL     OW25538   2.452   0.420   4.866  0.6432  0.2299 -0.0253
 8163SOL    HW125539   2.457   0.479   4.942  0.7882 -0.3446  0.4198
 8163SOL    HW225540   2.521   0.450   4.808 -0.0275  1.2256 -0.3367
 8164SOL     OW25541   6.772   3.741   3.644 -0.5074  0.8265 -0.0408
 8164SOL    HW125542   6.805   3.660   3.605 -2.3483  0.3408 -0.6427
 8164SOL    HW225543   6.753   3.717   3.735 -0.6074  0.7140 -0.0914
 8165SOL     OW25544   4.362   4.918   2.438 -0.3901  0.1192  0.2919
 8165SOL    HW125545   4.351   5.005   2.476  0.7602  0.4399 -0.0951
 8165SOL    HW225546   4.441   4.924   2.384  0.8254 -1.6632  1.7379
 8166SOL     OW25547   1.362   6.048   6.805 -0.2120  0.0184  0.0929
 8166SOL    HW125548   1.281   6.082   6.843  0.6524  1.0746  1.0307
 8166SOL    HW225549   1.358   6.075   6.713 -0.3416  1.1825  0.4234
 8167SOL     OW25550   2.075   2.184   6.914  1.0220  0.1545 -0.6558
 8167SOL    HW125551   2.060   2.150   7.002  0.3589  1.6614 -0.1505
 8167SOL    HW225552   2.137   2.122   6.875 -1.1320 -2.3755 -0.3043
 8168SOL     OW25553   5.524   5.879   2.473 -0.1549 -0.0649  0.0015
 8168SOL    HW125554   5.441   5.861   2.429  0.3610 -0.6618 -0.7509
 8168SOL    HW225555   5.515   5.837   2.559 -0.2655 -0.9673 -0.4422
 8169SOL     OW25556   4.103   7.042   8.124 -0.0397 -0.0718 -0.3472
 8169SOL    HW125557   4.034   7.075   8.182  1.4064  0.2709  1.2559
 8169SOL    HW225558   4.075   6.954   8.100 -0.2320 -0.6062  1.6929
 8170SOL     OW25559   8.117   2.151   2.314 -0.8755 -0.0160  0.0032
 8170SOL    HW125560   8.027   2.177   2.333 -1.2546 -1.2511  0.0177
 8170SOL    HW225561   8.150   2.116   2.397 -0.1999  0.8755  0.1291
 8171SOL     OW25562   0.863   0.850   7.449 -0.5853  0.1373  0.6942
 8171SOL    HW125563   0.916   0.863   7.370 -0.4341 -1.7959  0.4462
 8171SOL    HW225564   0.777   0.822   7.415 -0.7379 -0.0081  1.1996
 8172SOL     OW25565   8.044   3.869   7.020 -0.2294  0.0133 -0.7354
 8172SOL    HW125566   8.097   3.792   7.044 -1.1201 -0.4397 -0.1507
 8172SOL    HW225567   8.084   3.902   6.940 -0.0933 -1.3320 -1.2494
 8173SOL     OW25568   3.184   4.912   7.311  0.0173  0.1716 -0.7905
 8173SOL    HW125569   3.216   4.891   7.223  1.2720 -1.9388  0.1014
 8173SOL    HW225570   3.228   4.994   7.334  1.3879 -0.3925 -1.3101
 8174SOL     OW25571   3.805   4.459   7.678  0.0278  0.3782 -0.0926
 8174SOL    HW125572   3.748   4.384   7.694  0.8198  0.0468  1.3034
 8174SOL    HW225573   3.820   4.497   7.765  0.6744  1.3769 -0.6245
 8175SOL     OW25574   1.458   0.044   6.884 -0.0590  0.0460  0.1848
 8175SOL    HW125575   1.524   0.088   6.830  0.4845 -0.3214  0.5318
 8175SOL    HW225576   1.493  -0.045   6.895 -0.7451 -0.2306  0.1586
 8176SOL     OW25577   5.403   3.346   5.402 -0.0935 -0.0104  0.0573
 8176SOL    HW125578   5.381   3.363   5.493 -3.1281 -1.0969 -0.3688
 8176SOL    HW225579   5.492   3.381   5.392  0.0364  0.8395  3.1816
 8177SOL     OW25580   0.035   5.567   6.601 -0.2724 -0.2367  0.3649
 8177SOL    HW125581   0.084   5.614   6.669  1.4525  2.1078 -2.2591
 8177SOL    HW225582   0.052   5.475   6.618  1.5744  0.3554  2.0742
 8178SOL     OW25583   4.321   4.530   3.085  0.2259 -0.2864 -0.3845
 8178SOL    HW125584   4.359   4.618   3.076 -1.2781  0.6224  1.5452
 8178SOL    HW225585   4.380   4.485   3.145 -0.4066  0.3111  0.7065
 8179SOL     OW25586   6.440   0.672   7.095 -0.1244  0.1515 -0.8296
 8179SOL    HW125587   6.527   0.664   7.136  0.2358  0.1383 -1.5866
 8179SOL    HW225588   6.426   0.588   7.051 -0.4191  0.2439 -0.9153
 8180SOL     OW25589   3.867   7.959   0.089  0.2374  0.0298  0.3961
 8180SOL    HW125590   3.791   7.925   0.044 -0.0795 -0.0703  0.9894
 8180SOL    HW225591   3.928   7.984   0.020  1.0065 -2.8646 -0.0601
 8181SOL     OW25592   4.703   3.808   0.864 -0.2760 -0.0514 -0.0534
 8181SOL    HW125593   4.794   3.791   0.887 -0.4646 -0.9024  0.1025
 8181SOL    HW225594   4.698   3.903   0.852  0.9068 -0.1323 -1.3136
 8182SOL     OW25595   1.323   6.182   6.573  0.3291  0.4570  0.8061
 8182SOL    HW125596   1.383   6.238   6.524 -0.7308  1.9702  1.1473
 8182SOL    HW225597   1.244   6.178   6.519  1.3493 -3.3049 -0.6965
 8183SOL     OW25598   8.137   8.276   2.914 -0.0920  0.0350  0.0767
 8183SOL    HW125599   8.219   8.287   2.866 -0.3783  0.3335 -0.3602
 8183SOL    HW225600   8.089   8.358   2.897 -0.4081 -0.0704  0.4586
 8184SOL     OW25601   6.294   3.641   5.461 -0.5028  0.4705  0.1161
 8184SOL    HW125602   6.366   3.633   5.399 -0.0094  1.6096  0.5265
 8184SOL    HW225603   6.246   3.558   5.453  0.0823  0.2342 -1.1053
 8185SOL     OW25604   4.736   2.436   1.958  0.1174  0.7205  0.5667
 8185SOL    HW125605   4.816   2.489   1.956 -0.3293  1.4062 -0.0932
 8185SOL    HW225606   4.714   2.423   1.865 -0.5428  0.5612  0.7384
 8186SOL     OW25607   1.273   4.254   6.495 -0.0327  0.2247 -0.1566
 8186SOL    HW125608   1.359   4.216   6.480 -0.4678 -1.0968  0.5224
 8186SOL    HW225609   1.261   4.251   6.590 -0.7325  0.6248 -0.2234
 8187SOL     OW25610   3.146   6.581   5.594  0.5277 -0.0941  0.0141
 8187SOL    HW125611   3.185   6.495   5.578 -0.7255 -0.2414 -2.8018
 8187SOL    HW225612   3.099   6.570   5.677 -0.1769 -2.3691 -0.6117
 8188SOL     OW25613   3.557   8.241   0.446 -0.6488  0.2293 -0.1661
 8188SOL    HW125614   3.574   8.176   0.377 -0.6575  0.7801 -0.6988
 8188SOL    HW225615   3.585   8.324   0.407 -1.0918  0.6115  0.3292
 8189SOL     OW25616   5.366   5.232   7.360 -0.5872  0.0627 -0.2566
 8189SOL    HW125617   5.393   5.211   7.271 -0.9428  0.5051 -0.4724
 8189SOL    HW225618   5.414   5.312   7.382  1.7671 -1.5843  1.0400
 8190SOL     OW25619   3.863   6.646   1.513  0.6161  0.5092 -0.3011
 8190SOL    HW125620   3.788   6.672   1.566 -1.0959 -1.5917 -1.5758
 8190SOL    HW225621   3.866   6.711   1.443  0.2650  0.8446 -0.0101
 8191SOL     OW25622   3.823   0.681   4.678 -0.1351 -1.4093  0.2882
 8191SOL    HW125623   3.762   0.738   4.724  0.5225 -0.3391 -0.1350
 8191SOL    HW225624   3.767   0.621   4.628 -0.8305 -1.2240  0.8309
 8192SOL     OW25625   3.035   6.607   0.189  0.0682 -0.4360 -0.5379
 8192SOL    HW125626   3.049   6.646   0.102  0.8315  1.0639  0.2094
 8192SOL    HW225627   2.989   6.676   0.238 -2.2484 -2.0125 -0.3050
 8193SOL     OW25628   7.336   7.190   0.561 -0.0989  0.1886 -0.0393
 8193SOL    HW125629   7.272   7.201   0.631 -2.2551 -1.4233 -1.6355
 8193SOL    HW225630   7.387   7.114   0.587  0.0446  0.4304  0.4094
 8194SOL     OW25631   7.781   0.086   7.864  0.1625 -0.0413 -0.1868
 8194SOL    HW125632   7.687   0.079   7.882  0.1826  2.5123  1.4050
 8194SOL    HW225633   7.819   0.007   7.902 -1.2829 -1.0280 -0.7117
 8195SOL     OW25634   4.963   2.913   4.236  0.1128  0.5193  0.5323
 8195SOL    HW125635   5.042   2.926   4.184 -0.0864 -1.1503 -0.2607
 8195SOL    HW225636   4.976   2.829   4.280 -1.1854  0.2358  0.4188
 8196SOL     OW25637   3.964   5.146   7.392  0.2182 -0.1138 -0.0535
 8196SOL    HW125638   3.917   5.075   7.347 -0.1506 -0.4882  0.8766
 8196SOL    HW225639   4.024   5.181   7.327 -2.3531  1.3694 -1.7966
 8197SOL     OW25640   1.024   0.131   7.559 -0.3314 -0.1937  0.5163
 8197SOL    HW125641   0.964   0.062   7.586  2.5062 -2.8404  0.6047
 8197SOL    HW225642   1.074   0.153   7.638  1.1541 -0.6422 -0.2466
 8198SOL     OW25643   4.057   3.298   1.181  0.4410  0.2052 -0.4102
 8198SOL    HW125644   4.047   3.263   1.270 -0.1037 -1.2307 -1.0149
 8198SOL    HW225645   4.152   3.313   1.172  0.4150  1.2030  0.6940
 8199SOL     OW25646   6.956   6.965   1.311 -0.2614 -0.0666 -0.2906
 8199SOL    HW125647   6.968   6.923   1.226  0.0157  0.0060 -0.2870
 8199SOL    HW225648   7.027   6.931   1.366 -1.6459 -1.7738  0.5665
 8200SOL     OW25649   3.076   4.873   3.268  0.2834 -0.0479  0.2202
 8200SOL    HW125650   3.071   4.810   3.340 -1.6746  0.0726  0.2251
 8200SOL    HW225651   3.026   4.834   3.197  2.3743 -0.2556 -1.2128
 8201SOL     OW25652   0.117   0.288   7.515 -0.1527 -0.1881  0.2628
 8201SOL    HW125653   0.152   0.276   7.603  0.7572  1.3132  0.1417
 8201SOL    HW225654   0.185   0.255   7.457 -0.3503 -0.3159  0.1014
 8202SOL     OW25655   7.139   5.593   7.495 -0.4224  0.1424  0.5158
 8202SOL    HW125656   7.206   5.578   7.562  0.4108 -2.1823 -0.7436
 8202SOL    HW225657   7.095   5.674   7.524  1.4913  0.5837  2.5143
 8203SOL     OW25658   4.653   0.148   7.324  0.4689 -0.3053 -0.3929
 8203SOL    HW125659   4.688   0.124   7.410  0.6885  0.2783 -0.3126
 8203SOL    HW225660   4.717   0.210   7.289  0.0891 -0.1009 -0.7341
 8204SOL     OW25661   6.793   5.727   7.413 -0.1963 -0.9851  0.0941
 8204SOL    HW125662   6.751   5.810   7.390  0.3030 -0.6739  0.2947
 8204SOL    HW225663   6.777   5.716   7.506  0.9385 -0.4027  0.3770
 8205SOL     OW25664   7.805   5.965   0.332  0.0093 -0.3713  0.6109
 8205SOL    HW125665   7.888   5.919   0.342  0.1459 -0.8715 -2.1484
 8205SOL    HW225666   7.830   6.057   0.319  0.3131 -0.7531 -1.8697
 8206SOL     OW25667   6.660   5.039   1.646 -0.2587  0.5867 -0.1011
 8206SOL    HW125668   6.655   5.101   1.719  0.0323 -0.1625  0.5677
 8206SOL    HW225669   6.569   5.028   1.618 -0.4058  0.6477  0.3505
 8207SOL     OW25670   4.526   4.548   2.177 -0.4894  0.1980  0.1030
 8207SOL    HW125671   4.544   4.613   2.109 -1.4461  2.0084  1.4724
 8207SOL    HW225672   4.560   4.588   2.257  0.7669 -1.9441  0.7109
 8208SOL     OW25673   2.702   5.098   6.049 -0.0219 -0.8455  0.0753
 8208SOL    HW125674   2.692   5.011   6.012 -3.7186  0.4562 -2.6716
 8208SOL    HW225675   2.676   5.088   6.141 -0.9303 -2.5762 -0.3285
 8209SOL     OW25676   6.383   4.486   7.844 -0.3022 -0.6979 -0.1860
 8209SOL    HW125677   6.411   4.490   7.752 -2.4590 -2.1601 -1.0004
 8209SOL    HW225678   6.372   4.577   7.869  2.9723 -0.1024 -0.4018
 8210SOL     OW25679   0.927   6.927   3.099  0.3307 -0.1156 -0.1018
 8210SOL    HW125680   1.000   6.982   3.126  0.8609 -0.5332 -0.6311
 8210SOL    HW225681   0.859   6.988   3.072  1.0881  0.2942 -1.1438
 8211SOL     OW25682   1.746   3.165   6.373 -0.5223 -0.2317  0.6044
 8211SOL    HW125683   1.814   3.161   6.305 -0.4940 -2.8117  0.6989
 8211SOL    HW225684   1.720   3.074   6.387 -2.1977  0.4498  2.4199
 8212SOL     OW25685   1.157   4.990   8.251  0.4600  0.0722  0.1409
 8212SOL    HW125686   1.207   4.928   8.305  0.5237 -0.1956 -0.2165
 8212SOL    HW225687   1.136   4.940   8.172  0.1624  0.3845  0.0220
 8213SOL     OW25688   4.124   3.536   2.823 -0.6036 -0.3487 -0.4445
 8213SOL    HW125689   4.164   3.493   2.899  0.8948  2.7604  0.7000
 8213SOL    HW225690   4.193   3.537   2.757  0.2459  2.1454  0.3699
 8214SOL     OW25691   7.274   0.493   0.505 -0.5694  0.1191 -0.1880
 8214SOL    HW125692   7.254   0.407   0.544 -0.6575  0.9397  1.7088
 8214SOL    HW225693   7.365   0.485   0.476 -0.2159 -0.3134  0.9544
 8215SOL     OW25694   4.327   0.125   2.279 -0.2335  0.5617 -0.0003
 8215SOL    HW125695   4.267   0.140   2.353 -0.2237 -2.8316  0.8966
 8215SOL    HW225696   4.275   0.076   2.216  0.8499 -0.1425 -0.3767
 8216SOL     OW25697   7.438   7.093   1.817 -0.7340 -0.0197  0.5803
 8216SOL    HW125698   7.485   7.118   1.897  0.8487  0.4060 -0.4226
 8216SOL    HW225699   7.348   7.078   1.845 -0.3457  0.6921  2.3296
 8217SOL     OW25700   6.380   4.720   5.455 -0.0764  0.1746 -0.2541
 8217SOL    HW125701   6.345   4.757   5.374  0.9049 -2.0248 -1.7759
 8217SOL    HW225702   6.475   4.736   5.450 -0.1325  1.1141  1.1004
 8218SOL     OW25703   1.014   3.936   4.183 -0.2783 -0.0570 -0.0617
 8218SOL    HW125704   1.018   3.848   4.220  0.7078  0.3686  0.8809
 8218SOL    HW225705   1.012   3.994   4.259  1.4451  0.8338 -0.6510
 8219SOL     OW25706   2.091   3.002   1.498 -0.7395 -0.1188 -0.1286
 8219SOL    HW125707   2.133   2.973   1.418 -0.8313  0.9284 -0.5777
 8219SOL    HW225708   2.160   2.998   1.565 -0.9871 -2.2345  0.0776
 8220SOL     OW25709   7.516   6.331   0.776  0.0807 -0.3771 -1.0132
 8220SOL    HW125710   7.537   6.417   0.813 -0.0328 -0.5429 -0.5565
 8220SOL    HW225711   7.427   6.313   0.806  0.2673 -0.8534 -0.7180
 8221SOL     OW25712   0.802   5.951   7.949  0.2152  0.0548  0.2669
 8221SOL    HW125713   0.796   6.040   7.912  1.1533  0.5956  1.3619
 8221SOL    HW225714   0.760   5.958   8.034 -0.5452 -0.8049 -0.0271
 8222SOL     OW25715   3.933   2.793   5.575 -0.4055 -0.2331  0.3541
 8222SOL    HW125716   3.984   2.717   5.548 -1.7006 -1.7591  1.9733
 8222SOL    HW225717   3.992   2.867   5.560  1.6817 -1.7298  0.5950
 8223SOL     OW25718   3.894   5.599   5.268  0.2863  0.3318 -0.1526
 8223SOL    HW125719   3.828   5.635   5.208  0.4730 -0.9730 -1.1928
 8223SOL    HW225720   3.945   5.675   5.295 -0.8979  1.2087 -0.2498
 8224SOL     OW25721   6.376   6.591   4.121  0.0045 -0.8310 -0.5587
 8224SOL    HW125722   6.415   6.517   4.167  0.3789  0.0585  0.5938
 8224SOL    HW225723   6.444   6.617   4.058  2.1037  1.6737  2.4594
 8225SOL     OW25724   3.102   2.747   4.595  0.2739 -0.1710  0.0835
 8225SOL    HW125725   3.030   2.799   4.632  1.2730  0.4912  1.1652
 8225SOL    HW225726   3.152   2.808   4.542 -0.8787 -1.0190 -2.0727
 8226SOL     OW25727   3.034   5.047   5.783 -0.0574  0.0476 -0.2136
 8226SOL    HW125728   2.939   5.036   5.785 -0.1933  1.2155 -0.0284
 8226SOL    HW225729   3.060   5.054   5.874 -0.1024  2.0770 -0.3115
 8227SOL     OW25730   1.210   4.638   3.671 -0.4172  0.2086 -0.5458
 8227SOL    HW125731   1.179   4.688   3.745  0.8309 -0.4224  0.4515
 8227SOL    HW225732   1.136   4.634   3.610 -1.8753 -0.2966  1.1963
 8228SOL     OW25733   0.426   5.885   0.422  0.0756 -0.1889 -0.7809
 8228SOL    HW125734   0.442   5.796   0.391 -1.2468 -0.3978 -0.9143
 8228SOL    HW225735   0.399   5.933   0.344 -0.0422  0.1162 -0.5526
 8229SOL     OW25736   7.318   2.702   7.161 -0.0308 -0.2755  0.1570
 8229SOL    HW125737   7.310   2.658   7.076 -0.5075 -2.0041  1.0523
 8229SOL    HW225738   7.289   2.792   7.144  1.2759 -0.1511 -1.8146
 8230SOL     OW25739   3.518   3.510   7.160  0.3900  0.1149 -0.4666
 8230SOL    HW125740   3.447   3.551   7.209  1.4271 -0.0881  1.3327
 8230SOL    HW225741   3.504   3.416   7.172  0.0370  0.0288 -1.5155
 8231SOL     OW25742   3.095   1.968   1.362  0.6876  0.5710 -0.2985
 8231SOL    HW125743   3.039   2.045   1.367  1.3935  1.0634  0.2862
 8231SOL    HW225744   3.094   1.944   1.269 -1.1206  0.0660 -0.1816
 8232SOL     OW25745   6.290   5.165   6.304  0.3683  0.1640  0.3440
 8232SOL    HW125746   6.242   5.171   6.222 -0.7134  0.0942  0.9452
 8232SOL    HW225747   6.363   5.106   6.285  1.0603  1.3911 -0.9637
 8233SOL     OW25748   7.648   7.969   2.062 -0.2196  0.0088 -0.4757
 8233SOL    HW125749   7.653   8.064   2.054 -0.8445  0.0530 -0.3937
 8233SOL    HW225750   7.717   7.936   2.004 -0.9944  0.4702 -1.7100
 8234SOL     OW25751   5.534   0.788   3.804 -0.3362 -0.1783  0.1304
 8234SOL    HW125752   5.591   0.836   3.864 -0.1095  1.5176 -1.3479
 8234SOL    HW225753   5.575   0.702   3.795  1.6306  0.7556 -0.3499
 8235SOL     OW25754   3.986   8.145   3.832  0.1082  0.6281  0.3355
 8235SOL    HW125755   4.028   8.200   3.898  0.9008 -0.7851  1.0388
 8235SOL    HW225756   3.966   8.063   3.878 -4.5381  1.5171  0.4696
 8236SOL     OW25757   1.856   1.455   0.557 -0.1321  0.4745 -0.0847
 8236SOL    HW125758   1.911   1.528   0.586  0.4720 -0.3162  0.8355
 8236SOL    HW225759   1.912   1.404   0.500 -0.2746  0.2617 -0.0353
 8237SOL     OW25760   4.273   1.837   5.167  0.2371  0.0267  0.6757
 8237SOL    HW125761   4.219   1.769   5.126 -0.0680 -0.3196  1.6234
 8237SOL    HW225762   4.329   1.789   5.228  0.3945  0.5739  0.9687
 8238SOL     OW25763   1.766   4.118   7.301 -0.2446  0.2405 -0.4966
 8238SOL    HW125764   1.712   4.170   7.242 -1.9184  1.1442  1.7014
 8238SOL    HW225765   1.787   4.039   7.251 -0.6101  1.4335 -2.6617
 8239SOL     OW25766   0.488   4.121   4.804  0.2820  0.1029 -0.2018
 8239SOL    HW125767   0.485   4.189   4.872 -0.9557  0.0812 -0.1994
 8239SOL    HW225768   0.568   4.139   4.755  0.6392  0.7763  0.5965
 8240SOL     OW25769   0.117   5.400   5.029  0.2380 -0.3684 -0.1180
 8240SOL    HW125770   0.044   5.430   5.084  0.4978 -1.7957  1.0535
 8240SOL    HW225771   0.187   5.462   5.048 -0.2381  0.2211 -0.2310
 8241SOL     OW25772   6.452   2.249   6.760 -0.3096  0.0686  0.1907
 8241SOL    HW125773   6.496   2.328   6.789 -2.7109  0.9205  1.8376
 8241SOL    HW225774   6.461   2.250   6.664  0.0444  2.1234  0.2107
 8242SOL     OW25775   5.731   6.157   0.989 -0.6194 -0.5371 -0.1764
 8242SOL    HW125776   5.719   6.227   1.053  0.3119  0.2359 -0.8121
 8242SOL    HW225777   5.801   6.103   1.024  0.0681  0.0342 -0.6514
 8243SOL     OW25778   2.709   6.014   1.933  0.1254 -0.4142  0.3495
 8243SOL    HW125779   2.668   5.963   1.863  1.2818 -0.8873 -0.0135
 8243SOL    HW225780   2.739   5.948   1.996  0.6752 -0.1273  0.3981
 8244SOL     OW25781   1.658   0.081   0.823 -0.2246  0.1935 -0.3855
 8244SOL    HW125782   1.682  -0.004   0.859  1.5004 -0.3509 -2.5703
 8244SOL    HW225783   1.580   0.065   0.771 -0.0138 -0.0124 -0.6371
 8245SOL     OW25784   7.638   6.194   2.083 -0.2042  0.4339  0.5667
 8245SOL    HW125785   7.619   6.190   1.989 -0.9760 -1.3532  0.7675
 8245SOL    HW225786   7.553   6.182   2.125  0.3631 -0.5076  1.4873
 8246SOL     OW25787   3.312   3.025   1.146 -0.1996  0.7188 -0.3851
 8246SOL    HW125788   3.245   2.995   1.207 -0.0362  0.2223 -0.4497
 8246SOL    HW225789   3.379   3.065   1.201 -0.5045  1.1352 -0.3134
 8247SOL     OW25790   4.085   2.743   6.252 -0.3463 -0.1906  0.0125
 8247SOL    HW125791   3.999   2.778   6.275 -1.0383 -1.0237 -1.2166
 8247SOL    HW225792   4.088   2.657   6.292 -1.3779 -1.4637 -2.4271
 8248SOL     OW25793   6.446   7.362   4.236 -0.2153 -0.6589  0.6633
 8248SOL    HW125794   6.445   7.451   4.201  1.4870 -0.8299  0.0939
 8248SOL    HW225795   6.395   7.368   4.317  0.1278  0.9039  0.8004
 8249SOL     OW25796   3.486   3.404   2.711  0.1423  0.3997  0.4735
 8249SOL    HW125797   3.405   3.442   2.679  0.4272  0.8158  0.2399
 8249SOL    HW225798   3.549   3.420   2.641  0.5150  0.3941  0.8068
 8250SOL     OW25799   6.682   3.182   1.251 -0.8671 -0.1748  0.1654
 8250SOL    HW125800   6.724   3.220   1.174  0.0566 -1.2339  0.1261
 8250SOL    HW225801   6.737   3.210   1.324 -1.2197  0.0627  0.3439
 8251SOL     OW25802   3.243   8.148   2.017  0.3170  0.4544  0.5763
 8251SOL    HW125803   3.220   8.156   2.109 -0.3449 -1.1471  0.5908
 8251SOL    HW225804   3.160   8.153   1.971  0.6828  1.6364  0.0118
 8252SOL     OW25805   0.358   3.763   7.826 -0.3586  0.0090  0.0229
 8252SOL    HW125806   0.421   3.834   7.826  0.8200 -0.9537  1.4495
 8252SOL    HW225807   0.343   3.744   7.919 -1.3736 -0.9661 -0.3069
 8253SOL     OW25808   0.405   5.766   5.678  0.3048 -0.0121 -0.2504
 8253SOL    HW125809   0.441   5.836   5.732 -3.4529  1.1738  1.0081
 8253SOL    HW225810   0.350   5.811   5.614  0.7032 -1.6845 -1.8688
 8254SOL     OW25811   6.284   8.112   1.732 -0.0001 -0.8378  0.1831
 8254SOL    HW125812   6.331   8.048   1.678 -1.2850 -1.9494  0.3352
 8254SOL    HW225813   6.245   8.060   1.803  1.6052  0.5670  2.2119
 8255SOL     OW25814   3.926   7.190   5.147 -0.2557  0.2067 -0.7536
 8255SOL    HW125815   3.909   7.161   5.057  0.6732 -0.3291 -0.7667
 8255SOL    HW225816   3.915   7.285   5.143 -1.6226  0.0589 -1.0977
 8256SOL     OW25817   7.361   7.928   1.329  0.0502 -0.0116 -0.0560
 8256SOL    HW125818   7.337   7.990   1.398 -0.1727 -0.2887  0.1179
 8256SOL    HW225819   7.456   7.936   1.321  0.0725  0.0364  0.2710
 8257SOL     OW25820   6.889   1.390   8.203 -0.0925 -0.1836  0.0875
 8257SOL    HW125821   6.937   1.470   8.220  0.2824 -0.0943 -1.2412
 8257SOL    HW225822   6.821   1.387   8.270 -0.2860  1.3955 -0.0093
 8258SOL     OW25823   1.277   1.571   3.607 -0.1508  0.2613 -0.4376
 8258SOL    HW125824   1.289   1.646   3.664 -1.2101 -0.0654  0.2447
 8258SOL    HW225825   1.204   1.522   3.646  0.5562 -1.1574 -0.8146
 8259SOL     OW25826   4.748   0.627   5.151  0.1226  0.5800 -0.2019
 8259SOL    HW125827   4.717   0.700   5.204 -1.0399 -0.5865  0.7831
 8259SOL    HW225828   4.734   0.550   5.205  1.1641 -0.4100 -1.2823
 8260SOL     OW25829   1.961   5.159   0.129 -0.1370  0.3006 -0.0936
 8260SOL    HW125830   1.876   5.203   0.124  0.6247  1.7145 -1.2547
 8260SOL    HW225831   1.965   5.106   0.050 -1.7111 -3.3077  2.0114
 8261SOL     OW25832   5.044   5.068   1.247  0.6937 -0.2495 -0.1702
 8261SOL    HW125833   5.078   5.094   1.333  0.1334  0.0593 -0.0409
 8261SOL    HW225834   5.023   5.151   1.204 -1.3764 -0.4464  0.3496
 8262SOL     OW25835   4.053   4.791   8.068  0.3198  0.0012 -0.4311
 8262SOL    HW125836   4.061   4.762   7.977  0.1468  1.6305 -1.0015
 8262SOL    HW225837   3.975   4.746   8.100  0.2758 -0.4522 -1.1420
 8263SOL     OW25838   4.517   1.250   0.770 -0.1744 -0.7410 -0.0406
 8263SOL    HW125839   4.429   1.278   0.747 -0.0923  0.1102  0.6615
 8263SOL    HW225840   4.556   1.324   0.816  0.6969 -1.3254  0.2071
 8264SOL     OW25841   5.334   4.905   1.673 -0.1184  0.0503  0.5164
 8264SOL    HW125842   5.280   4.900   1.752 -2.4788  1.1320 -0.9272
 8264SOL    HW225843   5.315   4.992   1.637  1.2579 -0.2362 -1.0064
 8265SOL     OW25844   0.391   1.135   5.475 -0.5065 -0.4007  0.4660
 8265SOL    HW125845   0.357   1.201   5.536  0.1054  0.8499 -0.5055
 8265SOL    HW225846   0.464   1.095   5.522 -0.2856  0.2818  0.7241
 8266SOL     OW25847   1.122   6.437   4.256  0.1654 -0.5225 -0.0635
 8266SOL    HW125848   1.139   6.531   4.268 -0.5145  0.1730 -3.3978
 8266SOL    HW225849   1.036   6.434   4.214  0.5547 -2.5797 -0.8279
 8267SOL     OW25850   2.833   1.368   7.801 -0.2643 -0.9602 -0.4520
 8267SOL    HW125851   2.928   1.356   7.799 -0.1634 -0.3472  0.2842
 8267SOL    HW225852   2.805   1.320   7.880 -0.3485  0.2260  0.2611
 8268SOL     OW25853   1.541   6.205   5.558  0.1402  0.2780  0.1065
 8268SOL    HW125854   1.609   6.178   5.497 -1.3661  0.5104 -1.7619
 8268SOL    HW225855   1.543   6.138   5.627  1.7054 -0.1446 -0.3262
 8269SOL     OW25856   6.874   7.742   6.449  0.6428 -0.1548 -0.3691
 8269SOL    HW125857   6.891   7.757   6.542  1.2722  0.3302 -0.5564
 8269SOL    HW225858   6.790   7.784   6.433  0.9470  0.5160 -0.2135
 8270SOL     OW25859   1.076   5.187   6.106  0.0705  0.0374 -0.6558
 8270SOL    HW125860   1.017   5.114   6.123  2.1523 -1.7265 -0.5218
 8270SOL    HW225861   1.021   5.254   6.065 -2.2378 -0.9692  0.5919
 8271SOL     OW25862   0.082   1.566   1.159 -0.4318 -0.6967  0.1304
 8271SOL    HW125863   0.036   1.546   1.241  1.7285 -0.9724  1.3415
 8271SOL    HW225864   0.170   1.591   1.187  0.0220  0.3451 -2.0660
 8272SOL     OW25865   5.627   4.137   2.022 -0.1411 -0.3068 -0.1222
 8272SOL    HW125866   5.636   4.193   2.099  1.3429  1.1174 -1.2626
 8272SOL    HW225867   5.587   4.057   2.055 -1.0479  0.8821  1.8246
 8273SOL     OW25868   4.647   2.809   2.105  0.3766  0.2477  0.3000
 8273SOL    HW125869   4.554   2.810   2.129  0.4484  1.1108  0.6004
 8273SOL    HW225870   4.681   2.891   2.141  1.4813 -0.5159  1.0558
 8274SOL     OW25871   2.487   2.704   6.892 -0.0655  0.1696  0.2434
 8274SOL    HW125872   2.393   2.687   6.891 -0.2036  0.5028 -2.7470
 8274SOL    HW225873   2.502   2.763   6.817  2.4072  0.8642  1.1661
 8275SOL     OW25874   1.494   7.836   0.062 -0.0732  1.2163  0.6051
 8275SOL    HW125875   1.495   7.862   0.154  0.5777 -1.3495  1.4048
 8275SOL    HW225876   1.587   7.838   0.036 -0.1666  1.1031  0.2546
 8276SOL     OW25877   5.240   5.835   3.282 -0.0573 -0.2676  0.2954
 8276SOL    HW125878   5.300   5.894   3.326 -1.5846  0.7661  1.0715
 8276SOL    HW225879   5.199   5.784   3.353 -1.3513  0.2734 -0.0273
 8277SOL     OW25880   8.031   4.351   1.090  0.3472 -0.4252  0.2216
 8277SOL    HW125881   7.939   4.324   1.092 -0.2648  1.3650 -1.1580
 8277SOL    HW225882   8.030   4.435   1.044  2.9933 -1.6463 -2.3521
 8278SOL     OW25883   4.095   3.825   0.762  0.7611 -0.3649 -0.5504
 8278SOL    HW125884   4.115   3.871   0.681  2.0810 -1.4461 -0.8716
 8278SOL    HW225885   4.171   3.842   0.818  1.4528 -2.3904 -0.8106
 8279SOL     OW25886   6.389   7.915   4.104 -0.2188  0.0877 -0.1796
 8279SOL    HW125887   6.449   7.867   4.161 -0.5708  0.8301  0.8397
 8279SOL    HW225888   6.376   7.999   4.148 -0.4784  0.6938 -1.3741
 8280SOL     OW25889   0.611   3.889   5.816 -0.3126 -0.2850 -0.8779
 8280SOL    HW125890   0.651   3.976   5.823  0.0692 -0.5569  0.5491
 8280SOL    HW225891   0.534   3.894   5.873  1.5234 -1.8593  1.9161
 8281SOL     OW25892   4.889   7.543   8.150 -0.3456  0.3049 -0.0628
 8281SOL    HW125893   4.857   7.533   8.240 -0.2560  0.4836 -0.0092
 8281SOL    HW225894   4.926   7.458   8.128  0.6324  0.5763  0.4694
 8282SOL     OW25895   0.757   4.561   7.234  0.1129  0.6360 -0.0435
 8282SOL    HW125896   0.787   4.510   7.309 -0.0888 -0.0131 -0.3994
 8282SOL    HW225897   0.766   4.652   7.262  3.0716  0.5198 -0.3923
 8283SOL     OW25898   2.792   7.953   5.498 -0.7281  0.0717 -0.2069
 8283SOL    HW125899   2.734   8.023   5.469 -1.6752  0.1782  1.7685
 8283SOL    HW225900   2.880   7.990   5.493 -1.0037  0.6106 -1.3218
 8284SOL     OW25901   4.458   5.894   4.674 -0.7815 -0.1738  0.3488
 8284SOL    HW125902   4.424   5.984   4.676  0.4921  0.3166  0.8134
 8284SOL    HW225903   4.541   5.901   4.627 -1.7264 -1.5191 -1.7099
 8285SOL     OW25904   3.157   4.722   6.372 -0.2899 -0.5915  0.1685
 8285SOL    HW125905   3.065   4.739   6.392  0.4698  1.8096  2.1209
 8285SOL    HW225906   3.194   4.808   6.352  1.8602 -1.2247  1.1035
 8286SOL     OW25907   5.447   8.116   5.170 -0.2404  0.4088  0.1433
 8286SOL    HW125908   5.392   8.185   5.132 -1.1691  0.7032  1.9065
 8286SOL    HW225909   5.384   8.051   5.202  0.5105  0.0404  0.9009
 8287SOL     OW25910   5.429   5.537   2.917  0.2375 -0.3190  0.1553
 8287SOL    HW125911   5.340   5.547   2.883 -0.2242 -0.3581  1.3286
 8287SOL    HW225912   5.426   5.574   3.005  1.8102  1.2567 -0.3952
 8288SOL     OW25913   5.150   6.134   3.947 -0.3261  0.0415 -0.6202
 8288SOL    HW125914   5.091   6.209   3.956  0.4989  0.5767  0.5893
 8288SOL    HW225915   5.223   6.153   4.006 -0.7540 -2.3343  0.8226
 8289SOL     OW25916   4.115   6.801   6.166  0.1463  0.5754  0.3442
 8289SOL    HW125917   4.177   6.789   6.094 -1.0526  2.5626 -1.1270
 8289SOL    HW225918   4.058   6.872   6.137 -2.5293 -0.8159  1.8412
 8290SOL     OW25919   0.265   1.860   7.964  0.3196 -0.1510  0.3250
 8290SOL    HW125920   0.287   1.898   7.879 -1.8183 -0.7619 -0.5649
 8290SOL    HW225921   0.238   1.935   8.018 -0.6370 -0.0081 -0.3305
 8291SOL     OW25922   7.307   5.856   1.895 -0.4050 -0.9428  0.1724
 8291SOL    HW125923   7.401   5.862   1.914 -0.0539 -2.2936 -1.0140
 8291SOL    HW225924   7.265   5.887   1.976  1.0305  1.2117  0.1876
 8292SOL     OW25925   1.747   1.880   4.210 -0.6188 -0.7212  0.0050
 8292SOL    HW125926   1.825   1.878   4.154  0.6579  0.5974  1.6502
 8292SOL    HW225927   1.755   1.802   4.264 -0.8121 -0.9360 -0.2698
 8293SOL     OW25928   1.244   1.437   0.257 -0.1010  0.5107 -0.0402
 8293SOL    HW125929   1.293   1.356   0.244 -0.8491 -0.0021  0.2723
 8293SOL    HW225930   1.164   1.424   0.207 -0.9572  0.3897  1.3283
 8294SOL     OW25931   3.757   6.860   6.003 -0.6935 -0.3862 -0.5541
 8294SOL    HW125932   3.840   6.903   5.984  0.0670 -1.9825 -1.0211
 8294SOL    HW225933   3.771   6.817   6.088 -0.0709 -2.8036 -1.7734
 8295SOL     OW25934   3.594   1.231   6.581 -0.1179 -0.2666  0.9398
 8295SOL    HW125935   3.526   1.296   6.562  0.1598 -0.1541  0.3329
 8295SOL    HW225936   3.551   1.170   6.642 -1.1711 -0.8809 -0.3634
 8296SOL     OW25937   5.675   2.832   6.312 -0.2591  0.1277 -0.1102
 8296SOL    HW125938   5.684   2.748   6.267  2.2311 -1.1610  2.4502
 8296SOL    HW225939   5.623   2.813   6.390 -1.6292  1.5491 -0.6182
 8297SOL     OW25940   5.661   4.582   3.631  0.1245  0.1031 -0.1861
 8297SOL    HW125941   5.595   4.638   3.671  1.0214  0.6361  0.5834
 8297SOL    HW225942   5.700   4.635   3.562  1.6228  0.8073  1.1554
 8298SOL     OW25943   0.332   1.917   7.673 -0.0953  0.2924 -0.1240
 8298SOL    HW125944   0.277   1.873   7.607  0.4634  1.5934 -1.5165
 8298SOL    HW225945   0.396   1.850   7.699 -0.9562 -0.5567 -0.1136
 8299SOL     OW25946   1.198   1.622   7.349 -0.6412 -0.5520 -0.5390
 8299SOL    HW125947   1.220   1.544   7.299  0.0518  0.1625 -1.3865
 8299SOL    HW225948   1.273   1.634   7.408 -1.1436 -0.9998  0.2199
 8300SOL     OW25949   3.098   5.199   2.269  0.3851  0.0930  0.0671
 8300SOL    HW125950   3.155   5.152   2.208 -0.8037 -1.4319  0.0728
 8300SOL    HW225951   3.017   5.213   2.221 -0.2351 -0.2850  0.9830
 8301SOL     OW25952   2.290   1.100   4.175 -0.4837 -0.8787  0.6467
 8301SOL    HW125953   2.328   1.183   4.203  0.4174 -1.4650  1.2033
 8301SOL    HW225954   2.228   1.078   4.245 -0.6276 -0.7420  0.5628
 8302SOL     OW25955   2.995   8.186   0.797  0.4912  0.3286 -0.0774
 8302SOL    HW125956   3.063   8.249   0.818  0.5509 -0.2372  1.5647
 8302SOL    HW225957   3.010   8.164   0.705  2.1901  0.6007  0.1015
 8303SOL     OW25958   0.958   6.346   7.525 -0.0068 -0.0601  0.0230
 8303SOL    HW125959   0.993   6.331   7.613  0.4308  0.5034 -0.0463
 8303SOL    HW225960   1.030   6.324   7.466  0.5998  1.9720 -0.0880
 8304SOL     OW25961   2.175   4.374   2.102  0.1475 -0.8046 -0.0419
 8304SOL    HW125962   2.174   4.450   2.043  1.2065  0.9387  2.0286
 8304SOL    HW225963   2.102   4.390   2.162  2.2291  0.4070  2.3909
 8305SOL     OW25964   7.885   8.064   5.093  0.9687  0.1112  0.3461
 8305SOL    HW125965   7.894   8.159   5.089  2.4692  0.0724  1.7983
 8305SOL    HW225966   7.966   8.030   5.054 -0.3643 -0.6456 -1.9340
 8306SOL     OW25967   7.056   1.584   7.191 -0.2104  0.1811  0.0306
 8306SOL    HW125968   7.128   1.557   7.133  0.5084 -1.0372  1.4282
 8306SOL    HW225969   6.978   1.548   7.150 -0.0093  1.1402 -1.2728
 8307SOL     OW25970   5.776   1.005   3.233  0.2781  0.1034  0.0136
 8307SOL    HW125971   5.771   0.910   3.238 -0.7784  0.0306 -1.6654
 8307SOL    HW225972   5.714   1.037   3.298 -1.0602 -0.4174 -0.9784
 8308SOL     OW25973   3.074   3.702   6.020  0.0994  0.1240 -0.4284
 8308SOL    HW125974   3.016   3.774   5.996  1.5183  1.3189 -0.3963
 8308SOL    HW225975   3.153   3.716   5.967  0.2268 -1.7123 -0.8035
 8309SOL     OW25976   6.790   7.164   2.124  0.1735 -1.0042  0.4370
 8309SOL    HW125977   6.712   7.137   2.075 -0.6591  2.8815 -0.7261
 8309SOL    HW225978   6.860   7.161   2.059  0.0191 -0.2598  0.2222
 8310SOL     OW25979   5.236   5.488   7.136 -0.6014 -0.0974  0.0865
 8310SOL    HW125980   5.292   5.436   7.079 -2.1105 -0.6898 -0.9199
 8310SOL    HW225981   5.294   5.516   7.207  0.7696 -1.3202 -0.4844
 8311SOL     OW25982   2.318   5.029   3.236  0.6107 -0.3260  0.5118
 8311SOL    HW125983   2.395   5.080   3.211 -0.9462  2.0108  0.2376
 8311SOL    HW225984   2.330   4.945   3.191  3.2852 -0.3103  1.0216
 8312SOL     OW25985   2.081   1.637   3.991  0.0631 -0.4810 -0.3155
 8312SOL    HW125986   2.029   1.558   3.976  0.3522 -0.7584  0.1240
 8312SOL    HW225987   2.025   1.692   4.046  0.4216 -0.9858  0.5632
 8313SOL     OW25988   5.064   2.228   7.907  0.6356 -0.4697  0.0719
 8313SOL    HW125989   5.027   2.316   7.916  0.2071 -0.7198  0.8443
 8313SOL    HW225990   5.003   2.183   7.849 -0.1958 -0.8247  1.1947
 8314SOL     OW25991   0.166   5.113   0.626 -0.0446 -0.6712 -0.4580
 8314SOL    HW125992   0.079   5.145   0.651 -0.1462  0.2054 -1.8428
 8314SOL    HW225993   0.153   5.069   0.542  0.7177 -1.2425 -0.2890
 8315SOL     OW25994   0.640   6.037   6.732 -0.1476  0.0310 -0.0118
 8315SOL    HW125995   0.563   6.012   6.784  0.4181  0.0434  0.8505
 8315SOL    HW225996   0.603   6.075   6.652 -1.0372 -1.5669 -0.4102
 8316SOL     OW25997   3.296   1.530   3.146  0.5223  0.2444 -0.4476
 8316SOL    HW125998   3.333   1.532   3.057 -1.8949 -0.2554 -1.5381
 8316SOL    HW225999   3.242   1.608   3.152 -0.3361 -0.3744  0.1054
 8317SOL     OW26000   5.761   3.167   5.426 -0.2462  0.9660 -1.1347
 8317SOL    HW126001   5.680   3.135   5.387 -0.4361 -0.4930  0.3497
 8317SOL    HW226002   5.825   3.164   5.355 -1.1647  0.8720 -1.9753
 8318SOL     OW26003   5.137   6.150   3.431 -0.3789  0.0098 -0.3786
 8318SOL    HW126004   5.062   6.162   3.490 -0.8470 -0.3817 -0.8775
 8318SOL    HW226005   5.121   6.214   3.361 -1.3819 -1.4783 -1.5787
 8319SOL     OW26006   4.357   3.326   7.563  0.3158  0.0051 -0.1700
 8319SOL    HW126007   4.445   3.329   7.524  0.3068  1.4879 -0.1302
 8319SOL    HW226008   4.298   3.355   7.493  0.2551  2.2737  0.7117
 8320SOL     OW26009   0.250   5.569   1.985  0.1389  0.0486  0.2020
 8320SOL    HW126010   0.244   5.577   2.080 -1.2682  1.8770  0.0194
 8320SOL    HW226011   0.200   5.491   1.964  0.1972 -0.1979  0.9462
 8321SOL     OW26012   4.968   4.703   4.228  0.3696  0.3850  0.2163
 8321SOL    HW126013   4.961   4.646   4.304  1.3228 -0.1192 -0.0494
 8321SOL    HW226014   4.909   4.665   4.163  0.6798 -0.0560  0.1902
 8322SOL     OW26015   4.223   2.955   3.972  0.4856 -0.3092  0.1245
 8322SOL    HW126016   4.176   2.970   3.890  1.8639 -0.7337 -0.7631
 8322SOL    HW226017   4.223   3.041   4.015 -1.4631 -0.3868  0.3802
 8323SOL     OW26018   6.904   7.608   6.972 -0.0762 -0.1403 -0.6933
 8323SOL    HW126019   6.957   7.685   6.996 -0.8354 -0.1904  1.3701
 8323SOL    HW226020   6.821   7.623   7.017  0.5526 -3.2783  1.8689
 8324SOL     OW26021   2.951   4.089   1.138  0.6483  0.1246  0.3819
 8324SOL    HW126022   2.867   4.072   1.182  1.2420 -1.9229  0.8515
 8324SOL    HW226023   2.992   4.157   1.192  0.2762 -0.5328  1.5497
 8325SOL     OW26024   1.447   3.732   8.178  0.5157  0.3581 -0.3379
 8325SOL    HW126025   1.521   3.762   8.125  0.8728  1.2474  0.6210
 8325SOL    HW226026   1.485   3.667   8.237  0.4554  0.5474 -0.0906
 8326SOL     OW26027   2.256   0.135   3.341  0.1427  0.1767  0.1552
 8326SOL    HW126028   2.247   0.230   3.327 -0.5949  0.0525 -0.2841
 8326SOL    HW226029   2.261   0.126   3.437 -1.1271  0.5719  0.2808
 8327SOL     OW26030   1.625   7.500   1.818 -0.0448  0.0461  0.3943
 8327SOL    HW126031   1.607   7.593   1.805 -1.6391 -0.4745 -1.6422
 8327SOL    HW226032   1.721   7.493   1.812  0.1082  1.5385  0.6775
 8328SOL     OW26033   3.627   1.372   0.797 -0.2565 -0.0461 -0.8207
 8328SOL    HW126034   3.631   1.288   0.843  0.0274  1.1087  1.3592
 8328SOL    HW226035   3.622   1.438   0.866 -1.5371  1.7158 -2.4896
 8329SOL     OW26036   6.937   5.782   5.239 -0.2428  0.2079 -0.1454
 8329SOL    HW126037   6.843   5.799   5.244 -0.7849 -2.6850  2.2058
 8329SOL    HW226038   6.944   5.711   5.174  0.2672  0.1500 -0.0265
 8330SOL     OW26039   0.930   6.173   6.258  0.1971 -0.5410 -0.2827
 8330SOL    HW126040   0.995   6.104   6.275 -1.0393 -1.3576  1.4316
 8330SOL    HW226041   0.977   6.237   6.204  2.9442 -0.3053  2.1518
 8331SOL     OW26042   4.556   0.225   7.718  0.0798 -0.4342  0.5912
 8331SOL    HW126043   4.469   0.226   7.759 -0.2524  0.3612 -0.1206
 8331SOL    HW226044   4.592   0.312   7.736  1.2202 -1.1152  1.8592
 8332SOL     OW26045   7.892   4.186   3.726  0.2422 -0.0038 -0.3367
 8332SOL    HW126046   7.931   4.123   3.786  0.6514  0.7278  0.1794
 8332SOL    HW226047   7.916   4.154   3.638 -1.4226 -1.7850 -0.2066
 8333SOL     OW26048   6.608   7.641   7.093  0.0721 -0.2369 -0.3405
 8333SOL    HW126049   6.532   7.601   7.136  0.1776 -1.0571 -0.8900
 8333SOL    HW226050   6.670   7.656   7.164 -0.7980  0.9693  0.2091
 8334SOL     OW26051   5.342   3.509   4.109 -0.0804 -0.2702  0.1140
 8334SOL    HW126052   5.316   3.519   4.200  3.8693 -0.3159  1.4472
 8334SOL    HW226053   5.434   3.535   4.107  0.3168 -1.3125 -3.6739
 8335SOL     OW26054   6.499   1.468   3.825  0.1933 -0.0045 -0.1267
 8335SOL    HW126055   6.593   1.456   3.841 -0.0325  0.3541  1.6442
 8335SOL    HW226056   6.477   1.550   3.870 -1.2421 -0.8281  0.7506
 8336SOL     OW26057   2.838   3.004   5.754  0.0218 -0.0808  0.3469
 8336SOL    HW126058   2.845   3.100   5.749 -2.9708  0.2440  0.5153
 8336SOL    HW226059   2.929   2.974   5.757  1.1927  2.5724 -2.3151
 8337SOL     OW26060   1.301   7.772   3.324  0.1342  0.1722  0.4325
 8337SOL    HW126061   1.237   7.711   3.287  0.2113  1.1444 -1.4846
 8337SOL    HW226062   1.347   7.722   3.391  0.3288 -1.9610 -1.1884
 8338SOL     OW26063   8.137   3.697   4.379 -0.0501 -0.1206 -0.0798
 8338SOL    HW126064   8.110   3.734   4.463 -2.2745 -0.4497 -0.5682
 8338SOL    HW226065   8.105   3.758   4.314  0.7860 -0.3618 -0.7379
 8339SOL     OW26066   6.380   5.462   2.721  0.1642 -0.3912  0.0641
 8339SOL    HW126067   6.473   5.485   2.721  0.5830 -1.9666  0.2228
 8339SOL    HW226068   6.335   5.546   2.732  1.5341  0.4792 -0.6302
 8340SOL     OW26069   2.854   1.970   6.379  0.2642 -0.9450  0.0222
 8340SOL    HW126070   2.925   2.020   6.336  0.7854 -0.8707  0.9505
 8340SOL    HW226071   2.781   2.032   6.384 -0.4149 -1.4501 -2.2567
 8341SOL     OW26072   5.842   0.819   1.159 -0.1647  0.0484 -0.2978
 8341SOL    HW126073   5.841   0.801   1.253 -0.5561 -1.4762 -0.5624
 8341SOL    HW226074   5.860   0.913   1.153  1.2424 -0.0610  1.2530
 8342SOL     OW26075   0.374   4.159   1.727 -0.0640  0.1102 -0.0394
 8342SOL    HW126076   0.308   4.091   1.714  0.6927 -0.4350 -1.2265
 8342SOL    HW226077   0.333   4.239   1.696  0.1463 -0.4012 -1.7211
 8343SOL     OW26078   2.806   6.568   4.600  0.4584  0.0425 -0.5801
 8343SOL    HW126079   2.756   6.504   4.650  1.6779 -1.7051 -1.4739
 8343SOL    HW226080   2.878   6.594   4.658 -0.5748  1.3944  0.1417
 8344SOL     OW26081   6.584   7.401   2.454  0.1419 -0.0139 -0.9045
 8344SOL    HW126082   6.680   7.406   2.451  0.3514 -2.7541 -1.2335
 8344SOL    HW226083   6.561   7.452   2.532  2.3412 -2.9564  1.9493
 8345SOL     OW26084   7.845   1.309   6.839  0.4715  0.2783 -0.0189
 8345SOL    HW126085   7.836   1.394   6.882 -1.1963  0.2908 -0.3377
 8345SOL    HW226086   7.800   1.248   6.897  0.7595 -0.2023 -0.2995
 8346SOL     OW26087   6.735   5.184   2.147  0.2565 -0.0816 -0.0470
 8346SOL    HW126088   6.687   5.266   2.141  0.5794  0.0910 -0.3560
 8346SOL    HW226089   6.694   5.136   2.219 -0.6463 -0.1143 -0.5667
 8347SOL     OW26090   3.130   6.815   6.355  0.3749 -0.0637 -0.2761
 8347SOL    HW126091   3.197   6.841   6.418  0.9666 -1.1084 -0.4515
 8347SOL    HW226092   3.173   6.751   6.299 -0.5082 -0.0693 -0.9791
 8348SOL     OW26093   3.401   2.423   8.050 -0.2314 -0.2926 -0.4783
 8348SOL    HW126094   3.478   2.452   8.099 -1.8943  1.3203  1.3745
 8348SOL    HW226095   3.352   2.503   8.032 -2.1643 -1.3608 -0.2932
 8349SOL     OW26096   7.872   5.418   7.289  0.4098  0.1806 -0.1515
 8349SOL    HW126097   7.799   5.387   7.343  1.1207  0.7543  1.1896
 8349SOL    HW226098   7.925   5.472   7.348  3.2390 -2.1053 -0.3552
 8350SOL     OW26099   1.778   3.685   1.104  0.2776  0.4902  0.1083
 8350SOL    HW126100   1.819   3.731   1.030  0.7374  1.7258  1.0839
 8350SOL    HW226101   1.692   3.725   1.112 -0.3930 -0.7254 -0.6943
 8351SOL     OW26102   7.927   6.769   6.882  0.2750 -0.1383  0.9379
 8351SOL    HW126103   8.014   6.736   6.859  0.4728  0.6831  0.4724
 8351SOL    HW226104   7.934   6.793   6.974  0.4291 -0.4058  0.9990
 8352SOL     OW26105   2.109   1.749   6.501  0.2054 -0.5813  0.0528
 8352SOL    HW126106   2.186   1.754   6.445 -0.2799  0.4714 -0.5478
 8352SOL    HW226107   2.064   1.670   6.473  0.2687 -0.3737 -0.6362
 8353SOL     OW26108   4.374   3.679   6.785 -0.2383 -0.0161 -0.0575
 8353SOL    HW126109   4.300   3.630   6.821  1.1841 -2.7089 -0.5202
 8353SOL    HW226110   4.449   3.649   6.834  0.8974  0.8083 -1.2196
 8354SOL     OW26111   5.745   1.807   6.192 -0.0343  1.0069 -0.4745
 8354SOL    HW126112   5.812   1.873   6.173 -0.2804  1.1374 -0.8887
 8354SOL    HW226113   5.666   1.857   6.212 -0.1860  0.8400 -0.6585
 8355SOL     OW26114   2.386   2.462   1.335  0.0494 -0.1358 -0.5854
 8355SOL    HW126115   2.335   2.471   1.415  1.6305 -0.9752  0.5689
 8355SOL    HW226116   2.460   2.521   1.346  0.0969  0.0142 -1.5945
 8356SOL     OW26117   3.241   5.002   2.969  0.2846 -0.3000  0.3498
 8356SOL    HW126118   3.322   4.969   2.930  0.4263  2.0532 -1.6086
 8356SOL    HW226119   3.270   5.050   3.047  0.5165 -1.2925  0.8838
 8357SOL     OW26120   7.966   6.551   2.073  0.2876  0.5708  0.0984
 8357SOL    HW126121   7.993   6.478   2.129 -0.5218  0.2474  0.0842
 8357SOL    HW226122   7.938   6.509   1.992 -1.2118  0.7752  0.4770
 8358SOL     OW26123   0.423   6.273   0.033 -0.0402 -0.1515  0.5669
 8358SOL    HW126124   0.349   6.230  -0.011 -0.8170  1.7999 -0.1175
 8358SOL    HW226125   0.447   6.345  -0.025  1.4821  0.1314  1.4968
 8359SOL     OW26126   4.656   3.339   7.507 -0.2157  0.3509 -0.2374
 8359SOL    HW126127   4.691   3.275   7.445 -2.8498 -0.3474 -1.1689
 8359SOL    HW226128   4.720   3.410   7.507  1.6614 -1.2371 -0.9389
 8360SOL     OW26129   2.019   1.245   3.647  0.1555 -0.1406  0.3215
 8360SOL    HW126130   2.098   1.195   3.625  0.9747  1.1854  0.1334
 8360SOL    HW226131   2.051   1.332   3.667 -1.1631  0.1170  1.4454
 8361SOL     OW26132   8.243   0.251   3.070  0.2852  0.2682 -0.1369
 8361SOL    HW126133   8.315   0.213   3.121 -1.0861 -1.9712  0.2120
 8361SOL    HW226134   8.277   0.255   2.980  0.4016 -2.1652 -0.2574
 8362SOL     OW26135   7.006   1.481   5.204  1.2950 -0.4730  0.2900
 8362SOL    HW126136   7.022   1.553   5.143 -0.9873  0.5415  0.7927
 8362SOL    HW226137   6.951   1.518   5.272 -0.6614 -2.8649  0.1514
 8363SOL     OW26138   0.194   1.906   7.310 -0.1176 -0.9068  0.0861
 8363SOL    HW126139   0.220   1.828   7.359  1.1273 -0.8007 -0.3649
 8363SOL    HW226140   0.269   1.965   7.319 -0.9285  0.1196  0.1838
 8364SOL     OW26141   6.895   8.120   7.836 -0.7823 -0.1518  0.2875
 8364SOL    HW126142   6.977   8.155   7.872 -0.2865  0.0600 -1.0028
 8364SOL    HW226143   6.827   8.170   7.881 -0.1232  1.7390 -0.6732
 8365SOL     OW26144   7.055   5.224   0.720  0.9082  0.4345 -0.4635
 8365SOL    HW126145   7.013   5.308   0.739 -0.4827  0.1145 -1.8884
 8365SOL    HW226146   7.138   5.248   0.679  2.0007  1.0816  1.9586
 8366SOL     OW26147   5.374   7.195   7.060  0.2303  0.1307  1.1075
 8366SOL    HW126148   5.466   7.222   7.054 -0.2762  1.9533  1.0713
 8366SOL    HW226149   5.379   7.101   7.081  2.0888  0.1684  1.0648
 8367SOL     OW26150   0.528   2.194   1.926  0.3375  0.1188  0.2437
 8367SOL    HW126151   0.463   2.125   1.937 -1.0172  1.4218  0.7274
 8367SOL    HW226152   0.567   2.205   2.013  0.4710  0.0615  0.1927
 8368SOL     OW26153   7.127   6.851   0.402 -0.9636  0.6790 -0.0757
 8368SOL    HW126154   7.052   6.876   0.455 -1.9026  2.1883 -1.9996
 8368SOL    HW226155   7.125   6.755   0.402 -2.2503  0.6822  0.7638
 8369SOL     OW26156   7.725   4.941   3.716 -0.7855 -0.0622 -0.8349
 8369SOL    HW126157   7.747   4.851   3.741 -0.6534  0.4481  1.0124
 8369SOL    HW226158   7.808   4.979   3.687 -0.8413 -0.5204 -1.6162
 8370SOL     OW26159   1.072   5.641   3.128 -0.5500  0.0146  0.2961
 8370SOL    HW126160   1.129   5.651   3.052 -0.2972  0.2549  0.5167
 8370SOL    HW226161   1.123   5.674   3.202 -1.1152  0.5929  0.4332
 8371SOL     OW26162   8.132   8.022   2.660 -0.5205  0.0449 -0.3316
 8371SOL    HW126163   8.061   8.010   2.722  0.3921 -2.3171  0.3771
 8371SOL    HW226164   8.173   8.105   2.685 -0.8017 -0.3608  1.5870
 8372SOL     OW26165   0.313   7.436   4.240  0.0504 -0.6949  0.3039
 8372SOL    HW126166   0.241   7.382   4.271 -0.1381 -0.4478  0.2975
 8372SOL    HW226167   0.271   7.509   4.193  0.3189 -1.0266 -0.4830
 8373SOL     OW26168   7.684   1.181   7.777 -0.5853  0.3338 -0.1276
 8373SOL    HW126169   7.640   1.247   7.830 -0.0798  0.0712  0.6422
 8373SOL    HW226170   7.764   1.224   7.746  0.9545 -0.5588  2.2932
 8374SOL     OW26171   2.502   1.867   1.700 -0.6422  0.4748  0.2263
 8374SOL    HW126172   2.523   1.788   1.649  0.7377  1.1493 -0.2982
 8374SOL    HW226173   2.536   1.848   1.788 -0.7656  0.2884  0.2338
 8375SOL     OW26174   3.626   5.680   2.021 -0.2505  0.0130 -0.5284
 8375SOL    HW126175   3.639   5.713   1.932  1.4624  1.5291  0.2325
 8375SOL    HW226176   3.584   5.752   2.068  2.0297  0.6574  0.7219
 8376SOL     OW26177   8.267   3.581   8.193  0.0704 -0.4159  0.4004
 8376SOL    HW126178   8.200   3.641   8.227  0.0777  0.0809 -0.4166
 8376SOL    HW226179   8.251   3.579   8.099  1.7496  0.4168  0.0564
 8377SOL     OW26180   6.300   0.447   3.793  0.0189 -0.1163 -0.2178
 8377SOL    HW126181   6.327   0.387   3.863  0.1952 -1.5487 -1.4608
 8377SOL    HW226182   6.211   0.420   3.772 -1.5400  2.7999  1.9867
 8378SOL     OW26183   0.303   1.229   2.549 -0.0409 -0.3189 -0.1150
 8378SOL    HW126184   0.300   1.204   2.456 -0.7026  0.5258 -0.3364
 8378SOL    HW226185   0.380   1.185   2.583 -0.1052 -1.0998 -0.9356
 8379SOL     OW26186   6.191   4.974   3.718 -1.0059  0.3151  0.4442
 8379SOL    HW126187   6.274   4.959   3.672  0.2739  0.8222  2.4813
 8379SOL    HW226188   6.163   5.061   3.687 -0.4411  0.4309  0.2299
 8380SOL     OW26189   2.250   2.130   1.188  0.1483 -0.2663  0.1046
 8380SOL    HW126190   2.242   2.184   1.267 -1.1334  0.6273 -0.5986
 8380SOL    HW226191   2.167   2.081   1.184 -0.5662  1.0086 -1.5939
 8381SOL     OW26192   0.622   1.977   0.863 -0.1984  0.2582 -0.2395
 8381SOL    HW126193   0.532   1.973   0.897 -0.2522 -1.2281 -0.4688
 8381SOL    HW226194   0.675   1.937   0.932 -0.1170 -1.4489 -1.2238
 8382SOL     OW26195   6.175   8.056   2.178 -0.1371  0.0038  0.6736
 8382SOL    HW126196   6.086   8.079   2.154 -0.5440 -0.9915  1.1673
 8382SOL    HW226197   6.214   8.019   2.099  0.7297  2.7913 -0.3213
 8383SOL     OW26198   2.647   1.257   1.909 -0.7271 -0.3564  0.6511
 8383SOL    HW126199   2.592   1.335   1.903 -1.2718 -0.8273 -0.8951
 8383SOL    HW226200   2.586   1.184   1.901 -0.0139 -0.8991 -0.0531
 8384SOL     OW26201   2.838   4.987   3.647  0.1235  0.1029 -0.3237
 8384SOL    HW126202   2.846   5.083   3.644  0.3092  0.1341  0.7198
 8384SOL    HW226203   2.810   4.968   3.736  1.5824 -0.9045 -0.0373
 8385SOL     OW26204   8.266   5.199   3.772 -0.5140 -0.0105  0.0922
 8385SOL    HW126205   8.219   5.258   3.713 -0.1724  0.6750  0.4967
 8385SOL    HW226206   8.288   5.252   3.848  3.0317  0.4397 -1.0614
 8386SOL     OW26207   5.912   5.622   4.237 -0.7989 -0.5854 -0.1478
 8386SOL    HW126208   5.876   5.704   4.271  1.3444  0.8447 -1.0785
 8386SOL    HW226209   5.863   5.606   4.157 -1.5889 -0.5404  0.3075
 8387SOL     OW26210   6.158   0.395   5.695  0.2935 -0.1721 -0.1404
 8387SOL    HW126211   6.160   0.483   5.733  0.2550 -0.8245  1.4651
 8387SOL    HW226212   6.095   0.400   5.624  0.0093  1.0046  0.1829
 8388SOL     OW26213   5.156   4.944   1.906 -0.3137 -0.2649 -0.1104
 8388SOL    HW126214   5.152   4.849   1.919 -1.1985 -0.1160  0.8162
 8388SOL    HW226215   5.069   4.967   1.873 -0.1711  0.2491 -0.1386
 8389SOL     OW26216   6.191   6.361   7.158 -0.1479 -0.1664  0.4773
 8389SOL    HW126217   6.244   6.437   7.181 -1.1402  1.1715 -1.4116
 8389SOL    HW226218   6.252   6.288   7.162  1.1490  0.8930  1.0712
 8390SOL     OW26219   1.659   5.735   2.765  0.3955 -0.0532 -0.3691
 8390SOL    HW126220   1.754   5.750   2.758  0.2689  0.9445 -0.1589
 8390SOL    HW226221   1.623   5.821   2.785 -0.6243 -0.3285 -0.9730
 8391SOL     OW26222   4.570   1.031   3.177  0.0749  0.3231 -0.2357
 8391SOL    HW126223   4.571   1.080   3.259 -1.1315  0.5746 -0.3523
 8391SOL    HW226224   4.600   0.944   3.201  0.8631  0.7172  0.2471
 8392SOL     OW26225   1.914   7.977   7.248  0.4624 -0.3512 -0.3089
 8392SOL    HW126226   1.867   8.059   7.230 -0.8752 -0.0566  3.5954
 8392SOL    HW226227   1.868   7.911   7.197 -1.2995  0.6814 -0.1328
 8393SOL     OW26228   6.644   6.244   5.799  0.2563  0.2451 -0.3182
 8393SOL    HW126229   6.734   6.244   5.833 -0.3944  0.7643  1.5051
 8393SOL    HW226230   6.622   6.337   5.788 -0.0087  0.1171 -0.9608
 8394SOL     OW26231   2.902   3.590   7.166 -0.2189 -0.6545 -0.9197
 8394SOL    HW126232   2.997   3.594   7.161 -0.0409  2.9362  1.2180
 8394SOL    HW226233   2.885   3.536   7.243  0.2539  0.3684 -0.0682
 8395SOL     OW26234   1.310   3.371   7.428  0.4374  0.3776 -0.0366
 8395SOL    HW126235   1.291   3.440   7.364  1.7350  0.8116  0.0291
 8395SOL    HW226236   1.377   3.317   7.387  0.1135 -0.3012  0.3065
 8396SOL     OW26237   0.044   0.519   0.659  0.5552 -0.2753  0.4861
 8396SOL    HW126238   0.079   0.459   0.593  0.8751 -0.7031  1.0380
 8396SOL    HW226239   0.106   0.515   0.731  0.9317  1.2242  0.2824
 8397SOL     OW26240   6.929   8.074   4.725  0.3159 -0.5405  0.7261
 8397SOL    HW126241   6.855   8.057   4.667 -0.7445  0.7049  1.6616
 8397SOL    HW226242   6.929   7.999   4.785  0.2656 -0.8946  0.2928
 8398SOL     OW26243   4.948   1.848   1.095 -0.3745  0.2266  1.0585
 8398SOL    HW126244   4.929   1.908   1.023  0.1041 -0.4249  0.3762
 8398SOL    HW226245   4.863   1.810   1.117 -0.3218 -0.6720 -0.1744
 8399SOL     OW26246   0.334   5.954   3.912 -0.0541 -0.4545 -0.1084
 8399SOL    HW126247   0.305   5.927   3.825  0.8804  0.3537 -0.6977
 8399SOL    HW226248   0.367   5.874   3.953  0.4655 -0.6642 -0.9104
 8400SOL     OW26249   1.211   6.583   2.982 -0.7748 -0.2466  0.2717
 8400SOL    HW126250   1.230   6.635   2.903 -1.0334  0.6154  0.7667
 8400SOL    HW226251   1.274   6.512   2.979 -0.0636  0.3813 -0.1672
 8401SOL     OW26252   0.314   3.329   5.119  0.1462 -0.0672  0.3970
 8401SOL    HW126253   0.326   3.418   5.154 -0.6084 -0.4889  1.7997
 8401SOL    HW226254   0.244   3.338   5.054  0.7731  0.5300 -0.2151
 8402SOL     OW26255   4.127   5.511   4.206  0.4772 -0.0895 -0.6466
 8402SOL    HW126256   4.084   5.591   4.237  2.6693  1.1630 -0.6258
 8402SOL    HW226257   4.177   5.480   4.281 -0.8570 -1.9154 -0.4567
 8403SOL     OW26258   1.742   5.163   7.132 -0.1181 -0.2627  0.2856
 8403SOL    HW126259   1.675   5.229   7.117 -1.4321 -1.8451 -1.1883
 8403SOL    HW226260   1.716   5.121   7.214 -0.1076  0.0579  0.4560
 8404SOL     OW26261   3.305   3.989   6.241 -0.4775 -0.1587  0.0862
 8404SOL    HW126262   3.277   3.961   6.328  0.3589 -0.2651  0.3326
 8404SOL    HW226263   3.265   4.075   6.229  0.1384  0.2639  0.9566
 8405SOL     OW26264   2.458   7.118   2.576 -0.0091 -0.3732 -0.6457
 8405SOL    HW126265   2.441   7.210   2.598  0.6780 -0.1956 -0.8454
 8405SOL    HW226266   2.374   7.075   2.590  0.3998 -0.3388  2.5068
 8406SOL     OW26267   1.220   2.646   2.837 -0.2390  0.1143 -0.1762
 8406SOL    HW126268   1.297   2.698   2.815 -0.0658 -0.2944 -0.5421
 8406SOL    HW226269   1.146   2.704   2.819  0.0131  1.1254  1.8071
 8407SOL     OW26270   7.762   2.469   5.603 -0.0128  0.1010 -0.3659
 8407SOL    HW126271   7.736   2.561   5.600 -1.8311 -0.3490  0.2333
 8407SOL    HW226272   7.846   2.469   5.649 -0.9559  1.2978  1.4703
 8408SOL     OW26273   0.692   5.897   5.474  0.4806  1.2246  0.0749
 8408SOL    HW126274   0.667   5.864   5.388  0.6093  1.3020  0.0063
 8408SOL    HW226275   0.611   5.927   5.514 -0.0644 -1.4289  1.1376
 8409SOL     OW26276   7.662   5.255   7.479 -0.0878  0.3469 -0.0671
 8409SOL    HW126277   7.603   5.194   7.523 -0.3341 -0.1136 -1.0146
 8409SOL    HW226278   7.606   5.328   7.453 -0.1629  0.1008 -0.6011
 8410SOL     OW26279   1.447   4.303   2.122  0.4637  0.6644  0.0369
 8410SOL    HW126280   1.370   4.299   2.066  0.2916 -0.1824  0.3268
 8410SOL    HW226281   1.520   4.280   2.065  0.4507  1.0409 -0.1340
 8411SOL     OW26282   2.189   2.541   3.332 -1.1380  0.2937  0.1835
 8411SOL    HW126283   2.101   2.580   3.335 -2.1520 -1.8864  0.6003
 8411SOL    HW226284   2.193   2.487   3.411 -0.4983 -1.7848 -1.1986
 8412SOL     OW26285   2.229   8.061   6.379 -0.2768  0.2225 -0.2600
 8412SOL    HW126286   2.218   7.996   6.448 -0.9146  1.8718  1.2807
 8412SOL    HW226287   2.161   8.040   6.315 -1.4470  0.2029  0.9371
 8413SOL     OW26288   6.541   5.533   4.647  0.3528  0.2704 -0.3939
 8413SOL    HW126289   6.530   5.625   4.625 -0.7755  0.0214 -0.9216
 8413SOL    HW226290   6.538   5.487   4.563 -2.2192 -0.5196  0.0385
 8414SOL     OW26291   6.925   1.268   7.474  0.8364 -0.2812 -0.1093
 8414SOL    HW126292   7.009   1.269   7.519  0.5533 -2.3328  0.5722
 8414SOL    HW226293   6.886   1.184   7.499 -1.9273  1.0929  0.5418
 8415SOL     OW26294   1.898   6.724   3.474 -0.3292  0.4574 -0.5028
 8415SOL    HW126295   1.809   6.738   3.507 -0.4123  0.5545 -0.7702
 8415SOL    HW226296   1.887   6.695   3.384 -0.0878  0.5020 -0.5485
 8416SOL     OW26297   6.792   0.183   4.988  0.3649  0.0217  0.2811
 8416SOL    HW126298   6.762   0.118   4.924  1.5610 -1.0179  0.7302
 8416SOL    HW226299   6.719   0.192   5.049 -0.5827  0.6236 -0.8889
 8417SOL     OW26300   4.516   5.022   2.023 -0.3666  0.0475 -0.6266
 8417SOL    HW126301   4.435   4.990   1.982  0.1097 -1.1082 -0.7194
 8417SOL    HW226302   4.497   5.112   2.048 -1.6630 -0.1930 -0.6915
 8418SOL     OW26303   6.197   0.211   2.676  0.0304  0.7903 -0.3758
 8418SOL    HW126304   6.188   0.119   2.652  0.5909  0.2258  1.4418
 8418SOL    HW226305   6.291   0.229   2.665  0.6128  0.0857  2.5712
 8419SOL     OW26306   4.735   3.740   2.572  0.5549  0.1579  0.0380
 8419SOL    HW126307   4.733   3.836   2.571 -1.8111  0.2216 -2.4178
 8419SOL    HW226308   4.817   3.717   2.529  1.2676  1.0547  0.8882
 8420SOL     OW26309   2.779   8.204   6.678  0.4906  0.0697  0.6189
 8420SOL    HW126310   2.838   8.242   6.613  0.5988  0.1521  0.7656
 8420SOL    HW226311   2.746   8.279   6.727  0.8567 -0.0407  1.0412
 8421SOL     OW26312   3.099   6.323   6.301  0.4203 -0.2398 -0.3144
 8421SOL    HW126313   3.109   6.412   6.267  1.0367 -0.2421 -0.1495
 8421SOL    HW226314   3.018   6.291   6.261  1.1474 -0.2637 -1.8784
 8422SOL     OW26315   2.743   4.008   1.301  0.2786  1.0075 -0.3004
 8422SOL    HW126316   2.665   3.971   1.260  0.6893 -0.6185  0.2940
 8422SOL    HW226317   2.725   4.003   1.395  1.2982  0.0147 -0.1200
 8423SOL     OW26318   6.839   8.245   0.817  0.9803  0.0402 -0.1857
 8423SOL    HW126319   6.928   8.271   0.794  1.1232 -0.3183 -0.0499
 8423SOL    HW226320   6.784   8.283   0.748  1.3656 -0.7515 -0.9547
 8424SOL     OW26321   7.321   5.747   3.299 -0.2645  0.1485 -0.3398
 8424SOL    HW126322   7.377   5.718   3.371  0.6963  0.2936 -1.0167
 8424SOL    HW226323   7.340   5.686   3.228 -1.2995 -0.0701 -0.4560
 8425SOL     OW26324   1.799   6.758   0.230 -0.1151  0.0860  0.5016
 8425SOL    HW126325   1.749   6.714   0.161 -1.4131  1.7903  0.3111
 8425SOL    HW226326   1.854   6.821   0.185  3.7120 -2.8358  0.5123
 8426SOL     OW26327   7.283   7.102   2.904 -0.1309 -0.2950 -0.0166
 8426SOL    HW126328   7.235   7.025   2.873 -0.8947  0.7960 -1.6951
 8426SOL    HW226329   7.375   7.080   2.891 -0.3181 -1.1155  0.0061
 8427SOL     OW26330   7.922   5.132   7.568  0.2834  0.3636 -0.6168
 8427SOL    HW126331   7.985   5.086   7.513 -0.8253 -0.9637 -0.8424
 8427SOL    HW226332   7.849   5.152   7.509  0.4289  1.8252 -0.3516
 8428SOL     OW26333   5.192   0.108   5.703  0.4388  0.1594  0.5444
 8428SOL    HW126334   5.253   0.091   5.632  0.0968 -1.5110  0.5969
 8428SOL    HW226335   5.106   0.089   5.666  0.2246 -0.3391  1.2661
 8429SOL     OW26336   5.859   6.864   7.809  0.5635 -0.5488 -0.4391
 8429SOL    HW126337   5.784   6.870   7.751 -0.4880 -1.8145  0.7273
 8429SOL    HW226338   5.879   6.771   7.815  2.0961 -0.2635 -0.5300
 8430SOL     OW26339   5.531   7.233   2.777  0.3363 -0.0786  0.3895
 8430SOL    HW126340   5.467   7.283   2.726  0.2688 -0.8648 -0.3317
 8430SOL    HW226341   5.567   7.296   2.839 -1.0498  0.4093  0.7309
 8431SOL     OW26342   2.395   7.921   7.289  0.4610  0.0764  0.5722
 8431SOL    HW126343   2.468   7.894   7.232  0.9096  2.3440 -0.0029
 8431SOL    HW226344   2.317   7.889   7.244  0.6687  3.0933 -2.2653
 8432SOL     OW26345   2.284   0.368   1.044  0.0869  0.3395 -0.1695
 8432SOL    HW126346   2.260   0.332   1.130  1.3866  0.7002  0.3655
 8432SOL    HW226347   2.377   0.349   1.035 -0.1944 -0.3513 -1.8600
 8433SOL     OW26348   1.539   7.158   2.556 -0.3831 -0.0649  0.0986
 8433SOL    HW126349   1.495   7.228   2.508  1.6706  0.6221 -0.9413
 8433SOL    HW226350   1.576   7.102   2.488  2.3291  0.7475  0.7505
 8434SOL     OW26351   6.325   5.494   3.725 -0.1431 -0.1607  0.2615
 8434SOL    HW126352   6.404   5.545   3.744  0.4156 -0.7143 -0.4767
 8434SOL    HW226353   6.358   5.411   3.692 -1.0019  0.4110 -2.2703
 8435SOL     OW26354   2.754   0.143   4.314  0.0709  0.4436  0.4191
 8435SOL    HW126355   2.667   0.164   4.278  0.2678  1.8009  0.6912
 8435SOL    HW226356   2.782   0.065   4.265 -1.2660  0.0162  0.2926
 8436SOL     OW26357   5.825   2.468   2.407 -0.1465 -0.4776  0.1435
 8436SOL    HW126358   5.863   2.391   2.449 -1.1913 -0.7596  0.6176
 8436SOL    HW226359   5.880   2.541   2.437 -0.0111 -0.8609  0.8483
 8437SOL     OW26360   1.332   2.742   1.055 -0.3447 -0.1744 -0.2105
 8437SOL    HW126361   1.289   2.664   1.090 -0.2019 -0.1001  0.1319
 8437SOL    HW226362   1.418   2.712   1.026 -0.4743 -0.2423 -0.5337
 8438SOL     OW26363   5.591   2.986   6.014  0.1419  0.7113  0.3815
 8438SOL    HW126364   5.613   3.026   6.098 -2.0500 -0.3877  1.5560
 8438SOL    HW226365   5.533   3.049   5.972 -0.8051  0.1841  0.8583
 8439SOL     OW26366   7.783   1.013   3.762 -0.5156 -0.1843  0.7140
 8439SOL    HW126367   7.805   0.971   3.844  0.0492  0.7899  1.0806
 8439SOL    HW226368   7.709   1.070   3.784  1.1392  1.9288  1.1728
 8440SOL     OW26369   6.132   6.808   3.830  0.1431  0.0527 -0.0256
 8440SOL    HW126370   6.150   6.883   3.887  1.8318  0.6052 -1.1910
 8440SOL    HW226371   6.087   6.846   3.754  2.7025  0.3481 -1.5420
 8441SOL     OW26372   7.342   4.570   4.731  0.1599 -0.0171 -0.1955
 8441SOL    HW126373   7.369   4.492   4.682  2.2380 -0.4205  1.4420
 8441SOL    HW226374   7.413   4.634   4.715  0.8796 -0.1503  2.1486
 8442SOL     OW26375   8.034   1.736   4.013 -0.4053  0.2675  0.9043
 8442SOL    HW126376   8.056   1.722   4.105 -0.5602  1.0852  1.0679
 8442SOL    HW226377   7.963   1.799   4.015 -1.8468 -1.2552  0.3197
 8443SOL     OW26378   3.040   6.843   0.591  0.0618  0.2128  0.5095
 8443SOL    HW126379   3.106   6.911   0.576 -1.7321  2.2405  1.1927
 8443SOL    HW226380   3.089   6.761   0.593  2.5225  1.6022  0.9368
 8444SOL     OW26381   7.043   0.557   6.930 -0.1556  0.0130  0.1562
 8444SOL    HW126382   6.986   0.547   7.007 -0.9248 -1.5844 -0.5671
 8444SOL    HW226383   7.068   0.649   6.931 -0.7353  0.1993  1.9077
 8445SOL     OW26384   8.152   3.569   7.604  0.1786  0.5752  0.3358
 8445SOL    HW126385   8.084   3.610   7.656 -0.0327 -1.5517  1.8860
 8445SOL    HW226386   8.124   3.581   7.513 -3.1012 -1.3699  0.9221
 8446SOL     OW26387   2.030   5.073   4.185  0.0106 -0.7060 -0.0781
 8446SOL    HW126388   1.982   5.034   4.112  0.2246 -1.7187  0.2943
 8446SOL    HW226389   2.030   5.167   4.167 -2.0429 -0.6620 -0.1182
 8447SOL     OW26390   5.729   7.258   7.692 -0.2761 -0.4071  0.0810
 8447SOL    HW126391   5.745   7.193   7.623 -2.2590  0.0651 -0.9222
 8447SOL    HW226392   5.745   7.342   7.649  3.0199 -0.1206  1.5758
 8448SOL     OW26393   0.432   7.692   0.235 -0.3805 -1.2638 -0.4022
 8448SOL    HW126394   0.344   7.720   0.257 -0.4364 -1.8362  0.1142
 8448SOL    HW226395   0.489   7.747   0.289 -0.4566 -1.5231 -0.0554
 8449SOL     OW26396   1.508   7.832   7.592 -0.1179 -0.1286  0.1064
 8449SOL    HW126397   1.561   7.831   7.672 -0.5845  1.3625  0.4585
 8449SOL    HW226398   1.570   7.850   7.522  0.3684 -1.8990  0.0441
 8450SOL     OW26399   6.002   7.178   7.502  0.6548 -0.0394  0.1290
 8450SOL    HW126400   6.063   7.227   7.557 -0.5116  0.3845  1.0872
 8450SOL    HW226401   6.058   7.126   7.444  1.9088  0.6472  0.6946
 8451SOL     OW26402   3.793   2.720   6.089  0.6244  0.1206  0.3818
 8451SOL    HW126403   3.869   2.740   6.035 -1.1090  1.3309 -1.7941
 8451SOL    HW226404   3.723   2.703   6.026 -0.9598 -0.7516  2.2838
 8452SOL     OW26405   5.318   4.186   4.010  0.3712  0.3223 -0.0017
 8452SOL    HW126406   5.315   4.092   4.026 -0.4996  0.3097 -0.2204
 8452SOL    HW226407   5.238   4.221   4.049 -0.6083  0.6138 -2.1018
 8453SOL     OW26408   7.380   7.937   7.536 -0.0952 -0.5827  0.3362
 8453SOL    HW126409   7.473   7.957   7.529  0.1260 -1.3804  0.8383
 8453SOL    HW226410   7.360   7.888   7.456  0.1238 -1.1704  0.6393
 8454SOL     OW26411   7.717   3.694   2.202  0.4587  0.0553  0.1066
 8454SOL    HW126412   7.794   3.727   2.155 -0.3794  0.5030 -1.0272
 8454SOL    HW226413   7.681   3.627   2.144  0.0175 -0.1777  0.6453
 8455SOL     OW26414   0.154   5.707   3.313 -0.3211 -0.1370 -0.4553
 8455SOL    HW126415   0.241   5.669   3.322  0.3963  1.5078 -0.1732
 8455SOL    HW226416   0.118   5.707   3.402  1.0106  2.7922  0.1890
 8456SOL     OW26417   8.128   2.874   5.445 -0.3156 -0.5638 -0.2897
 8456SOL    HW126418   8.096   2.807   5.506 -0.6996  0.9123  1.2061
 8456SOL    HW226419   8.192   2.828   5.391  1.0018 -1.7048  2.0589
 8457SOL     OW26420   2.222   5.355   5.438 -0.3021 -0.2633  0.0336
 8457SOL    HW126421   2.183   5.323   5.357 -1.2227 -0.0357  0.3791
 8457SOL    HW226422   2.150   5.395   5.486  0.2362 -0.3446  0.9464
 8458SOL     OW26423   1.502   4.296   0.013  0.4991  0.2148  0.4560
 8458SOL    HW126424   1.470   4.358   0.079 -2.1281 -1.5468  1.0271
 8458SOL    HW226425   1.562   4.239   0.062 -1.5359 -1.1666  1.5134
 8459SOL     OW26426   0.916   5.859   4.306 -0.3062 -0.1397  0.0146
 8459SOL    HW126427   0.867   5.843   4.387  0.0880  0.6815  0.4308
 8459SOL    HW226428   0.978   5.929   4.329  0.0411 -0.1280 -0.9068
 8460SOL     OW26429   7.447   6.840   0.687  0.1648 -0.6346  0.5620
 8460SOL    HW126430   7.363   6.854   0.732 -1.1640 -1.2087 -1.5497
 8460SOL    HW226431   7.496   6.920   0.701 -1.7608  0.7484 -0.1585
 8461SOL     OW26432   1.370   6.979   6.625 -0.2254 -0.5962  0.1714
 8461SOL    HW126433   1.317   6.914   6.578  0.0665  0.3639 -1.6017
 8461SOL    HW226434   1.310   7.017   6.689 -0.5991 -2.0861  0.7458
 8462SOL     OW26435   0.700   6.173   0.111  0.2758  0.2906 -0.6470
 8462SOL    HW126436   0.753   6.209   0.182 -0.6710 -1.6708  1.1645
 8462SOL    HW226437   0.619   6.223   0.114 -0.1593 -0.4373  0.3737
 8463SOL     OW26438   6.545   2.503   2.679  0.0926 -0.3735 -0.0970
 8463SOL    HW126439   6.468   2.447   2.691 -0.6620  0.4465 -1.0007
 8463SOL    HW226440   6.615   2.442   2.654 -0.3912 -1.0552  0.1741
 8464SOL     OW26441   5.654   4.318   2.229  0.1061 -0.1630 -0.3660
 8464SOL    HW126442   5.611   4.340   2.312  0.1403 -1.1079 -0.0880
 8464SOL    HW226443   5.673   4.403   2.189 -0.5099  0.2954  0.2816
 8465SOL     OW26444   5.254   8.215   6.210 -0.2617  0.4488  0.3886
 8465SOL    HW126445   5.185   8.214   6.277 -0.8377  0.4128 -0.1925
 8465SOL    HW226446   5.335   8.225   6.259 -0.7839  1.8353  1.0197
 8466SOL     OW26447   5.753   7.131   6.556 -0.5521  0.0116  0.0582
 8466SOL    HW126448   5.777   7.038   6.551 -1.4668 -0.2330 -0.0191
 8466SOL    HW226449   5.708   7.149   6.474 -0.3963  0.5251  0.0806
 8467SOL     OW26450   1.455   7.503   2.811  0.3534  0.2573 -0.5647
 8467SOL    HW126451   1.529   7.537   2.762 -0.1666  2.6565  0.1873
 8467SOL    HW226452   1.488   7.424   2.853  1.9202  0.2767 -1.6692
 8468SOL     OW26453   4.675   3.151   2.386  0.0499  0.0576 -0.0496
 8468SOL    HW126454   4.608   3.214   2.411 -2.0373 -2.4324  1.1939
 8468SOL    HW226455   4.750   3.173   2.440 -0.8430  1.1015  0.8104
 8469SOL     OW26456   7.747   2.025   1.589  0.2932 -1.0759 -0.0132
 8469SOL    HW126457   7.839   2.032   1.614  0.0156 -2.0291  1.3706
 8469SOL    HW226458   7.716   1.945   1.631 -0.8597 -1.4605 -1.4926
 8470SOL     OW26459   0.702   4.011   0.670 -0.5249 -0.0529  0.1853
 8470SOL    HW126460   0.680   4.053   0.753 -1.0636  0.5197 -0.2407
 8470SOL    HW226461   0.789   4.045   0.648 -0.3224 -0.3076  0.5729
 8471SOL     OW26462   5.975   0.395   1.881  0.2226 -0.3121  0.0857
 8471SOL    HW126463   5.883   0.396   1.854  0.4523  0.2516 -0.7032
 8471SOL    HW226464   6.019   0.449   1.816  1.0889 -0.4446  0.5596
 8472SOL     OW26465   7.926   6.586   7.551  0.3463  0.8253  0.1528
 8472SOL    HW126466   7.847   6.533   7.557  0.9455  0.0801  2.7738
 8472SOL    HW226467   7.971   6.554   7.473  0.9283 -3.0417  1.8643
 8473SOL     OW26468   4.981   0.116   2.469 -0.1167  0.0635  0.2497
 8473SOL    HW126469   4.983   0.173   2.392 -1.2945 -0.9463 -0.5777
 8473SOL    HW226470   5.063   0.134   2.515  0.9742  0.1808 -1.6406
 8474SOL     OW26471   1.753   4.587   0.026 -0.3389  0.5896 -0.1017
 8474SOL    HW126472   1.800   4.663  -0.010  1.4487 -0.5255 -0.2580
 8474SOL    HW226473   1.728   4.536  -0.051  0.6950 -0.2092  0.0643
 8475SOL     OW26474   6.109   2.644   7.354  0.6834  0.0377 -0.5528
 8475SOL    HW126475   6.188   2.671   7.401 -0.2150 -1.1463  1.8148
 8475SOL    HW226476   6.140   2.576   7.294  1.7682  1.1246 -1.2743
 8476SOL     OW26477   2.556   0.490   6.983 -0.0298  0.3025  0.0371
 8476SOL    HW126478   2.587   0.548   6.914  0.0484 -0.2662 -0.4146
 8476SOL    HW226479   2.476   0.451   6.946 -0.4784  0.6547  0.6144
 8477SOL     OW26480   8.213   8.062   0.567 -0.2203  0.2574 -0.1618
 8477SOL    HW126481   8.198   8.003   0.493 -0.6527 -1.1456  1.0226
 8477SOL    HW226482   8.153   8.135   0.551 -0.4746 -0.1300 -1.0721
 8478SOL     OW26483   7.683   3.641   7.630 -0.3925 -0.0078 -0.2243
 8478SOL    HW126484   7.691   3.686   7.546 -1.0789  0.2397 -0.1663
 8478SOL    HW226485   7.603   3.588   7.621  1.0962 -2.2885 -0.7748
 8479SOL     OW26486   2.479   5.706   5.925  0.9965 -0.4356 -0.0763
 8479SOL    HW126487   2.473   5.620   5.885  0.8689 -0.6738  0.4443
 8479SOL    HW226488   2.415   5.760   5.878 -2.9826 -1.9626  2.9994
 8480SOL     OW26489   0.285   6.792   2.554 -0.3932 -0.4506  0.7684
 8480SOL    HW126490   0.273   6.855   2.483  2.3648  0.2142  0.8075
 8480SOL    HW226491   0.372   6.809   2.588 -0.4542 -2.7691  2.3567
 8481SOL     OW26492   2.290   4.912   2.084  0.2164 -0.4530 -0.0693
 8481SOL    HW126493   2.233   4.936   2.011  0.8599 -0.4223 -0.5770
 8481SOL    HW226494   2.367   4.874   2.042  0.3427 -0.9894  0.6233
 8482SOL     OW26495   2.778   1.426   4.424 -0.0065  0.6181  0.4241
 8482SOL    HW126496   2.688   1.411   4.395  0.8222  0.7664 -2.5831
 8482SOL    HW226497   2.826   1.349   4.394  1.0363  0.8909  1.3224
 8483SOL     OW26498   4.534   4.536   1.007 -0.3376 -0.0251 -0.0633
 8483SOL    HW126499   4.607   4.546   1.068 -0.2405 -0.6455 -0.0774
 8483SOL    HW226500   4.558   4.592   0.933  0.3042 -0.5011 -0.2257
 8484SOL     OW26501   3.043   5.881   2.914  0.4543  0.2017 -0.0600
 8484SOL    HW126502   3.062   5.788   2.926 -1.4635 -0.3521 -0.9305
 8484SOL    HW226503   3.003   5.908   2.996  0.8160  0.2053  0.1162
 8485SOL     OW26504   5.488   1.293   2.609 -0.1068  0.2828  0.5089
 8485SOL    HW126505   5.435   1.306   2.687  1.0616  0.7841  1.2377
 8485SOL    HW226506   5.553   1.363   2.612 -0.4296  0.7116 -1.2601
 8486SOL     OW26507   1.542   7.774   2.981  0.1552  0.5830  0.5681
 8486SOL    HW126508   1.511   7.688   3.008  0.1922  0.4102  0.0672
 8486SOL    HW226509   1.482   7.835   3.024 -0.2413  0.2844  0.4551
 8487SOL     OW26510   6.642   0.451   7.946  0.2710 -0.3461 -0.1261
 8487SOL    HW126511   6.558   0.406   7.940  0.9710 -1.8517  0.8743
 8487SOL    HW226512   6.625   0.527   8.002 -1.0495  1.0347 -2.2717
 8488SOL     OW26513   5.677   1.932   7.073  0.1244  0.2933 -0.2241
 8488SOL    HW126514   5.771   1.936   7.090  0.2981  1.6139 -1.3363
 8488SOL    HW226515   5.669   1.942   6.978 -1.1409  0.0125 -0.1738
 8489SOL     OW26516   6.973   3.139   4.866 -0.0382  1.5115  0.8383
 8489SOL    HW126517   6.919   3.216   4.883  1.0217  2.3435  0.5513
 8489SOL    HW226518   7.061   3.174   4.852  0.2605  0.3331 -0.3999
 8490SOL     OW26519   6.530   4.335   5.978  0.5629  0.1418 -0.0542
 8490SOL    HW126520   6.515   4.429   5.985  0.3725  0.0678  0.5408
 8490SOL    HW226521   6.491   4.310   5.894  1.2261  0.7108 -0.5439
 8491SOL     OW26522   0.421   0.028   3.101  0.2007 -0.7974 -0.7772
 8491SOL    HW126523   0.361  -0.008   3.036 -0.5733 -1.1210  0.0855
 8491SOL    HW226524   0.481   0.083   3.051 -1.9372  1.0664 -1.4745
 8492SOL     OW26525   5.985   5.699   5.961  0.1179 -0.1873  0.5305
 8492SOL    HW126526   5.974   5.704   5.866  1.1204 -0.5699  0.3871
 8492SOL    HW226527   5.973   5.606   5.981  0.3324 -0.1705  0.7315
 8493SOL     OW26528   1.372   1.859   0.850 -0.2892 -0.8773 -0.3928
 8493SOL    HW126529   1.387   1.930   0.787 -2.1336 -1.0844 -1.1386
 8493SOL    HW226530   1.348   1.904   0.931 -0.5640 -0.6349 -0.6060
 8494SOL     OW26531   2.440   1.642   3.172  0.2066 -0.1374  0.5499
 8494SOL    HW126532   2.426   1.736   3.178 -0.2127 -0.2603  1.9368
 8494SOL    HW226533   2.463   1.615   3.261  3.6854 -0.8718 -0.4062
 8495SOL     OW26534   3.363   2.237   0.225  0.1946 -0.1155  0.2019
 8495SOL    HW126535   3.359   2.331   0.206  2.4837  0.5452  2.4978
 8495SOL    HW226536   3.292   2.223   0.288 -0.5480 -0.0964 -0.6086
 8496SOL     OW26537   6.992   1.847   3.211 -0.7761  0.2193  0.2882
 8496SOL    HW126538   6.992   1.824   3.304  0.1570  0.8743  0.4726
 8496SOL    HW226539   6.913   1.806   3.175 -0.6629 -0.8043  1.1739
 8497SOL     OW26540   6.634   7.117   5.815  0.0652 -0.9241 -0.3128
 8497SOL    HW126541   6.576   7.174   5.866 -0.7929 -1.0200 -1.1361
 8497SOL    HW226542   6.722   7.137   5.847 -0.3249  0.0000  0.2400
 8498SOL     OW26543   4.004   7.205   3.639 -1.0243 -0.0861  0.2372
 8498SOL    HW126544   3.963   7.287   3.665  0.7589  0.8513  0.2865
 8498SOL    HW226545   3.970   7.187   3.552 -1.3738  0.7519  0.1915
 8499SOL     OW26546   1.314   3.646   3.666 -0.5065 -0.0918 -0.3509
 8499SOL    HW126547   1.235   3.624   3.617  0.4194 -0.7967 -1.5826
 8499SOL    HW226548   1.297   3.733   3.702 -2.4117 -0.8276  0.6730
 8500SOL     OW26549   3.598   5.588   3.500  0.3497 -0.1070  1.0477
 8500SOL    HW126550   3.682   5.631   3.485 -0.2175  0.9548  0.8280
 8500SOL    HW226551   3.553   5.643   3.564 -1.1119  0.6665 -0.5504
 8501SOL     OW26552   3.114   0.550   2.933 -0.0892 -0.5170  0.1758
 8501SOL    HW126553   3.113   0.491   3.008 -0.6620  0.4584  0.9513
 8501SOL    HW226554   3.098   0.637   2.970  2.5927  0.4593 -0.6644
 8502SOL     OW26555   5.987   6.913   4.327  0.0381  0.0370 -0.1052
 8502SOL    HW126556   5.915   6.850   4.317 -0.4719  0.6270 -0.2324
 8502SOL    HW226557   5.957   6.991   4.281  0.8946  0.1976 -0.4084
 8503SOL     OW26558   7.537   3.164   6.533  0.0125  0.3610  0.1510
 8503SOL    HW126559   7.578   3.235   6.483 -1.7843  0.9619 -0.5622
 8503SOL    HW226560   7.494   3.111   6.468 -0.3111 -0.2728  0.8674
 8504SOL     OW26561   7.256   1.271   3.481 -0.3857  0.5095  0.2580
 8504SOL    HW126562   7.273   1.325   3.558 -0.1684 -0.5091  0.9476
 8504SOL    HW226563   7.262   1.332   3.407  1.0129  1.2069  0.9072
 8505SOL     OW26564   1.694   5.930   6.041 -0.1094  0.4170  0.2243
 8505SOL    HW126565   1.601   5.947   6.058  0.0932  0.3939  1.4909
 8505SOL    HW226566   1.713   5.851   6.091  1.3098  2.1740  2.6858
 8506SOL     OW26567   7.518   4.325   5.071  0.4665  0.0600 -0.1898
 8506SOL    HW126568   7.423   4.322   5.082  0.6164  0.0063  1.1788
 8506SOL    HW226569   7.552   4.268   5.140  1.5190  0.4858 -0.3459
 8507SOL     OW26570   1.409   2.472   4.225  0.0136 -0.3865  0.7696
 8507SOL    HW126571   1.335   2.448   4.169  0.7662  0.7875 -0.7807
 8507SOL    HW226572   1.486   2.464   4.168  0.5326  3.7339  0.6332
 8508SOL     OW26573   7.350   0.116   2.988  0.5186 -0.1697 -0.2452
 8508SOL    HW126574   7.364   0.095   3.080  0.0836 -1.7317 -0.5003
 8508SOL    HW226575   7.425   0.170   2.964  0.7841  0.0189  0.9488
 8509SOL     OW26576   1.921   2.280   2.453 -0.2156 -0.1758  0.3659
 8509SOL    HW126577   1.991   2.332   2.414  0.8368 -2.5049 -1.0622
 8509SOL    HW226578   1.886   2.336   2.522  4.4407  0.4142  2.6493
 8510SOL     OW26579   5.826   5.569   3.969 -0.0345 -0.2737  0.8282
 8510SOL    HW126580   5.882   5.549   3.894  0.8235  0.0158  1.3756
 8510SOL    HW226581   5.767   5.637   3.938  1.4500  1.0922  0.8967
 8511SOL     OW26582   4.476   1.011   7.094  0.2798  0.1083 -0.7712
 8511SOL    HW126583   4.436   1.033   7.178  0.3324  1.9990 -1.2096
 8511SOL    HW226584   4.482   0.915   7.095  0.4475  0.0991  1.4462
 8512SOL     OW26585   3.237   6.122   2.938  0.0341  0.0219  0.0599
 8512SOL    HW126586   3.216   6.139   3.030 -0.9482  0.6113 -0.2675
 8512SOL    HW226587   3.159   6.148   2.890  1.2360  1.6889 -1.1384
 8513SOL     OW26588   1.987   4.329   4.272  0.3953  0.6898  0.1870
 8513SOL    HW126589   2.018   4.313   4.361 -0.3672  0.4060  0.4101
 8513SOL    HW226590   1.990   4.424   4.262 -2.1814  1.0156  1.5439
 8514SOL     OW26591   4.904   3.231   0.435  0.1149 -0.1246  0.1560
 8514SOL    HW126592   4.913   3.161   0.370 -0.0739 -1.8427  1.8830
 8514SOL    HW226593   4.822   3.274   0.412 -1.1188 -2.1380  0.4806
 8515SOL     OW26594   4.339   7.212   6.666  0.3072 -0.1305  0.5427
 8515SOL    HW126595   4.271   7.200   6.732  1.8897  0.0503  2.2910
 8515SOL    HW226596   4.356   7.306   6.665  0.1845 -0.1088 -0.2659
 8516SOL     OW26597   4.915   2.759   4.831 -0.7627  0.3719 -0.0766
 8516SOL    HW126598   4.977   2.818   4.788  1.4474 -2.2113 -0.7307
 8516SOL    HW226599   4.864   2.721   4.759 -1.4214  0.6343  0.2408
 8517SOL     OW26600   6.305   5.832   3.158  0.1546  0.1499 -0.0809
 8517SOL    HW126601   6.328   5.742   3.137  0.2183  0.3594 -0.9666
 8517SOL    HW226602   6.256   5.827   3.240 -0.4736 -0.7671 -0.5004
 8518SOL     OW26603   6.485   7.354   1.915  0.2703 -0.2952  0.1430
 8518SOL    HW126604   6.555   7.353   1.849 -1.4726 -2.0677 -1.8109
 8518SOL    HW226605   6.412   7.309   1.873 -2.3009  1.9422  1.8836
 8519SOL     OW26606   1.365   4.815   4.011  0.1405  0.2835 -0.3067
 8519SOL    HW126607   1.446   4.766   4.002  1.6923  1.9535  2.7913
 8519SOL    HW226608   1.393   4.904   4.030 -2.3278  0.7567  1.7276
 8520SOL     OW26609   0.518   0.799   7.397 -0.0535 -0.1757  0.1190
 8520SOL    HW126610   0.486   0.819   7.309 -0.9357 -1.2658  0.1736
 8520SOL    HW226611   0.494   0.708   7.411  2.1658 -0.7637  0.5838
 8521SOL     OW26612   3.053   5.338   7.534 -0.0787  0.0489 -0.2665
 8521SOL    HW126613   3.016   5.278   7.469 -1.3755 -0.4175  0.8496
 8521SOL    HW226614   3.135   5.296   7.561  0.8266  0.5729 -2.0156
 8522SOL     OW26615   6.808   7.365   3.492  0.5990 -0.5613  0.3895
 8522SOL    HW126616   6.843   7.317   3.567  1.1776  2.1926  2.0543
 8522SOL    HW226617   6.751   7.432   3.531 -1.4779 -0.8637 -1.8783
 8523SOL     OW26618   5.441   6.917   5.689  0.1595 -0.2099  0.4173
 8523SOL    HW126619   5.378   6.982   5.659  1.3200  1.3698  1.2029
 8523SOL    HW226620   5.525   6.948   5.655  0.5676 -2.2807 -0.6622
 8524SOL     OW26621   3.858   3.071   1.031 -0.0386 -0.5463 -0.2987
 8524SOL    HW126622   3.871   3.163   1.008 -1.0206 -0.4768 -0.6396
 8524SOL    HW226623   3.815   3.073   1.116 -0.1873 -0.6769 -0.3689
 8525SOL     OW26624   7.036   5.948   4.353  0.2495  0.6422 -0.0231
 8525SOL    HW126625   6.978   5.893   4.301 -0.3352  1.6659 -0.4879
 8525SOL    HW226626   6.987   6.029   4.367  0.9196  0.8949  1.0011
 8526SOL     OW26627   7.146   7.134   8.180 -0.5268  0.6560  0.1320
 8526SOL    HW126628   7.059   7.156   8.212 -1.5992 -2.1010 -0.5710
 8526SOL    HW226629   7.185   7.217   8.154 -2.4817  2.0739  1.5543
 8527SOL     OW26630   8.136   7.551   3.867 -0.2707  0.2753  0.1131
 8527SOL    HW126631   8.067   7.546   3.933  0.4357 -0.7010  0.7903
 8527SOL    HW226632   8.172   7.639   3.877 -2.1708  1.2507 -1.0504
 8528SOL     OW26633   1.680   5.333   2.769 -0.1036  0.4123  0.0835
 8528SOL    HW126634   1.757   5.283   2.794 -0.4316  0.0914  0.4841
 8528SOL    HW226635   1.704   5.377   2.688  0.2917 -0.1549 -0.1101
 8529SOL     OW26636   2.928   3.882   3.483  0.6125  0.7422 -0.2129
 8529SOL    HW126637   3.006   3.879   3.427  0.3013  0.4171 -0.6384
 8529SOL    HW226638   2.855   3.866   3.423  0.3909 -1.3608  0.5131
 8530SOL     OW26639   8.102   6.674   5.577  0.0739 -0.3004 -0.2639
 8530SOL    HW126640   8.157   6.670   5.655 -0.3238 -0.1967  0.0280
 8530SOL    HW226641   8.163   6.666   5.504  0.3749 -1.1647  0.0696
 8531SOL     OW26642   7.098   3.893   7.905  0.0817 -0.1642  0.2975
 8531SOL    HW126643   7.173   3.918   7.958  0.8829 -0.9159 -0.4438
 8531SOL    HW226644   7.097   3.957   7.834 -1.7290  1.5977  1.8243
 8532SOL     OW26645   4.353   4.554   5.981  0.4516  0.4107  0.0073
 8532SOL    HW126646   4.288   4.485   5.993  0.0693  0.6518 -0.6179
 8532SOL    HW226647   4.364   4.559   5.886  0.7864  0.9202  0.0739
 8533SOL     OW26648   2.227   8.013   2.982 -0.3668 -0.3004  0.3997
 8533SOL    HW126649   2.296   8.040   2.921 -0.5248 -0.1217  0.3015
 8533SOL    HW226650   2.217   8.087   3.041 -1.2016  0.0867 -0.2171
 8534SOL     OW26651   1.315   8.071   0.058  0.6104 -0.1869  0.5149
 8534SOL    HW126652   1.368   8.016   0.117  0.0740  0.0595  1.2461
 8534SOL    HW226653   1.225   8.057   0.088  0.2429 -0.6453 -0.7463
 8535SOL     OW26654   7.215   6.431   1.170 -0.3578  0.6331  0.4754
 8535SOL    HW126655   7.289   6.374   1.194  0.0658 -0.7334 -3.3187
 8535SOL    HW226656   7.256   6.502   1.121 -1.3229  1.7820  1.2985
 8536SOL     OW26657   4.447   5.673   7.753 -0.5850  0.2036  0.2625
 8536SOL    HW126658   4.533   5.642   7.780 -0.2360  1.4030  0.6052
 8536SOL    HW226659   4.412   5.717   7.831 -0.7990  1.1520 -0.3521
 8537SOL     OW26660   3.272   0.068   4.846  0.0325  0.4765 -0.5253
 8537SOL    HW126661   3.300   0.030   4.763 -0.8113 -1.2504 -0.0695
 8537SOL    HW226662   3.344   0.052   4.907 -0.3481 -0.4990 -0.3181
 8538SOL     OW26663   3.761   6.715   1.091  0.3355  0.6108 -0.3014
 8538SOL    HW126664   3.813   6.639   1.116 -0.7927 -0.0510  0.0863
 8538SOL    HW226665   3.687   6.679   1.043  0.5271  1.5931 -1.3889
 8539SOL     OW26666   6.094   3.061   0.149  0.7161  0.0407  0.3673
 8539SOL    HW126667   6.118   3.150   0.122 -0.6686  0.4038  0.2424
 8539SOL    HW226668   6.077   3.068   0.242  0.9061 -0.1644  0.4168
 8540SOL     OW26669   4.241   2.999   0.160  0.5624  0.1493  0.2649
 8540SOL    HW126670   4.207   2.978   0.247  1.9096 -1.6138  0.4260
 8540SOL    HW226671   4.309   3.064   0.175 -0.8196  1.6518  0.2304
 8541SOL     OW26672   3.649   3.337   3.221  0.0004  0.8821 -0.4005
 8541SOL    HW126673   3.734   3.301   3.195 -0.5934 -0.5056 -0.5144
 8541SOL    HW226674   3.606   3.359   3.138 -0.0562  0.8563 -0.3779
 8542SOL     OW26675   5.464   7.276   2.212  0.0911  0.5389 -0.1172
 8542SOL    HW126676   5.533   7.343   2.217 -0.4865  1.1298  0.2194
 8542SOL    HW226677   5.389   7.322   2.175 -0.4982  0.2399  0.6674
 8543SOL     OW26678   4.064   1.555   2.805 -0.2995 -0.4433 -0.4760
 8543SOL    HW126679   3.970   1.571   2.803 -0.3713 -0.2308  2.0204
 8543SOL    HW226680   4.085   1.543   2.897  2.2915  0.4483 -0.8642
 8544SOL     OW26681   3.399   0.122   3.077  0.0581 -0.0709  0.2108
 8544SOL    HW126682   3.305   0.119   3.057  0.2412  0.6860 -0.8751
 8544SOL    HW226683   3.409   0.196   3.136 -0.0859 -0.4416  0.7033
 8545SOL     OW26684   1.039   6.414   1.539  0.6603 -0.2947  0.1061
 8545SOL    HW126685   1.073   6.460   1.616 -1.0896  1.8186 -0.2879
 8545SOL    HW226686   1.011   6.328   1.573  1.7296 -0.1794  1.3836
 8546SOL     OW26687   2.147   5.181   7.707  0.0181 -0.3188  0.0442
 8546SOL    HW126688   2.205   5.129   7.763 -1.3020 -0.8912  0.9088
 8546SOL    HW226689   2.146   5.268   7.748  1.5820  0.2217 -0.9493
 8547SOL     OW26690   2.405   1.845   1.185  0.2085  0.0128  0.8309
 8547SOL    HW126691   2.340   1.891   1.239 -0.2143 -0.7409  0.9704
 8547SOL    HW226692   2.480   1.905   1.182 -0.9027  1.3955 -0.2734
 8548SOL     OW26693   3.846   7.940   5.778 -0.4880 -0.5369 -0.1918
 8548SOL    HW126694   3.872   7.859   5.821  1.0634 -0.3826 -0.7654
 8548SOL    HW226695   3.778   7.913   5.716  0.7858 -1.6301 -1.1742
 8549SOL     OW26696   1.903   4.518   1.022  0.0554  0.1186 -0.0402
 8549SOL    HW126697   1.952   4.557   0.949  0.6479 -0.6218 -0.0486
 8549SOL    HW226698   1.818   4.494   0.983  1.1112 -2.2540 -1.1069
 8550SOL     OW26699   6.946   7.972   6.932  0.2795  0.3785 -0.1110
 8550SOL    HW126700   6.915   7.964   7.022  0.0910 -0.9131 -0.2693
 8550SOL    HW226701   6.901   8.049   6.898  0.0623  0.6588  0.7809
 8551SOL     OW26702   7.660   6.483   7.718 -0.4842 -0.3171 -0.3723
 8551SOL    HW126703   7.702   6.459   7.801 -0.4695 -0.1465 -0.3311
 8551SOL    HW226704   7.637   6.399   7.679 -1.4403 -0.3775  0.2853
 8552SOL     OW26705   7.587   1.115   6.804 -0.4587 -0.6610 -0.1084
 8552SOL    HW126706   7.614   1.046   6.865 -0.4081 -0.0163  0.6124
 8552SOL    HW226707   7.500   1.141   6.835 -0.8066 -0.9177 -0.8398
 8553SOL     OW26708   2.714   5.059   4.444  0.0073  0.6071  0.4606
 8553SOL    HW126709   2.694   4.977   4.399  1.7183  1.1509 -1.4300
 8553SOL    HW226710   2.744   5.032   4.530 -0.1764 -0.7060  0.1345
 8554SOL     OW26711   5.925   1.227   0.280 -0.7758  0.2913  0.1631
 8554SOL    HW126712   5.961   1.152   0.233  0.7666  0.5679  0.8119
 8554SOL    HW226713   5.995   1.252   0.341 -1.6357  1.6508  0.6376
 8555SOL     OW26714   4.447   4.968   6.433 -0.3205 -0.0151 -0.3872
 8555SOL    HW126715   4.502   5.044   6.448  1.2656 -0.7169 -2.2526
 8555SOL    HW226716   4.469   4.908   6.505  1.7488 -0.4406 -1.2948
 8556SOL     OW26717   7.029   2.461   5.774 -0.2258 -0.3187 -0.1745
 8556SOL    HW126718   7.103   2.519   5.757 -0.5066 -0.1027 -0.6876
 8556SOL    HW226719   6.952   2.514   5.757 -0.4885 -0.8088 -0.5537
 8557SOL     OW26720   7.679   5.387   4.934  0.5419 -0.2608 -0.2743
 8557SOL    HW126721   7.612   5.323   4.957 -0.0798  0.1056 -0.9786
 8557SOL    HW226722   7.757   5.360   4.981 -0.4602  0.0552  1.6434
 8558SOL     OW26723   0.173   3.436   5.610 -0.1154  0.2607 -0.0380
 8558SOL    HW126724   0.259   3.428   5.651  0.7016 -0.5272 -1.7904
 8558SOL    HW226725   0.181   3.514   5.554 -0.1243 -0.4394 -1.0545
 8559SOL     OW26726   1.769   0.838   5.617  0.2342  0.2597 -0.0489
 8559SOL    HW126727   1.716   0.839   5.697 -0.9365 -1.6079 -0.7251
 8559SOL    HW226728   1.826   0.761   5.626  0.1345  0.0585 -0.9505
 8560SOL     OW26729   4.496   4.552   8.112  0.5951  0.2241  0.0421
 8560SOL    HW126730   4.470   4.620   8.174 -2.2115 -0.7773  0.0711
 8560SOL    HW226731   4.466   4.584   8.027  0.5522 -0.3513 -0.1610
 8561SOL     OW26732   1.237   0.593   3.798  0.1180  0.1425 -0.2911
 8561SOL    HW126733   1.212   0.550   3.880  2.2135  0.4069  0.5382
 8561SOL    HW226734   1.261   0.682   3.823  0.5499  0.3043 -1.2268
 8562SOL     OW26735   6.402   7.461   0.212 -0.8590 -0.0597  0.9970
 8562SOL    HW126736   6.334   7.435   0.150 -2.1863  1.6146  1.6947
 8562SOL    HW226737   6.386   7.554   0.228  0.9686  0.1294  1.9891
 8563SOL     OW26738   6.847   4.026   6.483 -0.1550  0.0433 -0.0976
 8563SOL    HW126739   6.832   3.940   6.444 -1.8875 -1.0673  2.6493
 8563SOL    HW226740   6.770   4.077   6.458 -0.2325  0.0203  0.0885
 8564SOL     OW26741   4.800   1.865   1.896  0.2629  0.3032 -0.0461
 8564SOL    HW126742   4.868   1.916   1.940  1.2020 -1.7117  1.0131
 8564SOL    HW226743   4.831   1.856   1.806 -0.4827  2.4538 -0.5755
 8565SOL     OW26744   5.132   1.631   1.319 -0.1303  0.2978  0.6557
 8565SOL    HW126745   5.063   1.698   1.317 -1.3621 -0.9305 -0.6239
 8565SOL    HW226746   5.111   1.577   1.395 -0.1475  0.3698  0.7021
 8566SOL     OW26747   4.088   7.862   1.189  0.0384 -0.4258  0.3394
 8566SOL    HW126748   4.015   7.898   1.139  1.8786  2.6279 -0.3875
 8566SOL    HW226749   4.134   7.806   1.127 -0.8896 -1.2708  0.3957
 8567SOL     OW26750   5.197   6.887   1.600  0.3065 -0.4962 -0.0182
 8567SOL    HW126751   5.205   6.980   1.579  0.1710 -0.5033 -0.1047
 8567SOL    HW226752   5.137   6.885   1.675  0.7230 -0.4753  0.3186
 8568SOL     OW26753   8.124   8.041   3.766 -0.6107  0.4913  0.7957
 8568SOL    HW126754   8.141   7.950   3.739  1.4422  0.8497  0.7296
 8568SOL    HW226755   8.211   8.077   3.785 -1.1260  3.1372 -1.3387
 8569SOL     OW26756   2.474   6.150   2.005  0.3384  0.7181  0.0387
 8569SOL    HW126757   2.563   6.123   1.984  0.9313  1.8993  0.8864
 8569SOL    HW226758   2.450   6.212   1.935  0.8757  1.7416  0.7271
 8570SOL     OW26759   1.003   3.283   4.454  0.2741  0.3309  0.3778
 8570SOL    HW126760   1.056   3.203   4.463  1.2423  1.0724  1.5295
 8570SOL    HW226761   0.964   3.295   4.541 -4.7405 -2.0820 -1.1677
 8571SOL     OW26762   0.456   5.006   7.603 -0.6911  0.9892 -0.0028
 8571SOL    HW126763   0.541   4.962   7.601 -0.6936  0.9988 -0.8821
 8571SOL    HW226764   0.462   5.072   7.534 -1.0845  1.6198  0.5640
 8572SOL     OW26765   6.648   4.318   1.341  0.1052 -0.1866  0.8229
 8572SOL    HW126766   6.658   4.398   1.291 -1.5776  0.1575  0.9608
 8572SOL    HW226767   6.737   4.287   1.357  0.7174  0.5743 -0.9309
 8573SOL     OW26768   6.972   6.114   6.303  0.3469  0.5040  0.3472
 8573SOL    HW126769   7.024   6.154   6.233 -0.6534  1.3239  0.0533
 8573SOL    HW226770   6.911   6.182   6.330 -0.3624 -0.3314  0.9049
 8574SOL     OW26771   6.613   5.877   3.953 -1.0393  0.1040 -0.3705
 8574SOL    HW126772   6.693   5.858   4.003 -1.5677  0.2188  0.5332
 8574SOL    HW226773   6.644   5.889   3.863 -0.0574 -0.0114 -0.0646
 8575SOL     OW26774   2.545   5.153   4.652 -0.1169 -0.1972 -0.1214
 8575SOL    HW126775   2.451   5.134   4.649 -0.2701  0.1375  1.4185
 8575SOL    HW226776   2.580   5.116   4.572 -1.8950  1.5545 -1.8358
 8576SOL     OW26777   5.282   7.603   7.420  0.1284  0.2283  0.0202
 8576SOL    HW126778   5.204   7.578   7.370  0.0185  0.6867 -0.0398
 8576SOL    HW226779   5.345   7.533   7.402 -0.5413 -0.5803  0.7284
 8577SOL     OW26780   8.265   4.109   0.607  0.0013 -0.5312 -0.2677
 8577SOL    HW126781   8.266   4.021   0.644 -0.6656 -0.7551 -0.7613
 8577SOL    HW226782   8.181   4.115   0.562  0.9179 -0.3827 -2.0446
 8578SOL     OW26783   8.139   1.701   0.571  0.4863 -0.2692  0.0876
 8578SOL    HW126784   8.170   1.650   0.496 -1.4816 -0.8280 -0.4063
 8578SOL    HW226785   8.126   1.635   0.640  0.0863 -0.1153  0.1633
 8579SOL     OW26786   1.626   8.110   5.167  0.4160  0.0423  0.1135
 8579SOL    HW126787   1.534   8.133   5.156  0.6237  0.7347 -0.2146
 8579SOL    HW226788   1.627   8.014   5.160 -0.5227 -0.1402  2.0170
 8580SOL     OW26789   4.262   4.878   1.886  0.0544 -0.5359  0.6734
 8580SOL    HW126790   4.224   4.958   1.923 -0.2610 -0.9792  1.3303
 8580SOL    HW226791   4.254   4.890   1.791  0.3166  0.3527  0.7528
 8581SOL     OW26792   4.591   1.927   6.674  0.4170  0.4018  0.0169
 8581SOL    HW126793   4.598   2.022   6.683 -1.7404  0.7370 -1.1556
 8581SOL    HW226794   4.614   1.910   6.583  1.0978 -0.2441  0.3069
 8582SOL     OW26795   0.373   5.518   7.582  0.0877 -0.3585 -0.0942
 8582SOL    HW126796   0.443   5.468   7.540 -1.6412 -1.0167 -2.3962
 8582SOL    HW226797   0.414   5.602   7.604  1.7121 -0.8970 -0.8674
 8583SOL     OW26798   0.060   2.409   5.185  0.1795 -0.0754  0.6427
 8583SOL    HW126799   0.077   2.400   5.091 -1.1665 -1.8843  0.5143
 8583SOL    HW226800   0.022   2.496   5.193  1.0104  0.4063 -0.3658
 8584SOL     OW26801   1.663   0.633   1.390 -0.0622  0.1319 -0.4558
 8584SOL    HW126802   1.667   0.680   1.306  0.8005 -1.3746 -1.3039
 8584SOL    HW226803   1.721   0.683   1.448  0.7935  0.1649 -1.3093
 8585SOL     OW26804   7.239   3.793   5.745 -0.0915 -0.5206  0.2472
 8585SOL    HW126805   7.144   3.779   5.745  0.0062 -1.2519  0.0602
 8585SOL    HW226806   7.276   3.704   5.750  0.5812 -0.2279  0.5987
 8586SOL     OW26807   7.501   0.902   0.436 -0.0416  0.0369  0.4446
 8586SOL    HW126808   7.590   0.867   0.444  0.2971  0.8274  0.1695
 8586SOL    HW226809   7.512   0.993   0.409 -0.9333  0.1983  0.5748
 8587SOL     OW26810   2.088   4.826   4.276  0.1304  0.2518  0.4524
 8587SOL    HW126811   2.089   4.910   4.229 -0.6531 -0.6568 -1.3013
 8587SOL    HW226812   2.158   4.834   4.341  1.9591  1.2662 -1.4996
 8588SOL     OW26813   2.459   1.201   1.269 -0.3042 -0.5895 -0.5656
 8588SOL    HW126814   2.381   1.204   1.324 -0.7601 -0.1781 -1.2180
 8588SOL    HW226815   2.466   1.289   1.232  1.1016 -0.2933  0.3416
 8589SOL     OW26816   2.123   5.914   2.528 -0.1185 -0.0966  0.4775
 8589SOL    HW126817   2.139   5.819   2.528  0.7879  0.0230  1.5594
 8589SOL    HW226818   2.201   5.951   2.570 -0.6720  1.0921  0.5017
 8590SOL     OW26819   6.342   7.966   5.749 -0.0323  0.6225 -0.4302
 8590SOL    HW126820   6.351   8.054   5.785 -0.0060  0.4991 -0.1249
 8590SOL    HW226821   6.257   7.966   5.705  0.2753  1.0067 -1.0348
 8591SOL     OW26822   6.530   4.541   6.692  0.4219 -0.5633 -0.4400
 8591SOL    HW126823   6.484   4.458   6.684 -0.2323 -0.4617  1.7214
 8591SOL    HW226824   6.613   4.519   6.734  0.6756 -0.2279 -0.7505
 8592SOL     OW26825   4.233   3.168   0.853 -0.0230 -0.1317  0.1082
 8592SOL    HW126826   4.281   3.095   0.891  0.5366 -0.1248 -0.5561
 8592SOL    HW226827   4.293   3.242   0.859 -0.7961  0.4187  1.2805
 8593SOL     OW26828   1.786   4.915   0.078  0.5403  0.1259 -0.4348
 8593SOL    HW126829   1.766   4.943  -0.012 -1.9616 -2.1424 -0.7145
 8593SOL    HW226830   1.876   4.882   0.073  0.5574  0.3364 -2.0308
 8594SOL     OW26831   2.312   2.775   1.678 -0.3475 -0.7915  0.0533
 8594SOL    HW126832   2.268   2.747   1.758  0.6067 -0.1415  0.8228
 8594SOL    HW226833   2.269   2.857   1.654 -1.5159 -1.6229 -0.8660
 8595SOL     OW26834   7.125   8.051   5.125 -0.3005 -0.0514  0.2342
 8595SOL    HW126835   7.139   8.141   5.098  0.1026 -0.5138 -1.1836
 8595SOL    HW226836   7.167   8.045   5.211 -0.9761  1.2798  0.6873
 8596SOL     OW26837   7.024   0.330   0.060 -1.0214  0.1445 -0.3430
 8596SOL    HW126838   7.046   0.349  -0.031  1.2490  1.3763  0.3902
 8596SOL    HW226839   6.975   0.407   0.090 -3.2860 -0.9969 -0.9385
 8597SOL     OW26840   6.039   0.560   2.339 -0.0708  0.0490 -0.2248
 8597SOL    HW126841   6.039   0.465   2.327 -0.4158  0.0686 -0.3745
 8597SOL    HW226842   6.114   0.577   2.396 -0.1860 -0.3419  0.0422
 8598SOL     OW26843   0.194   6.290   1.193  0.3261  0.3115 -0.2849
 8598SOL    HW126844   0.168   6.314   1.104  1.9845 -2.3554 -1.6374
 8598SOL    HW226845   0.287   6.266   1.185  0.0707 -1.7251  1.7703
 8599SOL     OW26846   5.948   5.272   0.194  0.0729 -0.0786 -0.1348
 8599SOL    HW126847   5.936   5.177   0.201 -3.2428  0.3174  1.6786
 8599SOL    HW226848   6.037   5.287   0.226  0.0908 -2.4860  1.1972
 8600SOL     OW26849   7.347   6.705   6.975  0.1559  0.8021  0.0412
 8600SOL    HW126850   7.262   6.709   7.020  0.4955  1.4750  0.6446
 8600SOL    HW226851   7.380   6.795   6.978  0.8124  0.5815 -0.3431
 8601SOL     OW26852   5.162   6.242   1.455  0.6739  0.0223  0.1244
 8601SOL    HW126853   5.112   6.177   1.405  0.6587  0.4600 -0.4312
 8601SOL    HW226854   5.186   6.196   1.535  0.1297 -0.4749  0.0139
 8602SOL     OW26855   5.986   1.862   0.343 -0.0999  0.0333  0.1469
 8602SOL    HW126856   6.041   1.791   0.375 -0.0036  0.1450  0.2297
 8602SOL    HW226857   6.042   1.908   0.279  0.0848  0.4601  0.6118
 8603SOL     OW26858   6.227   1.834   4.954  0.1258  0.1891 -0.2159
 8603SOL    HW126859   6.149   1.839   5.009 -0.2485 -1.3208 -0.5454
 8603SOL    HW226860   6.196   1.856   4.866  0.7266  2.6155  0.1309
 8604SOL     OW26861   0.545   4.346   2.093  0.0335  0.0340  0.0565
 8604SOL    HW126862   0.590   4.349   2.008 -0.3729  0.7755 -0.1447
 8604SOL    HW226863   0.492   4.266   2.089 -1.1822  0.8517 -1.0352
 8605SOL     OW26864   2.354   2.782   2.777  0.2450  0.5980 -0.5122
 8605SOL    HW126865   2.273   2.733   2.787 -0.2065  1.5621  0.8111
 8605SOL    HW226866   2.390   2.788   2.866  1.0341  1.3991 -0.8668
 8606SOL     OW26867   7.987   3.039   3.699 -0.2894  0.2861 -0.2125
 8606SOL    HW126868   7.908   3.045   3.753 -0.0534 -1.1890  0.3616
 8606SOL    HW226869   8.041   3.112   3.728 -0.2293 -0.3836  1.5151
 8607SOL     OW26870   3.623   7.506   6.317 -0.2531 -0.5472  0.4816
 8607SOL    HW126871   3.675   7.426   6.307 -1.4333 -1.3243  0.4512
 8607SOL    HW226872   3.551   7.496   6.255 -0.7621  0.2547  0.9276
 8608SOL     OW26873   3.523   5.665   0.448  0.2447 -0.4044 -0.6197
 8608SOL    HW126874   3.524   5.593   0.385 -2.7247 -0.0698 -1.2001
 8608SOL    HW226875   3.554   5.741   0.398  1.4580 -0.8436 -0.5692
 8609SOL     OW26876   1.612   0.599   0.836 -0.6553  0.5382  0.2543
 8609SOL    HW126877   1.548   0.616   0.905 -0.2315  0.0499  0.7794
 8609SOL    HW226878   1.681   0.664   0.850 -0.0168 -0.2806  1.0090
 8610SOL     OW26879   3.777   4.066   3.361  0.0673 -0.3327 -0.2641
 8610SOL    HW126880   3.870   4.065   3.382  0.0233 -1.6644 -0.0332
 8610SOL    HW226881   3.773   4.101   3.272  0.8204 -0.5241 -0.3845
 8611SOL     OW26882   4.670   5.619   7.905 -0.5762 -0.0009  0.4605
 8611SOL    HW126883   4.758   5.592   7.931 -0.9377 -1.4798  0.2059
 8611SOL    HW226884   4.625   5.636   7.988 -0.3799 -0.2938  0.6285
 8612SOL     OW26885   0.085   4.568   5.542 -0.3557  0.2161  0.4353
 8612SOL    HW126886   0.086   4.664   5.551  0.9971  0.2651  0.0272
 8612SOL    HW226887   0.117   4.536   5.627 -0.3347  0.1515  0.4027
 8613SOL     OW26888   4.476   0.093   0.334  0.1484 -0.4405  0.3097
 8613SOL    HW126889   4.429   0.107   0.252  0.9741  0.7579  0.0200
 8613SOL    HW226890   4.539   0.165   0.339 -0.5673  0.1243  2.4935
 8614SOL     OW26891   5.178   3.885   3.706  0.1264  0.3997  0.2685
 8614SOL    HW126892   5.209   3.974   3.693  0.2595  0.6541  2.1045
 8614SOL    HW226893   5.085   3.893   3.724 -0.2719 -0.0324 -1.4118
 8615SOL     OW26894   0.276   0.894   5.412 -0.2796 -0.3766 -0.0699
 8615SOL    HW126895   0.305   0.985   5.419 -0.6357 -0.2165 -0.6066
 8615SOL    HW226896   0.258   0.867   5.502 -0.3799  0.1523  0.0715
 8616SOL     OW26897   5.707   7.598   5.133 -0.4626 -0.0799  0.4564
 8616SOL    HW126898   5.659   7.558   5.204  0.6488 -3.3449 -0.4637
 8616SOL    HW226899   5.646   7.598   5.059 -0.6933  0.6526  0.6393
 8617SOL     OW26900   5.860   7.527   1.030  0.1405 -0.1526 -0.3919
 8617SOL    HW126901   5.903   7.551   0.948  1.7079  0.7924  0.6459
 8617SOL    HW226902   5.858   7.609   1.080  2.2452 -1.3327  1.8079
 8618SOL     OW26903   2.216   5.258   8.175 -0.6260 -0.1746 -0.2387
 8618SOL    HW126904   2.284   5.308   8.130 -1.0608  0.1752 -0.5213
 8618SOL    HW226905   2.234   5.270   8.268  0.4648 -1.1565 -0.3094
 8619SOL     OW26906   0.809   4.321   6.642 -0.1455 -0.2992 -0.1039
 8619SOL    HW126907   0.791   4.318   6.736  0.5777 -1.3752  0.0129
 8619SOL    HW226908   0.796   4.413   6.618 -3.1376 -0.4730  0.4649
 8620SOL     OW26909   6.069   8.085   4.281 -0.5815  0.6327  0.2296
 8620SOL    HW126910   6.075   8.012   4.219  0.3243 -0.6043  1.6908
 8620SOL    HW226911   5.998   8.059   4.341  1.7655 -0.7004  2.6671
 8621SOL     OW26912   1.274   4.591   1.283 -0.2157  0.6717 -0.0479
 8621SOL    HW126913   1.284   4.603   1.189 -1.6813  0.8780 -0.2007
 8621SOL    HW226914   1.289   4.677   1.320  0.2877  0.6060 -0.0983
 8622SOL     OW26915   4.577   3.138   1.878  0.0795  0.7257 -0.1767
 8622SOL    HW126916   4.621   3.134   1.963 -1.6644 -1.8833  0.7521
 8622SOL    HW226917   4.616   3.066   1.828 -0.1055  1.1616 -0.9535
 8623SOL     OW26918   2.137   5.690   0.280  0.4081 -0.5111 -0.1855
 8623SOL    HW126919   2.096   5.619   0.329 -0.6782 -1.1903 -1.9487
 8623SOL    HW226920   2.103   5.770   0.321 -3.2866 -1.0157 -1.8158
 8624SOL     OW26921   6.627   6.029   2.706 -0.0890  0.1897 -0.1926
 8624SOL    HW126922   6.701   6.013   2.648 -0.7439  0.2180 -1.0597
 8624SOL    HW226923   6.552   6.038   2.647 -1.2150 -2.1568  0.7402
 8625SOL     OW26924   1.360   3.153   0.837 -0.0654 -0.5037  0.6204
 8625SOL    HW126925   1.314   3.070   0.830 -0.4003 -0.2130 -1.1474
 8625SOL    HW226926   1.447   3.136   0.803  0.6119 -0.6289  2.3239
 8626SOL     OW26927   3.664   6.730   1.692  0.0546  0.6702 -0.0236
 8626SOL    HW126928   3.632   6.654   1.742 -1.3521 -0.7103 -2.7555
 8626SOL    HW226929   3.587   6.786   1.682  0.6696  1.6318  0.5345
 8627SOL     OW26930   3.024   3.353   1.385 -0.7611 -0.3501  0.2024
 8627SOL    HW126931   2.957   3.303   1.337 -0.9846 -0.1465  0.2975
 8627SOL    HW226932   2.991   3.443   1.384  0.2428  0.0324 -1.0546
 8628SOL     OW26933   5.297   1.188   2.455 -0.4202  0.8112  0.4054
 8628SOL    HW126934   5.265   1.108   2.497 -0.5202  0.7602  0.2328
 8628SOL    HW226935   5.366   1.220   2.513  0.0266  0.2744  0.1763
 8629SOL     OW26936   3.760   7.222   6.605  0.1169 -0.0225  0.2956
 8629SOL    HW126937   3.728   7.138   6.638 -1.1076  0.4207  0.3015
 8629SOL    HW226938   3.850   7.204   6.578 -0.2228 -1.4178 -0.0155
 8630SOL     OW26939   4.781   4.121   3.136 -0.0413  0.2645 -0.4559
 8630SOL    HW126940   4.735   4.085   3.060  1.3327  0.8209 -1.6109
 8630SOL    HW226941   4.828   4.047   3.173 -1.0801 -0.1072  0.1632
 8631SOL     OW26942   2.766   1.746   4.771  0.2293 -0.0133 -0.0833
 8631SOL    HW126943   2.761   1.753   4.676 -0.1904 -2.7652 -0.3467
 8631SOL    HW226944   2.751   1.653   4.789 -2.6097  0.8071  2.8371
 8632SOL     OW26945   0.168   0.074   2.884  0.3689  0.3508  0.4282
 8632SOL    HW126946   0.224   0.141   2.924 -0.5384  1.2430  0.2406
 8632SOL    HW226947   0.230   0.007   2.854  1.3581  1.3630  0.1139
 8633SOL     OW26948   5.335   4.014   5.907  0.2776 -0.1353  0.3252
 8633SOL    HW126949   5.385   4.061   5.974  1.9937 -0.6045 -0.5597
 8633SOL    HW226950   5.341   3.922   5.932 -0.9081 -0.1433  0.6601
 8634SOL     OW26951   0.899   5.532   1.953 -0.2771  0.1135  0.1182
 8634SOL    HW126952   0.924   5.515   1.863  1.1853  1.6681  0.1751
 8634SOL    HW226953   0.928   5.455   2.001 -1.3992 -0.8885 -0.7562
 8635SOL     OW26954   0.388   3.100   0.039 -0.6237 -0.5439 -0.2145
 8635SOL    HW126955   0.361   3.077   0.128  0.6039 -1.3635 -0.0191
 8635SOL    HW226956   0.408   3.016  -0.002  0.2803 -0.0808 -0.7567
 8636SOL     OW26957   0.827   7.012   2.710  0.1015  0.2700 -0.7489
 8636SOL    HW126958   0.795   7.052   2.791 -1.5046  0.0030 -1.2286
 8636SOL    HW226959   0.865   6.929   2.738  2.5675  1.5935  0.1247
 8637SOL     OW26960   2.209   4.426   7.240  0.0583  0.0134 -0.0471
 8637SOL    HW126961   2.299   4.432   7.272 -0.1553 -0.8776  0.7543
 8637SOL    HW226962   2.156   4.466   7.309 -0.2790 -0.6563  0.0876
 8638SOL     OW26963   2.425   5.611   0.361  0.0601  0.0142 -0.1038
 8638SOL    HW126964   2.341   5.567   0.372  0.0476  0.2640  0.8905
 8638SOL    HW226965   2.491   5.543   0.375  0.0293  0.0738  0.3483
 8639SOL     OW26966   4.413   7.361   7.644 -0.4139 -0.8887 -0.5912
 8639SOL    HW126967   4.383   7.308   7.718  1.4279 -0.9545  0.1832
 8639SOL    HW226968   4.350   7.343   7.574 -3.0992  0.3358  1.3498
 8640SOL     OW26969   6.835   1.058   5.746  0.0358  0.3103  0.0154
 8640SOL    HW126970   6.873   0.984   5.699  1.6109  1.5747 -0.8332
 8640SOL    HW226971   6.767   1.092   5.687 -0.3365 -0.1417  0.1818
 8641SOL     OW26972   5.881   2.785   8.114 -0.5027 -0.2782  0.3091
 8641SOL    HW126973   5.876   2.777   8.209  0.3646 -1.6813  0.2657
 8641SOL    HW226974   5.801   2.743   8.083  0.4550 -2.2413  0.3608
 8642SOL     OW26975   4.959   6.164   6.170 -0.3702  0.4928 -0.2254
 8642SOL    HW126976   4.991   6.247   6.135  1.2380 -0.3018 -0.7314
 8642SOL    HW226977   4.939   6.182   6.262  1.7452  1.0222  0.1798
 8643SOL     OW26978   5.225   6.759   0.988 -0.5637  0.1204  0.3803
 8643SOL    HW126979   5.283   6.719   0.923 -1.1261  0.4709 -0.3452
 8643SOL    HW226980   5.253   6.850   0.993 -0.0956 -0.0540  1.1206
 8644SOL     OW26981   3.311   2.947   5.856  0.4598  0.0786  0.3052
 8644SOL    HW126982   3.377   2.982   5.796  2.4656  1.4001  3.0607
 8644SOL    HW226983   3.253   3.021   5.873 -2.0433 -1.1371 -2.2760
 8645SOL     OW26984   6.978   3.271   0.008  0.2333 -0.3658 -0.5625
 8645SOL    HW126985   7.058   3.294  -0.037 -0.0866  2.9203  0.2848
 8645SOL    HW226986   7.004   3.256   0.099 -0.1607  1.7814 -0.0483
 8646SOL     OW26987   7.703   3.073   0.309  0.1062  0.2061  0.4575
 8646SOL    HW126988   7.687   3.012   0.380  0.5987 -0.5163 -0.0373
 8646SOL    HW226989   7.732   3.154   0.352 -0.7145  0.1539  1.1187
 8647SOL     OW26990   3.016   5.808   1.350 -0.0141 -0.0934 -0.5646
 8647SOL    HW126991   3.034   5.894   1.310  0.9665  0.8885  1.8227
 8647SOL    HW226992   2.921   5.806   1.359  0.0044  1.1592  0.1571
 8648SOL     OW26993   7.800   4.633   7.127 -0.0810  0.4978  0.0760
 8648SOL    HW126994   7.735   4.697   7.156 -1.0431 -0.6819  0.6466
 8648SOL    HW226995   7.821   4.583   7.206  0.2512 -0.2093 -0.4482
 8649SOL     OW26996   1.213   6.671   0.927 -0.5593  0.0912  0.1692
 8649SOL    HW126997   1.295   6.640   0.966 -0.3369 -0.1713 -0.4937
 8649SOL    HW226998   1.234   6.759   0.894 -1.0332  0.7409  1.5441
 8650SOL     OW26999   0.135   2.926   1.132  0.1234 -0.5338 -0.4681
 8650SOL    HW127000   0.169   2.870   1.201  1.5632  0.1617 -0.5751
 8650SOL    HW227001   0.179   3.010   1.145 -1.7770  0.5096 -0.4822
 8651SOL     OW27002   5.813   4.564   2.957 -0.1058 -0.5773  0.0229
 8651SOL    HW127003   5.765   4.501   2.904 -1.5570  1.1840 -0.8866
 8651SOL    HW227004   5.780   4.649   2.929  1.1725  0.5743  1.7592
 8652SOL     OW27005   7.812   2.099   3.564  0.2309  0.5041 -0.3113
 8652SOL    HW127006   7.884   2.042   3.590  0.1913  0.8517  0.6288
 8652SOL    HW227007   7.844   2.187   3.584 -0.5165  0.6460  0.3263
 8653SOL     OW27008   1.434   4.511   0.573  0.4555  0.0962 -0.5290
 8653SOL    HW127009   1.384   4.431   0.587 -1.0097  1.2699  1.3968
 8653SOL    HW227010   1.497   4.513   0.645 -0.2088  1.1254  0.0603
 8654SOL     OW27011   6.290   0.652   4.527 -0.0041 -0.5090 -0.1518
 8654SOL    HW127012   6.324   0.692   4.447 -1.5140  0.4223 -0.3562
 8654SOL    HW227013   6.330   0.565   4.528  0.3284 -0.4150 -1.7225
 8655SOL     OW27014   1.312   7.341   7.232 -0.0366  0.0597 -0.0145
 8655SOL    HW127015   1.259   7.289   7.172  0.0522  1.7570 -1.6506
 8655SOL    HW227016   1.396   7.296   7.236 -0.1271 -0.2106 -0.9871
 8656SOL     OW27017   0.869   2.783   3.796  0.4162  0.3301 -0.1146
 8656SOL    HW127018   0.850   2.860   3.849  1.8372  0.4704  0.2256
 8656SOL    HW227019   0.944   2.743   3.838  0.0020 -0.9845 -0.5766
 8657SOL     OW27020   6.660   0.551   3.046  0.0301 -0.6296 -0.3156
 8657SOL    HW127021   6.718   0.501   3.103  2.1520  2.4492  0.4946
 8657SOL    HW227022   6.640   0.491   2.974  1.8971 -2.7799  0.8089
 8658SOL     OW27023   5.232   8.265   5.023  0.2736 -0.2974 -0.0134
 8658SOL    HW127024   5.228   8.192   4.961  1.7895  0.5218 -1.1377
 8658SOL    HW227025   5.143   8.273   5.057 -0.8007 -0.3391 -2.6247
 8659SOL     OW27026   6.119   2.574   8.056 -0.4227 -0.2309 -0.2425
 8659SOL    HW127027   6.040   2.558   8.004  0.4328 -0.8827 -1.3793
 8659SOL    HW227028   6.086   2.593   8.144 -1.8349 -0.6667 -0.6471
 8660SOL     OW27029   2.624   5.954   6.497 -0.4670  0.0633 -0.0792
 8660SOL    HW127030   2.638   5.957   6.403  0.8750  1.4287  0.1304
 8660SOL    HW227031   2.711   5.940   6.534 -0.3443  3.1882  1.0702
 8661SOL     OW27032   3.495   8.022   6.036 -0.1112 -0.2580  0.0583
 8661SOL    HW127033   3.493   7.928   6.049  0.8691 -0.5519 -1.5928
 8661SOL    HW227034   3.514   8.033   5.942  0.0041  1.5714  0.2511
 8662SOL     OW27035   7.205   7.728   0.820  0.3716 -0.0528 -0.1735
 8662SOL    HW127036   7.261   7.657   0.849 -0.9932 -1.1028 -0.0311
 8662SOL    HW227037   7.126   7.721   0.874 -0.9055 -0.1137 -1.9357
 8663SOL     OW27038   2.612   2.169   6.053  0.2279  0.3443  0.1461
 8663SOL    HW127039   2.561   2.239   6.014  0.4405  0.5195  0.1792
 8663SOL    HW227040   2.692   2.164   6.000  1.1905  1.5622  1.4069
 8664SOL     OW27041   2.703   5.731   4.334 -0.1256  0.0983  0.2019
 8664SOL    HW127042   2.688   5.806   4.276 -0.8088  0.0848  0.3482
 8664SOL    HW227043   2.635   5.669   4.309  0.3591 -0.4217  0.1713
 8665SOL     OW27044   1.579   2.971   4.743 -0.0689 -0.0232  0.7102
 8665SOL    HW127045   1.585   2.968   4.839  0.1655 -1.5116  0.6731
 8665SOL    HW227046   1.526   2.895   4.720  0.2851  0.0448 -0.3847
 8666SOL     OW27047   3.066   0.843   1.432 -0.2084 -0.2165 -0.1644
 8666SOL    HW127048   3.018   0.864   1.352  1.1062  0.3726 -0.8357
 8666SOL    HW227049   3.101   0.755   1.416 -0.4308 -0.3391  0.0150
 8667SOL     OW27050   7.125   5.579   2.126 -0.3997  0.0589  0.3197
 8667SOL    HW127051   7.127   5.564   2.032 -0.8529 -0.8039  0.4386
 8667SOL    HW227052   7.169   5.663   2.138  0.0789 -0.0456 -0.6148
 8668SOL     OW27053   5.119   4.369   6.823 -0.3314 -0.2205 -1.0578
 8668SOL    HW127054   5.039   4.327   6.854 -0.3429 -0.2850 -1.1728
 8668SOL    HW227055   5.091   4.422   6.749 -0.6333  1.4723  0.2214
 8669SOL     OW27056   4.950   0.985   2.944  0.3921  0.7616  0.1980
 8669SOL    HW127057   4.910   0.903   2.975 -0.7967  1.7817  1.4638
 8669SOL    HW227058   5.032   0.991   2.993  2.4716 -1.5030 -2.6418
 8670SOL     OW27059   7.721   7.862   7.862  0.1127 -0.0851 -0.5559
 8670SOL    HW127060   7.788   7.875   7.794  1.2639 -0.8299  0.3788
 8670SOL    HW227061   7.771   7.835   7.939 -1.2663 -0.4138  0.2524
 8671SOL     OW27062   4.657   7.486   7.718 -0.1431  0.0295 -0.5579
 8671SOL    HW127063   4.592   7.429   7.678 -1.1011  0.0897  0.8592
 8671SOL    HW227064   4.608   7.562   7.749 -0.0210 -1.2017  3.1411
 8672SOL     OW27065   0.768   4.655   2.047 -0.2252 -0.8631  0.2474
 8672SOL    HW127066   0.694   4.712   2.066  1.7255  1.2387  2.1089
 8672SOL    HW227067   0.769   4.591   2.118 -0.3317 -0.9901  0.1352
 8673SOL     OW27068   0.028   2.862   0.869 -0.5512  0.8662 -0.3145
 8673SOL    HW127069   0.065   2.888   0.953 -1.4355  1.7589 -0.1904
 8673SOL    HW227070  -0.015   2.778   0.886  1.2914 -0.1599 -0.4416
 8674SOL     OW27071   6.982   3.899   3.546 -0.2371  0.2221  0.1679
 8674SOL    HW127072   6.894   3.863   3.539  1.0333 -3.1902 -0.4154
 8674SOL    HW227073   7.014   3.867   3.631  0.5604  1.0809  0.2033
 8675SOL     OW27074   7.667   7.126   4.388  0.0568 -0.0407  0.1341
 8675SOL    HW127075   7.636   7.049   4.341 -0.5477  0.5862 -0.5119
 8675SOL    HW227076   7.595   7.189   4.383  0.7973  0.8396  0.0145
 8676SOL     OW27077   6.621   0.680   8.102 -0.3044  0.1184 -0.7490
 8676SOL    HW127078   6.572   0.762   8.099 -0.3119  0.1107 -0.8462
 8676SOL    HW227079   6.699   0.701   8.153 -0.3065  0.1866 -0.7723
 8677SOL     OW27080   1.903   7.946   5.522 -0.1960  0.1344  0.0375
 8677SOL    HW127081   1.827   7.999   5.497  0.3930  0.4432 -1.1672
 8677SOL    HW227082   1.978   8.001   5.501  0.4389 -1.2080 -1.3960
 8678SOL     OW27083   7.895   2.654   4.297 -0.3517 -0.1108 -0.4018
 8678SOL    HW127084   7.841   2.576   4.310 -0.9513  0.3458 -0.1284
 8678SOL    HW227085   7.866   2.715   4.364  0.3580  0.2231 -0.3952
 8679SOL     OW27086   3.523   6.030   6.468  0.3829 -0.2468  0.2045
 8679SOL    HW127087   3.476   6.111   6.490  0.0974 -0.5472  0.7088
 8679SOL    HW227088   3.593   6.024   6.533  1.3212  0.3372 -0.6954
 8680SOL     OW27089   2.028   1.340   4.057 -0.1579  0.1916  0.2233
 8680SOL    HW127090   2.101   1.360   3.998  0.2909 -2.2175 -0.1431
 8680SOL    HW227091   2.070   1.317   4.140 -0.6351  0.7315  0.6247
 8681SOL     OW27092   0.765   4.769   6.876  0.2259 -0.4710 -0.0091
 8681SOL    HW127093   0.837   4.762   6.939  0.7522 -0.1900 -0.5615
 8681SOL    HW227094   0.765   4.862   6.851  0.6085 -0.7493 -1.0852
 8682SOL     OW27095   3.020   3.942   2.217 -0.3506 -0.1130 -0.2084
 8682SOL    HW127096   3.100   3.902   2.252 -0.4540  0.2918  0.5127
 8682SOL    HW227097   2.957   3.870   2.212  0.0153 -0.3991 -0.6220
 8683SOL     OW27098   3.514   5.683   7.375  0.1311  1.2249 -0.4791
 8683SOL    HW127099   3.483   5.749   7.438 -1.2628 -0.0553  0.2249
 8683SOL    HW227100   3.444   5.618   7.371  1.2453  0.0264 -1.5519
 8684SOL     OW27101   0.734   4.087   5.498  0.0860 -0.0617  0.8193
 8684SOL    HW127102   0.668   4.066   5.432  1.1935 -0.8244 -0.0822
 8684SOL    HW227103   0.697   4.054   5.580 -1.8593  1.9844  0.8777
 8685SOL     OW27104   6.096   1.642   6.777  0.1520 -0.1209  0.2164
 8685SOL    HW127105   6.069   1.651   6.868 -1.1338  1.4129 -0.2755
 8685SOL    HW227106   6.071   1.553   6.753  0.5677 -0.5678  1.3522
 8686SOL     OW27107   0.339   6.496   0.808  0.2068 -0.2757 -0.4045
 8686SOL    HW127108   0.371   6.506   0.719  1.7675 -0.2865  0.1119
 8686SOL    HW227109   0.272   6.427   0.803  1.5265 -1.5484 -1.3083
 8687SOL     OW27110   0.068   0.739   1.575 -0.5228 -0.3667 -0.6104
 8687SOL    HW127111   0.013   0.662   1.588 -1.0456  0.0510 -0.3301
 8687SOL    HW227112   0.077   0.747   1.480 -0.3533 -0.8449 -0.6386
 8688SOL     OW27113   1.132   1.247   7.622  0.4934  0.6071 -0.1540
 8688SOL    HW127114   1.134   1.334   7.662 -1.8071  0.6174  0.0458
 8688SOL    HW227115   1.223   1.229   7.599  0.7636  4.2989 -2.8608
 8689SOL     OW27116   5.585   7.593   5.399 -0.5585  0.0511  0.0115
 8689SOL    HW127117   5.599   7.683   5.368  0.4148 -0.2036 -0.3233
 8689SOL    HW227118   5.569   7.603   5.493 -0.9305  0.6120 -0.1051
 8690SOL     OW27119   4.966   1.454   7.447  0.7008 -0.2733  0.7188
 8690SOL    HW127120   4.932   1.541   7.423  0.4083 -1.3634 -3.4933
 8690SOL    HW227121   4.892   1.411   7.489  0.2423  0.8515  1.1254
 8691SOL     OW27122   7.281   5.895   4.504 -0.0624 -0.4055  0.2892
 8691SOL    HW127123   7.242   5.977   4.532  1.6200  0.5214  0.1100
 8691SOL    HW227124   7.208   5.841   4.477 -1.2002  1.2789 -0.1863
 8692SOL     OW27125   4.868   5.424   3.099 -0.7105 -0.2623 -0.1068
 8692SOL    HW127126   4.923   5.433   3.177 -1.7132 -3.1829  1.0827
 8692SOL    HW227127   4.782   5.455   3.126 -0.0087  3.6188 -1.7512
 8693SOL     OW27128   3.392   1.162   4.892 -0.0192 -0.0897  0.1979
 8693SOL    HW127129   3.368   1.188   4.803  1.9122 -2.0757 -0.9863
 8693SOL    HW227130   3.485   1.181   4.898 -0.0471 -0.3432  1.6815
 8694SOL     OW27131   5.649   1.144   1.794  0.1107 -0.4771 -0.6186
 8694SOL    HW127132   5.685   1.233   1.788 -0.0364 -0.3217  0.4574
 8694SOL    HW227133   5.632   1.118   1.704 -1.7317  1.3953 -0.8837
 8695SOL     OW27134   2.506   1.776   5.418 -0.4677  0.8868 -0.0684
 8695SOL    HW127135   2.451   1.854   5.414 -0.9808  0.5979  1.0382
 8695SOL    HW227136   2.555   1.785   5.499 -0.4237  0.1316 -0.0014
 8696SOL     OW27137   3.702   8.191   8.087 -0.2214 -0.2107  0.1445
 8696SOL    HW127138   3.728   8.268   8.138 -1.9529  1.6155 -1.5568
 8696SOL    HW227139   3.637   8.147   8.142 -0.9598  0.8919  0.2035
 8697SOL     OW27140   3.295   3.606   7.424  0.0765  0.2638 -0.3173
 8697SOL    HW127141   3.317   3.530   7.477 -0.2730  0.2012 -0.2631
 8697SOL    HW227142   3.255   3.668   7.486 -0.7778 -0.0004 -0.5915
 8698SOL     OW27143   1.166   4.229   0.821 -0.3488  0.8077 -0.1841
 8698SOL    HW127144   1.252   4.227   0.863 -0.8478 -0.8283  0.8586
 8698SOL    HW227145   1.185   4.243   0.728  1.1839 -1.0763 -0.2109
 8699SOL     OW27146   6.933   3.047   7.073  0.6106 -0.0315  0.0345
 8699SOL    HW127147   6.860   3.004   7.118  0.6910 -1.3792 -1.0661
 8699SOL    HW227148   6.981   2.976   7.031  1.6048  1.0030 -0.6466
 8700SOL     OW27149   4.909   2.531   4.966  0.2158 -0.6016 -0.2542
 8700SOL    HW127150   4.829   2.545   5.017  0.7314 -1.8690  0.9580
 8700SOL    HW227151   4.915   2.608   4.909 -1.3577 -0.0365  0.2963
 8701SOL     OW27152   6.881   5.896   0.915  0.2414  0.4551  0.0303
 8701SOL    HW127153   6.955   5.926   0.967 -1.3029 -0.1196  2.7778
 8701SOL    HW227154   6.894   5.801   0.907  1.9329  0.8200 -3.3063
 8702SOL     OW27155   2.974   4.060   4.170  0.6322 -0.5645 -0.5553
 8702SOL    HW127156   2.926   4.087   4.249  0.6295 -2.4766  0.1664
 8702SOL    HW227157   2.928   4.104   4.099 -0.8664 -0.6273  0.3135
 8703SOL     OW27158   1.785   0.346   5.904 -0.6862  0.1095 -0.0330
 8703SOL    HW127159   1.816   0.311   5.820  0.1964 -0.0606  0.3568
 8703SOL    HW227160   1.830   0.429   5.914 -0.4460 -0.0795  0.4792
 8704SOL     OW27161   4.665   6.035   1.041  0.0027 -0.8863  0.1259
 8704SOL    HW127162   4.586   6.090   1.037  0.9364  0.5283  0.4017
 8704SOL    HW227163   4.694   6.031   0.950 -0.3814 -1.4094  0.0236
 8705SOL     OW27164   0.051   6.211   5.914 -0.6497  0.0129  0.5413
 8705SOL    HW127165  -0.022   6.241   5.860 -0.3083  0.8777  0.5359
 8705SOL    HW227166   0.107   6.289   5.923  0.3755 -0.6863  0.3572
 8706SOL     OW27167   6.579   6.253   4.151 -0.2449  0.0824  0.6010
 8706SOL    HW127168   6.556   6.286   4.238 -1.1763  1.4804 -0.1349
 8706SOL    HW227169   6.589   6.332   4.097  0.0897 -0.7591 -0.6161
 8707SOL     OW27170   6.555   4.145   5.298  0.7244  0.3854  0.2605
 8707SOL    HW127171   6.644   4.127   5.270  0.6562  0.9180 -0.3255
 8707SOL    HW227172   6.535   4.077   5.362  1.3336 -0.0992 -0.0590
 8708SOL     OW27173   7.643   7.918   1.305  0.2327 -0.3534 -0.2477
 8708SOL    HW127174   7.649   7.917   1.400 -0.6814  0.3571 -0.1722
 8708SOL    HW227175   7.719   7.968   1.276  0.1283  0.0336  0.1477
 8709SOL     OW27176   6.149   3.021   4.075  0.1026 -0.0844  0.1225
 8709SOL    HW127177   6.077   3.081   4.093  0.3381  0.0526  0.6103
 8709SOL    HW227178   6.109   2.934   4.082 -0.3052  0.0042 -0.8616
 8710SOL     OW27179   2.957   3.911   6.452  0.0564  0.4025  0.3508
 8710SOL    HW127180   2.874   3.871   6.476  1.0644 -3.0932 -1.4026
 8710SOL    HW227181   2.938   3.958   6.371 -0.4633  0.8870  0.7385
 8711SOL     OW27182   5.137   4.185   2.997  0.1595 -0.1303  0.7699
 8711SOL    HW127183   5.084   4.116   2.957  0.4493  0.7936 -1.3762
 8711SOL    HW227184   5.215   4.140   3.029 -0.5307 -1.0631  1.1798
 8712SOL     OW27185   4.843   1.743   6.128  0.0152 -0.0457 -0.4120
 8712SOL    HW127186   4.869   1.804   6.197  2.4235 -0.1623 -1.1244
 8712SOL    HW227187   4.795   1.796   6.065 -0.7602  0.3945  0.5289
 8713SOL     OW27188   5.754   5.304   0.551  0.5526 -0.2200  0.6681
 8713SOL    HW127189   5.797   5.219   0.535 -0.1307 -0.5930  0.7641
 8713SOL    HW227190   5.826   5.366   0.557  0.9772 -0.4630 -1.3413
 8714SOL     OW27191   7.016   7.761   3.727  0.0638 -0.4830  0.3817
 8714SOL    HW127192   6.947   7.803   3.780 -0.3543 -0.0462 -0.4937
 8714SOL    HW227193   6.990   7.778   3.637  1.5442  0.0481  0.0296
 8715SOL     OW27194   7.963   1.240   2.276  0.1365  0.3338  0.7699
 8715SOL    HW127195   8.022   1.292   2.331  0.7803  0.7966 -0.3201
 8715SOL    HW227196   7.945   1.297   2.201  1.4900 -1.2774 -0.8487
 8716SOL     OW27197   4.277   4.789   3.282 -0.0170 -0.3205  0.4603
 8716SOL    HW127198   4.256   4.873   3.239 -1.0085 -1.3087 -1.0892
 8716SOL    HW227199   4.283   4.811   3.375 -1.6222  1.2333  0.2572
 8717SOL     OW27200   1.464   2.579   2.525  0.1321 -0.3340  0.4646
 8717SOL    HW127201   1.431   2.636   2.593 -2.0478  0.2697 -0.9966
 8717SOL    HW227202   1.404   2.504   2.524  0.9453 -1.0102  0.0904
 8718SOL     OW27203   5.378   6.853   2.651  0.3696  0.5414  0.1538
 8718SOL    HW127204   5.448   6.903   2.608  0.5968 -0.1322 -0.2776
 8718SOL    HW227205   5.402   6.853   2.743  1.0876  0.0895 -0.0263
 8719SOL     OW27206   5.478   2.229   1.705  0.1885 -0.0374 -0.4051
 8719SOL    HW127207   5.398   2.253   1.657  2.2129  0.8094 -3.6425
 8719SOL    HW227208   5.496   2.305   1.761  0.0355  0.8322 -1.5134
 8720SOL     OW27209   4.106   5.418   3.678  0.5402 -0.1731 -0.2816
 8720SOL    HW127210   4.138   5.332   3.705  0.0058 -0.1454  0.4960
 8720SOL    HW227211   4.033   5.399   3.618  0.7385 -0.2563 -0.4962
 8721SOL     OW27212   2.781   2.696   0.290 -0.0407  0.1481  0.5211
 8721SOL    HW127213   2.716   2.766   0.300 -0.9138 -0.8221  2.1917
 8721SOL    HW227214   2.730   2.621   0.261  0.3244 -0.5764  1.6585
 8722SOL     OW27215   6.607   0.904   4.216 -0.4437 -0.0988  0.6624
 8722SOL    HW127216   6.583   0.917   4.124  0.8244 -2.1547 -0.0323
 8722SOL    HW227217   6.673   0.970   4.233 -0.4458  0.0856 -0.0076
 8723SOL     OW27218   7.475   5.450   7.331 -0.2479 -0.6716  0.1899
 8723SOL    HW127219   7.515   5.512   7.270 -3.5590  0.5755 -0.9284
 8723SOL    HW227220   7.408   5.501   7.377  0.6544 -2.1249  3.3792
 8724SOL     OW27221   4.123   1.007   7.471  0.6012  0.1647  0.4242
 8724SOL    HW127222   4.100   1.091   7.512  1.4093  0.8658 -0.4991
 8724SOL    HW227223   4.121   0.944   7.543  0.4802  1.0719  1.2375
 8725SOL     OW27224   3.835   5.920   4.482  0.3963  0.5216 -0.5538
 8725SOL    HW127225   3.928   5.940   4.479  0.5547 -0.1416 -0.2261
 8725SOL    HW227226   3.822   5.881   4.568  0.0038 -0.2916 -0.9731
 8726SOL     OW27227   1.450   5.164   3.408 -0.0509  0.0236  0.0455
 8726SOL    HW127228   1.536   5.126   3.388  0.0407  0.8552 -1.3001
 8726SOL    HW227229   1.440   5.235   3.344 -2.0715 -0.5451 -0.3310
 8727SOL     OW27230   1.309   6.104   0.980  0.6428 -0.2646 -0.4215
 8727SOL    HW127231   1.280   6.179   0.928 -0.1903  0.4522  0.9821
 8727SOL    HW227232   1.239   6.092   1.045  0.9348 -2.0378 -0.3863
 8728SOL     OW27233   0.345   1.426   8.239 -0.3303  0.4074 -0.4974
 8728SOL    HW127234   0.257   1.417   8.274 -0.0541 -0.6265 -0.0157
 8728SOL    HW227235   0.348   1.367   8.164  0.6130 -1.3851  0.8713
 8729SOL     OW27236   4.613   2.381   4.769 -0.3570  0.4535 -0.3999
 8729SOL    HW127237   4.599   2.431   4.689  0.9503  0.8561 -0.3974
 8729SOL    HW227238   4.655   2.300   4.740 -0.7139  0.1961 -0.2074
 8730SOL     OW27239   7.820   2.768   4.552 -0.1794 -0.2290 -0.1082
 8730SOL    HW127240   7.840   2.688   4.600  2.4333  0.9271  0.9271
 8730SOL    HW227241   7.736   2.797   4.586  0.5571 -0.6337  2.1987
 8731SOL     OW27242   0.678   2.636   6.795  0.1575  0.0347  0.4171
 8731SOL    HW127243   0.726   2.608   6.717 -0.2140  0.4634  0.0278
 8731SOL    HW227244   0.647   2.555   6.835 -1.3559 -0.1106 -0.9669
 8732SOL     OW27245   7.670   6.665   7.025  0.2306 -0.2574  0.1435
 8732SOL    HW127246   7.607   6.725   6.984  1.9004  1.5796  0.1187
 8732SOL    HW227247   7.747   6.670   6.968  1.3139 -0.4382  1.5511
 8733SOL     OW27248   5.371   6.206   8.154 -0.3486  0.3718  0.4166
 8733SOL    HW127249   5.370   6.240   8.243 -0.0702  1.1536  0.1347
 8733SOL    HW227250   5.449   6.245   8.114 -1.4552  1.5187 -0.7219
 8734SOL     OW27251   7.648   7.450   8.079 -0.0813 -0.4496  0.3191
 8734SOL    HW127252   7.740   7.456   8.053  0.2405 -3.4178  0.4016
 8734SOL    HW227253   7.652   7.421   8.171 -1.0782 -1.1275  0.1582
 8735SOL     OW27254   2.309   4.273   4.613  0.1427 -0.1910 -0.6698
 8735SOL    HW127255   2.379   4.259   4.677  0.1200 -1.1845 -0.8397
 8735SOL    HW227256   2.234   4.299   4.666 -0.4444 -2.9241  0.0112
 8736SOL     OW27257   0.872   3.034   5.538 -0.3280 -0.7022 -0.4524
 8736SOL    HW127258   0.784   3.040   5.577 -0.0515  0.0142  0.0792
 8736SOL    HW227259   0.882   3.115   5.489 -0.2845 -1.1662 -1.2270
 8737SOL     OW27260   7.081   4.191   6.421 -0.7364  0.4472 -0.5692
 8737SOL    HW127261   6.994   4.168   6.454 -0.5152 -0.4204 -0.5525
 8737SOL    HW227262   7.073   4.281   6.391 -1.0742  1.0824  1.3569
 8738SOL     OW27263   4.882   0.605   2.721  0.6816  0.2989  0.0760
 8738SOL    HW127264   4.847   0.534   2.667  1.3280 -1.0052  1.2906
 8738SOL    HW227265   4.816   0.674   2.717 -1.1321 -1.3274  0.7798
 8739SOL     OW27266   7.878   7.604   1.346  0.0166  0.0531  0.5469
 8739SOL    HW127267   7.876   7.508   1.343 -0.5711  0.0615  0.5617
 8739SOL    HW227268   7.969   7.626   1.329 -0.0812 -0.4666 -0.7746
 8740SOL     OW27269   0.647   0.604   0.973  0.4553  0.6806 -0.2259
 8740SOL    HW127270   0.670   0.676   1.032  2.4075 -0.1976  0.1609
 8740SOL    HW227271   0.730   0.578   0.933 -0.4569 -0.3247 -1.5733
 8741SOL     OW27272   5.589   8.167   4.380  0.2638 -0.2532 -0.1453
 8741SOL    HW127273   5.537   8.247   4.372  1.5425  0.5423 -0.8632
 8741SOL    HW227274   5.526   8.099   4.402 -1.2592  0.4563 -2.0855
 8742SOL     OW27275   2.870   1.030   1.756 -0.3040  0.1295 -0.3155
 8742SOL    HW127276   2.816   1.108   1.765 -1.5699 -0.7670  0.0426
 8742SOL    HW227277   2.812   0.965   1.716  1.1562 -0.1988 -2.0404
 8743SOL     OW27278   6.880   3.117   5.801  0.3490 -0.1916 -0.2802
 8743SOL    HW127279   6.819   3.189   5.790 -0.0797 -0.2639  1.4554
 8743SOL    HW227280   6.952   3.154   5.853 -0.5315 -1.3052  1.8484
 8744SOL     OW27281   0.475   6.290   5.789 -0.3413 -0.7306 -0.3810
 8744SOL    HW127282   0.534   6.306   5.863 -1.1796  1.1513 -0.0488
 8744SOL    HW227283   0.478   6.372   5.739 -1.5115 -1.1595 -1.1881
 8745SOL     OW27284   7.230   1.188   4.906 -0.5267  0.4168 -0.0880
 8745SOL    HW127285   7.204   1.157   4.994 -0.7814  0.2874 -0.2057
 8745SOL    HW227286   7.205   1.280   4.905 -0.8586  0.3273 -0.1512
 8746SOL     OW27287   4.503   7.651   2.352  0.2276 -0.6900 -0.2521
 8746SOL    HW127288   4.459   7.736   2.348  2.6969  0.6504 -0.6118
 8746SOL    HW227289   4.453   7.601   2.417 -0.5780  1.4728  0.8935
 8747SOL     OW27290   1.439   3.790   5.066  0.5373  0.3076 -0.2832
 8747SOL    HW127291   1.521   3.830   5.094  1.7701 -2.4293  0.3200
 8747SOL    HW227292   1.401   3.755   5.147 -0.7845  0.7373 -0.6976
 8748SOL     OW27293   2.090   3.614   5.017  0.5603 -0.2812  0.2642
 8748SOL    HW127294   2.136   3.646   4.939 -0.8109  1.1684 -0.0005
 8748SOL    HW227295   2.006   3.582   4.983  1.2291 -2.7774  0.7532
 8749SOL     OW27296   1.250   1.445   1.510  0.5481 -0.0329  0.1917
 8749SOL    HW127297   1.170   1.407   1.473 -0.9444  2.7228  0.3243
 8749SOL    HW227298   1.280   1.508   1.445  2.1715 -0.4472  0.5076
 8750SOL     OW27299   1.436   7.554   3.130  0.0833 -0.0127  0.5315
 8750SOL    HW127300   1.409   7.472   3.088 -2.0289  1.2145 -0.7166
 8750SOL    HW227301   1.363   7.576   3.188  1.2165  0.3621  1.8808
 8751SOL     OW27302   0.893   2.992   2.118  0.1758 -0.5755  0.4621
 8751SOL    HW127303   0.822   3.050   2.147  1.1434  0.0679  1.6190
 8751SOL    HW227304   0.901   2.927   2.188  1.3973 -0.0309  0.8515
 8752SOL     OW27305   4.849   1.224   1.800  0.7773  0.1163 -0.0948
 8752SOL    HW127306   4.864   1.139   1.760  1.1828 -0.0515  0.4132
 8752SOL    HW227307   4.769   1.256   1.758 -0.6980 -1.5192  1.3373
 8753SOL     OW27308   3.266   0.085   0.815 -0.0785 -0.8180 -0.4046
 8753SOL    HW127309   3.297  -0.002   0.788  1.6458 -0.4149  0.1685
 8753SOL    HW227310   3.330   0.145   0.778 -0.2496  0.0861  0.7322
 8754SOL     OW27311   6.393   1.609   6.733 -0.4621 -1.0080 -0.5074
 8754SOL    HW127312   6.311   1.655   6.752  1.6991  3.1386 -0.2544
 8754SOL    HW227313   6.430   1.590   6.819  0.1805 -0.1766 -0.5923
 8755SOL     OW27314   3.003   5.120   4.383 -0.5350 -0.0911 -0.0355
 8755SOL    HW127315   2.930   5.119   4.444 -1.0849  1.9608 -0.5741
 8755SOL    HW227316   3.081   5.130   4.439 -0.7865 -0.8910  0.4633
 8756SOL     OW27317   6.285   0.984   2.672  0.2302 -0.2382  0.6282
 8756SOL    HW127318   6.373   0.961   2.703  0.3066  0.3638  0.8628
 8756SOL    HW227319   6.286   1.079   2.664  0.0573 -0.3377 -0.8090
 8757SOL     OW27320   8.200   0.281   0.704  0.5354  0.0252  0.3925
 8757SOL    HW127321   8.137   0.266   0.634  1.7652 -1.6183 -0.4255
 8757SOL    HW227322   8.241   0.365   0.682  0.3266 -0.0766 -0.3934
 8758SOL     OW27323   4.416   4.490   1.269  0.6910 -0.3315  0.0823
 8758SOL    HW127324   4.445   4.508   1.180  0.8770 -0.7620  0.0527
 8758SOL    HW227325   4.406   4.576   1.309 -0.2577 -0.1088 -0.6227
 8759SOL     OW27326   2.106   5.955   7.718 -0.9138 -0.0649  0.5938
 8759SOL    HW127327   2.081   6.029   7.774 -0.4388 -1.0054  2.0962
 8759SOL    HW227328   2.027   5.902   7.712 -1.2147  0.4814 -0.3694
 8760SOL     OW27329   0.971   5.049   4.996  0.1778  0.0067 -0.3134
 8760SOL    HW127330   0.943   4.982   4.934 -1.1084 -0.4653  0.7471
 8760SOL    HW227331   0.903   5.117   4.990 -0.9099 -0.8078  1.7422
 8761SOL     OW27332   0.304   7.269   0.889  0.2753  0.4998 -0.0473
 8761SOL    HW127333   0.234   7.312   0.938 -0.3268  0.1901 -0.6111
 8761SOL    HW227334   0.260   7.198   0.842  0.9089  0.5146 -0.6857
 8762SOL     OW27335   2.751   6.881   0.636  0.1448 -0.5964  0.4233
 8762SOL    HW127336   2.837   6.841   0.645  0.8380  0.9622  1.0544
 8762SOL    HW227337   2.769   6.973   0.616 -1.3755 -0.1061  1.1590
 8763SOL     OW27338   8.158   4.759   1.181 -0.5791  0.7408  0.3571
 8763SOL    HW127339   8.162   4.746   1.275  0.3164  1.7719  0.4781
 8763SOL    HW227340   8.241   4.724   1.148 -1.2620 -0.4633 -0.1887
 8764SOL     OW27341   1.787   8.269   1.719  0.3219  0.5799 -0.2148
 8764SOL    HW127342   1.705   8.220   1.714  0.7350 -0.0676 -1.0824
 8764SOL    HW227343   1.761   8.359   1.736 -0.7210  0.7354 -2.2828
 8765SOL     OW27344   6.631   3.679   2.442 -0.1156  0.1093 -0.0035
 8765SOL    HW127345   6.632   3.761   2.393  0.7532  1.0827  1.5530
 8765SOL    HW227346   6.693   3.693   2.514 -0.1061 -1.8427  0.4249
 8766SOL     OW27347   1.715   7.426   0.882 -0.3217  0.4190 -0.5190
 8766SOL    HW127348   1.656   7.423   0.958  0.1923  1.1289 -0.0773
 8766SOL    HW227349   1.773   7.501   0.899  0.0376  0.3709 -1.4416
 8767SOL     OW27350   0.640   3.745   5.530  0.3477  0.3955 -0.0573
 8767SOL    HW127351   0.619   3.805   5.458  1.0856 -0.2979 -0.8824
 8767SOL    HW227352   0.647   3.801   5.607  0.6188  1.3180 -0.7342
 8768SOL     OW27353   1.796   7.910   6.863 -0.1399  0.6880  0.1814
 8768SOL    HW127354   1.792   7.923   6.768 -0.2325  0.2299  0.1197
 8768SOL    HW227355   1.717   7.859   6.884  0.8873 -0.9773  0.1983
 8769SOL     OW27356   1.085   6.359   6.144 -0.1987 -0.1857 -0.1504
 8769SOL    HW127357   1.110   6.329   6.057  0.5438 -0.6597  0.2229
 8769SOL    HW227358   1.165   6.397   6.181 -0.4781 -0.0924  0.3752
 8770SOL     OW27359   5.993   6.083   5.555 -0.0854  0.0111  0.2795
 8770SOL    HW127360   6.037   6.168   5.546  0.4692 -0.2897  0.1311
 8770SOL    HW227361   5.912   6.103   5.602  0.1604  0.5864  0.4676
 8771SOL     OW27362   4.884   5.263   8.232 -0.4202  0.6025  0.1260
 8771SOL    HW127363   4.816   5.198   8.216  0.6681 -0.3848 -0.5891
 8771SOL    HW227364   4.836   5.342   8.258 -1.7724 -0.4167  0.8296
 8772SOL     OW27365   2.964   0.223   3.761 -0.3102  0.2398 -0.5650
 8772SOL    HW127366   2.883   0.221   3.812 -0.0479 -0.2991 -0.1660
 8772SOL    HW227367   2.957   0.147   3.703 -0.3254  0.4938 -0.8972
 8773SOL     OW27368   0.487   2.308   1.672 -0.1615  0.0033 -0.0544
 8773SOL    HW127369   0.430   2.383   1.690  0.5835  0.3166  1.1387
 8773SOL    HW227370   0.508   2.273   1.759  3.3499  1.3384 -0.1936
 8774SOL     OW27371   7.850   3.254   4.766  0.0322  0.1614  0.1069
 8774SOL    HW127372   7.833   3.191   4.696  2.5929 -1.1051  0.5110
 8774SOL    HW227373   7.854   3.339   4.721 -0.2569 -0.3841 -0.9844
 8775SOL     OW27374   4.928   1.265   7.089 -0.4400 -0.1432 -0.5272
 8775SOL    HW127375   4.941   1.257   6.995  0.7217 -0.2121 -0.3707
 8775SOL    HW227376   4.898   1.178   7.116  1.7137 -0.9292 -0.4715
 8776SOL     OW27377   4.820   3.846   5.526 -0.0547  0.6717 -0.1490
 8776SOL    HW127378   4.829   3.806   5.439 -0.7647 -0.4039  0.2690
 8776SOL    HW227379   4.839   3.939   5.510  0.1423  0.4443 -1.3977
 8777SOL     OW27380   2.050   6.388   7.328 -0.5407 -0.3720 -0.2335
 8777SOL    HW127381   2.000   6.326   7.275 -0.9585  1.3451 -1.9590
 8777SOL    HW227382   1.984   6.446   7.367 -0.1598 -0.9345  1.3289
 8778SOL     OW27383   1.046   4.446   4.922 -0.1982 -0.0412 -0.4085
 8778SOL    HW127384   1.057   4.404   5.007 -0.5437 -0.5893 -0.6255
 8778SOL    HW227385   1.101   4.394   4.862  1.9702  1.7566 -0.1192
 8779SOL     OW27386   3.714   7.274   5.407 -0.3302  0.1391  0.4765
 8779SOL    HW127387   3.802   7.240   5.423  0.3870  1.2254 -0.9586
 8779SOL    HW227388   3.657   7.198   5.418  0.9216 -0.8789  0.1691
 8780SOL     OW27389   1.385   7.954   4.941 -0.4962 -0.2694  0.0367
 8780SOL    HW127390   1.312   8.016   4.938 -0.3012 -0.0168  0.4610
 8780SOL    HW227391   1.371   7.898   4.865 -1.5854 -0.7343  0.5459
 8781SOL     OW27392   2.878   5.508   3.975 -0.4174  0.0156  0.1931
 8781SOL    HW127393   2.849   5.549   3.893 -0.0396  0.0071  0.0535
 8781SOL    HW227394   2.801   5.460   4.006 -0.2568 -0.8741 -0.7216
 8782SOL     OW27395   6.444   4.223   7.111  0.2045 -0.0928 -0.3823
 8782SOL    HW127396   6.350   4.227   7.092  0.1198  0.4599  0.1219
 8782SOL    HW227397   6.486   4.223   7.025 -0.2379  0.1905 -0.6050
 8783SOL     OW27398   6.937   1.143   7.185 -0.4071 -0.1338 -0.2664
 8783SOL    HW127399   6.895   1.227   7.165  0.6364  0.5519  0.3177
 8783SOL    HW227400   6.944   1.142   7.280  1.0075 -0.1435 -0.3455
 8784SOL     OW27401   6.125   5.030   0.957 -0.1576  0.0799  0.7700
 8784SOL    HW127402   6.144   4.958   0.897 -2.0356 -0.4501  0.7447
 8784SOL    HW227403   6.199   5.090   0.947 -1.0344  0.7932 -3.2669
 8785SOL     OW27404   2.735   2.479   1.014 -0.6337  0.1786  0.4487
 8785SOL    HW127405   2.825   2.451   1.030 -0.3459  0.0669 -1.1567
 8785SOL    HW227406   2.681   2.408   1.047  0.0839 -2.8354 -4.0415
 8786SOL     OW27407   0.672   1.439   1.476 -0.3075  0.0731 -0.6121
 8786SOL    HW127408   0.687   1.365   1.536 -1.0710  1.6013  1.5970
 8786SOL    HW227409   0.750   1.493   1.484 -0.5566  0.4567 -0.7195
 8787SOL     OW27410   3.533   0.315   5.592  0.0485 -0.3005  0.0484
 8787SOL    HW127411   3.591   0.240   5.576  0.1947  0.0288 -1.1041
 8787SOL    HW227412   3.583   0.390   5.561  0.4780  0.5016  2.5046
 8788SOL     OW27413   7.649   2.988   8.199 -0.6208 -0.1214 -0.2829
 8788SOL    HW127414   7.714   2.940   8.251 -1.1071 -1.1869 -0.6295
 8788SOL    HW227415   7.656   2.951   8.111 -1.3601  0.0899 -0.4376
 8789SOL     OW27416   0.437   4.880   5.835 -0.2698 -0.3003  0.2443
 8789SOL    HW127417   0.349   4.843   5.829 -0.8223  0.4752  2.4130
 8789SOL    HW227418   0.495   4.806   5.819 -1.3335 -1.2568  0.6384
 8790SOL     OW27419   0.601   5.129   5.389  0.5804 -0.0170 -0.3635
 8790SOL    HW127420   0.585   5.117   5.482  1.2377  0.1415 -0.2281
 8790SOL    HW227421   0.648   5.049   5.363  0.3302 -0.0965 -0.5772
 8791SOL     OW27422   4.989   5.066   5.252  0.1493  0.1249 -0.1651
 8791SOL    HW127423   4.901   5.104   5.257  0.0656 -0.2393  1.4456
 8791SOL    HW227424   4.977   4.975   5.280  0.9135 -0.1616 -0.7395
 8792SOL     OW27425   6.357   3.158   7.132 -0.1797  0.6657 -0.1101
 8792SOL    HW127426   6.451   3.144   7.138 -0.2257  0.4245  0.0856
 8792SOL    HW227427   6.331   3.114   7.051  0.0449  1.6994 -0.7723
 8793SOL     OW27428   1.285   5.223   5.634  0.6483  0.6071  0.3474
 8793SOL    HW127429   1.349   5.281   5.675  0.2977  0.3678  1.2465
 8793SOL    HW227430   1.204   5.238   5.683  0.1576  0.4904 -0.4153
 8794SOL     OW27431   4.331   5.521   3.283 -0.1902 -0.1015 -0.1773
 8794SOL    HW127432   4.409   5.576   3.271  0.4278 -1.1664 -1.4174
 8794SOL    HW227433   4.258   5.574   3.252  0.1723  0.5890  0.1419
 8795SOL     OW27434   5.542   4.087   6.553  0.1622  0.1160 -0.1335
 8795SOL    HW127435   5.565   4.045   6.470  1.2963  1.9295 -0.8046
 8795SOL    HW227436   5.510   4.174   6.527 -2.6886 -0.4324  1.1511
 8796SOL     OW27437   6.400   1.306   4.410  0.0169 -0.0734 -0.1769
 8796SOL    HW127438   6.375   1.361   4.484  0.6425  0.2789 -0.2225
 8796SOL    HW227439   6.495   1.314   4.405  0.0123 -0.3456 -0.8258
 8797SOL     OW27440   2.325   0.545   7.717 -0.7114 -0.4143 -0.1445
 8797SOL    HW127441   2.352   0.616   7.659 -0.1605 -0.6351 -0.1564
 8797SOL    HW227442   2.263   0.586   7.778 -0.0808  0.1684  0.1062
 8798SOL     OW27443   2.643   8.057   0.790  0.0546  0.0063 -0.2799
 8798SOL    HW127444   2.631   8.044   0.884  0.5846 -1.0360 -0.3386
 8798SOL    HW227445   2.598   8.139   0.771  0.3584  0.4818  0.9671
 8799SOL     OW27446   0.418   6.259   2.050  0.1850 -0.2886  0.0947
 8799SOL    HW127447   0.336   6.258   2.001 -0.6195  0.2610  1.3830
 8799SOL    HW227448   0.410   6.187   2.113  0.6277 -0.1433  0.3249
 8800SOL     OW27449   3.994   0.395   3.664 -0.2951  0.4594  0.0944
 8800SOL    HW127450   3.976   0.307   3.697  2.1923 -0.4063 -0.6349
 8800SOL    HW227451   3.938   0.453   3.716  0.3499 -1.2487  2.8570
 8801SOL     OW27452   1.658   0.917   5.398  0.3751  0.3824  0.0451
 8801SOL    HW127453   1.708   0.986   5.355  1.4824 -0.9078 -0.8063
 8801SOL    HW227454   1.700   0.906   5.483  0.6317  0.2869 -0.0937
 8802SOL     OW27455   6.746   5.381   7.285  0.4439 -0.0994 -0.0125
 8802SOL    HW127456   6.773   5.425   7.204  0.5417  0.3204  0.2425
 8802SOL    HW227457   6.704   5.300   7.256  0.3748  0.1039 -0.4874
 8803SOL     OW27458   0.499   3.971   7.727 -0.2517 -0.2164  0.3625
 8803SOL    HW127459   0.467   4.047   7.679 -0.1090 -0.1950  0.2990
 8803SOL    HW227460   0.594   3.973   7.714 -0.4031 -1.7206 -1.6203
 8804SOL     OW27461   2.570   2.362   3.294 -0.0667  0.4624 -0.4763
 8804SOL    HW127462   2.531   2.321   3.217  1.0357  1.7975 -1.8039
 8804SOL    HW227463   2.664   2.365   3.275  0.3518  0.1442  1.2767
 8805SOL     OW27464   6.308   6.686   6.576 -1.0173  0.0695  0.5360
 8805SOL    HW127465   6.336   6.714   6.489  0.0571  1.1214  1.1987
 8805SOL    HW227466   6.257   6.759   6.611  1.5279  1.2093  2.1477
 8806SOL     OW27467   3.122   1.246   0.611  0.3917 -0.7566 -0.4461
 8806SOL    HW127468   3.047   1.279   0.661  2.0384  1.7423  0.5436
 8806SOL    HW227469   3.140   1.314   0.546  2.0746 -1.1013 -0.3790
 8807SOL     OW27470   4.562   6.504   7.091  0.0915 -0.0623 -0.2244
 8807SOL    HW127471   4.523   6.544   7.169 -0.7219 -0.3337 -0.4816
 8807SOL    HW227472   4.581   6.414   7.117 -0.9741 -0.4079 -0.5802
 8808SOL     OW27473   5.579   4.930   5.579 -0.4176 -0.5450  0.4929
 8808SOL    HW127474   5.667   4.893   5.581  0.6924  1.7608 -1.1266
 8808SOL    HW227475   5.560   4.953   5.670  0.7758 -0.8492  0.8302
 8809SOL     OW27476   7.332   5.463   6.009 -0.1286  0.0841 -0.6092
 8809SOL    HW127477   7.395   5.430   5.945 -0.2724 -1.1493 -0.1416
 8809SOL    HW227478   7.385   5.482   6.087 -0.2914 -0.6600 -0.3174
 8810SOL     OW27479   3.632   3.527   6.406  0.1264  0.2103  0.4633
 8810SOL    HW127480   3.593   3.463   6.346  0.1206 -0.7225  1.4329
 8810SOL    HW227481   3.605   3.612   6.371  1.2020 -0.2328 -1.5986
 8811SOL     OW27482   2.463   1.271   6.730  0.3407 -0.2883  0.0534
 8811SOL    HW127483   2.369   1.268   6.709  0.3940 -0.8300 -0.1376
 8811SOL    HW227484   2.506   1.285   6.646  0.4556 -0.5758  0.0624
 8812SOL     OW27485   7.659   6.999   3.891  0.4408  0.2215 -0.1245
 8812SOL    HW127486   7.667   6.922   3.947 -0.7517 -0.6504 -1.1137
 8812SOL    HW227487   7.670   6.966   3.802  0.0149  1.2158 -0.5647
 8813SOL     OW27488   7.176   0.001   4.996  0.1566  0.2323 -0.2178
 8813SOL    HW127489   7.214   0.088   5.009 -1.3732  1.7065 -4.0596
 8813SOL    HW227490   7.200  -0.023   4.906 -2.9611 -1.3480 -0.7941
 8814SOL     OW27491   4.625   5.105   1.330 -0.4165 -0.1103  0.3106
 8814SOL    HW127492   4.541   5.129   1.292 -0.7441 -0.5365  0.7567
 8814SOL    HW227493   4.615   5.121   1.424  0.1241  0.1844  0.3257
 8815SOL     OW27494   6.222   1.235   1.654  0.1084 -0.0588 -0.7064
 8815SOL    HW127495   6.144   1.192   1.620 -0.0781  0.3212 -0.7645
 8815SOL    HW227496   6.295   1.180   1.624 -0.0760  0.0948 -1.4473
 8816SOL     OW27497   4.818   0.058   3.591  0.2149 -0.1404 -0.1181
 8816SOL    HW127498   4.754   0.121   3.556 -0.7541 -1.1338 -0.1745
 8816SOL    HW227499   4.902   0.091   3.560 -0.3177  0.8458 -0.5823
 8817SOL     OW27500   2.691   3.665   6.061  0.0836 -0.1325 -0.5533
 8817SOL    HW127501   2.731   3.738   6.108  0.5048 -1.6515  1.5779
 8817SOL    HW227502   2.695   3.691   5.969  0.4144  2.4073  0.0975
 8818SOL     OW27503   3.757   3.205   4.801 -0.4801  0.1452  0.1556
 8818SOL    HW127504   3.787   3.293   4.824 -0.5959  0.9994 -2.5936
 8818SOL    HW227505   3.753   3.206   4.705 -2.6920 -2.1422  0.1378
 8819SOL     OW27506   1.492   0.154   8.044 -0.2253  0.3130  0.2638
 8819SOL    HW127507   1.498   0.125   7.953  0.0127  1.6885 -0.1879
 8819SOL    HW227508   1.490   0.073   8.095  1.5264 -0.4828 -0.8323
 8820SOL     OW27509   7.686   6.924   7.886  0.1692 -0.2179  0.2443
 8820SOL    HW127510   7.674   6.925   7.981  1.6821  1.4068  0.4688
 8820SOL    HW227511   7.766   6.874   7.873  0.1151 -0.1983 -0.1535
 8821SOL     OW27512   2.564   6.565   2.858 -0.6377  0.5163 -0.3304
 8821SOL    HW127513   2.545   6.609   2.775 -0.5727  0.4745 -0.3676
 8821SOL    HW227514   2.500   6.494   2.862  0.0277 -0.1278 -0.8463
 8822SOL     OW27515   7.438   3.207   6.950 -0.5285 -0.2880  0.0673
 8822SOL    HW127516   7.358   3.229   6.999  0.1492  2.2634  0.1537
 8822SOL    HW227517   7.504   3.193   7.018 -0.0588  1.2972 -0.0271
 8823SOL     OW27518   5.505   5.200   2.000 -0.4772 -0.1898  0.0776
 8823SOL    HW127519   5.506   5.191   1.904 -0.8594  0.1314  0.0414
 8823SOL    HW227520   5.525   5.112   2.032 -0.1990 -0.2694 -0.2972
 8824SOL     OW27521   7.743   2.771   2.125 -0.1162 -0.4030  0.5608
 8824SOL    HW127522   7.687   2.694   2.133 -1.5694  0.7533  2.1864
 8824SOL    HW227523   7.698   2.826   2.060  1.8126 -1.5698 -1.9287
 8825SOL     OW27524   5.128   3.734   2.062 -0.2041 -0.2124  0.0663
 8825SOL    HW127525   5.154   3.800   2.126  0.2413 -0.4103  0.0963
 8825SOL    HW227526   5.036   3.751   2.046 -0.1776  0.2024  0.3293
 8826SOL     OW27527   3.273   0.910   5.459 -0.2533  0.4866  0.0910
 8826SOL    HW127528   3.324   0.843   5.413 -1.8674 -0.6406 -0.1511
 8826SOL    HW227529   3.229   0.862   5.530  0.7624  1.8539  1.7110
 8827SOL     OW27530   6.642   0.999   0.706  0.8527 -0.3856 -0.4549
 8827SOL    HW127531   6.647   0.909   0.738 -2.3377 -0.3811  0.3716
 8827SOL    HW227532   6.684   1.051   0.775  0.7926 -1.0442  0.0925
 8828SOL     OW27533   6.657   7.469   1.351  0.4124 -0.2292  0.0888
 8828SOL    HW127534   6.579   7.513   1.318 -0.9658 -1.5944  1.3807
 8828SOL    HW227535   6.707   7.537   1.396  0.1112  0.7003 -0.9459
 8829SOL     OW27536   3.255   7.303   1.075  0.1320  0.5941  0.3776
 8829SOL    HW127537   3.190   7.339   1.013  1.1554  1.9496  0.0332
 8829SOL    HW227538   3.320   7.373   1.084  1.4327 -0.6333  0.8916
 8830SOL     OW27539   7.713   3.345   0.408  0.1352 -0.4928 -0.8128
 8830SOL    HW127540   7.805   3.367   0.426  0.2658 -1.3642 -0.3673
 8830SOL    HW227541   7.669   3.358   0.492 -0.2582  0.3790 -1.1364
 8831SOL     OW27542   6.408   5.309   7.052  0.7084  0.3205 -0.3498
 8831SOL    HW127543   6.504   5.306   7.046  0.6536  0.6721 -1.5439
 8831SOL    HW227544   6.378   5.232   7.006  0.4523 -1.7047  2.8854
 8832SOL     OW27545   3.671   5.056   4.259 -0.4229  0.1923 -0.0324
 8832SOL    HW127546   3.702   5.089   4.174 -1.4303  1.3604  0.0284
 8832SOL    HW227547   3.583   5.023   4.241 -0.6194  0.3896  0.5432
 8833SOL     OW27548   5.948   2.139   5.283  0.5696 -0.0262  0.6186
 8833SOL    HW127549   6.005   2.206   5.246 -0.1709  0.4600  0.3340
 8833SOL    HW227550   5.888   2.116   5.211 -0.5114  0.5024  1.3248
 8834SOL     OW27551   5.052   0.243   2.935 -0.3126  0.1647 -0.0106
 8834SOL    HW127552   5.148   0.237   2.941 -0.2722  1.2894  0.9469
 8834SOL    HW227553   5.027   0.170   2.880  0.9970 -0.9524  0.7949
 8835SOL     OW27554   6.402   4.428   3.355 -0.2217 -0.4735 -0.6041
 8835SOL    HW127555   6.397   4.423   3.450  1.0328 -0.1546 -0.5105
 8835SOL    HW227556   6.424   4.339   3.327  2.1303 -0.0312 -0.3690
 8836SOL     OW27557   2.031   2.981   3.737  0.0370  0.1726  0.3658
 8836SOL    HW127558   2.026   3.019   3.824  0.8706  3.4634 -0.8699
 8836SOL    HW227559   1.957   3.020   3.690 -0.0692 -1.1000 -0.5648
 8837SOL     OW27560   7.589   6.153   3.901  0.2414  0.1182 -0.4934
 8837SOL    HW127561   7.644   6.110   3.836 -0.4235 -1.7057  0.1005
 8837SOL    HW227562   7.536   6.083   3.938 -1.1423  1.5181  0.2901
 8838SOL     OW27563   0.399   2.105   7.324  0.4012  0.2032  0.7283
 8838SOL    HW127564   0.440   2.171   7.268  0.5583  1.4374  2.2386
 8838SOL    HW227565   0.374   2.152   7.403 -4.7352 -0.2624 -0.2864
 8839SOL     OW27566   1.831   1.348   0.940 -0.1026 -0.5524  0.1232
 8839SOL    HW127567   1.909   1.301   0.913  0.7729  0.3991  0.9415
 8839SOL    HW227568   1.776   1.350   0.861  0.3328 -1.9213 -0.2316
 8840SOL     OW27569   0.185   1.563   0.230 -0.2589 -0.0592 -0.4619
 8840SOL    HW127570   0.222   1.634   0.282 -0.5115 -0.5347  0.3803
 8840SOL    HW227571   0.251   1.546   0.163  0.1868  0.3957 -0.1432
 8841SOL     OW27572   5.860   5.983   4.578  0.0781  0.2767 -0.1990
 8841SOL    HW127573   5.809   5.987   4.496 -2.3328 -1.1221  1.1097
 8841SOL    HW227574   5.831   6.061   4.627 -0.6710 -0.3819  0.4391
 8842SOL     OW27575   0.921   4.198   0.898 -0.4500 -0.2426  0.3648
 8842SOL    HW127576   0.871   4.177   0.818 -2.4117 -0.1892  1.5146
 8842SOL    HW227577   1.012   4.189   0.871 -1.0140  0.3565 -2.0598
 8843SOL     OW27578   3.214   5.222   1.687  0.7172  0.1081 -0.2825
 8843SOL    HW127579   3.185   5.133   1.705 -0.3329  0.5392  0.2485
 8843SOL    HW227580   3.309   5.216   1.684  0.6369 -1.1457 -0.9145
 8844SOL     OW27581   6.062   2.358   5.156  0.7008  0.1193  0.2872
 8844SOL    HW127582   5.996   2.419   5.122  0.1412  1.0028  2.7625
 8844SOL    HW227583   6.103   2.322   5.077 -1.5850  0.7745 -1.3413
 8845SOL     OW27584   8.023   5.823   0.317 -0.5361  0.5752  0.1510
 8845SOL    HW127585   8.077   5.866   0.250 -0.1308  1.5157  1.0409
 8845SOL    HW227586   8.010   5.734   0.285  0.1891  0.8197 -0.8604
 8846SOL     OW27587   0.814   5.844   6.535  0.0885 -0.2918  0.1661
 8846SOL    HW127588   0.773   5.917   6.581  2.0897  1.5430 -0.7771
 8846SOL    HW227589   0.760   5.830   6.458 -0.9873 -0.6596  0.9613
 8847SOL     OW27590   1.055   5.462   7.507  0.1641  0.0053  0.0327
 8847SOL    HW127591   1.120   5.445   7.439  1.7763  1.8249  1.0396
 8847SOL    HW227592   1.001   5.382   7.509  1.4130 -0.9458 -1.8655
 8848SOL     OW27593   3.373   6.338   2.308  0.1030 -0.0020  0.2269
 8848SOL    HW127594   3.440   6.351   2.374  0.4189  1.5373 -0.3639
 8848SOL    HW227595   3.376   6.417   2.254 -2.1578  0.0849  0.1465
 8849SOL     OW27596   5.041   3.546   5.993  0.2279  0.0251  1.1598
 8849SOL    HW127597   5.029   3.497   5.912 -0.9153 -1.1448  2.0118
 8849SOL    HW227598   5.018   3.636   5.970 -0.2792 -0.3246  0.2468
 8850SOL     OW27599   6.341   7.112   3.000 -0.3494 -0.2729  0.1304
 8850SOL    HW127600   6.407   7.055   2.960  0.0978  0.1424  0.2841
 8850SOL    HW227601   6.375   7.133   3.086 -1.9611 -2.3142  1.3536
 8851SOL     OW27602   7.141   3.175   4.467  0.3401 -0.1719  0.4944
 8851SOL    HW127603   7.228   3.142   4.489  1.0162  0.8663 -0.5416
 8851SOL    HW227604   7.154   3.267   4.447 -0.8554 -0.2092 -0.5817
 8852SOL     OW27605   7.044   4.907   4.222 -0.2969 -0.3538  0.1640
 8852SOL    HW127606   7.099   4.914   4.144 -1.6705  0.7952 -0.7588
 8852SOL    HW227607   7.103   4.875   4.290  0.8435 -1.8752 -1.4387
 8853SOL     OW27608   5.219   8.129   4.259  0.2594 -0.1130 -0.8203
 8853SOL    HW127609   5.286   8.197   4.263 -0.1451  0.2670 -0.3146
 8853SOL    HW227610   5.230   8.079   4.339  1.1928 -1.2782 -1.6442
 8854SOL     OW27611   4.367   0.586   3.331  0.0859 -0.0165 -0.0430
 8854SOL    HW127612   4.306   0.651   3.364  0.1378  0.6131 -1.1367
 8854SOL    HW227613   4.446   0.636   3.311  0.2604 -0.4797 -0.5311
 8855SOL     OW27614   4.862   5.081   0.250 -0.3211 -0.2816 -0.2613
 8855SOL    HW127615   4.901   5.100   0.335 -1.2957  1.2443 -0.1316
 8855SOL    HW227616   4.933   5.099   0.187  0.4696 -1.6216  0.1879
 8856SOL     OW27617   0.179   7.791   0.298 -0.2062  0.5887  0.7647
 8856SOL    HW127618   0.093   7.774   0.261 -0.1084 -1.1147  1.2268
 8856SOL    HW227619   0.164   7.797   0.393  0.2640 -0.4945  0.9245
 8857SOL     OW27620   4.294   4.555   6.353 -0.4746  0.0339  0.6355
 8857SOL    HW127621   4.284   4.555   6.448 -2.9944 -0.8025  0.4569
 8857SOL    HW227622   4.288   4.463   6.329 -1.9988  0.3671 -0.4387
 8858SOL     OW27623   4.151   7.931   6.180 -0.7733 -0.0114  0.3269
 8858SOL    HW127624   4.074   7.983   6.156 -0.9987 -0.1744  0.6809
 8858SOL    HW227625   4.208   7.935   6.104 -1.2200 -0.0499 -0.0139
 8859SOL     OW27626   1.472   6.764   5.767  0.3604 -0.3585 -0.2858
 8859SOL    HW127627   1.444   6.734   5.680 -0.2216 -1.3131  0.2203
 8859SOL    HW227628   1.423   6.710   5.828 -2.6801  3.2111  0.7896
 8860SOL     OW27629   5.819   6.893   8.134 -0.4509  0.4991  0.3171
 8860SOL    HW127630   5.750   6.960   8.135  0.5919  1.6342 -0.4960
 8860SOL    HW227631   5.855   6.898   8.046  0.4028 -0.3665  0.6088
 8861SOL     OW27632   2.148   8.193   2.388 -0.3797 -0.0734 -0.1999
 8861SOL    HW127633   2.174   8.169   2.299  0.7449  0.0124  0.0939
 8861SOL    HW227634   2.209   8.146   2.444 -0.2104  0.9234  0.4793
 8862SOL     OW27635   0.397   7.199   4.079  0.1006 -0.2570 -0.0818
 8862SOL    HW127636   0.352   7.126   4.038 -0.1013  0.0947 -0.4977
 8862SOL    HW227637   0.335   7.232   4.144  0.6574 -1.1983  0.9623
 8863SOL     OW27638   6.551   7.294   6.037  0.1820  0.2043  0.3957
 8863SOL    HW127639   6.627   7.332   5.994 -0.4132  1.4810  0.3943
 8863SOL    HW227640   6.485   7.364   6.034 -1.3228 -1.1696 -0.4550
 8864SOL     OW27641   2.744   8.255   1.954  1.2185 -0.6213  0.0037
 8864SOL    HW127642   2.763   8.275   2.046  0.9711  0.6491 -0.2040
 8864SOL    HW227643   2.681   8.322   1.927  0.6340 -1.4838 -0.8662
 8865SOL     OW27644   4.928   1.168   6.116 -0.5100 -0.8920  0.0906
 8865SOL    HW127645   4.946   1.209   6.201 -1.5640  0.2498 -0.2017
 8865SOL    HW227646   4.846   1.208   6.087 -0.1999 -1.2993 -1.4414
 8866SOL     OW27647   4.760   7.392   1.971 -0.4674  0.0795  0.0885
 8866SOL    HW127648   4.761   7.454   2.044 -0.5776  0.2644 -0.0651
 8866SOL    HW227649   4.828   7.328   1.993  1.7956  1.8788 -1.1248
 8867SOL     OW27650   1.736   0.710   0.119 -0.3503 -0.1887  0.3852
 8867SOL    HW127651   1.651   0.723   0.077 -0.2657 -0.0695  0.2529
 8867SOL    HW227652   1.764   0.623   0.091 -0.8225 -0.5826  1.1100
 8868SOL     OW27653   2.160   4.603   3.713 -0.1688 -0.3062  0.0476
 8868SOL    HW127654   2.084   4.593   3.655 -0.9103 -2.0411  1.2484
 8868SOL    HW227655   2.229   4.550   3.671 -0.4697 -0.9461  0.3597
 8869SOL     OW27656   5.241   1.553   3.413  0.2725  0.0177  0.7305
 8869SOL    HW127657   5.178   1.482   3.399  0.4912 -0.3562  1.5764
 8869SOL    HW227658   5.205   1.627   3.363 -1.3171  0.0930  1.8886
 8870SOL     OW27659   1.976   1.618   2.949  0.2811 -0.5055 -0.0739
 8870SOL    HW127660   1.977   1.714   2.957  0.1752 -0.5932  1.3201
 8870SOL    HW227661   2.060   1.591   2.986  0.1149 -0.9734 -0.0383
 8871SOL     OW27662   1.405   3.379   2.679 -0.2157 -0.0938  0.4969
 8871SOL    HW127663   1.408   3.419   2.766 -0.8192 -0.3309  0.6364
 8871SOL    HW227664   1.325   3.415   2.639  0.4745  0.6258 -0.2672
 8872SOL     OW27665   8.142   1.222   5.615 -0.5161 -0.7879  0.0319
 8872SOL    HW127666   8.199   1.154   5.651  0.2753  1.1226  2.6752
 8872SOL    HW227667   8.197   1.300   5.610 -2.2935  0.5967  0.6627
 8873SOL     OW27668   5.719   2.565   1.421  0.1873 -0.3473 -0.3855
 8873SOL    HW127669   5.724   2.630   1.351 -3.0728  2.0982  1.3646
 8873SOL    HW227670   5.768   2.605   1.494 -1.1469 -0.1651  0.4406
 8874SOL     OW27671   0.584   2.046   6.253  0.5799 -0.2346  0.3978
 8874SOL    HW127672   0.544   2.040   6.340  0.8675  0.6799  0.6076
 8874SOL    HW227673   0.511   2.060   6.193  0.1339 -2.9047  0.1802
 8875SOL     OW27674   4.358   7.456   4.699  0.2555 -0.2638 -0.4926
 8875SOL    HW127675   4.370   7.480   4.791  0.2477 -1.7218 -0.0829
 8875SOL    HW227676   4.338   7.538   4.655  1.6679  0.6910  0.5635
 8876SOL     OW27677   6.933   2.175   3.220 -0.2914 -0.0374  0.3445
 8876SOL    HW127678   7.029   2.174   3.229 -0.3775 -1.3112  1.4351
 8876SOL    HW227679   6.905   2.090   3.254 -1.8080  0.2357 -0.1561
 8877SOL     OW27680   4.045   4.484   0.008  0.0926 -0.0258 -0.6959
 8877SOL    HW127681   3.989   4.496  -0.068  1.2356  3.2017 -1.1766
 8877SOL    HW227682   3.993   4.516   0.082  0.6622  1.3878 -0.8884
 8878SOL     OW27683   0.329   7.920   2.261  0.2297 -0.3024  0.0608
 8878SOL    HW127684   0.317   7.984   2.192  2.1035 -1.5136 -1.4781
 8878SOL    HW227685   0.316   7.835   2.218  3.0612 -1.1812  0.7179
 8879SOL     OW27686   8.125   2.841   6.830  0.4914  0.4196 -0.0490
 8879SOL    HW127687   8.033   2.853   6.807  0.6925  0.7352 -0.7106
 8879SOL    HW227688   8.124   2.821   6.923 -0.0929  2.5718  0.4621
 8880SOL     OW27689   6.267   3.096   6.637 -0.2497 -0.4920 -0.3012
 8880SOL    HW127690   6.214   3.133   6.566 -1.7085 -1.5327  0.1887
 8880SOL    HW227691   6.286   3.007   6.608 -1.6677 -1.2595  0.9704
 8881SOL     OW27692   1.514   7.360   5.900  0.0726 -0.1359 -0.3190
 8881SOL    HW127693   1.556   7.414   5.833 -0.5939  1.0423  0.1794
 8881SOL    HW227694   1.421   7.379   5.890 -0.0597 -0.2289  0.6846
 8882SOL     OW27695   6.603   5.707   2.501 -0.0390  0.4309 -0.2898
 8882SOL    HW127696   6.677   5.768   2.509 -1.4304  2.2286 -0.5105
 8882SOL    HW227697   6.622   5.639   2.565  1.4895  1.1909  0.1242
 8883SOL     OW27698   7.490   7.192   3.577 -0.3586  0.2274 -0.5709
 8883SOL    HW127699   7.455   7.208   3.490 -0.2507  1.1885 -0.4406
 8883SOL    HW227700   7.581   7.166   3.563 -0.6411 -0.7035 -0.7999
 8884SOL     OW27701   0.604   8.159   8.239 -0.0030  0.2068 -0.1170
 8884SOL    HW127702   0.616   8.245   8.280 -0.4313 -0.3061  1.1404
 8884SOL    HW227703   0.518   8.165   8.196 -0.9382 -0.1945  1.6252
 8885SOL     OW27704   2.878   7.364   1.513  0.2836  0.5573 -0.5825
 8885SOL    HW127705   2.845   7.391   1.427  1.6595  2.0257 -0.6686
 8885SOL    HW227706   2.915   7.443   1.551 -2.2078  0.5160  2.3448
 8886SOL     OW27707   4.841   7.113   5.067  0.2881  0.0717 -0.4705
 8886SOL    HW127708   4.805   7.156   4.989  0.2515  0.5269 -0.2060
 8886SOL    HW227709   4.820   7.173   5.139  0.7204 -0.1295 -0.1764
 8887SOL     OW27710   4.946   6.701   4.530 -0.5514  0.1581  0.0315
 8887SOL    HW127711   5.025   6.648   4.540 -2.1164 -1.9882  1.9949
 8887SOL    HW227712   4.898   6.659   4.458 -1.9063 -1.3881  1.7460
 8888SOL     OW27713   4.439   5.674   6.730 -0.0025 -0.3970 -0.3587
 8888SOL    HW127714   4.440   5.612   6.803  1.0438  0.4782  0.4010
 8888SOL    HW227715   4.529   5.675   6.697 -0.3129 -0.2849 -1.2482
 8889SOL     OW27716   6.889   3.327   7.128 -0.3264 -0.1308  0.2467
 8889SOL    HW127717   6.912   3.238   7.101  2.2313  0.5112  0.0525
 8889SOL    HW227718   6.935   3.340   7.211  1.5562  1.8147 -0.9886
 8890SOL     OW27719   6.660   5.951   1.269  0.3446  0.6454  0.7111
 8890SOL    HW127720   6.704   5.877   1.309  1.3243  0.2122 -1.0503
 8890SOL    HW227721   6.603   5.913   1.202  0.5599  1.4343  0.0491
 8891SOL     OW27722   1.595   3.956   1.332  0.4126  0.2196  0.5041
 8891SOL    HW127723   1.649   4.034   1.322  1.5221 -0.5752  0.0051
 8891SOL    HW227724   1.595   3.916   1.244 -1.3952  0.4413  0.3659
 8892SOL     OW27725   7.851   4.825   4.103  0.6743  0.0205  0.1497
 8892SOL    HW127726   7.860   4.905   4.154 -0.2382 -0.0267  0.3984
 8892SOL    HW227727   7.941   4.803   4.076  1.2801 -0.3349  2.2895
 8893SOL     OW27728   2.269   6.072   3.827  0.2783 -0.4961  0.3447
 8893SOL    HW127729   2.187   6.060   3.876  1.0851 -0.2327  1.8234
 8893SOL    HW227730   2.334   6.026   3.879  1.0463 -0.9126 -0.9475
 8894SOL     OW27731   3.975   1.637   8.105 -0.5286  0.0514 -0.2195
 8894SOL    HW127732   4.015   1.704   8.160 -0.0592  0.2827 -0.8290
 8894SOL    HW227733   3.902   1.682   8.061  0.5153  0.5198 -1.5454
 8895SOL     OW27734   6.594   1.439   1.607  0.0867 -0.0213 -0.5491
 8895SOL    HW127735   6.550   1.363   1.569 -0.3792  0.2944 -0.6598
 8895SOL    HW227736   6.665   1.403   1.659 -0.2773 -0.5414 -0.4080
 8896SOL     OW27737   3.141   1.116   5.690 -0.2585  0.3191 -0.0096
 8896SOL    HW127738   3.077   1.072   5.635 -0.4037  0.5276 -0.0077
 8896SOL    HW227739   3.123   1.083   5.778 -0.8973  0.9842  0.1214
 8897SOL     OW27740   0.531   0.805   7.060  0.1788 -0.0033  0.3543
 8897SOL    HW127741   0.577   0.819   6.977 -2.3367  0.8339 -1.0153
 8897SOL    HW227742   0.481   0.724   7.047 -1.2203  0.7935  0.5120
 8898SOL     OW27743   0.046   6.242   2.685  0.1367  0.3643  0.1164
 8898SOL    HW127744  -0.006   6.178   2.733  1.5203  0.6802  2.1813
 8898SOL    HW227745   0.011   6.240   2.596 -2.8932  0.0461  1.1782
 8899SOL     OW27746   3.436   1.325   0.415  1.2114  0.0482  0.1289
 8899SOL    HW127747   3.434   1.264   0.489  0.3325 -0.2009 -0.0866
 8899SOL    HW227748   3.365   1.388   0.434 -0.1062 -0.9442 -1.2585
 8900SOL     OW27749   5.234   1.694   4.289  0.1411 -0.2614 -0.1058
 8900SOL    HW127750   5.247   1.757   4.218  1.1919  1.1381  1.2398
 8900SOL    HW227751   5.143   1.705   4.315  0.4321  1.1403  0.4392
 8901SOL     OW27752   3.731   3.545   3.376 -0.9003  0.7278 -0.2140
 8901SOL    HW127753   3.671   3.481   3.337 -0.1373  0.2369 -0.6019
 8901SOL    HW227754   3.766   3.594   3.301  0.2364  0.0749 -0.1256
 8902SOL     OW27755   0.664   4.429   1.840 -0.0384 -0.0507  0.4713
 8902SOL    HW127756   0.577   4.430   1.800 -0.2029  0.8353  0.8261
 8902SOL    HW227757   0.709   4.504   1.800  0.5387 -0.4672  0.3352
 8903SOL     OW27758   5.214   6.743   5.789 -0.5169  0.5713  0.6792
 8903SOL    HW127759   5.294   6.795   5.781  0.4358 -0.5595  2.2566
 8903SOL    HW227760   5.226   6.670   5.729  0.1262 -0.1555  1.6705
 8904SOL     OW27761   0.212   3.254   8.192 -0.1884  0.4695  0.5447
 8904SOL    HW127762   0.260   3.297   8.122  0.7886 -0.5349  0.5785
 8904SOL    HW227763   0.279   3.216   8.248 -0.9921  0.1622  1.3207
 8905SOL     OW27764   3.122   2.831   2.627 -0.0737  0.0265  0.0987
 8905SOL    HW127765   3.073   2.792   2.555 -0.1356  0.3380 -0.0281
 8905SOL    HW227766   3.214   2.812   2.606 -0.1315 -0.5371  0.3258
 8906SOL     OW27767   4.005   1.231   7.560  0.5522  0.5989  0.3214
 8906SOL    HW127768   3.997   1.320   7.526  1.5695  1.0371  1.1498
 8906SOL    HW227769   3.920   1.192   7.545  0.6390  1.0830 -1.7462
 8907SOL     OW27770   3.088   2.450   1.832 -0.2610  0.1529  0.0780
 8907SOL    HW127771   3.162   2.419   1.883 -0.8699  0.1142  0.9623
 8907SOL    HW227772   3.021   2.472   1.897 -0.9280  0.4438 -0.6835
 8908SOL     OW27773   6.599   0.028   2.170 -0.0624  0.3217 -0.2994
 8908SOL    HW127774   6.558  -0.054   2.143  1.2605  0.2525 -2.3267
 8908SOL    HW227775   6.534   0.096   2.150 -0.1736 -0.0122 -1.0961
 8909SOL     OW27776   3.590   3.309   2.940  0.2524 -0.2092  0.0546
 8909SOL    HW127777   3.556   3.373   2.877  0.9221  1.1474  1.0211
 8909SOL    HW227778   3.652   3.257   2.889 -2.4716 -2.1764 -1.5263
 8910SOL     OW27779   7.788   4.939   2.916  0.1011 -0.0789  0.3028
 8910SOL    HW127780   7.854   4.995   2.875  1.2659 -1.6184 -0.0247
 8910SOL    HW227781   7.834   4.897   2.988 -0.1285 -2.0988 -0.6635
 8911SOL     OW27782   4.784   0.922   0.482 -0.4640 -0.2512 -0.2138
 8911SOL    HW127783   4.779   0.832   0.516  1.9142 -1.0305 -1.6993
 8911SOL    HW227784   4.841   0.968   0.543 -1.4908  0.2264  0.4137
 8912SOL     OW27785   7.365   2.697   4.027 -0.0044 -0.4437 -0.0826
 8912SOL    HW127786   7.354   2.602   4.017  0.2834 -0.5509  0.5360
 8912SOL    HW227787   7.440   2.706   4.085  0.2616  0.1788 -0.5144
 8913SOL     OW27788   4.929   1.096   5.191 -0.0436 -0.4748  0.3872
 8913SOL    HW127789   4.960   1.127   5.106 -0.0321 -0.3873  0.4227
 8913SOL    HW227790   4.896   1.175   5.234  1.1595 -0.2759  0.9910
 8914SOL     OW27791   2.480   3.602   1.533  0.0214 -0.0833 -0.0928
 8914SOL    HW127792   2.547   3.671   1.526 -0.6167  0.5820  0.1604
 8914SOL    HW227793   2.529   3.520   1.529  1.0950  0.3682  2.0548
 8915SOL     OW27794   4.312   1.994   7.311 -0.4285  0.0418 -0.2949
 8915SOL    HW127795   4.337   1.910   7.350 -0.3028  0.7149  1.1281
 8915SOL    HW227796   4.353   1.993   7.224 -0.2637 -1.2736 -0.2287
 8916SOL     OW27797   2.909   2.343   3.691 -0.1737  0.6564  0.8260
 8916SOL    HW127798   2.838   2.405   3.705 -0.5344  0.6130 -0.6638
 8916SOL    HW227799   2.870   2.258   3.709 -0.8484  0.5338 -0.9550
 8917SOL     OW27800   4.010   1.871   8.243 -0.2095  0.0569  0.1439
 8917SOL    HW127801   4.064   1.950   8.237 -0.3870  0.0959 -2.2207
 8917SOL    HW227802   3.936   1.896   8.297 -0.5302  1.7418 -0.9971
 8918SOL     OW27803   6.404   4.552   1.663 -0.4842  0.0150 -0.0277
 8918SOL    HW127804   6.429   4.539   1.755 -0.1820  0.5021 -0.0373
 8918SOL    HW227805   6.470   4.613   1.629  0.1146 -1.0955 -0.9028
 8919SOL     OW27806   6.221   7.119   4.637 -0.0222 -0.3761  0.0144
 8919SOL    HW127807   6.141   7.168   4.657  0.0781 -0.0604 -0.3348
 8919SOL    HW227808   6.262   7.103   4.722 -1.9629 -3.2256  0.5295
 8920SOL     OW27809   4.561   4.081   1.346  0.0523  0.8669  0.6025
 8920SOL    HW127810   4.572   4.145   1.416  1.1216  1.2224  0.1259
 8920SOL    HW227811   4.513   4.128   1.277 -0.5920  0.6543  0.8939
 8921SOL     OW27812   4.590   7.949   2.269  1.0331 -0.2271 -0.1431
 8921SOL    HW127813   4.573   7.934   2.176 -0.0320 -2.4740  0.3407
 8921SOL    HW227814   4.673   7.904   2.286  1.1011 -0.0364  0.0347
 8922SOL     OW27815   5.380   7.324   5.639 -0.3376 -0.2579  0.3122
 8922SOL    HW127816   5.465   7.368   5.646 -0.4197 -0.3367  3.2890
 8922SOL    HW227817   5.398   7.245   5.588  0.9863  0.5546 -0.5327
 8923SOL     OW27818   0.794   1.736   4.882  0.2384 -0.6187 -0.6135
 8923SOL    HW127819   0.803   1.766   4.973 -0.2393 -0.8354 -0.4887
 8923SOL    HW227820   0.811   1.642   4.886  0.5171 -0.5763 -0.7995
 8924SOL     OW27821   7.442   3.296   2.038 -0.0157 -0.0391  0.7187
 8924SOL    HW127822   7.358   3.322   2.078  1.0463 -0.7029  3.6116
 8924SOL    HW227823   7.423   3.213   1.995 -0.8736 -0.1278  1.2347
 8925SOL     OW27824   0.554   3.795   6.453 -0.2122 -0.5875 -0.2721
 8925SOL    HW127825   0.489   3.726   6.440 -0.1376 -1.0946  1.7427
 8925SOL    HW227826   0.601   3.769   6.532  0.9725  0.9199 -0.4291
 8926SOL     OW27827   4.842   3.279   0.906  0.1736  0.4035  0.1663
 8926SOL    HW127828   4.828   3.372   0.891 -0.3173  0.2420 -0.4213
 8926SOL    HW227829   4.910   3.275   0.973 -1.0435  1.1981  1.4844
 8927SOL     OW27830   3.309   6.563   7.112 -0.9202 -0.0192  0.0495
 8927SOL    HW127831   3.368   6.487   7.111 -0.0806  0.4840  3.0164
 8927SOL    HW227832   3.226   6.528   7.079 -0.6793 -2.3621  1.6516
 8928SOL     OW27833   2.231   7.599   5.878  0.1244 -0.1381  0.2337
 8928SOL    HW127834   2.139   7.576   5.888 -0.3457  1.2968 -0.6267
 8928SOL    HW227835   2.238   7.686   5.917  0.7921  0.3906 -1.0227
 8929SOL     OW27836   0.968   5.943   2.163 -0.1152 -0.0395  0.2166
 8929SOL    HW127837   0.903   5.886   2.205  0.3035  0.8303  2.1312
 8929SOL    HW227838   0.928   6.030   2.164  0.2756  0.1507 -0.4025
 8930SOL     OW27839   0.717   7.598   0.027 -0.0872  0.1662 -0.3884
 8930SOL    HW127840   0.760   7.677   0.060 -1.9234  0.6886  0.8813
 8930SOL    HW227841   0.763   7.526   0.071 -1.1624  0.7597  1.8457
 8931SOL     OW27842   3.449   3.870   5.327 -0.0427  0.4261 -0.5159
 8931SOL    HW127843   3.412   3.856   5.240  0.0341 -3.5982 -0.0648
 8931SOL    HW227844   3.372   3.877   5.384 -0.1697 -1.1816 -0.4411
 8932SOL     OW27845   0.548   3.813   3.661  0.2186 -0.0471 -0.1265
 8932SOL    HW127846   0.499   3.762   3.597 -0.1809 -0.4967  0.5204
 8932SOL    HW227847   0.521   3.777   3.746  2.0960 -0.7296  0.2456
 8933SOL     OW27848   0.564   1.463   8.042  0.0605 -0.1046  0.1324
 8933SOL    HW127849   0.542   1.437   8.132 -1.1942  0.4544  0.0136
 8933SOL    HW227850   0.490   1.517   8.014  1.5684  1.8110 -0.3788
 8934SOL     OW27851   0.702   4.148   7.648  0.5485  0.1712  0.0259
 8934SOL    HW127852   0.617   4.190   7.655  1.1455  1.8228 -1.7816
 8934SOL    HW227853   0.759   4.196   7.708  0.8750  0.9994 -0.9285
 8935SOL     OW27854   5.783   6.197   2.960  0.6108 -0.0124  0.4317
 8935SOL    HW127855   5.727   6.122   2.981 -1.7273  1.7279  0.7384
 8935SOL    HW227856   5.871   6.160   2.957 -0.4704 -2.8405  0.1778
 8936SOL     OW27857   7.561   4.840   4.160  0.1686  0.4746 -0.2606
 8936SOL    HW127858   7.498   4.870   4.094  0.8128  1.7500 -0.3396
 8936SOL    HW227859   7.645   4.840   4.114  1.0596  3.7270  1.0549
 8937SOL     OW27860   4.764   4.952   6.328  0.8438 -0.4362 -0.8756
 8937SOL    HW127861   4.755   5.044   6.350  0.8943 -0.7896  0.7419
 8937SOL    HW227862   4.692   4.934   6.268 -2.1404 -0.3533  2.3250
 8938SOL     OW27863   8.267   8.132   6.891  0.4361 -0.5028 -0.3172
 8938SOL    HW127864   8.179   8.142   6.927  0.6787 -1.0077  0.4480
 8938SOL    HW227865   8.316   8.206   6.926  0.0849  0.3403 -1.5391
 8939SOL     OW27866   7.905   7.550   4.043  0.1559  0.0483  0.3789
 8939SOL    HW127867   7.899   7.645   4.039 -1.3564 -0.0255  0.4292
 8939SOL    HW227868   7.814   7.520   4.048  0.5143 -1.4895 -1.3108
 8940SOL     OW27869   5.943   7.201   3.907  0.1592 -0.4798  0.1975
 8940SOL    HW127870   5.889   7.251   3.846 -1.2242 -2.0105  0.0986
 8940SOL    HW227871   5.909   7.224   3.993  0.3747 -0.3102  0.2399
 8941SOL     OW27872   5.654   5.929   7.783  0.1138 -0.3120  0.0520
 8941SOL    HW127873   5.696   6.015   7.779 -0.8894  0.2515  1.0988
 8941SOL    HW227874   5.726   5.867   7.788  0.8703  0.6535  2.2505
 8942SOL     OW27875   0.690   0.204   3.659  0.2488  0.3532  0.6230
 8942SOL    HW127876   0.740   0.171   3.733 -0.0246  0.4950  0.8714
 8942SOL    HW227877   0.732   0.286   3.635  0.6189  0.0821  0.3266
 8943SOL     OW27878   3.152   7.451   6.345  0.2373  0.0224 -0.0557
 8943SOL    HW127879   3.213   7.439   6.417 -0.9869 -0.0439  0.9972
 8943SOL    HW227880   3.138   7.546   6.341 -0.9298 -0.0973  0.8653
 8944SOL     OW27881   0.507   0.522   6.363 -0.1762  0.4531 -0.0080
 8944SOL    HW127882   0.495   0.615   6.345 -0.6048  0.3866 -0.0774
 8944SOL    HW227883   0.479   0.511   6.454  0.0736  0.4265  0.0680
 8945SOL     OW27884   2.649   6.032   3.718 -0.1959  0.2889  0.6005
 8945SOL    HW127885   2.614   6.048   3.805 -0.3018  0.3031  0.5554
 8945SOL    HW227886   2.742   6.015   3.732 -0.0664  1.0182  0.6377
 8946SOL     OW27887   8.259   7.575   2.930  0.7590  0.0782  0.0831
 8946SOL    HW127888   8.297   7.655   2.892 -0.7440 -0.4151 -2.6815
 8946SOL    HW227889   8.178   7.605   2.972  0.5253  0.0964 -0.3817
 8947SOL     OW27890   6.586   2.816   1.762 -0.2727  0.3035 -0.0412
 8947SOL    HW127891   6.572   2.857   1.677 -0.8200  0.8140  0.2893
 8947SOL    HW227892   6.504   2.828   1.809 -0.0519 -0.1682  0.4829
 8948SOL     OW27893   3.289   2.414   2.049  0.2833  0.0223 -0.0195
 8948SOL    HW127894   3.298   2.321   2.072 -1.3519  0.3270  2.2263
 8948SOL    HW227895   3.242   2.452   2.123  2.2051  2.9958 -0.1592
 8949SOL     OW27896   3.011   1.883   8.144 -0.1082 -0.3957 -0.3595
 8949SOL    HW127897   3.029   1.962   8.196  0.3166 -1.1099  0.6116
 8949SOL    HW227898   2.949   1.912   8.077 -2.8676 -0.0049  2.1866
 8950SOL     OW27899   4.150   1.622   5.033  0.3379 -0.2134 -0.0510
 8950SOL    HW127900   4.060   1.611   5.062  0.7766 -2.4812  0.6494
 8950SOL    HW227901   4.188   1.535   5.038  1.9829  0.2674 -2.4556
 8951SOL     OW27902   6.414   7.657   1.212  0.3067 -0.2330 -0.4084
 8951SOL    HW127903   6.419   7.691   1.301  2.1697  1.0221 -0.9375
 8951SOL    HW227904   6.443   7.729   1.157 -2.6949 -0.3176 -2.2681
 8952SOL     OW27905   2.499   7.016   1.289 -0.2178  0.0505 -0.2049
 8952SOL    HW127906   2.431   7.033   1.354  0.3399  0.9356  0.1595
 8952SOL    HW227907   2.459   6.954   1.228 -0.6065 -1.1420  1.2001
 8953SOL     OW27908   3.042   8.254   6.185  0.0720 -0.1049  0.1471
 8953SOL    HW127909   3.122   8.201   6.183  0.5205  0.4799  1.3179
 8953SOL    HW227910   3.006   8.240   6.273 -0.9089 -0.0617 -0.2358
 8954SOL     OW27911   8.229   7.512   1.191  0.0345  0.3638 -0.1273
 8954SOL    HW127912   8.145   7.533   1.150 -1.8894 -1.1183  2.7092
 8954SOL    HW227913   8.229   7.561   1.273  0.0961 -2.4367  1.7149
 8955SOL     OW27914   5.702   6.834   1.930 -0.3666 -0.7849 -0.2563
 8955SOL    HW127915   5.754   6.762   1.965  0.6858  0.2111  0.3236
 8955SOL    HW227916   5.686   6.891   2.005  0.3595  0.4705 -0.9992
 8956SOL     OW27917   7.354   3.160   3.663 -0.1801  0.1027 -0.2374
 8956SOL    HW127918   7.324   3.237   3.615  1.8134  2.0465  1.3946
 8956SOL    HW227919   7.413   3.116   3.603  1.7168  2.0998  0.0174
 8957SOL     OW27920   5.494   5.929   7.042  0.0113 -0.3203 -0.0590
 8957SOL    HW127921   5.456   6.017   7.039 -1.0104 -0.7396  0.1213
 8957SOL    HW227922   5.579   5.941   7.083 -0.2609  0.5386  0.2874
 8958SOL     OW27923   5.025   1.562   5.094 -0.6493 -0.2151 -0.1670
 8958SOL    HW127924   5.067   1.630   5.042  2.1655 -0.1033  2.0000
 8958SOL    HW227925   5.065   1.570   5.181 -2.4513 -2.6880  1.0203
 8959SOL     OW27926   1.922   1.558   7.425  0.4364  0.7224 -0.0548
 8959SOL    HW127927   2.014   1.552   7.452  0.1844 -2.1121  0.4986
 8959SOL    HW227928   1.877   1.590   7.502  0.6823 -0.1696  0.4738
 8960SOL     OW27929   1.866   4.786   3.436 -0.0984 -0.0967  0.5482
 8960SOL    HW127930   1.899   4.705   3.476  1.1748 -0.4595 -1.1412
 8960SOL    HW227931   1.943   4.841   3.426 -0.9386  1.3378  1.5905
 8961SOL     OW27932   3.273   1.060   7.948 -0.5290  0.1468 -0.0292
 8961SOL    HW127933   3.246   1.150   7.966  0.3839  0.5496 -0.6211
 8961SOL    HW227934   3.361   1.067   7.911 -0.1911 -1.0370  0.4776
 8962SOL     OW27935   6.403   5.225   2.119  0.0885 -0.6080  0.9497
 8962SOL    HW127936   6.370   5.154   2.063  0.8752 -1.4846  1.5735
 8962SOL    HW227937   6.343   5.226   2.194 -2.5191  2.2111 -0.9356
 8963SOL     OW27938   3.409   5.043   4.209 -0.3779 -0.1817  0.5703
 8963SOL    HW127939   3.370   5.084   4.131  1.2014 -0.4071 -0.3659
 8963SOL    HW227940   3.341   4.983   4.241 -1.3723  0.5513 -0.1062
 8964SOL     OW27941   3.437   4.654   0.496  0.3554 -0.6343  0.3174
 8964SOL    HW127942   3.437   4.739   0.540 -0.2983 -2.3258  3.9390
 8964SOL    HW227943   3.527   4.621   0.508  0.2744 -0.9561  0.0565
 8965SOL     OW27944   1.365   3.942   4.158 -0.5381  0.5238  0.1374
 8965SOL    HW127945   1.368   4.015   4.220 -1.9383  1.4142 -0.7896
 8965SOL    HW227946   1.322   3.978   4.080 -0.1299 -0.9588 -0.8124
 8966SOL     OW27947   0.366   0.632   6.924 -0.0143  0.0488  0.2250
 8966SOL    HW127948   0.324   0.675   6.850  1.9340  1.0462 -0.3794
 8966SOL    HW227949   0.415   0.559   6.884  2.4678  1.6214  0.1855
 8967SOL     OW27950   3.921   7.897   6.973  0.5428  0.5819 -0.3396
 8967SOL    HW127951   3.995   7.858   7.020 -0.0658  0.5273  0.5887
 8967SOL    HW227952   3.874   7.948   7.039 -1.1134 -0.6116 -0.5255
 8968SOL     OW27953   2.144   2.250   5.515  0.2847 -0.1381 -0.5488
 8968SOL    HW127954   2.122   2.157   5.505 -1.6613  0.3838 -1.4297
 8968SOL    HW227955   2.140   2.266   5.609 -0.5349 -0.6756 -0.4879
 8969SOL     OW27956   2.304   0.510   0.340 -0.6816 -0.1992  0.6318
 8969SOL    HW127957   2.227   0.548   0.297  0.3429  1.5726  0.2363
 8969SOL    HW227958   2.377   0.563   0.309  0.5970 -1.2947  1.6470
 8970SOL     OW27959   1.193   3.481   4.063  0.7580 -0.2492  0.0404
 8970SOL    HW127960   1.170   3.491   3.971 -0.8774  1.3452  0.5670
 8970SOL    HW227961   1.260   3.547   4.079  1.5999 -1.0345 -0.1500
 8971SOL     OW27962   6.868   0.552   7.201 -0.5964  0.3966 -0.1482
 8971SOL    HW127963   6.795   0.541   7.261 -2.0550  1.7860 -1.5691
 8971SOL    HW227964   6.920   0.622   7.239 -0.7434  0.3313  0.1781
 8972SOL     OW27965   3.940   6.543   4.428  0.5871  0.6980  0.0012
 8972SOL    HW127966   3.934   6.624   4.480  1.4872  0.5687  0.3254
 8972SOL    HW227967   3.953   6.573   4.338 -2.7243  0.9665 -0.5096
 8973SOL     OW27968   6.245   0.429   6.010  0.1680  0.4585  0.0895
 8973SOL    HW127969   6.189   0.491   5.964  1.3415  0.7758 -0.9548
 8973SOL    HW227970   6.318   0.482   6.043  0.4869 -0.1445  0.3745
 8974SOL     OW27971   1.305   1.432   2.415  0.3197  0.1991 -0.2893
 8974SOL    HW127972   1.286   1.523   2.435  1.0093  0.0957  0.9529
 8974SOL    HW227973   1.348   1.435   2.329 -1.4827  0.8091 -1.2129
 8975SOL     OW27974   4.115   6.356   0.715  0.3658 -1.0341 -0.0837
 8975SOL    HW127975   4.192   6.300   0.729  0.5656 -1.0837 -1.2912
 8975SOL    HW227976   4.143   6.442   0.746  1.2543 -0.8365 -1.3392
 8976SOL     OW27977   1.042   5.589   4.334 -1.2733 -0.0627  0.2496
 8976SOL    HW127978   1.002   5.651   4.274  1.2249  0.0458 -1.4810
 8976SOL    HW227979   0.988   5.510   4.328 -1.8908  0.4422 -1.0318
 8977SOL     OW27980   6.137   0.047   3.984  0.3523  0.6540 -0.1150
 8977SOL    HW127981   6.156   0.055   3.891  0.0561  0.7219 -0.1726
 8977SOL    HW227982   6.100  -0.041   3.993  0.7328  0.5067  0.0009
 8978SOL     OW27983   3.588   6.910   4.035  0.0367  0.6193 -0.1070
 8978SOL    HW127984   3.630   6.904   4.121 -0.6935  0.8062  0.2689
 8978SOL    HW227985   3.595   6.821   3.999  0.2682  0.5183  0.1776
 8979SOL     OW27986   1.170   7.749   2.281 -0.0715  0.5989  0.0685
 8979SOL    HW127987   1.170   7.703   2.198 -0.9845 -1.4003  1.1020
 8979SOL    HW227988   1.243   7.712   2.330 -0.4753  0.6251  0.7168
 8980SOL     OW27989   2.729   8.234   1.312  0.3738  0.0852  0.4644
 8980SOL    HW127990   2.805   8.281   1.278  0.2239 -0.2805 -0.4024
 8980SOL    HW227991   2.660   8.252   1.248 -0.6235  1.4045  1.8636
 8981SOL     OW27992   3.116   2.985   1.313  0.2498 -0.5215  0.0449
 8981SOL    HW127993   3.063   2.931   1.371  0.6431  0.2831  1.1889
 8981SOL    HW227994   3.054   3.050   1.279  0.4589  0.3794  1.3315
 8982SOL     OW27995   6.592   7.481   3.919 -0.1039  0.0518 -0.4158
 8982SOL    HW127996   6.496   7.478   3.922 -0.1366  0.9899 -0.3327
 8982SOL    HW227997   6.618   7.507   4.008  0.2135  0.0868 -0.5186
 8983SOL     OW27998   5.393   2.134   6.071  0.1158  0.2739  0.0512
 8983SOL    HW127999   5.306   2.153   6.107  0.4926  2.3050  0.0204
 8983SOL    HW228000   5.382   2.142   5.976  0.8364  3.4893  0.1057
 8984SOL     OW28001   6.999   6.664   7.300 -0.3626  0.2242  1.0577
 8984SOL    HW128002   6.994   6.735   7.363 -0.6495  0.1672  1.1004
 8984SOL    HW228003   7.026   6.706   7.218 -3.6229  0.9739  0.1952
 8985SOL     OW28004   0.588   4.515   3.023  0.0203 -0.2174  0.2154
 8985SOL    HW128005   0.674   4.482   2.996 -0.2932 -0.3749 -0.6117
 8985SOL    HW228006   0.549   4.549   2.943 -0.2797  0.7990  0.7775
 8986SOL     OW28007   3.782   0.948   1.151  0.0866 -0.0010  0.6200
 8986SOL    HW128008   3.871   0.920   1.133  0.3680  1.0021  0.4002
 8986SOL    HW228009   3.748   0.883   1.213  1.2706  0.1210  1.4166
 8987SOL     OW28010   1.247   7.520   1.280 -0.4509  0.4586 -0.3085
 8987SOL    HW128011   1.281   7.552   1.196  0.1127 -0.9166 -0.6462
 8987SOL    HW228012   1.153   7.509   1.265 -0.3848  0.4023 -0.7020
 8988SOL     OW28013   4.450   0.409   7.033 -0.8514 -0.4357  0.4413
 8988SOL    HW128014   4.382   0.387   7.096 -0.6880 -3.3845 -0.2691
 8988SOL    HW228015   4.468   0.327   6.987  3.2931  0.0952  0.6922
 8989SOL     OW28016   2.274   8.248   3.128 -0.4858 -0.3006  0.1309
 8989SOL    HW128017   2.287   8.274   3.219  0.8595  0.5559 -0.2734
 8989SOL    HW228018   2.286   8.328   3.078 -0.7883 -0.8415 -0.8394
 8990SOL     OW28019   0.129   4.710   1.041  0.3330  0.4453 -0.4298
 8990SOL    HW128020   0.171   4.626   1.057 -0.5209  0.2368  0.8807
 8990SOL    HW228021   0.194   4.761   0.992  1.3073 -0.5486 -0.2049
 8991SOL     OW28022   2.894   5.550   6.836  0.4107  0.1835  0.0366
 8991SOL    HW128023   2.843   5.489   6.783  0.6073 -0.1640  0.2402
 8991SOL    HW228024   2.896   5.631   6.785  1.7717 -0.5592 -1.1511
 8992SOL     OW28025   1.377   1.160   2.830  0.5015  0.3620 -0.7584
 8992SOL    HW128026   1.319   1.235   2.844  0.3614  0.4333 -1.6484
 8992SOL    HW228027   1.465   1.198   2.828  0.5861  0.2812  0.3759
 8993SOL     OW28028   5.058   3.344   3.189  0.3222  0.0420 -0.3534
 8993SOL    HW128029   5.091   3.390   3.266  1.8118  0.2827 -1.1020
 8993SOL    HW228030   4.963   3.337   3.204  0.6070 -0.1579  1.6106
 8994SOL     OW28031   3.342   1.906   2.135 -0.7109 -0.2097  0.5548
 8994SOL    HW128032   3.422   1.955   2.117  0.4626 -1.9207  0.8997
 8994SOL    HW228033   3.315   1.871   2.050  0.3327 -1.6666  0.7877
 8995SOL     OW28034   0.030   5.177   5.357 -0.2399  0.2380 -0.1570
 8995SOL    HW128035   0.033   5.120   5.433  0.1407  0.6323  0.1299
 8995SOL    HW228036  -0.024   5.130   5.293 -2.8861  1.1135  1.3227
 8996SOL     OW28037   4.513   4.702   0.073  0.4421 -0.0335 -0.1827
 8996SOL    HW128038   4.583   4.720   0.136  0.0623 -1.8329  0.8177
 8996SOL    HW228039   4.485   4.788   0.043  0.5166  0.9180  2.2624
 8997SOL     OW28040   5.815   5.147   1.224  0.6441 -0.6457  0.4863
 8997SOL    HW128041   5.723   5.160   1.201  0.2551  0.6518  2.5098
 8997SOL    HW228042   5.864   5.187   1.152 -0.3496 -1.1516 -0.5042
 8998SOL     OW28043   7.913   1.316   5.715 -0.4622  0.1951  0.3933
 8998SOL    HW128044   7.991   1.268   5.686 -0.5351  0.6867 -0.6882
 8998SOL    HW228045   7.910   1.393   5.658 -1.9604 -0.0244  0.1380
 8999SOL     OW28046   0.553   3.392   4.675  0.2917  0.1376 -0.3312
 8999SOL    HW128047   0.543   3.346   4.591  0.8850 -0.3617 -0.1350
 8999SOL    HW228048   0.512   3.334   4.739  0.8726 -0.0435 -0.1118
 9000SOL     OW28049   2.842   4.298   4.449 -0.3667 -0.4646  0.3240
 9000SOL    HW128050   2.809   4.226   4.396  1.4628 -1.2380  0.1626
 9000SOL    HW228051   2.774   4.366   4.442 -1.2773 -1.4535 -1.0265
 9001SOL     OW28052   7.085   2.882   2.805 -0.6698 -0.3856 -0.6238
 9001SOL    HW128053   7.026   2.807   2.815 -1.7067  0.4988  0.0715
 9001SOL    HW228054   7.028   2.958   2.801  0.4078  0.7280  2.1634
 9002SOL     OW28055   2.657   4.973   0.571 -0.4225  0.6894 -0.3467
 9002SOL    HW128056   2.563   4.965   0.555 -0.4428  1.2996 -0.5854
 9002SOL    HW228057   2.665   4.979   0.666 -0.4212 -1.6273 -0.1371
 9003SOL     OW28058   3.703   2.052   7.206 -0.3416  0.4008 -0.4076
 9003SOL    HW128059   3.632   2.053   7.271 -1.2069 -2.1274 -1.1706
 9003SOL    HW228060   3.769   2.111   7.242 -1.4948  0.4053  1.9289
 9004SOL     OW28061   2.639   8.159   6.022  0.2931  0.3348  0.0072
 9004SOL    HW128062   2.708   8.139   5.959  0.3890 -0.8442  0.4654
 9004SOL    HW228063   2.686   8.184   6.102  0.1768  0.5591  0.0069
 9005SOL     OW28064   7.237   4.349   1.238  0.2053 -0.0424 -0.0700
 9005SOL    HW128065   7.150   4.388   1.249 -0.7469 -2.2737  0.9407
 9005SOL    HW228066   7.290   4.388   1.307  0.1670  1.6310 -0.9385
 9006SOL     OW28067   2.577   6.458   3.751 -0.3809  0.1555  0.4377
 9006SOL    HW128068   2.658   6.470   3.800  1.1041 -0.8303 -1.6063
 9006SOL    HW228069   2.530   6.389   3.798  0.2634  0.2813  1.2844
 9007SOL     OW28070   2.339   1.609   3.956 -0.2704 -0.4930  0.3981
 9007SOL    HW128071   2.379   1.620   4.042  0.4726  0.1793 -0.0224
 9007SOL    HW228072   2.250   1.641   3.966  0.4886  1.7483  0.3543
 9008SOL     OW28073   5.780   8.081   7.451 -0.1378  0.0758  0.0971
 9008SOL    HW128074   5.698   8.066   7.499  0.3718  0.2689  1.0636
 9008SOL    HW228075   5.826   8.146   7.503  0.6330 -0.0252 -0.4404
 9009SOL     OW28076   6.766   0.783   7.842 -0.4503 -0.4290 -0.4136
 9009SOL    HW128077   6.706   0.730   7.894  1.5881 -0.4360  2.1673
 9009SOL    HW228078   6.809   0.840   7.906  1.4349  0.3748 -2.2758
 9010SOL     OW28079   7.752   3.322   7.755  0.0271  0.1848 -0.1723
 9010SOL    HW128080   7.691   3.396   7.753  0.4977  0.6810  1.6362
 9010SOL    HW228081   7.696   3.245   7.759 -0.4976  0.5956  0.6329
 9011SOL     OW28082   4.854   2.996   3.162 -0.5646  0.1871  0.7168
 9011SOL    HW128083   4.800   2.970   3.237  1.1810 -0.6834  1.7302
 9011SOL    HW228084   4.860   2.917   3.108  0.7980 -0.1700  1.3401
 9012SOL     OW28085   4.962   4.839   2.733 -0.3492  0.2577 -0.1874
 9012SOL    HW128086   4.880   4.864   2.775  0.3885 -1.3250  2.3917
 9012SOL    HW228087   5.029   4.892   2.778  0.3569 -0.6129 -0.1900
 9013SOL     OW28088   2.058   0.239   3.846 -0.2054 -0.0271  0.0545
 9013SOL    HW128089   2.037   0.151   3.817 -1.3263 -0.5460  2.2221
 9013SOL    HW228090   1.998   0.296   3.798 -1.1580 -0.7175  0.3953
 9014SOL     OW28091   3.553   4.187   5.343  0.3460  0.2981 -0.2512
 9014SOL    HW128092   3.530   4.265   5.392  0.4048  0.6457 -0.7677
 9014SOL    HW228093   3.471   4.158   5.302  0.1872 -0.2923  0.4638
 9015SOL     OW28094   1.170   6.871   5.841 -0.1458  0.1312 -0.4857
 9015SOL    HW128095   1.186   6.782   5.809 -0.5897  0.5061 -1.7837
 9015SOL    HW228096   1.075   6.876   5.852  0.0162 -0.1645  1.5036
 9016SOL     OW28097   4.945   4.470   1.860  0.1339  0.2327  0.2330
 9016SOL    HW128098   5.037   4.479   1.834 -0.0061 -0.8770 -0.7596
 9016SOL    HW228099   4.948   4.444   1.952  0.9071 -1.4314 -0.2252
 9017SOL     OW28100   3.760   4.241   5.763  0.4176  0.2687  0.1113
 9017SOL    HW128101   3.728   4.182   5.695 -1.0865  0.3822  0.6832
 9017SOL    HW228102   3.776   4.186   5.839  0.9247  0.3092  0.0321
 9018SOL     OW28103   8.234   0.007   1.738  0.0305 -0.0300  0.1271
 9018SOL    HW128104   8.328   0.025   1.735  0.4729 -1.8052  1.2079
 9018SOL    HW228105   8.196   0.085   1.778  1.1807  0.3504  0.5395
 9019SOL     OW28106   3.277   3.528   4.478  0.5295  0.2283 -0.0974
 9019SOL    HW128107   3.227   3.448   4.496  0.1664 -0.0367 -1.9972
 9019SOL    HW228108   3.368   3.501   4.488  0.5724 -1.2360 -3.0909
 9020SOL     OW28109   6.727   4.366   5.679  0.6595  0.3789 -0.4499
 9020SOL    HW128110   6.819   4.352   5.699  0.3658  0.0824  0.8124
 9020SOL    HW228111   6.723   4.454   5.642  1.2486  1.1115  1.1334
 9021SOL     OW28112   0.586   3.025   5.088  0.2562  0.3842  0.3243
 9021SOL    HW128113   0.507   3.032   5.142 -1.2071 -3.0888 -1.0828
 9021SOL    HW228114   0.656   3.008   5.150 -0.7312  0.0882  1.3950
 9022SOL     OW28115   6.450   7.316   5.236  0.2231  0.0137 -0.5039
 9022SOL    HW128116   6.489   7.385   5.290  1.7942 -0.8876 -0.4282
 9022SOL    HW228117   6.360   7.345   5.223 -0.1461  0.4701  2.2804
 9023SOL     OW28118   0.361   4.407   5.483 -0.0086 -0.1542 -0.2717
 9023SOL    HW128119   0.376   4.379   5.392 -1.1093 -1.9103  0.0454
 9023SOL    HW228120   0.400   4.494   5.487 -0.8200  0.4220 -2.7256
 9024SOL     OW28121   1.810   3.065   4.129 -0.0596  0.0130  0.5775
 9024SOL    HW128122   1.789   3.158   4.133 -0.8681 -0.1349  0.0826
 9024SOL    HW228123   1.778   3.037   4.043  1.1584 -0.4954  0.2681
 9025SOL     OW28124   5.942   5.347   5.852  0.0175 -0.1482  0.1433
 9025SOL    HW128125   5.974   5.372   5.939  0.0724 -1.2188  0.4470
 9025SOL    HW228126   6.009   5.289   5.818 -0.2151 -0.0797 -0.4394
 9026SOL     OW28127   3.242   5.892   4.629  0.6657 -0.2491  0.1548
 9026SOL    HW128128   3.307   5.842   4.579  1.7739 -0.0466  1.3358
 9026SOL    HW228129   3.279   5.979   4.636  0.5748 -0.2898  1.3795
 9027SOL     OW28130   0.326   3.354   2.635 -0.1301  0.4256 -0.3467
 9027SOL    HW128131   0.305   3.387   2.723  0.7508 -1.3159  0.5775
 9027SOL    HW228132   0.266   3.401   2.577  0.3972  2.8825  0.9330
 9028SOL     OW28133   5.326   4.519   1.274  0.1182  0.2544 -0.0654
 9028SOL    HW128134   5.257   4.539   1.337  0.1581  0.7386 -0.1736
 9028SOL    HW228135   5.334   4.598   1.221 -1.1546 -0.7250 -1.8676
 9029SOL     OW28136   2.370   6.337   1.827 -1.1995 -0.0613 -0.0085
 9029SOL    HW128137   2.350   6.329   1.734 -0.3497  1.5328 -0.3676
 9029SOL    HW228138   2.421   6.418   1.834  0.7254 -1.3223  1.5300
 9030SOL     OW28139   6.972   5.954   0.659 -0.1037 -0.4073 -0.1784
 9030SOL    HW128140   6.902   5.927   0.719  0.0945  0.1091  0.2930
 9030SOL    HW228141   7.010   6.031   0.700 -1.0416  0.9670 -1.7917
 9031SOL     OW28142   6.599   6.643   5.322  0.3281 -0.0624 -0.4861
 9031SOL    HW128143   6.652   6.687   5.389  0.3260 -1.8833  0.7979
 9031SOL    HW228144   6.510   6.674   5.336  0.2456 -0.7723  0.7250
 9032SOL     OW28145   7.327   4.088   6.542  0.3415  0.1202  0.1716
 9032SOL    HW128146   7.303   4.055   6.629  0.3832  0.2829  0.2440
 9032SOL    HW228147   7.248   4.133   6.511  0.2380 -0.1606  0.0152
 9033SOL     OW28148   0.583   1.944   0.543  0.0532 -0.4737 -0.5125
 9033SOL    HW128149   0.596   2.023   0.491 -0.4424 -0.0932 -0.0585
 9033SOL    HW228150   0.517   1.967   0.607  0.8382 -0.8646  0.4581
 9034SOL     OW28151   5.022   4.019   5.336 -0.5942  0.2284 -0.5454
 9034SOL    HW128152   5.074   3.968   5.398  1.2312  2.1712 -0.3781
 9034SOL    HW228153   5.026   4.108   5.369 -1.0644  1.0266 -2.5011
 9035SOL     OW28154   2.803   0.838   5.409  0.2395  0.1727 -0.2252
 9035SOL    HW128155   2.709   0.833   5.389  0.3974  0.8866 -1.2461
 9035SOL    HW228156   2.835   0.749   5.397 -0.1803  0.0658 -0.5792
 9036SOL     OW28157   7.650   0.358   4.328  1.0698 -0.1527  0.2384
 9036SOL    HW128158   7.576   0.413   4.354  1.9674  1.1048  0.2217
 9036SOL    HW228159   7.657   0.371   4.233 -0.1370 -2.1465 -0.1881
 9037SOL     OW28160   2.080   1.399   7.048  0.2435  0.1698 -0.0009
 9037SOL    HW128161   2.169   1.363   7.050  0.3193  0.3223 -0.3937
 9037SOL    HW228162   2.030   1.342   7.106  0.5024 -0.1825 -0.1146
 9038SOL     OW28163   2.458   3.848   3.391  0.2011 -0.2086 -0.0088
 9038SOL    HW128164   2.465   3.943   3.379  0.9888 -0.3078 -0.3630
 9038SOL    HW228165   2.377   3.825   3.345  0.3364  0.2072 -0.4701
 9039SOL     OW28166   1.443   4.475   4.439  0.2009  0.9091 -0.0812
 9039SOL    HW128167   1.495   4.442   4.366 -0.4737 -0.8250  0.1809
 9039SOL    HW228168   1.506   4.486   4.511  0.6101  1.2604 -0.4798
 9040SOL     OW28169   2.764   4.035   0.140  0.5706 -0.0663  0.0017
 9040SOL    HW128170   2.802   3.964   0.191  0.7160 -0.3465 -0.4919
 9040SOL    HW228171   2.827   4.107   0.150  2.1559 -1.0369 -2.1559
 9041SOL     OW28172   2.189   8.270   4.127  0.3323 -0.0424 -0.1124
 9041SOL    HW128173   2.223   8.183   4.145 -1.5612 -0.7902  0.0889
 9041SOL    HW228174   2.222   8.292   4.040  3.0987  0.2588  0.9263
 9042SOL     OW28175   4.823   4.514   7.272 -0.3539 -0.3424  0.1234
 9042SOL    HW128176   4.909   4.471   7.273  0.3812  0.9964 -1.4091
 9042SOL    HW228177   4.826   4.575   7.345 -0.5943 -1.3136  0.9799
 9043SOL     OW28178   5.088   0.061   0.102  0.2480  0.0461  0.7199
 9043SOL    HW128179   5.110  -0.019   0.052 -3.2118 -1.9546  2.0693
 9043SOL    HW228180   5.068   0.029   0.190 -2.3413  2.2318  1.0215
 9044SOL     OW28181   3.733   4.503   5.175  0.0578  0.2677  0.6735
 9044SOL    HW128182   3.648   4.546   5.183  0.2563  0.6428  0.8185
 9044SOL    HW228183   3.777   4.521   5.259  0.8173  1.2752  0.0866
 9045SOL     OW28184   5.657   6.769   0.789 -0.1937  0.4735  0.2047
 9045SOL    HW128185   5.681   6.803   0.703 -1.7982 -0.7937 -0.8014
 9045SOL    HW228186   5.701   6.828   0.851  1.6831  0.9237 -1.4483
 9046SOL     OW28187   1.974   0.490   8.083 -0.1672 -0.2026 -0.0751
 9046SOL    HW128188   2.003   0.399   8.086  0.8924  0.1359  1.8669
 9046SOL    HW228189   1.920   0.500   8.162 -0.6528  0.7275 -0.5114
 9047SOL     OW28190   1.208   1.257   4.137  0.0489 -0.3311 -0.4052
 9047SOL    HW128191   1.277   1.283   4.076  0.4574 -0.4033  0.0197
 9047SOL    HW228192   1.254   1.232   4.217 -0.4720 -0.3233 -0.0932
 9048SOL     OW28193   3.381   0.683   3.433 -0.1949 -0.6886  0.5312
 9048SOL    HW128194   3.392   0.653   3.523 -0.2873  0.2284  0.8528
 9048SOL    HW228195   3.441   0.756   3.424  1.1069 -1.8537 -0.7018
 9049SOL     OW28196   7.148   1.715   4.886  0.1395 -0.2741 -0.1206
 9049SOL    HW128197   7.189   1.794   4.922  0.5964 -1.2001  1.5113
 9049SOL    HW228198   7.060   1.743   4.862 -0.4166  0.3205  2.3363
 9050SOL     OW28199   4.042   7.545   2.418 -0.4441  0.0614 -0.3610
 9050SOL    HW128200   4.066   7.622   2.368  0.3802 -0.5947 -0.9997
 9050SOL    HW228201   4.004   7.580   2.499 -0.7836  1.1223 -0.9580
 9051SOL     OW28202   6.332   4.308   0.668  0.4543  0.1224 -0.0752
 9051SOL    HW128203   6.384   4.382   0.636  0.2728 -0.6014 -2.2139
 9051SOL    HW228204   6.388   4.232   0.653 -0.0952 -0.3678  0.3292
 9052SOL     OW28205   0.471   4.008   3.916 -0.0768  0.3312  0.0417
 9052SOL    HW128206   0.449   3.919   3.889  2.5822 -0.5996  0.5828
 9052SOL    HW228207   0.412   4.026   3.989 -0.2715 -1.2496  0.3158
 9053SOL     OW28208   7.964   6.430   5.401 -0.4552  0.5023  0.0784
 9053SOL    HW128209   7.964   6.499   5.467  0.6807 -0.6471  1.3585
 9053SOL    HW228210   7.886   6.378   5.422 -0.2967  0.3488  0.2958
 9054SOL     OW28211   0.640   3.442   5.465  0.0319  0.3865 -0.2328
 9054SOL    HW128212   0.707   3.394   5.513 -1.3605 -1.3370  0.1058
 9054SOL    HW228213   0.634   3.527   5.509  0.0379 -0.4898  1.5478
 9055SOL     OW28214   7.417   4.075   3.875 -0.8147  0.6696 -0.2582
 9055SOL    HW128215   7.495   4.032   3.910 -0.1697  1.8083 -0.2156
 9055SOL    HW228216   7.452   4.143   3.818 -1.8053  0.7117 -0.8239
 9056SOL     OW28217   0.961   4.179   5.402 -0.2307 -0.0480 -0.2366
 9056SOL    HW128218   1.004   4.207   5.483 -0.0152 -1.7144  0.2519
 9056SOL    HW228219   0.882   4.135   5.431  0.3196 -1.4934 -0.8667
 9057SOL     OW28220   6.301   6.833   4.643 -0.0266 -0.1755 -0.2440
 9057SOL    HW128221   6.249   6.803   4.717 -1.7779  0.3289 -1.2034
 9057SOL    HW228222   6.291   6.929   4.644  0.2152 -0.1345 -0.9096
 9058SOL     OW28223   5.848   2.363   7.092  0.0353  0.3452 -0.4734
 9058SOL    HW128224   5.899   2.297   7.044  1.0953  0.2557  0.7137
 9058SOL    HW228225   5.846   2.331   7.182 -0.2406  1.4689 -0.0599
 9059SOL     OW28226   3.364   1.956   0.856  0.1519  0.2229 -0.5899
 9059SOL    HW128227   3.374   2.051   0.854 -2.4043  0.5518 -1.5211
 9059SOL    HW228228   3.417   1.928   0.931  1.9374  2.1965 -1.0287
 9060SOL     OW28229   4.803   2.615   7.216 -0.2695 -0.8812  0.0223
 9060SOL    HW128230   4.752   2.604   7.136 -1.1081 -2.7134  0.7529
 9060SOL    HW228231   4.845   2.700   7.206 -3.1639  0.5807 -0.7799
 9061SOL     OW28232   5.022   8.146   1.835  0.4187  0.3007 -0.2726
 9061SOL    HW128233   4.961   8.180   1.769 -0.0670  1.8664  0.9353
 9061SOL    HW228234   4.967   8.130   1.912  1.5310  2.0299  0.9413
 9062SOL     OW28235   3.202   6.263   2.502 -0.2881  0.1109 -0.0571
 9062SOL    HW128236   3.235   6.175   2.521 -0.0480  0.4423  1.1240
 9062SOL    HW228237   3.257   6.294   2.430  0.0263 -0.4622 -0.0729
 9063SOL     OW28238   6.845   1.111   0.329 -0.4181  0.3822  0.2035
 9063SOL    HW128239   6.759   1.084   0.363 -0.8989  0.6118 -0.7850
 9063SOL    HW228240   6.905   1.097   0.402 -1.0125 -1.3246  0.4142
 9064SOL     OW28241   4.448   3.916   5.283  0.7852 -0.5511  0.3764
 9064SOL    HW128242   4.374   3.972   5.304 -1.1458 -1.2135 -3.6235
 9064SOL    HW228243   4.520   3.977   5.267 -0.0586  0.4651  0.3178
 9065SOL     OW28244   2.031   3.508   2.466  0.5810 -0.0242  0.5354
 9065SOL    HW128245   1.966   3.573   2.441  0.1356 -0.4910  0.4551
 9065SOL    HW228246   2.089   3.502   2.390 -0.9141 -1.6275 -0.5908
 9066SOL     OW28247   4.537   1.354   3.233  0.5830  0.5978  0.0253
 9066SOL    HW128248   4.627   1.377   3.211  0.2127  0.0414 -2.3061
 9066SOL    HW228249   4.494   1.339   3.149 -1.6674  0.6901  1.0677
 9067SOL     OW28250   0.809   1.780   5.173  0.2514 -0.0191  0.1016
 9067SOL    HW128251   0.792   1.782   5.267 -0.1726  0.1904  0.0262
 9067SOL    HW228252   0.877   1.845   5.159  2.2703 -1.9121  0.6174
 9068SOL     OW28253   1.226   4.087   7.591 -0.7386 -0.4605  0.4905
 9068SOL    HW128254   1.217   4.021   7.522  0.9120  0.4047 -0.6320
 9068SOL    HW228255   1.321   4.100   7.600 -0.9321 -0.1379  2.5582
 9069SOL     OW28256   6.024   1.006   2.140 -1.2873 -0.0796  0.3139
 9069SOL    HW128257   5.992   0.979   2.226 -2.9284 -1.6437 -0.6942
 9069SOL    HW228258   5.962   1.074   2.112 -2.4469 -1.4744 -0.6821
 9070SOL     OW28259   2.042   1.309   2.445  0.1161  0.3245  0.1272
 9070SOL    HW128260   1.995   1.344   2.520 -0.0760 -0.9593  0.6319
 9070SOL    HW228261   1.974   1.291   2.379  0.2734  1.3593 -0.3370
 9071SOL     OW28262   6.962   3.889   4.425 -0.1229  0.0415  0.0058
 9071SOL    HW128263   6.892   3.931   4.475 -0.5585  0.9437 -1.3145
 9071SOL    HW228264   7.009   3.961   4.383  0.3887 -0.6732 -0.6945
 9072SOL     OW28265   1.689   4.626   7.182  0.5763 -0.3397 -0.6019
 9072SOL    HW128266   1.647   4.655   7.101  0.6751  0.6594 -0.3095
 9072SOL    HW228267   1.777   4.599   7.154  0.1007 -1.4791 -1.0556
 9073SOL     OW28268   7.569   1.104   3.927 -0.4510 -0.1622  0.1455
 9073SOL    HW128269   7.476   1.083   3.915 -0.5320  0.1579  0.1870
 9073SOL    HW228270   7.582   1.102   4.022 -0.3278 -0.5693  0.1194
 9074SOL     OW28271   3.206   3.756   2.361  0.2662  0.3660  0.1500
 9074SOL    HW128272   3.207   3.675   2.309 -0.5982 -0.3437  1.2093
 9074SOL    HW228273   3.280   3.747   2.421  0.8849  0.9071 -0.5141
 9075SOL     OW28274   2.678   3.988   1.560 -0.5067  0.4417 -0.0165
 9075SOL    HW128275   2.771   4.008   1.551  0.2702 -1.5878  2.1814
 9075SOL    HW228276   2.656   4.017   1.649 -1.1548 -1.6660  0.5637
 9076SOL     OW28277   4.755   0.342   5.638  0.0550  0.5789  0.4211
 9076SOL    HW128278   4.815   0.416   5.639  0.0122  0.6990  3.3590
 9076SOL    HW228279   4.670   0.379   5.662 -0.3965 -0.1544  0.0018
 9077SOL     OW28280   3.768   4.506   1.526  0.5598 -0.2107  0.3813
 9077SOL    HW128281   3.737   4.527   1.615  0.2364 -2.5498  0.9071
 9077SOL    HW228282   3.699   4.451   1.490  2.4919 -2.7925  0.3073
 9078SOL     OW28283   2.694   3.969   0.696 -0.0488 -0.4497  0.3797
 9078SOL    HW128284   2.697   4.035   0.765 -2.9694 -2.2915  2.4982
 9078SOL    HW228285   2.658   4.016   0.620  1.2077  1.1150  0.6820
 9079SOL     OW28286   6.686   2.073   6.113 -0.3757 -0.2193 -0.7051
 9079SOL    HW128287   6.679   2.038   6.202  0.8587  1.5529  0.1624
 9079SOL    HW228288   6.780   2.074   6.095 -0.4423  1.4277 -1.1470
 9080SOL     OW28289   3.317   5.419   2.124 -0.4544 -0.4965 -0.5633
 9080SOL    HW128290   3.238   5.416   2.179  0.4639  0.1020  0.8414
 9080SOL    HW228291   3.284   5.436   2.036 -1.9584 -1.1775 -0.1766
 9081SOL     OW28292   3.469   5.582   8.064 -0.2638  0.1603  0.2479
 9081SOL    HW128293   3.527   5.516   8.027 -0.1741  0.5294 -0.2830
 9081SOL    HW228294   3.409   5.603   7.992 -0.5893  0.3127  0.5628
 9082SOL     OW28295   7.271   4.943   4.946  0.2912 -0.2876 -0.0099
 9082SOL    HW128296   7.210   5.010   4.977 -0.4044  0.4152 -2.6261
 9082SOL    HW228297   7.241   4.862   4.988 -2.1626  0.1322 -0.7584
 9083SOL     OW28298   6.757   2.226   7.325 -0.2958  0.0414  0.1514
 9083SOL    HW128299   6.674   2.183   7.347  0.3083 -1.5071 -0.4142
 9083SOL    HW228300   6.805   2.160   7.274  1.1514  1.0145  0.1888
 9084SOL     OW28301   0.982   6.020   0.928  0.3479 -0.5822  0.3276
 9084SOL    HW128302   0.927   6.009   0.850 -1.2802  0.7700  1.2080
 9084SOL    HW228303   1.048   6.085   0.901  0.7388 -1.2485 -0.3547
 9085SOL     OW28304   6.050   5.389   2.173 -0.2245 -0.1299 -0.5912
 9085SOL    HW128305   6.005   5.472   2.166  1.3696  0.6158 -2.9710
 9085SOL    HW228306   6.139   5.412   2.199 -0.0573 -1.1984 -0.1537
 9086SOL     OW28307   1.702   0.717   2.406  0.1123 -0.1235 -0.4095
 9086SOL    HW128308   1.779   0.663   2.388 -0.0639  0.2288 -2.4116
 9086SOL    HW228309   1.645   0.661   2.459  1.5503 -0.5137  0.8137
 9087SOL     OW28310   6.465   1.485   8.112  0.3340 -0.1377  0.7663
 9087SOL    HW128311   6.529   1.450   8.049  1.2722 -0.9837  2.1312
 9087SOL    HW228312   6.480   1.579   8.112  1.5298 -0.3115  0.9795
 9088SOL     OW28313   5.600   6.317   1.422  0.0252  0.1862 -0.0822
 9088SOL    HW128314   5.595   6.222   1.428  0.3774  0.1348 -0.5419
 9088SOL    HW228315   5.566   6.348   1.506  0.6791 -0.3701  0.4027
 9089SOL     OW28316   7.555   0.076   0.034  0.7739  0.4033  0.2347
 9089SOL    HW128317   7.533   0.166   0.011 -1.1817  0.1220  0.8056
 9089SOL    HW228318   7.649   0.078   0.051  1.0176  2.0460 -0.9945
 9090SOL     OW28319   3.449   3.951   7.967  0.1017 -0.1722  0.2936
 9090SOL    HW128320   3.494   3.918   8.045 -0.9527 -0.1862  0.9175
 9090SOL    HW228321   3.356   3.942   7.988 -0.3103  3.1761  0.5709
 9091SOL     OW28322   5.917   4.158   2.193 -0.0448  0.0891 -0.2937
 9091SOL    HW128323   5.825   4.184   2.199 -0.7467 -2.3156  0.9655
 9091SOL    HW228324   5.950   4.169   2.282  0.9412  1.0409 -0.7670
 9092SOL     OW28325   2.785   1.027   4.912 -0.0379  0.0923  0.2702
 9092SOL    HW128326   2.795   1.044   5.005 -0.7948  0.8427  0.2226
 9092SOL    HW228327   2.846   0.955   4.894  0.0818 -0.0853  1.3412
 9093SOL     OW28328   1.696   0.503   2.934  0.6061  0.3518  0.7107
 9093SOL    HW128329   1.657   0.490   2.847 -1.7638 -0.1669  1.7526
 9093SOL    HW228330   1.622   0.531   2.989  1.6783 -0.7952  2.8864
 9094SOL     OW28331   3.408   1.699   5.522  0.1376 -0.4757  0.2624
 9094SOL    HW128332   3.330   1.666   5.478  0.3786 -0.7285  0.0152
 9094SOL    HW228333   3.433   1.629   5.582 -0.3474 -0.0164  1.0079
 9095SOL     OW28334   2.707   7.768   7.967 -0.5752  0.1013 -0.1103
 9095SOL    HW128335   2.704   7.675   7.986 -1.3747 -0.0799 -1.1014
 9095SOL    HW228336   2.721   7.809   8.053  0.9179 -0.9616  0.2082
 9096SOL     OW28337   0.090   5.119   7.559 -0.0944  0.0580  0.6693
 9096SOL    HW128338   0.150   5.171   7.612  1.3118  0.6363 -1.3588
 9096SOL    HW228339   0.042   5.183   7.506 -1.4843 -0.4912  1.2225
 9097SOL     OW28340   2.068   0.422   4.941  0.3302 -0.2232 -0.3416
 9097SOL    HW128341   2.118   0.500   4.967 -2.7524  1.5888  0.5757
 9097SOL    HW228342   1.999   0.456   4.884 -1.0814 -2.2742  0.0568
 9098SOL     OW28343   2.442   2.899   3.526 -0.1151 -0.2616  0.1859
 9098SOL    HW128344   2.418   2.882   3.435  1.0379  0.5893 -0.3109
 9098SOL    HW228345   2.393   2.977   3.551 -0.0597 -0.2084  0.1289
 9099SOL     OW28346   1.707   6.227   4.843 -0.2140 -0.4788 -0.0565
 9099SOL    HW128347   1.654   6.177   4.905  0.4869 -0.1761  0.8133
 9099SOL    HW228348   1.795   6.191   4.852 -0.0441 -0.2431 -0.6828
 9100SOL     OW28349   5.531   3.073   5.244  0.0674 -0.1048  0.0194
 9100SOL    HW128350   5.549   2.991   5.289 -0.5548 -0.0701  0.3334
 9100SOL    HW228351   5.575   3.064   5.159  1.0882 -0.2450  0.5458
 9101SOL     OW28352   8.247   2.634   8.218 -0.7733  0.5717 -0.5549
 9101SOL    HW128353   8.214   2.550   8.251 -1.1790  0.1709 -1.9113
 9101SOL    HW228354   8.302   2.610   8.143 -0.1397  1.4655 -0.3898
 9102SOL     OW28355   3.815   7.771   0.570 -0.7092 -0.2878 -0.7140
 9102SOL    HW128356   3.889   7.712   0.582  0.0227  1.1141  2.7129
 9102SOL    HW228357   3.854   7.858   0.558 -1.5640  0.8057  3.0430
 9103SOL     OW28358   6.368   3.226   6.292  0.0986 -0.0132  0.0442
 9103SOL    HW128359   6.298   3.202   6.352  1.4472 -1.3865  1.1584
 9103SOL    HW228360   6.449   3.212   6.342  1.3264 -1.8882 -2.2426
 9104SOL     OW28361   0.500   4.860   3.559 -0.3879  0.4735 -0.3472
 9104SOL    HW128362   0.530   4.885   3.646  2.8308  0.0297 -1.1969
 9104SOL    HW228363   0.557   4.909   3.499  0.8206 -2.7525 -2.1093
 9105SOL     OW28364   2.716   7.069   3.887  0.6837  0.3674  0.2806
 9105SOL    HW128365   2.642   7.050   3.944  0.4062  1.9362  0.4869
 9105SOL    HW228366   2.793   7.042   3.937  0.3345 -0.1205  0.5643
 9106SOL     OW28367   3.211   2.508   3.377 -0.3167 -0.0176  0.0103
 9106SOL    HW128368   3.203   2.437   3.440  0.4894  0.4537  0.6682
 9106SOL    HW228369   3.123   2.546   3.372 -0.4145 -0.1267  0.7869
 9107SOL     OW28370   5.296   5.466   1.089  0.3965 -0.6317 -0.5093
 9107SOL    HW128371   5.387   5.494   1.086  0.2270  0.0877  0.4304
 9107SOL    HW228372   5.248   5.544   1.118 -0.3163 -1.4322  0.5429
 9108SOL     OW28373   2.162   2.070   6.522  0.1586 -0.6730 -0.7230
 9108SOL    HW128374   2.205   2.066   6.437 -2.1256  0.7332 -2.0590
 9108SOL    HW228375   2.212   2.135   6.571  0.3741 -0.0558 -1.7244
 9109SOL     OW28376   3.666   3.890   0.777 -0.0408  0.2823 -0.0086
 9109SOL    HW128377   3.706   3.884   0.690  0.5757 -0.7273  0.3240
 9109SOL    HW228378   3.626   3.976   0.779 -1.7562 -0.3836 -2.0087
 9110SOL     OW28379   5.581   3.429   0.655 -0.7770 -0.2080  0.5847
 9110SOL    HW128380   5.632   3.367   0.602 -0.1882 -0.1322  1.0562
 9110SOL    HW228381   5.614   3.417   0.744  1.5210  2.8787  0.3044
 9111SOL     OW28382   1.064   3.845   2.064  0.2587  0.1085  0.0583
 9111SOL    HW128383   0.978   3.803   2.053 -0.0049  0.4214  0.8463
 9111SOL    HW228384   1.060   3.923   2.010  0.0575  0.1043  0.0666
 9112SOL     OW28385   5.686   3.772   0.980  0.3292 -0.5377 -0.1388
 9112SOL    HW128386   5.780   3.781   0.993 -0.0215 -0.9473  4.3974
 9112SOL    HW228387   5.670   3.678   0.976  0.0091 -0.5856  1.4750
 9113SOL     OW28388   3.495   4.883   3.791 -0.5702  0.1329 -0.4013
 9113SOL    HW128389   3.477   4.839   3.874  1.1164  2.8436  1.5997
 9113SOL    HW228390   3.411   4.886   3.746 -1.2311 -2.6707  0.5066
 9114SOL     OW28391   8.059   4.752   6.436 -0.6953 -0.5639 -0.1507
 9114SOL    HW128392   8.134   4.697   6.457 -1.0224 -1.4949 -1.3360
 9114SOL    HW228393   8.074   4.780   6.346  0.8089  3.5155  1.1505
 9115SOL     OW28394   4.728   0.158   2.385  0.4371 -0.5704  0.2886
 9115SOL    HW128395   4.684   0.084   2.343 -0.3759 -0.4930  0.9668
 9115SOL    HW228396   4.809   0.121   2.420  0.7160 -0.8169 -0.5953
 9116SOL     OW28397   0.765   4.216   1.431 -0.1400  0.3209  0.4859
 9116SOL    HW128398   0.702   4.260   1.488 -1.4270 -0.6554 -0.1040
 9116SOL    HW228399   0.742   4.245   1.343  0.7329  0.5249  0.3203
 9117SOL     OW28400   0.912   5.393   5.968 -0.2578 -0.3154  0.6856
 9117SOL    HW128401   0.946   5.471   6.012  0.9879 -0.0794 -0.6039
 9117SOL    HW228402   0.843   5.425   5.912 -1.5085 -0.5472  2.0262
 9118SOL     OW28403   5.151   4.364   0.077 -0.0574 -0.6559  0.5433
 9118SOL    HW128404   5.060   4.360   0.107 -0.5343  0.6373 -0.6440
 9118SOL    HW228405   5.151   4.431   0.008  1.8199 -0.5633  0.5873
 9119SOL     OW28406   1.383   4.802   0.033  1.0795  0.2871 -0.0187
 9119SOL    HW128407   1.401   4.841   0.118  2.0393 -1.1877  0.4908
 9119SOL    HW228408   1.369   4.709   0.051  1.0512 -0.0175 -1.4340
 9120SOL     OW28409   4.093   3.996   7.512  0.1214 -0.1909  0.0970
 9120SOL    HW128410   4.009   4.040   7.495  0.8974  0.9253 -0.9848
 9120SOL    HW228411   4.138   3.998   7.428  1.9121  0.7046  1.0294
 9121SOL     OW28412   6.512   5.083   1.109 -0.4460 -0.2730  0.5394
 9121SOL    HW128413   6.545   5.001   1.072 -0.0816  0.6479 -1.2483
 9121SOL    HW228414   6.466   5.056   1.189  0.0966 -2.1537  0.2609
 9122SOL     OW28415   3.934   0.325   4.586  0.0312  0.0205  0.3621
 9122SOL    HW128416   4.029   0.334   4.584  0.0739  0.1039  1.6224
 9122SOL    HW228417   3.912   0.285   4.502  1.1301  0.3649 -0.1135
 9123SOL     OW28418   3.853   6.038   2.887 -0.3486  0.2163  0.2616
 9123SOL    HW128419   3.773   5.986   2.876 -1.2305  1.7207 -0.7855
 9123SOL    HW228420   3.900   6.029   2.804 -1.1125  1.9910 -0.4221
 9124SOL     OW28421   5.431   7.877   3.275 -0.3749 -0.1060 -0.6686
 9124SOL    HW128422   5.510   7.827   3.255 -0.1815  0.1283 -0.4877
 9124SOL    HW228423   5.460   7.968   3.280 -0.0710 -0.2945  2.4151
 9125SOL     OW28424   3.191   2.524   4.762  0.4618  0.0385 -0.4943
 9125SOL    HW128425   3.266   2.493   4.713  1.6614  2.1376 -0.1165
 9125SOL    HW228426   3.163   2.604   4.716  0.0548  0.6704  0.7862
 9126SOL     OW28427   2.733   1.441   8.230 -0.5437 -0.2319  0.2041
 9126SOL    HW128428   2.789   1.510   8.265  0.2252 -0.8910  0.3227
 9126SOL    HW228429   2.740   1.450   8.135  0.4545 -0.8322  0.2095
 9127SOL     OW28430   3.423   8.241   2.442  0.3839 -0.6069 -0.4453
 9127SOL    HW128431   3.427   8.193   2.525  0.2308  1.1345  0.6312
 9127SOL    HW228432   3.437   8.332   2.467 -1.9699  0.2883 -2.0148
 9128SOL     OW28433   6.811   4.018   4.009 -0.1299 -0.3884  0.2186
 9128SOL    HW128434   6.810   4.075   3.932 -0.5719 -0.6968 -0.0088
 9128SOL    HW228435   6.719   3.996   4.023 -0.1318  0.2128  1.2525
 9129SOL     OW28436   4.708   6.250   7.061  0.5358 -0.0589 -0.2839
 9129SOL    HW128437   4.728   6.168   7.105 -0.1265  0.7919  1.7331
 9129SOL    HW228438   4.638   6.229   7.000 -1.8205 -0.5136  2.3861
 9130SOL     OW28439   7.773   3.858   0.815  0.0293 -0.1413 -0.0256
 9130SOL    HW128440   7.803   3.771   0.789  1.0581 -0.1294  1.0107
 9130SOL    HW228441   7.826   3.918   0.763  0.5583 -0.1365  0.5040
 9131SOL     OW28442   6.977   2.607   7.982  0.8941  0.3788  0.1088
 9131SOL    HW128443   7.008   2.672   7.918  2.2192  1.0812  1.4102
 9131SOL    HW228444   6.893   2.640   8.012 -0.7301 -0.9280 -2.5919
 9132SOL     OW28445   3.716   5.544   6.924  0.5267 -0.1590  0.3465
 9132SOL    HW128446   3.630   5.579   6.901  0.0761 -0.3664  1.6079
 9132SOL    HW228447   3.767   5.620   6.950  0.4896 -0.1173  0.2964
 9133SOL     OW28448   8.044   7.657   3.094 -0.2878  0.6640  0.3197
 9133SOL    HW128449   7.991   7.607   3.155 -0.8950  1.8225  0.7732
 9133SOL    HW228450   8.044   7.746   3.129 -1.2012  1.5249 -1.6827
 9134SOL     OW28451   4.753   4.513   0.033 -0.2760 -0.2745 -0.0766
 9134SOL    HW128452   4.685   4.579   0.047 -0.4617 -0.5033  0.1148
 9134SOL    HW228453   4.706   4.430   0.033  0.1805 -0.5603  1.5213
 9135SOL     OW28454   1.821   3.916   7.117 -0.2587 -0.0711 -0.4103
 9135SOL    HW128455   1.801   3.823   7.123 -0.5380 -0.0241 -0.5993
 9135SOL    HW228456   1.913   3.920   7.092  0.5166 -0.2964  2.0809
 9136SOL     OW28457   5.480   5.064   0.577  0.2635  0.9473 -0.4788
 9136SOL    HW128458   5.524   4.980   0.560  0.5825  0.8099  0.8884
 9136SOL    HW228459   5.479   5.071   0.672 -3.1915  0.6780 -0.3585
 9137SOL     OW28460   6.045   6.462   4.233  0.5290  0.1993  0.0642
 9137SOL    HW128461   6.130   6.434   4.198  1.6397  2.5968  0.6284
 9137SOL    HW228462   6.002   6.506   4.160  0.9654  1.3228  0.4504
 9138SOL     OW28463   7.990   3.233   6.295  0.0148 -0.0943  0.3029
 9138SOL    HW128464   7.984   3.137   6.293 -1.3161 -0.0110 -0.5670
 9138SOL    HW228465   7.963   3.257   6.383  2.4472 -0.5966  1.2762
 9139SOL     OW28466   4.214   0.153   4.013 -0.3004 -0.2495 -0.2610
 9139SOL    HW128467   4.163   0.218   4.062  0.5594  0.4542 -0.2728
 9139SOL    HW228468   4.170   0.070   4.031 -1.6694  0.3787 -0.5747
 9140SOL     OW28469   0.301   3.049   5.772  0.6689  0.4040  0.1049
 9140SOL    HW128470   0.314   3.091   5.687 -0.5914 -0.1779 -0.4005
 9140SOL    HW228471   0.282   3.121   5.832 -0.1790  0.6893 -0.4806
 9141SOL     OW28472   7.435   6.774   1.939  0.1470 -0.3641 -0.3073
 9141SOL    HW128473   7.516   6.743   1.980 -0.1175  1.7561  2.0935
 9141SOL    HW228474   7.366   6.725   1.984 -0.0453  0.6887  0.6109
 9142SOL     OW28475   6.460   5.567   3.377  0.4147 -0.5314  0.4712
 9142SOL    HW128476   6.439   5.587   3.286  0.6345 -0.1335  0.5048
 9142SOL    HW228477   6.502   5.647   3.410  1.4694 -1.1024  0.5572
 9143SOL     OW28478   0.539   0.384   1.041 -0.0665 -0.0377 -0.0815
 9143SOL    HW128479   0.491   0.418   1.116  0.8915 -2.4029  1.7313
 9143SOL    HW228480   0.580   0.460   1.001 -1.3253  1.3924  1.2346
 9144SOL     OW28481   4.359   5.492   6.384 -0.5210  0.0546  0.0902
 9144SOL    HW128482   4.284   5.536   6.344  0.1919  0.6509 -0.6050
 9144SOL    HW228483   4.338   5.489   6.477 -1.7839 -0.5335 -0.1986
 9145SOL     OW28484   8.244   5.380   3.950 -0.0961  0.1346 -0.0325
 9145SOL    HW128485   8.302   5.443   3.907  0.3532 -2.2256 -3.3184
 9145SOL    HW228486   8.169   5.432   3.979  1.3387  2.5094 -0.3107
 9146SOL     OW28487   4.999   5.353   2.860 -0.1854  0.0181  0.1656
 9146SOL    HW128488   5.056   5.287   2.900  1.7669  2.0618  0.9480
 9146SOL    HW228489   4.950   5.391   2.933 -1.6906 -0.8670 -0.3478
 9147SOL     OW28490   4.154   0.126   7.642 -0.1768  0.0304  0.2635
 9147SOL    HW128491   4.223   0.089   7.587 -0.7420 -1.1015  0.2898
 9147SOL    HW228492   4.075   0.123   7.588 -0.4974  0.0073  0.7299
 9148SOL     OW28493   5.381   7.185   4.649 -0.1623  0.2053  1.0092
 9148SOL    HW128494   5.320   7.223   4.586 -0.2787 -0.1861  0.8826
 9148SOL    HW228495   5.329   7.121   4.697  0.0782  0.0739  1.0951
 9149SOL     OW28496   6.840   7.945   1.694 -0.0571 -0.0462  0.9773
 9149SOL    HW128497   6.913   7.923   1.752  0.1792  0.4848  0.8845
 9149SOL    HW228498   6.800   8.022   1.734  1.0975  1.3346 -0.4032
 9150SOL     OW28499   5.981   7.716   0.498  0.1053 -0.0933  0.0858
 9150SOL    HW128500   5.985   7.709   0.593 -0.3154  1.8820  0.2917
 9150SOL    HW228501   5.913   7.781   0.481 -0.9871 -1.5599 -1.6642
 9151SOL     OW28502   0.947   1.396   5.998 -0.4309  0.1659  0.3591
 9151SOL    HW128503   1.010   1.325   6.012  1.3005  1.7559  0.9851
 9151SOL    HW228504   0.875   1.355   5.949  0.3688 -2.0642  0.9538
 9152SOL     OW28505   4.740   4.130   3.445 -0.1193 -0.8442 -0.0848
 9152SOL    HW128506   4.725   4.220   3.417 -0.0451 -0.9577 -0.4960
 9152SOL    HW228507   4.723   4.077   3.367  1.5762 -1.0456 -0.3559
 9153SOL     OW28508   2.851   6.557   1.648  0.0495 -0.2921  0.5918
 9153SOL    HW128509   2.925   6.571   1.589 -1.1687 -0.0538 -0.9349
 9153SOL    HW228510   2.794   6.496   1.601 -1.8357  1.2937  0.6711
 9154SOL     OW28511   6.175   1.270   3.163 -0.2777  0.2877 -0.0475
 9154SOL    HW128512   6.222   1.207   3.109  0.2555 -0.5252  1.3424
 9154SOL    HW228513   6.214   1.355   3.141  0.1354 -0.0683 -0.6979
 9155SOL     OW28514   8.010   6.365   1.190 -0.4752 -0.1905  0.0974
 9155SOL    HW128515   8.098   6.365   1.226 -0.4522  0.3006  0.0396
 9155SOL    HW228516   8.020   6.326   1.103 -0.3461 -0.3072  0.1644
 9156SOL     OW28517   3.909   5.664   2.665  0.1054 -0.4359  0.5792
 9156SOL    HW128518   3.821   5.631   2.684 -1.4586  0.8267 -3.4959
 9156SOL    HW228519   3.932   5.626   2.581  1.1413  3.2773 -1.0210
 9157SOL     OW28520   0.670   1.200   3.447  0.4517 -0.0268 -0.2824
 9157SOL    HW128521   0.604   1.262   3.416  0.3777 -0.4290 -0.9414
 9157SOL    HW228522   0.621   1.135   3.497  0.0487 -1.3836 -2.3328
 9158SOL     OW28523   1.561   4.229   3.552  0.2596  0.0101  0.8934
 9158SOL    HW128524   1.498   4.261   3.616 -0.5223  0.8349 -0.2362
 9158SOL    HW228525   1.575   4.137   3.574  0.6368  0.4613  2.7161
 9159SOL     OW28526   1.934   3.799   6.410  0.5563 -0.6214  0.3815
 9159SOL    HW128527   2.027   3.816   6.420  0.1558  2.9232 -0.6676
 9159SOL    HW228528   1.928   3.737   6.337  2.0597 -0.6916  0.3021
 9160SOL     OW28529   6.550   0.183   1.470  0.4340 -0.1862  0.0826
 9160SOL    HW128530   6.621   0.191   1.534 -0.6348 -1.3699  1.4601
 9160SOL    HW228531   6.551   0.091   1.445 -0.4852 -0.1551 -0.0737
 9161SOL     OW28532   6.188   4.648   4.162 -0.3743 -0.0236 -0.5156
 9161SOL    HW128533   6.223   4.644   4.251 -0.8662 -1.0770 -0.3585
 9161SOL    HW228534   6.263   4.669   4.108 -0.3180  2.0785  0.2848
 9162SOL     OW28535   5.056   4.248   2.387 -0.4381 -0.1450  0.1105
 9162SOL    HW128536   5.117   4.299   2.335 -0.9940 -0.2155 -0.6281
 9162SOL    HW228537   4.971   4.291   2.374 -0.1921  1.6049  3.2264
 9163SOL     OW28538   0.946   0.722   2.434 -0.2428  0.0413 -0.0190
 9163SOL    HW128539   0.901   0.679   2.361  0.8763 -0.3830 -0.4857
 9163SOL    HW228540   1.038   0.703   2.420  0.1572  1.3713  0.5852
 9164SOL     OW28541   0.930   0.765   6.228 -0.1960  0.2064 -0.2921
 9164SOL    HW128542   0.950   0.682   6.271 -0.8721 -0.2564 -0.8567
 9164SOL    HW228543   1.002   0.823   6.253 -0.2059 -0.2663  0.8692
 9165SOL     OW28544   0.042   3.318   5.041 -0.3202 -0.0128  0.3396
 9165SOL    HW128545   0.039   3.346   5.133 -2.8782 -0.2465  0.3855
 9165SOL    HW228546   0.076   3.394   4.994  3.7219 -0.7485  1.6689
 9166SOL     OW28547   7.200   7.416   2.890 -0.3799  0.3966  0.1688
 9166SOL    HW128548   7.207   7.464   2.808 -0.8170 -1.2966 -0.9014
 9166SOL    HW228549   7.115   7.373   2.886  0.2727 -1.0250  0.7417
 9167SOL     OW28550   2.180   6.971   5.353 -0.4555 -0.2378 -0.0378
 9167SOL    HW128551   2.228   6.992   5.273  3.1022 -0.1922  1.8512
 9167SOL    HW228552   2.181   6.876   5.357  0.9723 -0.2202  0.7178
 9168SOL     OW28553   3.363   4.161   4.844 -0.3008  0.0699  0.5007
 9168SOL    HW128554   3.341   4.132   4.932 -2.2363  0.4725  0.1974
 9168SOL    HW228555   3.330   4.250   4.839  0.5691  0.3654 -0.3739
 9169SOL     OW28556   3.012   0.623   6.974 -0.1394 -0.0669  0.2514
 9169SOL    HW128557   2.993   0.532   6.998 -1.5963  0.1242 -0.0372
 9169SOL    HW228558   3.106   0.625   6.957  0.3648 -0.9899  2.5252
 9170SOL     OW28559   4.316   6.518   6.552 -0.0258  0.3890 -0.3284
 9170SOL    HW128560   4.303   6.599   6.600  0.9471  0.2314  0.2119
 9170SOL    HW228561   4.366   6.543   6.474 -2.5303  0.8352 -1.9204
 9171SOL     OW28562   6.589   0.184   7.846 -0.1937  0.0662  0.1469
 9171SOL    HW128563   6.622   0.149   7.763 -1.0059  1.5989 -0.8955
 9171SOL    HW228564   6.663   0.230   7.885  0.3213 -1.0667  0.5241
 9172SOL     OW28565   3.831   6.753   7.885 -0.0406  0.5431 -0.0057
 9172SOL    HW128566   3.801   6.759   7.795  0.2736  0.0501 -0.1528
 9172SOL    HW228567   3.900   6.818   7.892  0.4805  0.0386 -0.3573
 9173SOL     OW28568   6.494   4.525   4.641  0.8074 -0.5011  0.0516
 9173SOL    HW128569   6.472   4.614   4.612  0.3037 -0.7245 -0.2582
 9173SOL    HW228570   6.535   4.484   4.565  2.3073 -0.1040  0.6059
 9174SOL     OW28571   6.032   0.964   1.847  0.6457 -0.2562 -0.4222
 9174SOL    HW128572   6.069   0.992   1.931  0.7595  1.0960 -0.8967
 9174SOL    HW228573   5.985   0.883   1.867  2.6827 -1.2974  0.4706
 9175SOL     OW28574   0.684   5.299   3.285  0.2277  0.8856  0.0002
 9175SOL    HW128575   0.602   5.319   3.240  0.4961  0.3537 -0.7430
 9175SOL    HW228576   0.752   5.342   3.234  0.7152 -1.0304 -1.0870
 9176SOL     OW28577   7.848   5.525   3.141  0.7900  0.0905  0.0697
 9176SOL    HW128578   7.896   5.462   3.087  0.9321  1.3838 -1.3658
 9176SOL    HW228579   7.882   5.610   3.114  0.3345  0.8272  1.7086
 9177SOL     OW28580   4.187   0.453   3.077 -0.3496  0.5457 -0.1803
 9177SOL    HW128581   4.094   0.433   3.067 -0.0163 -0.6054 -1.1692
 9177SOL    HW228582   4.189   0.528   3.137 -1.9186  0.7832 -0.3834
 9178SOL     OW28583   1.389   1.142   7.714  0.7251 -0.7787 -0.4846
 9178SOL    HW128584   1.364   1.059   7.674  1.8521 -0.8246 -1.1622
 9178SOL    HW228585   1.410   1.199   7.640 -0.0412  0.1277 -0.0277
 9179SOL     OW28586   3.108   3.054   6.622  0.6695 -0.5930  0.1854
 9179SOL    HW128587   3.155   3.121   6.574  0.8515 -0.4259  0.5911
 9179SOL    HW228588   3.153   2.972   6.601 -0.6520 -0.8975 -1.7753
 9180SOL     OW28589   3.765   1.922   0.662 -0.0863 -0.2937 -0.3174
 9180SOL    HW128590   3.785   1.996   0.720  1.5599 -0.0751 -1.0934
 9180SOL    HW228591   3.671   1.930   0.645 -0.4698  0.0581  1.6918
 9181SOL     OW28592   1.150   7.175   6.050  0.0856  0.9750  0.3029
 9181SOL    HW128593   1.110   7.177   6.137 -1.7839 -0.1916 -0.4746
 9181SOL    HW228594   1.216   7.106   6.056  1.7579  2.5364  1.4306
 9182SOL     OW28595   4.497   0.925   2.921  0.1302  0.1531 -0.1302
 9182SOL    HW128596   4.443   0.846   2.925 -0.1772  0.3674  0.0344
 9182SOL    HW228597   4.499   0.957   3.011 -0.5972  0.8963 -0.3630
 9183SOL     OW28598   0.019   6.047   7.976  0.1252 -0.0892 -0.0511
 9183SOL    HW128599  -0.016   6.033   7.889 -1.0387 -0.5384  0.4768
 9183SOL    HW228600  -0.057   6.063   8.031  0.7863 -0.4598  1.0108
 9184SOL     OW28601   3.682   8.089   1.607  0.4085  0.1978 -0.2746
 9184SOL    HW128602   3.663   8.054   1.694  0.3907  1.0468  0.0680
 9184SOL    HW228603   3.750   8.154   1.621  1.0535 -0.2984 -1.0279
 9185SOL     OW28604   3.919   0.517   0.467  0.2021  0.3196 -0.1064
 9185SOL    HW128605   3.853   0.581   0.440  1.5888  1.9999  0.3285
 9185SOL    HW228606   3.876   0.467   0.537 -0.8604  0.8480 -0.3482
 9186SOL     OW28607   1.276   7.982   6.595 -0.3262 -0.6785  0.0626
 9186SOL    HW128608   1.269   8.038   6.672 -0.7774  0.6352 -0.9037
 9186SOL    HW228609   1.370   7.963   6.588 -0.2998 -0.9182  0.9982
 9187SOL     OW28610   2.944   2.439   7.747  0.3081  0.1972  0.1006
 9187SOL    HW128611   2.949   2.362   7.804  0.2321  0.1788  0.0817
 9187SOL    HW228612   2.917   2.510   7.805  2.3288  0.6483  0.5496
 9188SOL     OW28613   5.972   3.568   6.994  0.4191  0.4481  0.2191
 9188SOL    HW128614   5.956   3.475   6.981  2.3065 -0.0530  1.2002
 9188SOL    HW228615   6.034   3.592   6.924 -0.7015  1.2082 -0.5627
 9189SOL     OW28616   5.775   3.764   2.360  0.0844 -0.3088 -0.2066
 9189SOL    HW128617   5.864   3.799   2.358  1.0233 -2.3817  1.7419
 9189SOL    HW228618   5.765   3.728   2.448 -1.3907 -3.2865 -1.4501
 9190SOL     OW28619   1.151   0.834   6.007  0.0031  1.0378 -0.1733
 9190SOL    HW128620   1.236   0.822   5.966  0.4344  0.4991  0.8331
 9190SOL    HW228621   1.123   0.921   5.979 -1.4136 -0.5796 -4.5127
 9191SOL     OW28622   3.307   1.486   2.855 -0.0206  0.3663  0.2695
 9191SOL    HW128623   3.356   1.404   2.844  0.7224  0.5300  2.0625
 9191SOL    HW228624   3.215   1.460   2.847  0.2289 -0.4968  0.0538
 9192SOL     OW28625   4.886   3.927   0.092  0.1517  0.3325 -0.0880
 9192SOL    HW128626   4.975   3.921   0.127  0.4019 -0.9790 -0.8628
 9192SOL    HW228627   4.898   3.957   0.002 -0.2637  0.9500  0.0579
 9193SOL     OW28628   5.701   7.130   1.871  0.4426  0.7407 -0.0650
 9193SOL    HW128629   5.735   7.043   1.850 -0.5085  0.1289  0.7988
 9193SOL    HW228630   5.740   7.151   1.956  0.2261  0.8953 -0.0006
 9194SOL     OW28631   2.716   1.865   3.756 -0.2312  0.1684  0.0804
 9194SOL    HW128632   2.753   1.818   3.830 -0.3371 -0.8675 -0.4951
 9194SOL    HW228633   2.621   1.852   3.764 -0.1636 -1.1921 -1.0053
 9195SOL     OW28634   0.923   7.138   4.203 -0.4072  0.2464  0.2765
 9195SOL    HW128635   0.947   7.230   4.203 -2.7928  0.9564  2.1903
 9195SOL    HW228636   0.828   7.138   4.192 -0.5107 -1.9797  0.7405
 9196SOL     OW28637   7.857   0.467   7.020  0.2957 -0.2854 -0.2805
 9196SOL    HW128638   7.872   0.561   7.032  1.2333 -0.3275 -1.0143
 9196SOL    HW228639   7.803   0.442   7.094 -2.1011  1.3380 -1.3330
 9197SOL     OW28640   6.556   6.554   6.708 -0.7274 -0.2942 -0.4922
 9197SOL    HW128641   6.642   6.544   6.668  0.2165  0.8979  1.1032
 9197SOL    HW228642   6.504   6.600   6.642  0.4000  0.5129 -0.8390
 9198SOL     OW28643   2.944   2.237   7.958  0.4093 -0.1658  0.1066
 9198SOL    HW128644   3.018   2.232   8.019 -1.2008  0.3635  2.1983
 9198SOL    HW228645   2.930   2.146   7.931  1.6966 -0.2980 -0.1948
 9199SOL     OW28646   0.924   4.032   4.439  0.0227 -0.1421  0.0072
 9199SOL    HW128647   0.857   4.060   4.502  1.2417  0.8740  0.8810
 9199SOL    HW228648   0.995   3.997   4.493  1.1153  0.8045 -0.7929
 9200SOL     OW28649   4.204   1.371   5.094  0.0248  0.2910  0.2847
 9200SOL    HW128650   4.167   1.292   5.054  1.3708  0.0163 -0.5154
 9200SOL    HW228651   4.154   1.384   5.174 -0.9424 -0.7458 -0.1222
 9201SOL     OW28652   1.944   4.093   5.411 -0.3860  0.4649 -0.3685
 9201SOL    HW128653   1.925   4.073   5.319  0.1360 -0.2869 -0.3182
 9201SOL    HW228654   1.960   4.007   5.451 -1.3344  0.7196  0.5919
 9202SOL     OW28655   6.890   1.460   4.209  0.1825 -0.5258 -0.0052
 9202SOL    HW128656   6.944   1.464   4.131 -1.2371 -0.8920 -1.0580
 9202SOL    HW228657   6.945   1.496   4.279  2.4280 -2.5840 -0.5874
 9203SOL     OW28658   4.116   7.225   0.945  0.4025  0.0192 -0.7072
 9203SOL    HW128659   4.125   7.146   0.891  1.1224 -0.2252 -0.2475
 9203SOL    HW228660   4.026   7.222   0.977  0.2406 -0.2952 -1.1763
 9204SOL     OW28661   5.706   7.559   1.758 -0.5914 -0.4701 -0.2065
 9204SOL    HW128662   5.710   7.629   1.824  1.8435  0.9119 -1.6354
 9204SOL    HW228663   5.798   7.534   1.745 -1.1742 -1.9580 -1.7780
 9205SOL     OW28664   6.984   6.887   3.150 -0.4708 -0.5326 -0.0092
 9205SOL    HW128665   6.950   6.811   3.197 -1.2392 -0.7410 -0.8794
 9205SOL    HW228666   6.964   6.869   3.058 -2.1851  1.4821 -0.0943
 9206SOL     OW28667   2.190   0.051   5.909  0.2100  0.0496 -0.0565
 9206SOL    HW128668   2.123  -0.014   5.888  1.1923 -0.9260 -0.3191
 9206SOL    HW228669   2.159   0.092   5.990 -1.3640  0.6234 -0.9083
 9207SOL     OW28670   1.286   3.635   6.335 -0.5891  0.1982 -0.7150
 9207SOL    HW128671   1.357   3.662   6.277 -1.7786 -0.2335 -2.4455
 9207SOL    HW228672   1.227   3.710   6.337 -0.2675  0.4312  0.4443
 9208SOL     OW28673   2.743   5.722   5.680 -0.3775 -0.3500 -0.1600
 9208SOL    HW128674   2.782   5.694   5.764 -0.1114 -1.1396 -0.5354
 9208SOL    HW228675   2.727   5.640   5.633  0.3159  0.1202 -1.2563
 9209SOL     OW28676   4.492   1.860   7.791  0.7291 -0.4434  0.2367
 9209SOL    HW128677   4.547   1.819   7.859  0.6436 -0.8199  0.0804
 9209SOL    HW228678   4.553   1.877   7.719  1.0848  1.1170  0.8801
 9210SOL     OW28679   7.744   6.262   8.277  0.0748  1.4016  0.5215
 9210SOL    HW128680   7.829   6.305   8.265  0.5053  0.4025 -0.2066
 9210SOL    HW228681   7.747   6.187   8.217 -1.0614  0.9649  0.9856
 9211SOL     OW28682   7.843   5.824   0.771  0.4111  0.1553 -0.1207
 9211SOL    HW128683   7.804   5.787   0.692  0.1993  0.2429 -0.0565
 9211SOL    HW228684   7.935   5.795   0.768 -0.1132 -1.7990  0.7842
 9212SOL     OW28685   8.067   3.630   5.987  0.7680  0.0568  0.3990
 9212SOL    HW128686   8.037   3.540   6.000  0.0632  0.1794 -0.2891
 9212SOL    HW228687   8.002   3.684   6.033  1.3707  0.2009  1.0871
 9213SOL     OW28688   4.115   1.154   6.989 -0.2683 -0.1286 -0.2302
 9213SOL    HW128689   4.115   1.250   6.988  0.2484 -0.1093  0.9496
 9213SOL    HW228690   4.138   1.129   6.899 -0.9852  0.8369 -0.6998
 9214SOL     OW28691   5.081   5.977   3.731  0.5291  0.9361  0.4223
 9214SOL    HW128692   5.000   6.024   3.715 -0.3091 -1.0957 -1.8521
 9214SOL    HW228693   5.127   6.030   3.797 -2.6973  2.0078  2.0135
 9215SOL     OW28694   2.585   7.990   3.730 -0.3670  0.0808  0.3871
 9215SOL    HW128695   2.528   7.988   3.807  0.8009 -1.2164  1.2595
 9215SOL    HW228696   2.641   7.913   3.739 -0.3583 -0.2721 -1.9057
 9216SOL     OW28697   4.231   7.366   1.173 -0.0618 -0.3831  0.2398
 9216SOL    HW128698   4.197   7.453   1.154 -1.8526 -0.7943  1.3408
 9216SOL    HW228699   4.196   7.311   1.103 -0.4464 -0.5231  0.5335
 9217SOL     OW28700   6.668   7.839   8.096 -0.2069  0.3004 -0.3421
 9217SOL    HW128701   6.727   7.812   8.026  0.6839 -0.4145  0.6519
 9217SOL    HW228702   6.676   7.769   8.161  0.2935  1.7854  1.2441
 9218SOL     OW28703   4.573   7.345   3.977  0.8344  0.4471 -0.2008
 9218SOL    HW128704   4.579   7.367   3.884  0.1196  0.2172 -0.3078
 9218SOL    HW228705   4.550   7.252   3.977  2.0028  0.1476  0.2224
 9219SOL     OW28706   6.593   2.790   5.819 -0.6968 -0.5924 -0.1207
 9219SOL    HW128707   6.542   2.771   5.740 -0.9134  0.0885 -0.1545
 9219SOL    HW228708   6.571   2.881   5.841 -0.0385 -0.5154  0.2727
 9220SOL     OW28709   1.523   5.937   1.015  0.0242 -0.3189  0.4408
 9220SOL    HW128710   1.450   5.994   0.994  1.0576  1.3799  1.2558
 9220SOL    HW228711   1.482   5.856   1.047 -1.4789  0.4782  0.5904
 9221SOL     OW28712   3.953   1.975   5.948 -0.1617  0.3991 -0.4041
 9221SOL    HW128713   3.995   1.924   5.880  1.8942  1.2082  0.1871
 9221SOL    HW228714   4.018   2.042   5.972 -1.7860  1.7050  0.5833
 9222SOL     OW28715   7.080   4.254   7.782 -0.3747 -0.1138 -0.3251
 9222SOL    HW128716   7.143   4.284   7.717 -1.1545 -0.0602 -1.0787
 9222SOL    HW228717   7.091   4.313   7.856  1.6449 -1.1396  0.2807
 9223SOL     OW28718   4.066   1.579   2.465  0.7969  0.8301  0.1829
 9223SOL    HW128719   4.148   1.566   2.512  1.3775  2.1838 -0.3794
 9223SOL    HW228720   4.082   1.657   2.411 -0.0112 -0.3098 -1.8312
 9224SOL     OW28721   4.941   1.471   4.829  0.2639 -0.4189 -0.1228
 9224SOL    HW128722   4.907   1.499   4.914 -0.2262 -0.7963 -0.1936
 9224SOL    HW228723   4.926   1.546   4.772 -2.3309 -1.2627 -0.6606
 9225SOL     OW28724   6.123   2.434   7.168 -0.0438 -0.0326 -0.7164
 9225SOL    HW128725   6.038   2.444   7.127 -0.1760  2.8545  0.0520
 9225SOL    HW228726   6.168   2.367   7.115 -2.1793 -0.4926 -2.0622
 9226SOL     OW28727   1.216   1.793   3.209 -0.2460 -0.2485 -0.5490
 9226SOL    HW128728   1.184   1.823   3.294  1.7793 -0.6996  0.4361
 9226SOL    HW228729   1.200   1.699   3.209  0.2407 -0.3346 -0.4245
 9227SOL     OW28730   2.268   0.332   1.313 -0.5712 -0.2365  0.3321
 9227SOL    HW128731   2.362   0.314   1.309 -0.3151  1.0937 -2.2959
 9227SOL    HW228732   2.235   0.277   1.384  2.0331 -1.3948  0.7461
 9228SOL     OW28733   4.249   0.870   6.297 -0.9183  0.6894  0.5220
 9228SOL    HW128734   4.327   0.909   6.256 -0.7326 -0.2811 -0.0877
 9228SOL    HW228735   4.249   0.779   6.266 -1.1625  0.1032  2.1379
 9229SOL     OW28736   6.743   2.948   0.204 -0.2933  0.0379 -0.0125
 9229SOL    HW128737   6.832   2.967   0.234  0.0714 -1.2007 -0.2564
 9229SOL    HW228738   6.737   2.852   0.206 -1.7799  0.1140  0.4494
 9230SOL     OW28739   2.483   5.364   6.207  0.1833 -0.1418 -0.0597
 9230SOL    HW128740   2.549   5.423   6.171 -0.1676  1.3872  1.6689
 9230SOL    HW228741   2.475   5.390   6.299 -2.5855 -0.4748 -0.1138
 9231SOL     OW28742   4.874   1.834   5.344 -0.3572  0.2168 -0.4838
 9231SOL    HW128743   4.937   1.861   5.411 -1.8414  0.9197  0.6899
 9231SOL    HW228744   4.827   1.914   5.322 -0.4961 -0.1911 -1.7388
 9232SOL     OW28745   3.060   5.238   3.581 -0.3370 -0.0187 -0.2639
 9232SOL    HW128746   3.060   5.246   3.486 -0.0783  0.9510 -0.1961
 9232SOL    HW228747   2.971   5.264   3.607  0.1555  1.6359 -0.1239
 9233SOL     OW28748   6.577   6.898   1.542  1.0864 -0.3521  0.0202
 9233SOL    HW128749   6.662   6.855   1.553  1.6646  0.7215 -0.0492
 9233SOL    HW228750   6.595   6.969   1.480 -0.0403 -0.5789 -0.5931
 9234SOL     OW28751   2.780   5.816   3.973  0.2877 -0.1430  0.1713
 9234SOL    HW128752   2.740   5.881   4.030  1.2679 -0.1190  0.8547
 9234SOL    HW228753   2.842   5.770   4.029 -1.0570 -2.3279 -0.0467
 9235SOL     OW28754   2.738   6.432   5.525 -0.2175  0.1458  0.3876
 9235SOL    HW128755   2.647   6.411   5.544  0.2168 -0.7610  1.6067
 9235SOL    HW228756   2.783   6.422   5.609  1.3767 -1.5178 -0.6095
 9236SOL     OW28757   4.241   1.491   8.250  0.1043  0.3342  0.0307
 9236SOL    HW128758   4.212   1.573   8.289  0.8585  1.1023 -0.9544
 9236SOL    HW228759   4.232   1.426   8.319  2.1340  1.7730  1.7549
 9237SOL     OW28760   1.310   5.237   1.282  0.7651 -0.1346 -0.1806
 9237SOL    HW128761   1.342   5.221   1.372  3.1122  2.0710 -0.5080
 9237SOL    HW228762   1.216   5.252   1.292  0.7787 -1.0031  1.7392
 9238SOL     OW28763   3.712   3.880   1.686 -0.5430  0.5825  0.0332
 9238SOL    HW128764   3.789   3.836   1.722 -0.5449 -0.2310 -0.9193
 9238SOL    HW228765   3.734   3.896   1.595 -1.2711  0.8986 -0.0921
 9239SOL     OW28766   5.290   2.832   7.537  0.0716  0.1791 -0.0400
 9239SOL    HW128767   5.213   2.835   7.594 -0.8099 -1.1681 -1.0956
 9239SOL    HW228768   5.310   2.738   7.529  0.8011  0.4097 -1.1148
 9240SOL     OW28769   1.779   2.613   4.980 -0.3698 -0.1704  0.6626
 9240SOL    HW128770   1.706   2.669   4.954  0.3759  0.7856  0.5676
 9240SOL    HW228771   1.764   2.594   5.072 -2.0264 -2.0248  0.1082
 9241SOL     OW28772   2.704   1.039   4.500  0.0053 -0.0067 -0.2024
 9241SOL    HW128773   2.665   0.954   4.480 -1.9574  0.6230  0.6237
 9241SOL    HW228774   2.727   1.076   4.415  0.2389 -1.0589 -0.6119
 9242SOL     OW28775   5.394   4.422   5.077 -0.2275 -0.3987  0.0063
 9242SOL    HW128776   5.460   4.388   5.136  0.1628 -5.0007 -2.6020
 9242SOL    HW228777   5.332   4.350   5.067 -2.4782  1.6524 -2.0674
 9243SOL     OW28778   3.766   6.756   5.735  0.4634  0.0501  0.0666
 9243SOL    HW128779   3.779   6.812   5.659  1.1245 -0.5849 -0.2963
 9243SOL    HW228780   3.758   6.816   5.809 -0.7181  0.7065 -0.5569
 9244SOL     OW28781   4.464   1.263   6.782  0.0141  0.0902 -0.0315
 9244SOL    HW128782   4.540   1.212   6.812  1.5760  2.4950  0.3536
 9244SOL    HW228783   4.492   1.354   6.789 -1.9601  0.9927 -2.5225
 9245SOL     OW28784   5.596   4.615   8.182 -0.2509 -0.0954  0.0678
 9245SOL    HW128785   5.581   4.545   8.245 -3.2494  0.8521  0.5866
 9245SOL    HW228786   5.631   4.572   8.105  1.9349 -1.5192  1.7531
 9246SOL     OW28787   5.199   1.905   7.911 -0.3728  0.3139 -0.3047
 9246SOL    HW128788   5.117   1.903   7.861 -1.9638  1.0570  2.0756
 9246SOL    HW228789   5.225   1.997   7.910 -1.6581  0.7881  1.9232
 9247SOL     OW28790   3.579   6.966   7.150 -0.5714 -0.6476  0.0880
 9247SOL    HW128791   3.520   6.907   7.103  1.1572 -0.6284 -2.2310
 9247SOL    HW228792   3.618   7.021   7.082 -1.3124  2.5448  2.0264
 9248SOL     OW28793   5.151   5.647   7.502 -0.2927  0.0142  0.2310
 9248SOL    HW128794   5.225   5.657   7.561 -0.0124  1.0924 -0.2648
 9248SOL    HW228795   5.103   5.571   7.535  0.2422  0.1658  1.4054
 9249SOL     OW28796   0.354   1.359   5.613 -0.0399 -0.6685 -0.0898
 9249SOL    HW128797   0.276   1.401   5.576 -1.2506 -1.8200  1.0777
 9249SOL    HW228798   0.403   1.431   5.652 -0.7015  0.0203 -0.4907
 9250SOL     OW28799   4.749   1.957   0.859  0.2871  0.6300  0.4024
 9250SOL    HW128800   4.691   1.998   0.922  0.7200  1.8383  0.0524
 9250SOL    HW228801   4.698   1.951   0.778 -0.0310 -0.2692  0.6523
 9251SOL     OW28802   0.440   5.745   0.921 -0.1233  0.8143  1.1425
 9251SOL    HW128803   0.525   5.706   0.939 -0.4770 -0.0424  1.0012
 9251SOL    HW228804   0.424   5.803   0.995 -0.2154 -0.3846  2.0891
 9252SOL     OW28805   0.208   2.400   6.723 -0.2762  0.5000  0.3288
 9252SOL    HW128806   0.193   2.490   6.693  0.4597  0.2099 -0.9886
 9252SOL    HW228807   0.127   2.376   6.767 -0.4078  1.8800  0.8997
 9253SOL     OW28808   2.146   6.538   6.260 -0.2427 -0.1020  0.1207
 9253SOL    HW128809   2.074   6.482   6.232 -0.4397  0.4573 -0.5191
 9253SOL    HW228810   2.176   6.581   6.180 -1.7860  2.6921  0.9099
 9254SOL     OW28811   0.846   1.496   0.964  0.3631  0.3470 -0.0441
 9254SOL    HW128812   0.798   1.471   1.042  0.3319 -0.5399 -0.3389
 9254SOL    HW228813   0.783   1.487   0.893  0.3273  1.3550 -0.1615
 9255SOL     OW28814   3.271   3.963   4.084 -0.4154  0.0783  0.3891
 9255SOL    HW128815   3.185   3.991   4.114 -0.4550 -0.0282  0.3764
 9255SOL    HW228816   3.261   3.870   4.065 -0.0541 -0.1649  1.3343
 9256SOL     OW28817   5.771   2.351   6.610  0.6753  0.2242 -0.2768
 9256SOL    HW128818   5.684   2.327   6.578  1.0703 -0.5008 -0.8291
 9256SOL    HW228819   5.758   2.363   6.704  0.1137 -0.5697 -0.2366
 9257SOL     OW28820   2.618   0.731   7.196  0.5415 -0.1469  0.1453
 9257SOL    HW128821   2.632   0.698   7.285 -0.2298  0.5247  0.5250
 9257SOL    HW228822   2.626   0.653   7.140  0.3433 -0.6910  0.8645
 9258SOL     OW28823   0.875   1.884   2.294  0.2380 -0.3793  0.1632
 9258SOL    HW128824   0.807   1.823   2.265 -1.2995  0.9636  0.7507
 9258SOL    HW228825   0.859   1.893   2.388  1.7650 -0.6316  0.4711
 9259SOL     OW28826   2.162   6.379   5.380  0.2847 -0.6689  0.1830
 9259SOL    HW128827   2.190   6.342   5.297  0.3311 -0.8421  0.2761
 9259SOL    HW228828   2.242   6.393   5.430  0.1452 -2.1778  0.8764
 9260SOL     OW28829   1.488   1.689   7.943 -0.1225 -0.0021  0.2765
 9260SOL    HW128830   1.463   1.773   7.980 -1.9570 -0.1560 -0.4925
 9260SOL    HW228831   1.483   1.627   8.016  0.0560  0.3570  0.5899
 9261SOL     OW28832   0.628   2.922   1.247  0.2686 -0.4060  0.1709
 9261SOL    HW128833   0.620   2.887   1.336 -1.0342 -1.7180 -0.4179
 9261SOL    HW228834   0.557   2.880   1.199  0.7238  0.5719 -1.4093
 9262SOL     OW28835   5.749   0.637   5.165 -0.3361  0.1050  0.4326
 9262SOL    HW128836   5.806   0.566   5.134 -0.5002 -0.5218  1.5400
 9262SOL    HW228837   5.661   0.600   5.164 -0.6146  0.7583 -0.3312
 9263SOL     OW28838   0.433   0.769   6.333 -0.0527 -0.3175 -0.0747
 9263SOL    HW128839   0.343   0.795   6.314  0.2696  1.0671  0.2007
 9263SOL    HW228840   0.477   0.850   6.358  0.6699 -1.3063  2.1784
 9264SOL     OW28841   3.436   6.164   1.711  0.7406  0.0559  0.5398
 9264SOL    HW128842   3.388   6.235   1.668  1.2720  0.5907  0.8042
 9264SOL    HW228843   3.386   6.145   1.790 -1.1948 -2.0945 -1.0577
 9265SOL     OW28844   5.953   3.640   1.562 -0.0128  0.2201 -1.0212
 9265SOL    HW128845   5.915   3.572   1.618  1.1510  0.0878 -0.3585
 9265SOL    HW228846   5.887   3.656   1.495 -1.1621 -0.1069  0.0053
 9266SOL     OW28847   6.905   0.510   0.247 -0.3415 -0.1339 -0.2187
 9266SOL    HW128848   6.858   0.580   0.201  0.6122  1.7761  1.5074
 9266SOL    HW228849   6.838   0.465   0.298 -0.9938 -0.6267 -1.4716
 9267SOL     OW28850   6.250   6.876   0.684 -0.5205 -0.3139 -0.3471
 9267SOL    HW128851   6.342   6.903   0.694 -0.3084 -1.1065 -0.1251
 9267SOL    HW228852   6.229   6.898   0.593  0.5227 -1.9878 -1.0484
 9268SOL     OW28853   1.844   5.401   4.445 -0.4204 -0.6865  0.8308
 9268SOL    HW128854   1.837   5.367   4.355  3.4075 -1.0514  0.5275
 9268SOL    HW228855   1.786   5.477   4.446  1.1757  0.8299 -2.8021
 9269SOL     OW28856   4.117   1.993   1.514  0.3658 -0.1329  0.0690
 9269SOL    HW128857   4.133   2.038   1.432  2.1912  0.4240  0.6720
 9269SOL    HW228858   4.050   2.045   1.558  0.2715  0.2608 -0.5364
 9270SOL     OW28859   3.044   1.264   6.839  0.1181 -0.5579 -1.0018
 9270SOL    HW128860   3.120   1.322   6.838  0.1391 -0.4648  1.2336
 9270SOL    HW228861   3.076   1.183   6.878 -0.8226 -0.6937 -0.5046
 9271SOL     OW28862   4.184   3.500   6.858 -0.2466  0.3782  0.1345
 9271SOL    HW128863   4.096   3.514   6.823 -0.0362 -0.6836 -0.8988
 9271SOL    HW228864   4.170   3.453   6.940 -0.8304  4.1383  2.4583
 9272SOL     OW28865   6.417   6.229   7.246  0.6138  0.2704 -0.1711
 9272SOL    HW128866   6.396   6.139   7.220  0.3962  0.8622 -2.1399
 9272SOL    HW228867   6.511   6.227   7.263  0.5700 -0.3738  0.0342
 9273SOL     OW28868   1.442   2.918   6.224 -0.3019 -0.8677 -0.5285
 9273SOL    HW128869   1.372   2.872   6.272  0.4539 -0.5268  0.9718
 9273SOL    HW228870   1.470   2.987   6.285  1.7007 -1.3384 -0.8698
 9274SOL     OW28871   6.779   7.086   4.254 -0.0219 -0.0319 -0.3537
 9274SOL    HW128872   6.707   7.113   4.198 -0.9711 -1.4660  0.1265
 9274SOL    HW228873   6.771   7.142   4.332  0.5429  1.0855 -1.0640
 9275SOL     OW28874   5.130   3.357   6.444 -0.2392  0.3671  0.2558
 9275SOL    HW128875   5.167   3.294   6.506  0.8746 -0.6284 -1.3354
 9275SOL    HW228876   5.036   3.353   6.459 -0.1264 -1.1729  0.6803
 9276SOL     OW28877   5.818   2.921   5.842 -0.3485 -0.7789 -0.3308
 9276SOL    HW128878   5.851   2.834   5.821 -1.1228 -0.7152 -2.0112
 9276SOL    HW228879   5.764   2.909   5.920  0.6200 -1.5470  0.2305
 9277SOL     OW28880   5.497   2.355   6.220  0.4436  0.3865 -0.1674
 9277SOL    HW128881   5.494   2.304   6.301 -1.1436  0.7581  0.0460
 9277SOL    HW228882   5.497   2.290   6.150  2.3789  0.0475  0.0825
 9278SOL     OW28883   5.511   0.947   6.460  0.2242 -0.3519  0.1355
 9278SOL    HW128884   5.453   1.024   6.459  3.3690  2.2748  0.7057
 9278SOL    HW228885   5.532   0.932   6.368  1.5182  1.1881  0.1320
 9279SOL     OW28886   2.643   3.575   8.174 -0.2140 -0.4476  0.1659
 9279SOL    HW128887   2.647   3.668   8.195  0.3527 -0.9925  2.7854
 9279SOL    HW228888   2.592   3.536   8.244 -2.1878 -1.9213 -1.9404
 9280SOL     OW28889   5.764   2.240   7.346  0.1553 -0.4996  0.0104
 9280SOL    HW128890   5.681   2.218   7.305  0.8353 -1.1897 -1.0420
 9280SOL    HW228891   5.789   2.161   7.394  0.6051 -0.6009 -0.3789
 9281SOL     OW28892   4.399   4.101   7.097  0.6281  0.3861  0.1098
 9281SOL    HW128893   4.335   4.033   7.077  1.4264  0.0924 -1.6302
 9281SOL    HW228894   4.351   4.183   7.085  0.4621  0.1605 -0.9058
 9282SOL     OW28895   7.626   2.997   1.969 -0.6620  0.3952 -0.0783
 9282SOL    HW128896   7.606   3.047   2.048 -0.5855  0.7176 -0.2623
 9282SOL    HW228897   7.560   3.025   1.906 -0.5155  0.3900 -0.2332
 9283SOL     OW28898   3.954   5.131   5.460 -0.4311  0.2363 -0.0587
 9283SOL    HW128899   4.038   5.110   5.502 -0.8359  2.0446  1.7983
 9283SOL    HW228900   3.967   5.220   5.425 -1.6793  0.6884  0.5863
 9284SOL     OW28901   7.919   2.060   2.906  0.2232  0.6043  0.4702
 9284SOL    HW128902   7.850   2.025   2.963  1.6212 -0.3137  1.6776
 9284SOL    HW228903   7.999   2.050   2.958  1.5273 -0.0297 -1.5660
 9285SOL     OW28904   6.580   6.593   2.376  0.2347  0.7440  0.0325
 9285SOL    HW128905   6.559   6.640   2.295 -0.9225  0.7612  0.3292
 9285SOL    HW228906   6.662   6.632   2.406  1.2170  0.0782 -1.6365
 9286SOL     OW28907   6.426   1.700   3.104 -0.7626  0.2964  0.3049
 9286SOL    HW128908   6.400   1.610   3.123 -1.2577  0.5830  1.0138
 9286SOL    HW228909   6.450   1.737   3.189  1.4709  0.2250 -0.2286
 9287SOL     OW28910   5.733   0.834   0.654  0.2686 -0.3242 -0.0078
 9287SOL    HW128911   5.754   0.748   0.690 -0.0326  0.5462  2.4516
 9287SOL    HW228912   5.639   0.843   0.667  0.3521  0.5008  0.0931
 9288SOL     OW28913   3.464   1.715   2.845 -0.2272  0.3541  0.7448
 9288SOL    HW128914   3.419   1.635   2.870  0.3046 -0.0088  0.5481
 9288SOL    HW228915   3.540   1.719   2.902  0.2280  0.2507  0.1499
 9289SOL     OW28916   4.437   5.909   1.269 -0.2575  0.2861  0.1523
 9289SOL    HW128917   4.377   5.837   1.247 -1.4623  1.3128 -0.0604
 9289SOL    HW228918   4.512   5.895   1.212 -0.4411 -0.8403  0.1626
 9290SOL     OW28919   6.183   4.708   6.487 -0.0251 -0.1551  0.0220
 9290SOL    HW128920   6.202   4.620   6.452  0.2412  0.4222 -1.3532
 9290SOL    HW228921   6.260   4.760   6.464 -1.2793  1.0933 -1.5540
 9291SOL     OW28922   1.663   4.146   0.514  0.1055  0.1299 -0.5981
 9291SOL    HW128923   1.593   4.194   0.470 -0.4036  0.0921  0.1531
 9291SOL    HW228924   1.700   4.209   0.576  2.6780  1.1246 -2.8778
 9292SOL     OW28925   0.112   2.573   7.974  0.3103  0.0095  0.4814
 9292SOL    HW128926   0.168   2.637   7.930  0.3341  0.2490  0.8549
 9292SOL    HW228927   0.173   2.517   8.021  0.2744 -0.1415  0.3480
 9293SOL     OW28928   4.879   6.238   6.432  0.5523  0.4025  1.1867
 9293SOL    HW128929   4.949   6.266   6.490  0.1903 -0.5980  2.1441
 9293SOL    HW228930   4.827   6.177   6.484 -0.0502 -0.1809 -0.0421
 9294SOL     OW28931   0.224   7.548   0.788  0.2469  0.1640 -0.1322
 9294SOL    HW128932   0.307   7.582   0.823  1.1431 -1.1383 -0.9154
 9294SOL    HW228933   0.176   7.518   0.865  1.2001 -0.5163  0.2167
 9295SOL     OW28934   5.809   0.019   0.912 -0.0929 -0.4160 -0.6457
 9295SOL    HW128935   5.871  -0.039   0.867 -1.2906 -0.9212 -1.6942
 9295SOL    HW228936   5.759  -0.039   0.969 -0.0758 -0.1122 -0.3155
 9296SOL     OW28937   5.592   6.773   1.604  0.0125  0.2430 -0.4021
 9296SOL    HW128938   5.597   6.862   1.570  0.2965  1.5358  2.6974
 9296SOL    HW228939   5.622   6.780   1.694 -1.5617 -2.7094  0.4885
 9297SOL     OW28940   6.932   1.475   6.483 -0.4116 -0.3821 -0.1963
 9297SOL    HW128941   6.898   1.405   6.540  0.0020 -0.3508  0.0926
 9297SOL    HW228942   6.887   1.461   6.400  1.1028 -2.2265 -0.7888
 9298SOL     OW28943   1.961   7.914   3.424 -0.1337 -0.1605 -0.3465
 9298SOL    HW128944   1.989   7.922   3.516  0.1834  1.1015 -0.5402
 9298SOL    HW228945   1.874   7.874   3.429 -1.1198  1.9773  0.6551
 9299SOL     OW28946   7.095   2.891   6.183  0.7013 -0.4478  1.0095
 9299SOL    HW128947   7.189   2.894   6.200  1.0037  2.4833 -0.5147
 9299SOL    HW228948   7.075   2.799   6.168  3.9189 -0.8874 -1.5496
 9300SOL     OW28949   1.336   7.747   4.685 -0.8114 -0.1660  0.3187
 9300SOL    HW128950   1.309   7.730   4.775 -0.5618  0.2764  0.4821
 9300SOL    HW228951   1.383   7.669   4.658 -1.7149 -0.6984  0.2414
 9301SOL     OW28952   2.327   0.915   2.494 -0.2196  0.7609 -0.5356
 9301SOL    HW128953   2.392   0.984   2.485 -0.4251  1.1935  1.0187
 9301SOL    HW228954   2.378   0.836   2.515 -0.1223  0.9133 -0.1841
 9302SOL     OW28955   3.913   6.373   2.900  0.3259 -0.1483  0.0434
 9302SOL    HW128956   3.983   6.325   2.855 -0.6110 -2.4316  0.8736
 9302SOL    HW228957   3.833   6.327   2.876 -1.0849  2.9148 -1.5493
 9303SOL     OW28958   7.446   2.198   4.290 -0.1124 -0.1862 -0.1035
 9303SOL    HW128959   7.459   2.291   4.313  0.6956 -0.0497 -1.0421
 9303SOL    HW228960   7.526   2.155   4.321 -0.9072 -0.7796  1.2435
 9304SOL     OW28961   7.499   5.015   2.232  0.3879  0.2469 -0.0869
 9304SOL    HW128962   7.433   5.067   2.186  0.2396  0.5961  0.5037
 9304SOL    HW228963   7.499   5.051   2.321 -0.7513 -1.6890  0.7568
 9305SOL     OW28964   4.408   4.114   2.032 -0.4837  0.1994  0.1759
 9305SOL    HW128965   4.370   4.103   2.119 -0.3689 -1.0945  0.0879
 9305SOL    HW228966   4.419   4.024   1.999  1.1838  0.5874 -0.4227
 9306SOL     OW28967   2.916   5.879   7.721  0.1895 -0.0888 -0.0489
 9306SOL    HW128968   2.899   5.846   7.809  0.2127  0.6786  0.2495
 9306SOL    HW228969   2.829   5.899   7.686  0.2598  1.0116  0.3645
 9307SOL     OW28970   5.712   6.913   3.191 -0.4659  0.7376 -0.1229
 9307SOL    HW128971   5.628   6.957   3.180 -0.6486  0.7352  1.1403
 9307SOL    HW228972   5.689   6.822   3.209 -0.3611  1.1985  2.8161
 9308SOL     OW28973   5.928   5.962   1.321  0.3793  0.2335  0.1082
 9308SOL    HW128974   5.994   6.031   1.310 -0.8260  1.3798 -0.1764
 9308SOL    HW228975   5.928   5.945   1.415 -0.0944  1.4735  0.3635
 9309SOL     OW28976   2.934   0.981   6.976  0.1862  0.3221 -0.7992
 9309SOL    HW128977   2.884   0.899   6.970  0.8287 -0.0148 -1.7023
 9309SOL    HW228978   3.025   0.953   6.985  0.2444  0.9343  0.7076
 9310SOL     OW28979   1.172   4.468   6.323  0.3853  0.8625 -0.3261
 9310SOL    HW128980   1.107   4.402   6.348  1.5855 -0.9312 -1.6885
 9310SOL    HW228981   1.237   4.465   6.392  0.5394  0.4622 -0.4877
 9311SOL     OW28982   3.584   7.986   2.110 -0.8477  0.4481  0.0341
 9311SOL    HW128983   3.510   7.966   2.168 -0.3885 -0.9198  0.1806
 9311SOL    HW228984   3.647   7.917   2.128  0.3584  1.4400 -0.3020
 9312SOL     OW28985   5.296   2.278   4.020 -0.2471 -0.2872  0.3328
 9312SOL    HW128986   5.277   2.366   3.985  1.8637 -0.7589 -2.2619
 9312SOL    HW228987   5.358   2.294   4.091 -0.4015  0.3359  0.3387
 9313SOL     OW28988   7.504   4.042   2.987 -0.3284 -0.0219 -0.1229
 9313SOL    HW128989   7.597   4.048   3.009 -0.8169  2.2681  1.6849
 9313SOL    HW228990   7.501   4.067   2.894  0.8912 -0.7759 -0.3970
 9314SOL     OW28991   1.948   7.358   5.761  0.7267  0.0099  0.1093
 9314SOL    HW128992   1.931   7.436   5.814 -1.1491 -0.2991  0.0117
 9314SOL    HW228993   1.999   7.391   5.686 -1.8412  1.5928 -1.0620
 9315SOL     OW28994   8.096   3.689   0.100  0.1787 -0.2077  0.4768
 9315SOL    HW128995   8.122   3.680   0.192 -1.1448  0.3005  0.9297
 9315SOL    HW228996   8.099   3.784   0.084  0.0148 -0.2643  0.1119
 9316SOL     OW28997   4.392   6.351   3.351 -0.2551  0.5866 -0.3060
 9316SOL    HW128998   4.422   6.324   3.437  1.3423 -0.2525 -1.0774
 9316SOL    HW228999   4.306   6.392   3.366 -0.5236 -0.5631  1.5127
 9317SOL     OW29000   7.415   5.950   1.247  0.6025  0.0846 -0.2991
 9317SOL    HW129001   7.494   5.926   1.294  0.1063  1.3397  1.2814
 9317SOL    HW229002   7.403   5.881   1.182  1.3872 -1.6894  1.3536
 9318SOL     OW29003   7.545   5.344   3.008  0.5523 -0.6321  0.0482
 9318SOL    HW129004   7.492   5.274   2.969 -1.0773 -1.5839  3.6145
 9318SOL    HW229005   7.618   5.298   3.050 -0.0158 -0.1681  1.6114
 9319SOL     OW29006   5.390   7.072   0.698 -0.1119 -0.0879 -0.0069
 9319SOL    HW129007   5.371   7.161   0.670 -0.8431  0.0934  0.9971
 9319SOL    HW229008   5.324   7.053   0.765  0.2016 -1.2837 -0.0043
 9320SOL     OW29009   5.073   7.975   6.432  0.8366  0.2240  0.4196
 9320SOL    HW129010   5.096   7.955   6.522  0.7326 -0.3865  0.3129
 9320SOL    HW229011   5.041   8.066   6.435  1.0052  0.2693  0.9585
 9321SOL     OW29012   0.971   5.720   2.653 -0.2755  0.2581 -0.1780
 9321SOL    HW129013   0.878   5.727   2.633 -0.0519  0.4963 -1.2412
 9321SOL    HW229014   0.993   5.629   2.633 -0.4745 -0.0596  1.0114
 9322SOL     OW29015   5.417   0.653   4.857 -0.0063 -0.3538  0.2706
 9322SOL    HW129016   5.442   0.610   4.939  0.4451 -2.0970 -0.7393
 9322SOL    HW229017   5.489   0.714   4.840 -0.0547 -0.0421  1.1070
 9323SOL     OW29018   2.421   3.227   7.655 -0.0143  0.1007  0.1832
 9323SOL    HW129019   2.426   3.149   7.601  0.9579  0.2354  0.0677
 9323SOL    HW229020   2.331   3.258   7.644 -0.1250 -0.4566 -0.5248
 9324SOL     OW29021   4.816   0.311   3.859 -0.4275  0.0948  0.3221
 9324SOL    HW129022   4.895   0.326   3.910  0.0416 -0.1388 -0.3177
 9324SOL    HW229023   4.808   0.216   3.855  0.6726  0.0241 -1.6816
 9325SOL     OW29024   5.356   8.079   4.763 -0.0846 -0.0744 -0.6262
 9325SOL    HW129025   5.394   8.142   4.825  0.7429 -2.1885  1.1365
 9325SOL    HW229026   5.271   8.117   4.740  0.5122  1.8305  0.0826
 9326SOL     OW29027   7.519   1.921   4.411  0.0400  0.2898  0.4483
 9326SOL    HW129028   7.460   1.996   4.405  1.1421  1.0735 -2.0941
 9326SOL    HW229029   7.580   1.944   4.481 -1.5598  0.2266  1.9264
 9327SOL     OW29030   0.696   4.022   2.551  0.0321 -0.0378 -0.6505
 9327SOL    HW129031   0.736   3.951   2.502 -0.8099  0.1628 -1.6664
 9327SOL    HW229032   0.675   4.088   2.485 -0.5380  0.5251  0.0724
 9328SOL     OW29033   0.536   4.497   6.596 -0.3747  0.8568 -0.8094
 9328SOL    HW129034   0.608   4.488   6.659 -0.5359  0.7955 -0.6293
 9328SOL    HW229035   0.577   4.488   6.510 -0.6511 -3.6354 -0.7245
 9329SOL     OW29036   1.094   4.774   7.473  0.1500  0.3388  0.2900
 9329SOL    HW129037   1.070   4.741   7.559 -1.7031 -2.2496 -1.0862
 9329SOL    HW229038   1.128   4.698   7.426  1.3045  1.7110 -1.2653
 9330SOL     OW29039   1.397   2.774   6.986  0.3181  0.1592 -0.1787
 9330SOL    HW129040   1.398   2.869   6.994  0.7683  0.1334  0.0739
 9330SOL    HW229041   1.309   2.749   7.016  0.5183  0.4221  0.6566
 9331SOL     OW29042   2.921   0.496   2.759  0.1613 -0.5306  0.2067
 9331SOL    HW129043   2.883   0.417   2.798  1.3006 -0.8578  0.6888
 9331SOL    HW229044   2.981   0.530   2.826  0.8611 -0.1327 -0.5984
 9332SOL     OW29045   5.046   4.878   8.015 -0.5474  0.0625  0.1603
 9332SOL    HW129046   5.020   4.913   8.100  1.2037  2.0184 -0.0430
 9332SOL    HW229047   4.965   4.876   7.963 -1.5105 -0.5643  1.6356
 9333SOL     OW29048   4.325   3.011   7.589 -0.0101 -0.3605 -0.3004
 9333SOL    HW129049   4.301   2.938   7.532 -1.8813  1.4799 -2.0597
 9333SOL    HW229050   4.413   3.036   7.561  0.0385 -1.0001 -0.7312
 9334SOL     OW29051   1.262   4.662   5.789  0.2877  0.0802  0.0194
 9334SOL    HW129052   1.250   4.754   5.764  2.3698  0.5881  0.7230
 9334SOL    HW229053   1.242   4.660   5.882  0.9043 -0.0277  0.1524
 9335SOL     OW29054   5.887   8.135   6.806  0.3375  0.3855 -0.4935
 9335SOL    HW129055   5.872   8.153   6.714  0.7175  1.1375 -0.4161
 9335SOL    HW229056   5.911   8.219   6.844  0.7983 -0.0273  0.1688
 9336SOL     OW29057   0.816   3.367   6.989 -0.1408 -0.7123  0.2147
 9336SOL    HW129058   0.839   3.342   6.900  1.8589  0.2694  0.3811
 9336SOL    HW229059   0.756   3.441   6.979  1.4873  0.5741 -0.3827
 9337SOL     OW29060   4.506   3.805   1.412 -0.1992  0.0892 -0.9659
 9337SOL    HW129061   4.521   3.731   1.353 -0.4585 -0.7836  0.0326
 9337SOL    HW229062   4.522   3.882   1.358  3.1912 -0.6610 -1.2681
 9338SOL     OW29063   1.381   4.597   4.802  0.1188 -0.4655  0.3304
 9338SOL    HW129064   1.423   4.568   4.883 -0.0614 -1.9152 -0.0810
 9338SOL    HW229065   1.355   4.688   4.821  1.0810 -0.4049  1.4909
 9339SOL     OW29066   6.859   4.830   7.242 -0.2087 -0.4540  0.3358
 9339SOL    HW129067   6.938   4.777   7.237  0.6992  0.9169 -0.3600
 9339SOL    HW229068   6.888   4.914   7.277 -1.5742 -0.2927  1.1929
 9340SOL     OW29069   7.963   2.979   6.356  0.1942 -0.1161 -0.2519
 9340SOL    HW129070   7.892   2.942   6.304 -0.5500 -0.2349  0.8199
 9340SOL    HW229071   8.029   2.910   6.361  0.1965 -0.1643 -0.8722
 9341SOL     OW29072   0.061   5.760   8.278 -0.3644  0.0493  0.1573
 9341SOL    HW129073   0.004   5.694   8.238 -0.2432  1.3691 -2.3719
 9341SOL    HW229074   0.126   5.780   8.211  0.4333  1.7507  1.3631
 9342SOL     OW29075   1.054   3.313   2.344  0.1905 -0.0965 -0.4651
 9342SOL    HW129076   1.122   3.347   2.286  1.6961 -1.0636  0.6675
 9342SOL    HW229077   0.998   3.388   2.362  1.3315  0.8867 -0.8963
 9343SOL     OW29078   1.375   5.062   7.672 -0.7299  0.4602 -0.1796
 9343SOL    HW129079   1.351   5.092   7.585 -0.0063  2.1592  0.1538
 9343SOL    HW229080   1.367   5.140   7.727  2.5046  0.4588  0.5028
 9344SOL     OW29081   2.515   0.335   4.378 -0.0227 -0.3417 -0.4695
 9344SOL    HW129082   2.433   0.384   4.377 -0.5907 -1.0701  2.0696
 9344SOL    HW229083   2.583   0.403   4.380 -0.7857  0.5576  3.1194
 9345SOL     OW29084   0.835   6.802   7.897 -0.4523  0.4457  0.4305
 9345SOL    HW129085   0.743   6.778   7.912  0.1404 -0.9576  2.1870
 9345SOL    HW229086   0.851   6.779   7.805 -2.1669  1.9107 -0.2869
 9346SOL     OW29087   4.520   3.888   6.321  0.2677 -0.3493  0.0648
 9346SOL    HW129088   4.595   3.830   6.314 -1.0972 -2.2505  0.4372
 9346SOL    HW229089   4.484   3.872   6.409 -0.9153  0.0566 -0.3139
 9347SOL     OW29090   2.637   1.474   2.322 -0.2219  0.2833 -0.3749
 9347SOL    HW129091   2.657   1.556   2.276 -0.3536  1.8464  2.1917
 9347SOL    HW229092   2.722   1.438   2.346 -0.1719  1.4277  1.3267
 9348SOL     OW29093   5.418   2.324   7.251 -0.1129  0.1627 -0.0854
 9348SOL    HW129094   5.327   2.293   7.251 -0.6435  1.5097  2.1593
 9348SOL    HW229095   5.471   2.244   7.247 -1.3926 -0.7500  0.5273
 9349SOL     OW29096   7.116   7.323   7.430  0.1041  0.4206 -0.0188
 9349SOL    HW129097   7.198   7.311   7.382 -0.6288  1.1013 -1.5056
 9349SOL    HW229098   7.102   7.418   7.429 -2.1790  0.1895 -2.4903
 9350SOL     OW29099   3.282   5.374   2.854 -0.4106  0.3373 -0.4793
 9350SOL    HW129100   3.190   5.357   2.835 -0.5340 -0.3059  0.5940
 9350SOL    HW229101   3.310   5.298   2.906  0.4651  0.9580 -0.0138
 9351SOL     OW29102   4.319   1.784   5.804 -0.0273 -0.0643  0.5866
 9351SOL    HW129103   4.361   1.870   5.808  1.9753 -0.8907 -1.0644
 9351SOL    HW229104   4.242   1.798   5.748  0.0157  0.7378  0.7141
 9352SOL     OW29105   4.415   3.921   0.456  0.4787 -0.1508  0.3548
 9352SOL    HW129106   4.484   3.870   0.497 -1.0290 -2.2097  0.5075
 9352SOL    HW229107   4.448   3.939   0.368  1.0979 -1.3858  0.3061
 9353SOL     OW29108   0.791   6.467   1.238 -0.0443 -0.2368 -0.4239
 9353SOL    HW129109   0.776   6.381   1.198  0.8858 -0.6161  0.0078
 9353SOL    HW229110   0.875   6.496   1.202  0.1737 -0.0022  0.2550
 9354SOL     OW29111   4.044   2.235   2.050 -0.3406  0.3271 -0.9250
 9354SOL    HW129112   4.081   2.215   2.135  4.9914 -1.1052 -3.1601
 9354SOL    HW229113   4.068   2.327   2.035  1.1427 -0.1520 -1.7501
 9355SOL     OW29114   8.031   2.208   4.357 -0.2556 -0.1900 -0.1899
 9355SOL    HW129115   8.063   2.159   4.433 -0.5446  1.2271  0.8869
 9355SOL    HW229116   7.948   2.245   4.386 -1.8172 -1.8740 -2.1478
 9356SOL     OW29117   4.501   5.255   0.950  0.0445  0.1596  0.0854
 9356SOL    HW129118   4.536   5.177   0.994 -1.4678  0.9702  3.0019
 9356SOL    HW229119   4.578   5.300   0.915  1.3058 -0.8620  1.4385
 9357SOL     OW29120   4.306   1.146   1.712 -0.0019 -0.6030 -0.2456
 9357SOL    HW129121   4.307   1.093   1.633  0.8501  0.5643 -1.0534
 9357SOL    HW229122   4.273   1.231   1.683 -1.1144 -0.5927  0.9697
 9358SOL     OW29123   2.076   6.831   6.235 -0.1359 -0.1177  0.0547
 9358SOL    HW129124   2.098   6.774   6.162 -1.4468 -0.2622 -0.2433
 9358SOL    HW229125   2.134   6.802   6.306  0.2661 -0.8064 -0.5460
 9359SOL     OW29126   6.863   1.829   0.176 -0.2745 -0.0624 -0.6037
 9359SOL    HW129127   6.804   1.863   0.108 -0.7509 -0.1199 -0.2304
 9359SOL    HW229128   6.950   1.835   0.138 -0.4512  0.6836 -0.9047
 9360SOL     OW29129   6.099   6.655   0.252  0.1001  0.4484  0.0598
 9360SOL    HW129130   6.024   6.613   0.212 -0.3407  0.7920  0.5094
 9360SOL    HW229131   6.172   6.595   0.237 -0.0542  0.5623 -1.2256
 9361SOL     OW29132   7.059   3.522   6.358  0.4091  0.7724 -0.5267
 9361SOL    HW129133   7.110   3.590   6.401  2.7150 -0.7442 -0.6971
 9361SOL    HW229134   7.080   3.442   6.407 -2.6801  0.1905  0.0492
 9362SOL     OW29135   3.245   1.819   5.120  0.3055 -0.1474  0.1138
 9362SOL    HW129136   3.245   1.817   5.216  1.3310  0.8970  0.1571
 9362SOL    HW229137   3.228   1.728   5.095  3.1486 -1.1468  1.3410
 9363SOL     OW29138   1.171   7.704   5.436 -0.0980 -0.3863  0.3929
 9363SOL    HW129139   1.140   7.695   5.346  2.1995  0.8243 -0.6336
 9363SOL    HW229140   1.107   7.760   5.479 -0.3186  0.5198 -1.0573
 9364SOL     OW29141   4.538   1.209   6.522  0.0435 -0.0770 -0.0833
 9364SOL    HW129142   4.495   1.229   6.605 -2.9529 -0.5721 -1.3766
 9364SOL    HW229143   4.541   1.113   6.519 -1.7092 -0.1301 -1.3348
 9365SOL     OW29144   4.932   2.856   6.383 -0.3026 -0.8007  0.1921
 9365SOL    HW129145   4.913   2.940   6.341  0.8132 -0.7944 -0.3414
 9365SOL    HW229146   4.850   2.831   6.425 -0.4494  0.9270  1.0234
 9366SOL     OW29147   5.960   0.943   7.973 -0.4992 -0.3037 -0.3167
 9366SOL    HW129148   6.026   0.912   7.912 -0.0730  0.4581 -0.2589
 9366SOL    HW229149   5.989   0.911   8.059  0.6509  1.3027 -0.0647
 9367SOL     OW29150   7.257   8.220   6.761 -0.4987  0.7812  0.2384
 9367SOL    HW129151   7.337   8.236   6.711 -0.2843  2.3397  1.0350
 9367SOL    HW229152   7.194   8.282   6.726 -1.2227 -0.0635 -0.0030
 9368SOL     OW29153   3.509   0.034   5.752  0.6801 -0.1039  0.2336
 9368SOL    HW129154   3.564   0.058   5.678  0.0198 -0.3206 -0.3429
 9368SOL    HW229155   3.513  -0.062   5.756  0.3556 -0.1212  0.1933
 9369SOL     OW29156   5.166   2.252   7.251  0.4352 -0.4614 -0.3977
 9369SOL    HW129157   5.098   2.309   7.216 -0.0400 -0.1792  0.9419
 9369SOL    HW229158   5.129   2.164   7.242 -0.1231 -0.3111  0.3135
 9370SOL     OW29159   5.384   6.515   3.935 -0.1604  0.0804  0.0122
 9370SOL    HW129160   5.371   6.506   3.841 -0.2039 -2.8144  0.1880
 9370SOL    HW229161   5.374   6.608   3.953 -0.9728  0.5847 -2.7148
 9371SOL     OW29162   0.851   3.003   1.589 -0.4324  0.0288 -0.0005
 9371SOL    HW129163   0.811   3.086   1.613  0.9357  0.3894  1.1792
 9371SOL    HW229164   0.899   3.020   1.508 -1.1757  0.0533 -0.4393
 9372SOL     OW29165   8.197   2.965   0.663 -0.5105  0.1113 -0.1386
 9372SOL    HW129166   8.147   2.886   0.641 -0.1218 -0.3539  0.6087
 9372SOL    HW229167   8.243   2.942   0.744 -1.2545  1.4810  0.7089
 9373SOL     OW29168   3.082   4.574   4.542  0.5157 -0.5545  0.0080
 9373SOL    HW129169   3.095   4.508   4.474  1.7624  1.4755 -1.8828
 9373SOL    HW229170   3.046   4.649   4.495  0.3002  0.5383  1.8293
 9374SOL     OW29171   5.865   2.270   6.083  0.3888  0.1661  0.4414
 9374SOL    HW129172   5.878   2.354   6.040 -1.3968  0.4538  0.3865
 9374SOL    HW229173   5.835   2.212   6.012 -0.2362  0.0087  0.8251
 9375SOL     OW29174   5.654   3.476   6.716  0.4387 -0.1663  0.5021
 9375SOL    HW129175   5.618   3.549   6.666  0.2239 -1.5125 -1.3794
 9375SOL    HW229176   5.581   3.444   6.769  0.7493  1.4610  2.0231
 9376SOL     OW29177   4.178   2.056   8.151  0.1306  0.2626 -0.2743
 9376SOL    HW129178   4.186   2.138   8.200 -0.4108 -0.2860  0.7411
 9376SOL    HW229179   4.214   2.077   8.064 -0.5623  1.7418 -0.2290
 9377SOL     OW29180   1.423   0.921   6.836  0.8005  0.1195 -0.2831
 9377SOL    HW129181   1.356   0.948   6.899  0.4034  1.1829 -1.1185
 9377SOL    HW229182   1.380   0.852   6.785  0.4458  0.5687 -0.6016
 9378SOL     OW29183   6.540   0.356   2.858  0.1643  0.1994 -0.7592
 9378SOL    HW129184   6.496   0.412   2.793 -0.0725 -0.3556 -1.0875
 9378SOL    HW229185   6.605   0.307   2.807  0.3269  0.1302 -0.4872
 9379SOL     OW29186   3.983   0.773   4.317  0.1251  0.2712  0.2059
 9379SOL    HW129187   3.945   0.718   4.248 -0.8834  2.9672 -1.5551
 9379SOL    HW229188   4.038   0.835   4.270 -0.0771  1.8013  1.8956
 9380SOL     OW29189   2.145   5.675   0.930  0.1214  0.3176 -0.1330
 9380SOL    HW129190   2.136   5.631   1.015  2.3582 -0.1710 -0.0819
 9380SOL    HW229191   2.063   5.656   0.885  0.0625 -1.9953  0.7817
 9381SOL     OW29192   5.956   4.412   6.204 -0.3312  0.0672  0.5048
 9381SOL    HW129193   6.029   4.428   6.145 -0.8370  1.2882  0.1768
 9381SOL    HW229194   5.997   4.394   6.289  0.3520 -0.0239  0.1638
 9382SOL     OW29195   4.019   3.250   2.050 -0.4565  0.1262  0.3861
 9382SOL    HW129196   4.072   3.191   1.996 -0.9888  1.3621 -1.5789
 9382SOL    HW229197   4.070   3.262   2.130  0.8153 -1.0105 -0.2140
 9383SOL     OW29198   7.468   2.851   5.014  0.3393  0.3910 -0.3910
 9383SOL    HW129199   7.473   2.915   5.085  0.1309  0.2660 -0.2600
 9383SOL    HW229200   7.454   2.902   4.935 -2.5472  0.3851  0.0317
 9384SOL     OW29201   2.171   7.401   4.556 -0.1194  0.1929 -0.2324
 9384SOL    HW129202   2.236   7.471   4.561  0.3433 -0.1782 -0.8785
 9384SOL    HW229203   2.121   7.409   4.637 -0.5648  1.7456 -0.6261
 9385SOL     OW29204   0.646   3.869   7.309 -0.1210  0.1644 -0.0605
 9385SOL    HW129205   0.581   3.939   7.296  1.9782  2.3329  0.3287
 9385SOL    HW229206   0.658   3.865   7.404 -0.4626 -0.9930 -0.0595
 9386SOL     OW29207   0.078   1.124   1.640  0.4019 -0.4984 -0.1067
 9386SOL    HW129208  -0.006   1.125   1.594 -0.3020  1.9230  1.0672
 9386SOL    HW229209   0.099   1.216   1.655  1.9757 -1.0966  1.9093
 9387SOL     OW29210   3.333   7.133   7.222  0.4000 -0.1377 -0.5353
 9387SOL    HW129211   3.333   7.200   7.291  1.4826 -0.9754  0.3173
 9387SOL    HW229212   3.422   7.137   7.186  0.6684 -1.4968 -0.0688
 9388SOL     OW29213   2.066   2.596   7.394 -0.0438  0.2824  0.3027
 9388SOL    HW129214   2.150   2.628   7.426  0.5417 -0.0163 -0.8595
 9388SOL    HW229215   2.047   2.519   7.448  1.6810 -1.1385 -0.9971
 9389SOL     OW29216   4.737   1.418   7.204 -0.2791  0.3124  0.3525
 9389SOL    HW129217   4.809   1.368   7.164  0.0950 -0.7801  2.2603
 9389SOL    HW229218   4.667   1.354   7.213 -0.4768  0.6285  1.0868
 9390SOL     OW29219   3.998   1.440   1.957 -0.0618 -0.0319 -0.3931
 9390SOL    HW129220   4.084   1.450   1.999 -0.7595  1.0394  0.8682
 9390SOL    HW229221   3.977   1.528   1.926 -0.8023 -0.2371 -0.4867
 9391SOL     OW29222   7.176   6.264   3.811 -0.2110 -0.3506  0.0605
 9391SOL    HW129223   7.183   6.191   3.749  2.1547 -0.5682  0.4725
 9391SOL    HW229224   7.201   6.226   3.895 -0.1905  0.6626  0.5270
 9392SOL     OW29225   6.185   5.371   0.813 -0.5279  0.1889  0.4913
 9392SOL    HW129226   6.220   5.458   0.795  1.6110 -0.8794 -0.9254
 9392SOL    HW229227   6.229   5.343   0.893 -1.1312  0.3473  0.8858
 9393SOL     OW29228   7.979   3.747   2.049  0.5518 -0.4391 -0.0924
 9393SOL    HW129229   8.074   3.755   2.049  0.5240 -0.0008 -0.4224
 9393SOL    HW229230   7.960   3.685   1.979  0.5554  0.2229 -0.6950
 9394SOL     OW29231   0.154   6.611   8.140  0.0325  0.1267 -0.1717
 9394SOL    HW129232   0.062   6.634   8.156 -0.0012  0.1709 -0.4186
 9394SOL    HW229233   0.154   6.515   8.133  0.4037 -0.1152  2.3258
 9395SOL     OW29234   6.568   7.044   3.741 -0.2917  0.3695  0.0086
 9395SOL    HW129235   6.610   7.024   3.657 -1.3377  0.9290 -0.6665
 9395SOL    HW229236   6.517   6.966   3.762  1.0093 -0.3078  0.8250
 9396SOL     OW29237   2.021   2.164   4.894  0.5394 -0.0972 -0.1935
 9396SOL    HW129238   2.002   2.243   4.843 -0.0467  0.2618  0.5682
 9396SOL    HW229239   1.996   2.091   4.837 -0.2567  0.3018 -0.3644
 9397SOL     OW29240   8.014   6.349   8.239  0.9574  0.2173 -0.6069
 9397SOL    HW129241   8.022   6.356   8.334  1.3209 -0.5591 -0.5712
 9397SOL    HW229242   8.052   6.430   8.205  0.0939  0.8586 -0.0682
 9398SOL     OW29243   1.520   3.241   3.927  0.1306 -0.0063  0.1567
 9398SOL    HW129244   1.490   3.245   4.017 -2.4012  1.0775 -0.6515
 9398SOL    HW229245   1.518   3.332   3.897 -1.7375 -0.6026 -1.7509
 9399SOL     OW29246   7.007   1.905   6.710  0.4250 -0.5021 -0.2123
 9399SOL    HW129247   6.945   1.833   6.704 -1.7560  1.4051 -2.8953
 9399SOL    HW229248   7.093   1.864   6.698 -0.4093 -2.9492  1.4263
 9400SOL     OW29249   0.688   0.794   4.957 -0.2330  0.0000  0.0830
 9400SOL    HW129250   0.667   0.883   4.931  0.6285  0.1148 -0.2534
 9400SOL    HW229251   0.680   0.795   5.053 -4.7025 -0.7601 -0.0743
 9401SOL     OW29252   2.780   0.226   4.580  0.2801 -0.3544 -0.1298
 9401SOL    HW129253   2.746   0.193   4.497 -0.4319 -0.8821  0.3476
 9401SOL    HW229254   2.799   0.147   4.630  3.8860 -0.1515 -0.9641
 9402SOL     OW29255   0.950   3.073   7.619 -0.4145  0.3547 -0.4540
 9402SOL    HW129256   1.032   3.113   7.592 -1.2606  1.2580 -1.7722
 9402SOL    HW229257   0.883   3.119   7.569 -1.9177  0.8187  1.7978
 9403SOL     OW29258   0.567   0.352   7.547 -0.2623 -0.4483  0.1270
 9403SOL    HW129259   0.485   0.368   7.594 -0.7736  0.1602 -0.9205
 9403SOL    HW229260   0.621   0.303   7.608 -1.2055 -0.3828  1.0400
 9404SOL     OW29261   4.883   4.744   5.180  0.4260 -0.2319  0.3143
 9404SOL    HW129262   4.933   4.772   5.257  1.3454 -0.5233 -0.1716
 9404SOL    HW229263   4.875   4.649   5.190 -0.4816 -0.1349  0.6438
 9405SOL     OW29264   7.372   6.045   4.287  0.0465  0.4225 -0.2032
 9405SOL    HW129265   7.317   6.105   4.237 -0.4176  0.3429  0.2146
 9405SOL    HW229266   7.313   6.003   4.349 -0.1978 -2.3553 -2.1229
 9406SOL     OW29267   1.298   7.500   5.591 -0.1968  0.1738 -0.6037
 9406SOL    HW129268   1.252   7.583   5.575 -0.5063 -0.1025 -1.1630
 9406SOL    HW229269   1.265   7.470   5.675 -0.6046  0.2662 -0.7317
 9407SOL     OW29270   5.331   1.990   4.252  0.1195 -0.6033 -0.2952
 9407SOL    HW129271   5.387   1.947   4.188  2.5618  0.2247  1.1721
 9407SOL    HW229272   5.338   2.083   4.232  1.6889 -0.2449  1.6807
 9408SOL     OW29273   3.653   2.793   4.039  0.0071  0.4050  0.2730
 9408SOL    HW129274   3.652   2.781   3.944 -1.7601  0.6716  0.2299
 9408SOL    HW229275   3.595   2.724   4.072  1.2845 -0.2435  1.2579
 9409SOL     OW29276   2.450   1.428   7.226  0.1189 -0.4342 -0.6846
 9409SOL    HW129277   2.532   1.379   7.221  0.3010 -0.2590  0.3774
 9409SOL    HW229278   2.444   1.457   7.317 -0.3991  0.8259 -1.0927
 9410SOL     OW29279   0.309   4.669   3.758 -0.4649  0.4561 -0.0761
 9410SOL    HW129280   0.254   4.745   3.739 -3.0120 -1.3720 -0.5674
 9410SOL    HW229281   0.268   4.627   3.834  1.8112  0.3797  1.2006
 9411SOL     OW29282   6.332   3.513   4.039 -0.3805  0.2821  0.1814
 9411SOL    HW129283   6.278   3.494   4.116 -0.4315  0.2427  0.1358
 9411SOL    HW229284   6.271   3.512   3.966 -0.3511  0.4268  0.1530
 9412SOL     OW29285   4.346   4.147   4.958  0.1756  0.5042  0.4001
 9412SOL    HW129286   4.422   4.123   5.011 -0.1409 -0.7539  0.3363
 9412SOL    HW229287   4.350   4.089   4.882 -1.0265  0.1564  0.5752
 9413SOL     OW29288   5.872   7.021   5.555  0.6696 -0.4585  1.1312
 9413SOL    HW129289   5.818   6.964   5.501 -0.0225 -0.2355  1.5734
 9413SOL    HW229290   5.954   6.973   5.567  0.2456 -1.1861  1.1764
 9414SOL     OW29291   1.375   6.507   3.975  0.0684  0.0647 -0.1942
 9414SOL    HW129292   1.350   6.561   3.900 -0.2966  1.2058  0.7242
 9414SOL    HW229293   1.461   6.540   4.001 -0.1269  0.1571  0.3366
 9415SOL     OW29294   5.351   0.239   5.011 -0.3594  0.3706  0.1238
 9415SOL    HW129295   5.276   0.299   5.006 -0.6879  0.0629  1.0766
 9415SOL    HW229296   5.312   0.156   5.039  0.5312  0.6213  2.2702
 9416SOL     OW29297   6.105   1.347   7.093  0.8422  0.0103 -0.5523
 9416SOL    HW129298   6.096   1.260   7.055  1.5612  0.0446 -0.8182
 9416SOL    HW229299   6.148   1.332   7.178 -0.7236 -0.0656  0.2667
 9417SOL     OW29300   2.103   5.114   4.851  0.0348  0.5902  0.1006
 9417SOL    HW129301   2.130   5.149   4.766  0.4557 -0.9293 -0.4300
 9417SOL    HW229302   2.180   5.126   4.907 -0.5044  2.3184  0.5456
 9418SOL     OW29303   1.128   0.892   1.923 -0.3029 -0.2794 -0.1489
 9418SOL    HW129304   1.131   0.804   1.884  0.0759 -0.3465  0.0228
 9418SOL    HW229305   1.183   0.885   2.001 -0.5048  0.0368  0.0237
 9419SOL     OW29306   0.970   5.780   3.771 -0.1531  0.3949 -0.4764
 9419SOL    HW129307   1.063   5.770   3.791 -0.3604 -0.5415  0.0910
 9419SOL    HW229308   0.925   5.748   3.850 -0.9554  1.0430 -0.6550
 9420SOL     OW29309   2.184   0.158   1.487  0.2819  0.0098 -0.4580
 9420SOL    HW129310   2.134   0.187   1.564  2.0293  1.7545  0.1036
 9420SOL    HW229311   2.121   0.109   1.434 -1.3210 -0.0717  1.4284
 9421SOL     OW29312   4.152   0.782   5.726 -0.0956  0.2740  0.4277
 9421SOL    HW129313   4.152   0.692   5.757 -1.2761  0.3822  0.7906
 9421SOL    HW229314   4.079   0.786   5.663 -1.1119  1.3476  1.6272
 9422SOL     OW29315   6.095   8.055   1.104  0.4690  0.3863  0.1668
 9422SOL    HW129316   6.172   8.102   1.136 -0.7693  2.6673  0.0162
 9422SOL    HW229317   6.025   8.081   1.163 -0.7433  0.4901 -1.2597
 9423SOL     OW29318   4.224   7.461   7.222 -0.5398 -0.8525 -0.5558
 9423SOL    HW129319   4.312   7.477   7.189 -0.6297 -0.5606 -0.6532
 9423SOL    HW229320   4.167   7.512   7.165 -0.7812 -1.1126 -0.5511
 9424SOL     OW29321   6.018   5.725   1.049 -0.1593  0.2300  0.1437
 9424SOL    HW129322   6.099   5.770   1.070  0.1474 -0.8253  1.3726
 9424SOL    HW229323   6.027   5.639   1.091 -1.6351 -0.1436 -0.2445
 9425SOL     OW29324   6.450   6.048   6.898  0.4483 -0.0608 -0.2465
 9425SOL    HW129325   6.410   5.964   6.877  0.1995  0.3056 -1.3106
 9425SOL    HW229326   6.383   6.113   6.876  0.0900  0.3753  1.9105
 9426SOL     OW29327   7.941   7.351   4.949 -0.6869  0.8898 -0.0394
 9426SOL    HW129328   7.937   7.444   4.974 -0.0117  0.8469  0.2328
 9426SOL    HW229329   7.976   7.307   5.026  2.1958  0.8514 -1.2420
 9427SOL     OW29330   6.660   0.952   1.436 -0.3117 -0.4206 -0.2877
 9427SOL    HW129331   6.697   0.872   1.397 -1.9913 -0.5942 -1.6800
 9427SOL    HW229332   6.627   0.923   1.521  1.1164 -0.6596  0.2064
 9428SOL     OW29333   6.714   3.323   0.296  0.3983  0.0162  0.3976
 9428SOL    HW129334   6.625   3.357   0.306  0.1990 -0.5929  0.7223
 9428SOL    HW229335   6.764   3.364   0.366  0.8365  1.8456 -0.9139
 9429SOL     OW29336   5.611   7.100   1.184 -0.0961  0.6004 -0.7329
 9429SOL    HW129337   5.526   7.143   1.175  0.1753  1.2416 -0.3079
 9429SOL    HW229338   5.675   7.168   1.163  0.3246  0.2676 -0.5479
 9430SOL     OW29339   3.845   2.400   7.023 -0.1057  0.2113  0.3825
 9430SOL    HW129340   3.859   2.344   6.947 -1.5915  1.2476 -0.7297
 9430SOL    HW229341   3.928   2.400   7.069  0.8734 -0.3798 -1.2975
 9431SOL     OW29342   4.697   2.541   6.971 -0.0994  0.1789 -0.2394
 9431SOL    HW129343   4.751   2.579   6.902 -0.9905 -1.3678 -1.8796
 9431SOL    HW229344   4.612   2.526   6.929 -0.0774 -2.6913  0.5259
 9432SOL     OW29345   6.843   5.630   1.866 -0.5860  0.0046  0.2819
 9432SOL    HW129346   6.811   5.691   1.800  0.2144  0.5123  0.3496
 9432SOL    HW229347   6.784   5.555   1.860 -1.1789  0.5021 -0.2572
 9433SOL     OW29348   6.178   7.686   3.527 -0.0697  0.0555  0.9208
 9433SOL    HW129349   6.253   7.627   3.526 -0.3023 -0.2916  2.1414
 9433SOL    HW229350   6.103   7.630   3.507  0.1462  0.7354 -2.2786
 9434SOL     OW29351   0.330   3.749   5.119  0.6913 -0.2848 -0.2038
 9434SOL    HW129352   0.321   3.752   5.024 -0.0839 -1.9489 -0.2156
 9434SOL    HW229353   0.416   3.711   5.134  0.4320 -0.9002 -0.2567
 9435SOL     OW29354   1.541   2.773   5.990  0.2444  0.6684  0.0172
 9435SOL    HW129355   1.509   2.804   6.075 -1.5966 -1.5506  0.2208
 9435SOL    HW229356   1.512   2.839   5.928 -3.4867 -0.3778  0.4332
 9436SOL     OW29357   5.055   7.642   6.966 -0.0096  0.2720 -0.1930
 9436SOL    HW129358   5.036   7.572   6.903 -1.2785 -1.0885  1.5961
 9436SOL    HW229359   5.148   7.659   6.954  0.0987 -0.9579 -1.4460
 9437SOL     OW29360   6.938   1.637   6.699  0.2715 -0.4274 -0.2250
 9437SOL    HW129361   6.980   1.593   6.626  0.7616 -0.5404  0.1194
 9437SOL    HW229362   6.844   1.624   6.684  0.3886 -1.0310 -0.4745
 9438SOL     OW29363   2.972   3.382   4.804 -0.2741  0.2948  0.5712
 9438SOL    HW129364   2.973   3.420   4.716 -0.1430 -2.2789 -0.6197
 9438SOL    HW229365   2.880   3.386   4.830 -0.1568  2.0567  0.8215
 9439SOL     OW29366   4.722   0.365   7.161  0.3443  0.4574  0.4261
 9439SOL    HW129367   4.788   0.398   7.101  2.3238 -0.8412  1.7631
 9439SOL    HW229368   4.639   0.400   7.128  1.5115  1.0030 -2.1302
 9440SOL     OW29369   6.416   7.288   6.286  0.1364 -0.0003 -0.1200
 9440SOL    HW129370   6.364   7.368   6.278  0.3672 -0.0250 -3.8306
 9440SOL    HW229371   6.483   7.297   6.218  0.6244 -2.9999 -0.1654
 9441SOL     OW29372   7.626   7.033   6.549  0.6783 -0.1658 -0.0717
 9441SOL    HW129373   7.584   6.988   6.475 -0.0635  1.6313 -0.8092
 9441SOL    HW229374   7.664   6.963   6.601 -1.7641 -1.7806 -0.2973
 9442SOL     OW29375   7.735   3.420   3.784 -1.1409 -0.2375 -0.0616
 9442SOL    HW129376   7.725   3.326   3.796 -2.9773  0.0399  0.8140
 9442SOL    HW229377   7.663   3.459   3.833 -0.2122  1.6533 -0.1160
 9443SOL     OW29378   0.977   7.608   2.978  0.1825 -0.0466 -0.0642
 9443SOL    HW129379   0.947   7.678   2.920  0.9655 -0.0479 -0.4867
 9443SOL    HW229380   1.068   7.593   2.952 -0.1352 -1.5921 -0.3329
 9444SOL     OW29381   6.816   6.338   6.392 -0.5563 -0.3463  0.2753
 9444SOL    HW129382   6.727   6.306   6.381 -0.6289 -0.4686  1.1652
 9444SOL    HW229383   6.823   6.361   6.485 -0.8616  3.2232 -0.4277
 9445SOL     OW29384   6.421   4.590   0.220  0.7527 -0.2243  0.5350
 9445SOL    HW129385   6.345   4.616   0.167 -0.1689 -0.3652  1.7405
 9445SOL    HW229386   6.497   4.607   0.164 -0.2037 -0.7601 -0.9702
 9446SOL     OW29387   4.843   2.248   5.212 -0.1775 -0.2872  0.1996
 9446SOL    HW129388   4.802   2.232   5.127  2.7019 -0.4323 -1.2596
 9446SOL    HW229389   4.931   2.211   5.204 -0.0269 -0.9183  3.5068
 9447SOL     OW29390   7.456   4.456   5.341  0.2522 -0.2998  0.1992
 9447SOL    HW129391   7.404   4.444   5.262 -0.8878 -1.4184  1.0683
 9447SOL    HW229392   7.537   4.408   5.325  0.0889 -0.3907 -0.3518
 9448SOL     OW29393   6.721   5.425   5.264 -0.1165  0.1513 -0.4237
 9448SOL    HW129394   6.793   5.463   5.214  0.5058  0.0927  0.4142
 9448SOL    HW229395   6.692   5.496   5.322 -0.9371  0.2668 -0.9509
 9449SOL     OW29396   7.252   0.315   5.026  0.0372 -0.0352 -0.2455
 9449SOL    HW129397   7.257   0.277   5.114  1.4025 -0.2228 -0.3780
 9449SOL    HW229398   7.159   0.331   5.012 -0.5921 -2.7694  0.0827
 9450SOL     OW29399   7.206   6.438   4.567 -0.0693  0.8351 -0.3740
 9450SOL    HW129400   7.166   6.521   4.543  0.0208  0.7984 -0.6526
 9450SOL    HW229401   7.171   6.418   4.653  0.5151  1.5520  0.0406
 9451SOL     OW29402   8.014   1.383   0.257 -0.1099  0.7086  0.1666
 9451SOL    HW129403   8.108   1.397   0.248 -0.0820  0.4570  0.0319
 9451SOL    HW229404   7.977   1.470   0.272  0.2755  0.6679  1.3953
 9452SOL     OW29405   2.011   6.181   3.984  0.2058 -0.2252  0.1703
 9452SOL    HW129406   1.992   6.169   4.078 -1.5244 -0.6190 -0.1931
 9452SOL    HW229407   1.939   6.236   3.952  0.7379 -0.1559 -0.9378
 9453SOL     OW29408   6.680   4.284   6.488 -0.3898  0.4557 -0.0037
 9453SOL    HW129409   6.605   4.230   6.511 -0.6365  1.1377  0.8440
 9453SOL    HW229410   6.658   4.320   6.401 -0.3457 -0.5520 -0.4452
 9454SOL     OW29411   4.198   1.729   0.096  0.1990 -0.6474 -0.1105
 9454SOL    HW129412   4.129   1.766   0.041 -1.8563 -3.2328  0.5135
 9454SOL    HW229413   4.178   1.760   0.184 -0.0458 -1.2088  0.0362
 9455SOL     OW29414   7.710   8.075   0.911  0.1801 -0.0555 -0.1985
 9455SOL    HW129415   7.695   8.003   0.971 -0.8942 -0.4163 -0.8748
 9455SOL    HW229416   7.781   8.045   0.854  1.4394  0.4233  1.0543
 9456SOL     OW29417   3.854   1.501   4.539  0.9138  0.5182 -0.4543
 9456SOL    HW129418   3.912   1.450   4.596 -0.5410 -0.1997  0.4590
 9456SOL    HW229419   3.900   1.507   4.456  2.1799 -0.2077  0.1677
 9457SOL     OW29420   7.393   3.098   4.544 -0.1898 -0.6929  0.3485
 9457SOL    HW129421   7.448   3.020   4.530  0.1951 -0.2464 -0.7282
 9457SOL    HW229422   7.450   3.159   4.592  0.0758 -0.4425 -0.2788
 9458SOL     OW29423   2.711   5.516   4.522  0.2634  0.3311 -0.3599
 9458SOL    HW129424   2.781   5.466   4.479 -0.6725 -0.2759 -1.2202
 9458SOL    HW229425   2.718   5.603   4.483  0.3808  0.2047 -0.6259
 9459SOL     OW29426   1.913   0.412   1.700 -0.0056 -0.3327 -0.4447
 9459SOL    HW129427   1.947   0.322   1.708  3.0418  0.7671  0.7084
 9459SOL    HW229428   1.903   0.441   1.791 -2.7772 -0.0360 -0.7806
 9460SOL     OW29429   7.021   5.647   6.195 -0.0506 -0.3660 -0.4087
 9460SOL    HW129430   7.003   5.639   6.101  0.7122 -1.6179 -0.4799
 9460SOL    HW229431   6.987   5.566   6.232  3.4649 -1.9730 -0.2794
 9461SOL     OW29432   3.538   1.200   3.227 -0.0391 -0.1662 -0.2273
 9461SOL    HW129433   3.488   1.178   3.306  2.0500  1.2491  1.6186
 9461SOL    HW229434   3.486   1.165   3.155 -1.8844 -1.8530  1.7810
 9462SOL     OW29435   3.112   4.172   1.396  0.1128  0.3694 -0.0848
 9462SOL    HW129436   3.140   4.086   1.365 -0.7074  0.3342 -0.7581
 9462SOL    HW229437   3.056   4.154   1.471 -0.4554  0.2825 -0.5245
 9463SOL     OW29438   2.893   2.517   2.029  0.3025  0.6171  0.8375
 9463SOL    HW129439   2.909   2.425   2.051  1.7524  0.0334 -2.1437
 9463SOL    HW229440   2.798   2.524   2.021  0.1603 -0.5789  1.2536
 9464SOL     OW29441   3.667   2.165   6.000  0.4360 -0.0521 -0.0394
 9464SOL    HW129442   3.633   2.254   5.993  0.9593  0.1206 -0.4486
 9464SOL    HW229443   3.761   2.177   6.016  0.3734 -0.5207  0.7342
 9465SOL     OW29444   6.556   8.206   1.374 -0.3624  0.0340  0.0052
 9465SOL    HW129445   6.497   8.188   1.300 -0.2906 -0.0380 -0.0341
 9465SOL    HW229446   6.640   8.169   1.347 -0.2537  0.2950 -0.0120
 9466SOL     OW29447   1.367   2.324   2.371 -0.5480  0.7449 -0.5840
 9466SOL    HW129448   1.436   2.267   2.407 -1.3666 -0.6292 -1.1541
 9466SOL    HW229449   1.372   2.312   2.277 -0.7367  1.6412 -0.7191
 9467SOL     OW29450   3.325   3.021   0.846  0.1463 -0.1395  0.0969
 9467SOL    HW129451   3.311   3.026   0.940 -0.9335 -2.1403  0.1014
 9467SOL    HW229452   3.395   2.957   0.835  1.2912  1.1591 -0.4338
 9468SOL     OW29453   5.397   3.628   0.243 -0.1531  0.2783 -0.4688
 9468SOL    HW129454   5.329   3.572   0.204 -1.1944  0.5980  0.7931
 9468SOL    HW229455   5.466   3.632   0.177 -1.7802  0.7288 -2.2307
 9469SOL     OW29456   7.167   2.874   4.385  0.3670  0.7247  0.6447
 9469SOL    HW129457   7.169   2.779   4.399 -2.4663  0.3094 -0.9110
 9469SOL    HW229458   7.202   2.886   4.297 -1.0823  0.8106  0.0367
 9470SOL     OW29459   3.777   1.068   2.832 -0.2687 -0.2217  0.3565
 9470SOL    HW129460   3.782   1.163   2.832 -1.8316 -0.1134 -0.0993
 9470SOL    HW229461   3.868   1.039   2.835  0.4431  1.2760 -2.6031
 9471SOL     OW29462   3.849   4.782   4.901  0.4230 -0.0123  0.3440
 9471SOL    HW129463   3.897   4.817   4.826  1.0359 -0.1083  0.6857
 9471SOL    HW229464   3.877   4.691   4.908 -0.8363 -0.4743 -0.2724
 9472SOL     OW29465   5.821   5.701   4.670  0.3262 -0.4690  0.3751
 9472SOL    HW129466   5.810   5.796   4.664 -0.6817 -0.6533 -1.9301
 9472SOL    HW229467   5.879   5.687   4.745 -0.2403  1.8934  1.3210
 9473SOL     OW29468   2.201   5.858   7.460  0.0900  0.1117 -0.3998
 9473SOL    HW129469   2.272   5.800   7.489  0.0801  0.7195  0.9206
 9473SOL    HW229470   2.147   5.870   7.538 -0.6972  0.7603 -1.0351
 9474SOL     OW29471   7.003   2.063   8.034 -0.1161 -0.1085  0.0092
 9474SOL    HW129472   7.081   2.109   8.068 -0.6068  0.2825  0.6307
 9474SOL    HW229473   6.997   2.092   7.943  0.0407  0.4554  0.1687
 9475SOL     OW29474   8.145   2.523   3.649  0.4983 -0.4139 -0.2758
 9475SOL    HW129475   8.229   2.568   3.649 -0.1858  1.1811  3.0638
 9475SOL    HW229476   8.101   2.554   3.570  2.6527 -0.6720 -1.6708
 9476SOL     OW29477   7.341   5.008   5.424 -0.0141 -0.2165 -0.2388
 9476SOL    HW129478   7.343   5.074   5.354  2.0825  1.3243  1.1206
 9476SOL    HW229479   7.270   4.950   5.400 -0.4141  1.1560 -2.8059
 9477SOL     OW29480   3.919   7.364   7.755  0.4759  0.0580 -0.0919
 9477SOL    HW129481   3.947   7.448   7.719  0.5372 -0.0937 -0.4017
 9477SOL    HW229482   3.957   7.362   7.843 -0.0839  0.6453  0.1792
 9478SOL     OW29483   2.113   6.395   1.034  0.4051  0.1610 -0.3799
 9478SOL    HW129484   2.152   6.404   0.947  2.2974 -2.1857  0.0968
 9478SOL    HW229485   2.061   6.315   1.029  1.5189 -0.7051  0.8913
 9479SOL     OW29486   4.789   2.585   0.350  0.0262  0.9773  0.6698
 9479SOL    HW129487   4.748   2.550   0.271 -1.0623  3.1337  0.2066
 9479SOL    HW229488   4.872   2.538   0.357 -0.4725 -0.2196 -0.9936
 9480SOL     OW29489   4.356   7.480   2.493  0.2762 -0.1070  0.0764
 9480SOL    HW129490   4.370   7.498   2.586 -2.7890  0.4188  0.5378
 9480SOL    HW229491   4.269   7.441   2.488  0.2531  0.0468 -2.6143
 9481SOL     OW29492   1.138   1.655   8.184  0.2298  0.0278  0.5091
 9481SOL    HW129493   1.161   1.572   8.142  1.1175  0.3170  0.3939
 9481SOL    HW229494   1.083   1.700   8.120  0.3104 -0.1825  0.2897
 9482SOL     OW29495   5.209   2.612   6.007 -0.8520  0.5943 -0.3966
 9482SOL    HW129496   5.166   2.696   6.024 -1.7833 -0.2217  1.5321
 9482SOL    HW229497   5.302   2.634   5.999 -0.8723  1.6415  1.6737
 9483SOL     OW29498   6.141   4.423   7.633 -0.3736  0.3632 -0.3907
 9483SOL    HW129499   6.180   4.492   7.686  0.7899  0.3450 -1.1746
 9483SOL    HW229500   6.052   4.413   7.668 -1.0590  3.1262 -1.0419
 9484SOL     OW29501   2.060   0.980   6.079 -0.0052 -0.0590  0.0883
 9484SOL    HW129502   2.128   0.914   6.089  0.9687  1.0577  1.1722
 9484SOL    HW229503   2.101   1.051   6.030 -0.8449  0.0319 -0.5195
 9485SOL     OW29504   2.993   3.150   0.766  0.3083  0.1401  0.2215
 9485SOL    HW129505   2.926   3.154   0.698  0.2399 -0.3505  0.2547
 9485SOL    HW229506   3.076   3.157   0.719  0.2215  2.6260  0.3325
 9486SOL     OW29507   6.282   3.143   6.031  0.2821 -0.1448  0.1056
 9486SOL    HW129508   6.195   3.153   5.993  0.0608  1.3616  0.9515
 9486SOL    HW229509   6.287   3.210   6.100  1.8533 -0.6559  0.5393
 9487SOL     OW29510   5.476   2.583   2.972 -0.0924 -0.1452 -0.5355
 9487SOL    HW129511   5.443   2.662   2.929  0.8290  0.9035  0.6021
 9487SOL    HW229512   5.566   2.605   2.996 -0.0049 -1.3452  0.2970
 9488SOL     OW29513   3.701   2.027   6.905  0.1550 -0.5172  0.2606
 9488SOL    HW129514   3.730   1.936   6.915 -0.2937 -0.7534 -0.5230
 9488SOL    HW229515   3.776   2.079   6.935  0.0952 -1.1318  1.5634
 9489SOL     OW29516   2.606   5.621   0.760 -0.0603  0.4217 -0.4865
 9489SOL    HW129517   2.610   5.657   0.849  0.4156 -0.9309  0.0757
 9489SOL    HW229518   2.513   5.606   0.744 -0.2639  1.8213 -0.7264
 9490SOL     OW29519   2.081   3.770   5.650  0.6362  0.6274 -0.2918
 9490SOL    HW129520   2.072   3.785   5.556 -0.7936  1.6732 -0.0241
 9490SOL    HW229521   2.057   3.854   5.690 -1.7245 -0.6029  1.0997
 9491SOL     OW29522   1.319   4.604   1.931  0.1103 -0.1551  0.9460
 9491SOL    HW129523   1.384   4.551   1.886  0.7964  0.2309  1.4698
 9491SOL    HW229524   1.286   4.663   1.863  0.7984  0.1045  0.8318
 9492SOL     OW29525   3.791   0.593   1.703 -0.9301  0.0062 -0.1493
 9492SOL    HW129526   3.771   0.539   1.627  1.7696 -2.1838  0.5149
 9492SOL    HW229527   3.795   0.531   1.776  1.7791  1.0748  0.7510
 9493SOL     OW29528   8.124   1.721   0.091 -0.0077 -0.0761 -0.7687
 9493SOL    HW129529   8.116   1.724  -0.005 -0.0151  1.9683 -0.7402
 9493SOL    HW229530   8.181   1.795   0.113 -0.6564 -0.0264  0.8638
 9494SOL     OW29531   5.670   0.488   0.489 -0.0161  0.1686  0.2914
 9494SOL    HW129532   5.764   0.505   0.490  0.0396 -0.1164  1.8412
 9494SOL    HW229533   5.662   0.403   0.445  0.3930  0.4412 -0.3202
 9495SOL     OW29534   1.085   5.304   7.958 -0.3604  0.1594 -0.4562
 9495SOL    HW129535   1.109   5.367   7.891 -1.2771 -0.4825 -1.4118
 9495SOL    HW229536   1.069   5.222   7.911  0.2349 -0.6573  0.6861
 9496SOL     OW29537   3.869   6.278   1.878  0.4809  0.2983  0.0746
 9496SOL    HW129538   3.848   6.224   1.801 -0.6875  1.0595 -0.1639
 9496SOL    HW229539   3.963   6.292   1.871  0.5055 -0.1944 -0.8641
 9497SOL     OW29540   1.530   8.246   4.390 -0.5045  0.3646 -0.4458
 9497SOL    HW129541   1.552   8.340   4.392 -1.7339  0.6796 -1.0250
 9497SOL    HW229542   1.602   8.204   4.437  1.4411  1.3142 -2.3627
 9498SOL     OW29543   7.625   0.993   2.857  0.0531  0.4704 -0.1826
 9498SOL    HW129544   7.624   0.918   2.916  2.0235 -0.1745 -0.8970
 9498SOL    HW229545   7.533   1.018   2.849 -0.5063 -0.9951  1.1521
 9499SOL     OW29546   7.517   4.072   7.022  0.0974 -0.1613 -0.3171
 9499SOL    HW129547   7.579   4.057   6.951 -1.6417 -0.3562 -1.8758
 9499SOL    HW229548   7.442   4.115   6.980 -1.5945 -1.5710  1.1175
 9500SOL     OW29549   5.286   6.628   6.316 -0.3909 -0.2338 -0.1056
 9500SOL    HW129550   5.292   6.722   6.329 -0.8017  0.1135 -2.0862
 9500SOL    HW229551   5.374   6.595   6.331  0.0445  0.6582 -0.6569
 9501SOL     OW29552   0.303   1.762   4.521 -0.5203 -0.6102  0.2783
 9501SOL    HW129553   0.282   1.724   4.436 -0.9143  0.1047  0.0551
 9501SOL    HW229554   0.389   1.726   4.543  0.0886  0.0737 -0.9346
 9502SOL     OW29555   3.501   3.149   3.361  0.1401  0.0534 -0.1141
 9502SOL    HW129556   3.571   3.175   3.301  0.0854 -0.6801 -0.5135
 9502SOL    HW229557   3.533   3.174   3.448 -0.1705  1.9497 -0.5096
 9503SOL     OW29558   5.703   2.477   2.713 -0.4478 -0.1537 -0.1358
 9503SOL    HW129559   5.628   2.528   2.685 -0.7392 -1.0354 -1.0312
 9503SOL    HW229560   5.695   2.394   2.665  1.2793 -0.1258 -0.5514
 9504SOL     OW29561   1.508   6.075   1.908 -0.1533  0.1852 -0.3717
 9504SOL    HW129562   1.540   6.103   1.822  2.3985 -1.9613 -0.2593
 9504SOL    HW229563   1.575   6.106   1.969 -1.5645  1.0495  0.8168
 9505SOL     OW29564   6.337   8.073   7.167  0.0556 -0.0353  0.0633
 9505SOL    HW129565   6.332   8.058   7.262 -0.3015  0.4676  0.1284
 9505SOL    HW229566   6.353   8.167   7.158  0.3514 -0.1263 -0.3718
 9506SOL     OW29567   7.448   3.651   4.145 -0.0249  0.4934 -0.0376
 9506SOL    HW129568   7.522   3.661   4.205  0.4999 -0.6670 -0.4672
 9506SOL    HW229569   7.375   3.693   4.191  0.7808  1.2524  0.5947
 9507SOL     OW29570   8.000   4.597   0.986  0.4529 -0.3859 -1.0211
 9507SOL    HW129571   8.021   4.647   1.065 -0.4834 -0.7086 -0.5498
 9507SOL    HW229572   7.905   4.589   0.987  0.3232  0.4332 -2.7109
 9508SOL     OW29573   4.780   1.419   6.750  0.0846  0.0782  0.1729
 9508SOL    HW129574   4.726   1.469   6.811 -0.1217 -0.3168  0.3252
 9508SOL    HW229575   4.808   1.482   6.684  0.4627  0.5506  0.7735
 9509SOL     OW29576   7.434   2.284   0.306 -0.8068 -0.0687 -0.4706
 9509SOL    HW129577   7.363   2.324   0.356 -0.9089  0.6060 -1.1432
 9509SOL    HW229578   7.491   2.244   0.372 -0.6545  1.2711  0.2299
 9510SOL     OW29579   0.421   7.443   4.608  0.3385 -0.1352 -0.3526
 9510SOL    HW129580   0.474   7.512   4.648 -0.2590  0.7132 -0.9962
 9510SOL    HW229581   0.485   7.385   4.567  0.8569 -0.0662  0.3392
 9511SOL     OW29582   0.535   5.378   2.136  0.4372 -0.0347 -0.7041
 9511SOL    HW129583   0.480   5.355   2.061 -0.0602 -0.7792 -0.1321
 9511SOL    HW229584   0.585   5.454   2.107 -0.4745  0.3009 -1.4480
 9512SOL     OW29585   4.880   7.193   7.221  0.5213  0.0201 -0.7749
 9512SOL    HW129586   4.916   7.216   7.306  0.6457  2.2450 -1.3523
 9512SOL    HW229587   4.957   7.185   7.164  0.3611  0.8079 -1.1316
 9513SOL     OW29588   4.953   2.495   5.364  0.5127 -0.5886  0.4354
 9513SOL    HW129589   4.910   2.412   5.343 -0.1755 -0.1176 -0.0743
 9513SOL    HW229590   4.999   2.518   5.284 -1.7882  1.0157 -0.5336
 9514SOL     OW29591   7.352   2.553   0.072  0.2698 -0.0981 -0.3425
 9514SOL    HW129592   7.260   2.551   0.045  0.4455  0.6726 -1.0222
 9514SOL    HW229593   7.382   2.641   0.051  0.9102 -0.0279  0.7709
 9515SOL     OW29594   4.734   1.935   4.089  0.1656  0.0060  0.2963
 9515SOL    HW129595   4.723   2.000   4.020 -1.5388 -0.9061 -0.3580
 9515SOL    HW229596   4.659   1.948   4.147  0.6906 -0.3105  1.0574
 9516SOL     OW29597   0.692   6.251   6.389  0.0071 -0.2827 -0.3026
 9516SOL    HW129598   0.669   6.330   6.340 -0.4208 -1.7735 -2.6634
 9516SOL    HW229599   0.784   6.235   6.367 -0.6979 -2.0021 -2.2818
 9517SOL     OW29600   1.168   6.408   5.074 -0.1231 -0.5006 -0.3406
 9517SOL    HW129601   1.250   6.396   5.024  0.7653 -0.9966  1.1711
 9517SOL    HW229602   1.101   6.368   5.019  0.5190  0.4078 -1.8849
 9518SOL     OW29603   3.189   2.573   8.274 -0.0758 -0.0026 -0.2415
 9518SOL    HW129604   3.107   2.601   8.315 -0.1285  0.1214 -0.4279
 9518SOL    HW229605   3.172   2.581   8.180  0.0374 -0.3041 -0.2868
 9519SOL     OW29606   6.617   6.719   3.892  0.6071  0.3841 -0.1866
 9519SOL    HW129607   6.542   6.775   3.873 -0.2732 -0.2639  1.2568
 9519SOL    HW229608   6.679   6.777   3.937  0.9722  0.8840 -1.2700
 9520SOL     OW29609   6.533   3.542   5.406  0.0987  0.3657 -1.6847
 9520SOL    HW129610   6.540   3.456   5.447  1.3982  0.7994 -0.9376
 9520SOL    HW229611   6.622   3.576   5.407 -0.1027  1.0494 -3.4828
 9521SOL     OW29612   3.983   4.050   7.168  0.8109  0.1477  0.3135
 9521SOL    HW129613   3.901   4.002   7.159  0.6734  0.2216  1.0975
 9521SOL    HW229614   3.958   4.134   7.207  0.7855  1.6994 -2.7109
 9522SOL     OW29615   0.345   5.941   0.081 -0.1014 -0.4755 -0.2530
 9522SOL    HW129616   0.322   5.980  -0.004  1.0848  1.5769  0.3041
 9522SOL    HW229617   0.415   5.880   0.061 -0.0209 -0.2140 -0.7842
 9523SOL     OW29618   3.246   0.599   0.453  0.0141  0.1011 -0.2425
 9523SOL    HW129619   3.227   0.506   0.440 -1.0169  0.3406 -0.5834
 9523SOL    HW229620   3.172   0.631   0.506  0.0523  0.8462 -0.6254
 9524SOL     OW29621   4.542   6.403   6.698 -0.1775  0.0250  0.2227
 9524SOL    HW129622   4.454   6.396   6.661 -0.0715 -0.3047  0.0281
 9524SOL    HW229623   4.531   6.459   6.775 -0.5924 -0.1842  0.3187
 9525SOL     OW29624   5.879   0.877   4.797 -1.1220 -0.0069 -0.0517
 9525SOL    HW129625   5.903   0.800   4.746 -1.0459  0.3547 -0.5707
 9525SOL    HW229626   5.850   0.941   4.732 -1.3460  0.3465  0.3856
 9526SOL     OW29627   1.603   6.992   5.673 -0.2837  0.1392 -0.1595
 9526SOL    HW129628   1.551   6.949   5.741 -1.8153  2.2042  0.0617
 9526SOL    HW229629   1.667   7.045   5.721  1.5587 -1.6934 -0.4317
 9527SOL     OW29630   3.522   1.178   3.898  0.5093 -0.2194  0.6193
 9527SOL    HW129631   3.612   1.160   3.923  0.6882  1.3136  1.2011
 9527SOL    HW229632   3.515   1.273   3.900 -0.9864 -0.2876  0.0958
 9528SOL     OW29633   7.932   5.487   5.272 -0.1277 -0.5640  0.0754
 9528SOL    HW129634   7.906   5.528   5.354  1.4689  0.1776  0.2394
 9528SOL    HW229635   8.018   5.449   5.289 -0.4736 -1.8209 -0.8057
 9529SOL     OW29636   7.060   4.640   7.247  0.0650  0.2581  0.0206
 9529SOL    HW129637   7.094   4.698   7.316 -1.6009 -0.4551  1.5369
 9529SOL    HW229638   7.102   4.555   7.264  1.6837  0.6925 -1.5391
 9530SOL     OW29639   3.995   0.159   4.282  0.1455 -0.3042 -0.2284
 9530SOL    HW129640   3.946   0.107   4.346 -0.6039  0.6248 -0.0227
 9530SOL    HW229641   4.082   0.169   4.321 -0.7730  1.6965  1.5565
 9531SOL     OW29642   0.783   5.408   2.699 -0.1691  0.2550 -0.5434
 9531SOL    HW129643   0.832   5.396   2.781 -1.2416  0.5577  0.1663
 9531SOL    HW229644   0.844   5.454   2.641  1.2425 -1.4946 -0.5558
 9532SOL     OW29645   1.770   8.197   7.187 -0.1394 -0.2064  0.4722
 9532SOL    HW129646   1.845   8.253   7.204  0.2787 -0.3295 -0.8259
 9532SOL    HW229647   1.722   8.194   7.270  0.8650  0.4998  1.0955
 9533SOL     OW29648   5.611   3.373   1.214 -0.1324 -0.1485 -0.1641
 9533SOL    HW129649   5.648   3.459   1.237  0.5967 -0.2766 -0.7989
 9533SOL    HW229650   5.685   3.313   1.224 -0.4083 -0.5588 -0.5916
 9534SOL     OW29651   4.771   5.084   4.246  0.3088  0.2015  0.1100
 9534SOL    HW129652   4.799   5.070   4.156  0.2574 -1.0103  0.2715
 9534SOL    HW229653   4.851   5.112   4.292  0.8318 -1.2723  0.1378
 9535SOL     OW29654   2.470   4.738   1.369 -0.3705  0.6274 -0.0082
 9535SOL    HW129655   2.464   4.833   1.360 -2.8682  0.5460  0.0562
 9535SOL    HW229656   2.547   4.724   1.424  1.1697  2.4569 -1.5503
 9536SOL     OW29657   4.075   4.905   5.712  0.3213  0.1564  0.0388
 9536SOL    HW129658   4.148   4.854   5.677 -1.2300 -1.0788 -1.6345
 9536SOL    HW229659   4.006   4.840   5.725 -0.3395  1.2021  2.0529
 9537SOL     OW29660   0.671   7.147   4.103 -0.6613  0.4556 -0.5724
 9537SOL    HW129661   0.650   7.114   4.191  1.3386 -0.5328 -0.4121
 9537SOL    HW229662   0.586   7.167   4.064 -1.6546 -0.0891  1.2013
 9538SOL     OW29663   5.899   2.551   0.873  0.2320 -0.1306  0.2232
 9538SOL    HW129664   5.950   2.470   0.865  1.4310  0.6296 -0.0495
 9538SOL    HW229665   5.864   2.548   0.962  1.1375 -0.4549  0.5823
 9539SOL     OW29666   3.659   5.454   6.252  0.4169 -0.0660  0.5171
 9539SOL    HW129667   3.713   5.433   6.328 -0.5791  2.6112  2.1368
 9539SOL    HW229668   3.709   5.421   6.177  3.3499  0.4959  2.0457
 9540SOL     OW29669   2.274   0.862   3.296  0.4968  0.1718 -0.0789
 9540SOL    HW129670   2.362   0.893   3.276  0.5196  1.1262  1.3303
 9540SOL    HW229671   2.254   0.900   3.382 -0.7270 -1.1846  0.2878
 9541SOL     OW29672   1.423   1.736   4.057  0.4274  0.5808  0.0824
 9541SOL    HW129673   1.506   1.737   4.105  0.4501  2.7461  0.1172
 9541SOL    HW229674   1.433   1.805   3.991 -1.7954  1.8513  0.9619
 9542SOL     OW29675   4.400   4.385   7.070  0.1234 -0.0041 -0.1498
 9542SOL    HW129676   4.488   4.420   7.058  0.3111 -0.5957 -0.5432
 9542SOL    HW229677   4.351   4.456   7.113  0.2722  1.0492 -1.6526
 9543SOL     OW29678   2.738   0.891   1.983  0.4431  0.0743 -0.4021
 9543SOL    HW129679   2.716   0.805   1.948  1.1622 -0.3230  0.1167
 9543SOL    HW229680   2.823   0.912   1.945  0.1322  0.6974 -0.7713
 9544SOL     OW29681   7.007   2.935   0.373 -0.1834  0.2317 -0.3656
 9544SOL    HW129682   6.941   2.971   0.431  0.4741 -0.3184  0.7527
 9544SOL    HW229683   7.046   3.012   0.331 -0.6206  0.6388 -0.0345
 9545SOL     OW29684   4.365   6.237   1.546 -0.1361  0.0642  0.9043
 9545SOL    HW129685   4.379   6.246   1.640 -0.8561 -2.1452  1.2783
 9545SOL    HW229686   4.391   6.147   1.526 -1.9262 -0.1797 -0.6137
 9546SOL     OW29687   6.950   5.203   4.261 -0.3620 -0.1634 -0.1015
 9546SOL    HW129688   6.887   5.217   4.332  0.4242  1.1328  0.3923
 9546SOL    HW229689   6.955   5.108   4.251 -1.7615 -0.3100  0.4090
 9547SOL     OW29690   1.212   4.714   0.989 -0.4396 -0.0038  1.1613
 9547SOL    HW129691   1.155   4.775   0.942  0.3024 -0.2107 -0.0681
 9547SOL    HW229692   1.173   4.628   0.975 -0.3532 -0.0352  1.1057
 9548SOL     OW29693   1.874   6.697   5.131  0.0854 -0.6366 -0.0869
 9548SOL    HW129694   1.848   6.719   5.221 -2.6552  0.6835 -1.0857
 9548SOL    HW229695   1.791   6.681   5.086  1.4596 -2.3916 -2.1382
 9549SOL     OW29696   6.067   4.009   4.395  0.2325 -0.4726  0.7438
 9549SOL    HW129697   6.015   4.010   4.476 -0.6724  1.1257  0.1940
 9549SOL    HW229698   6.100   4.099   4.387 -1.5630  0.0678 -1.7927
 9550SOL     OW29699   2.735   3.516   3.830  0.4348 -0.4161  0.2573
 9550SOL    HW129700   2.674   3.585   3.857 -0.3363 -1.1176  0.3213
 9550SOL    HW229701   2.795   3.561   3.770 -0.4841  0.1668 -0.2611
 9551SOL     OW29702   7.126   2.592   1.606  0.1303  0.1155  0.0221
 9551SOL    HW129703   7.213   2.552   1.618  0.2738  0.4359  0.0584
 9551SOL    HW229704   7.077   2.527   1.555  1.1961  0.9598 -2.2251
 9552SOL     OW29705   2.872   1.214   8.032  0.5408 -0.5638 -0.4740
 9552SOL    HW129706   2.910   1.148   7.974  1.4013 -1.0219  0.5764
 9552SOL    HW229707   2.810   1.164   8.086 -0.6778 -0.0412 -1.3578
 9553SOL     OW29708   6.040   7.087   2.651 -0.0237 -0.0047 -0.3127
 9553SOL    HW129709   6.058   7.008   2.701 -1.2521 -0.1858 -0.1264
 9553SOL    HW229710   6.118   7.099   2.597  0.4520 -0.9687  0.1287
 9554SOL     OW29711   5.377   0.410   6.233 -0.4264  0.5534  0.7488
 9554SOL    HW129712   5.455   0.455   6.202 -0.3017  0.0239  0.2729
 9554SOL    HW229713   5.344   0.364   6.156  0.1570 -1.1887  1.5082
 9555SOL     OW29714   4.670   5.663   6.581  0.2726 -0.5184 -0.0693
 9555SOL    HW129715   4.667   5.753   6.550 -0.6612 -0.1309  1.0826
 9555SOL    HW229716   4.761   5.636   6.569  0.6085  0.6581 -0.2191
 9556SOL     OW29717   0.566   2.798   0.690 -0.0608 -0.0157  0.3919
 9556SOL    HW129718   0.478   2.760   0.693 -1.2310  2.4901  0.4393
 9556SOL    HW229719   0.584   2.823   0.781  0.5565 -0.1721  0.3185
 9557SOL     OW29720   2.475   6.728   3.670  0.1333  0.1927 -0.3537
 9557SOL    HW129721   2.531   6.732   3.593 -0.1106  1.8619 -0.4842
 9557SOL    HW229722   2.507   6.652   3.719  1.3249  0.0567 -1.2907
 9558SOL     OW29723   3.859   4.844   2.355  0.0519 -0.1620 -0.0411
 9558SOL    HW129724   3.875   4.751   2.369  1.3434 -0.1901 -1.3753
 9558SOL    HW229725   3.817   4.848   2.269  0.4063  0.4996 -0.1939
 9559SOL     OW29726   2.964   7.282   1.941 -0.8279 -0.1896 -0.3382
 9559SOL    HW129727   2.937   7.219   1.874  1.8357  0.1704 -1.9022
 9559SOL    HW229728   3.043   7.243   1.979  0.8961  2.0911 -1.3404
 9560SOL     OW29729   4.978   5.913   2.900 -0.8122 -0.2611 -0.3947
 9560SOL    HW129730   5.040   5.921   2.828 -1.5024  1.5773 -0.8401
 9560SOL    HW229731   4.895   5.887   2.859 -0.9743 -0.1444 -0.1447
 9561SOL     OW29732   4.908   0.441   6.952  0.2656  0.5546 -0.1003
 9561SOL    HW129733   4.985   0.494   6.970 -0.6542  1.5575  1.0115
 9561SOL    HW229734   4.853   0.497   6.897 -0.9369  1.0360  1.4935
 9562SOL     OW29735   0.098   2.935   4.008  0.5726 -0.4036  0.0704
 9562SOL    HW129736   0.047   2.874   3.956  1.9279 -1.9478  0.4527
 9562SOL    HW229737   0.185   2.932   3.968  0.4577  2.0658 -0.5028
 9563SOL     OW29738   0.165   7.078   0.715 -0.1151  0.1204  0.3182
 9563SOL    HW129739   0.216   6.997   0.703 -0.4919 -0.0681 -0.0752
 9563SOL    HW229740   0.077   7.054   0.687  0.2733  1.3128 -2.2248
 9564SOL     OW29741   3.506   2.435   7.690  0.3395  0.2213  0.3220
 9564SOL    HW129742   3.457   2.518   7.686  1.1944  0.7201 -0.1468
 9564SOL    HW229743   3.580   2.454   7.748  0.1883 -0.4164  0.7316
 9565SOL     OW29744   3.123   6.238   5.371 -0.1931  0.4683 -0.0752
 9565SOL    HW129745   3.197   6.201   5.322  0.4108  0.0254  1.1266
 9565SOL    HW229746   3.163   6.274   5.451 -1.0468  1.8685 -0.2376
 9566SOL     OW29747   1.714   1.901   5.780  0.4847 -0.2436  0.2313
 9566SOL    HW129748   1.760   1.832   5.732  1.4310  0.1271  0.5898
 9566SOL    HW229749   1.694   1.863   5.865 -3.4483 -1.8206 -1.1510
 9567SOL     OW29750   0.660   4.043   0.133 -0.6565  0.8810 -0.6015
 9567SOL    HW129751   0.585   3.988   0.113 -0.8423  0.8008  0.2790
 9567SOL    HW229752   0.693   4.010   0.217  0.0645  1.2264 -0.7367
 9568SOL     OW29753   5.811   6.491   5.587 -0.0728 -0.1391  0.2058
 9568SOL    HW129754   5.890   6.529   5.626  1.2102  0.3101 -2.6456
 9568SOL    HW229755   5.804   6.404   5.626  0.5933  0.5801  2.0415
 9569SOL     OW29756   5.892   5.183   3.922  0.3024 -1.1404 -0.0429
 9569SOL    HW129757   5.859   5.105   3.879 -0.0309 -0.9436 -0.1521
 9569SOL    HW229758   5.853   5.256   3.873  1.1401 -0.8979 -0.3651
 9570SOL     OW29759   6.182   2.580   1.053 -0.8496 -0.3095  0.0001
 9570SOL    HW129760   6.270   2.573   1.091 -1.0144  1.4194  0.8346
 9570SOL    HW229761   6.185   2.528   0.973  1.4050  0.9201 -0.7894
 9571SOL     OW29762   4.619   0.824   7.576  0.9214  0.0194 -0.0409
 9571SOL    HW129763   4.563   0.768   7.523  1.6198 -2.5608  1.7932
 9571SOL    HW229764   4.684   0.765   7.615  1.9989  2.1534  1.6563
 9572SOL     OW29765   0.037   4.697   8.061  0.5960 -0.2518  0.2185
 9572SOL    HW129766   0.049   4.691   8.156 -0.3215  2.9267  0.6487
 9572SOL    HW229767  -0.045   4.651   8.043  1.1078 -1.4443  0.8141
 9573SOL     OW29768   3.518   8.190   5.366  0.4130 -0.0788 -0.6511
 9573SOL    HW129769   3.467   8.131   5.421  1.6707 -0.1556  0.4963
 9573SOL    HW229770   3.562   8.132   5.304  1.3436 -0.3382  0.2256
 9574SOL     OW29771   3.846   1.483   6.761 -0.2075  0.4331 -0.0189
 9574SOL    HW129772   3.858   1.573   6.731  1.5008 -0.2536 -1.5371
 9574SOL    HW229773   3.754   1.465   6.743 -0.6765  1.9496  0.6262
 9575SOL     OW29774   7.632   4.703   5.029 -0.5992  0.1812 -0.1416
 9575SOL    HW129775   7.580   4.709   4.949 -1.6656 -2.0784  0.2841
 9575SOL    HW229776   7.723   4.710   4.999 -0.9828 -0.4535 -1.5448
 9576SOL     OW29777   5.084   7.561   0.154 -0.2316 -0.5566 -0.2821
 9576SOL    HW129778   5.150   7.531   0.091  0.4720 -0.6048  0.4634
 9576SOL    HW229779   5.071   7.487   0.212  1.4933  0.4651  1.5523
 9577SOL     OW29780   1.622   7.639   1.262 -0.0087 -0.0447 -0.2231
 9577SOL    HW129781   1.549   7.695   1.291  0.2692  1.0772 -1.5821
 9577SOL    HW229782   1.689   7.650   1.330  0.1510  1.5348 -0.5937
 9578SOL     OW29783   0.230   3.014   7.676  0.4353  0.1853 -0.1881
 9578SOL    HW129784   0.153   2.962   7.700  1.0431 -0.3458  0.6675
 9578SOL    HW229785   0.233   3.084   7.742  2.2863 -1.4536  1.5859
 9579SOL     OW29786   1.351   3.908   7.250 -0.0238  0.1397 -0.6754
 9579SOL    HW129787   1.389   3.994   7.266 -0.6730  0.1305  1.2278
 9579SOL    HW229788   1.417   3.846   7.280 -0.9250  0.1012  1.4222
 9580SOL     OW29789   3.013   5.314   5.023 -0.5384  0.6130  0.1988
 9580SOL    HW129790   2.981   5.357   4.944 -2.0668  1.1277  1.0684
 9580SOL    HW229791   3.108   5.309   5.010 -0.8198  0.0197 -1.9768
 9581SOL     OW29792   0.440   0.786   2.513  0.0444  0.6030  0.5715
 9581SOL    HW129793   0.352   0.806   2.481  0.3609  1.0792 -0.0125
 9581SOL    HW229794   0.472   0.868   2.550  0.8657  0.8994 -0.7117
 9582SOL     OW29795   2.077   7.780   7.540  0.3649  0.2726  0.1638
 9582SOL    HW129796   2.096   7.860   7.491  1.0629  0.1819  0.2734
 9582SOL    HW229797   1.981   7.779   7.549  0.2473  0.3923 -1.0001
 9583SOL     OW29798   2.652   2.531   3.708 -0.5736 -0.3756 -0.5554
 9583SOL    HW129799   2.596   2.550   3.632  1.9700 -0.1656 -2.5429
 9583SOL    HW229800   2.689   2.616   3.731  0.7933 -0.8379 -0.9363
 9584SOL     OW29801   2.457   4.396   7.338 -0.0175 -0.1629  0.4033
 9584SOL    HW129802   2.487   4.349   7.415  1.4158 -1.9818 -1.1539
 9584SOL    HW229803   2.503   4.355   7.265 -1.1739  1.5718 -1.4323
 9585SOL     OW29804   4.109   8.177   4.099  0.0838  0.4927 -0.2406
 9585SOL    HW129805   4.017   8.170   4.125  0.3262 -0.6583  0.3947
 9585SOL    HW229806   4.156   8.125   4.165  1.4647  2.9574  0.8557
 9586SOL     OW29807   3.719   3.978   6.348 -0.1762 -0.0724  0.3391
 9586SOL    HW129808   3.788   4.044   6.352  1.7442 -2.0145  1.0278
 9586SOL    HW229809   3.666   4.003   6.273  0.3839  2.3080  0.6733
 9587SOL     OW29810   6.025   7.798   6.970 -0.0153 -0.7723  0.0279
 9587SOL    HW129811   6.105   7.802   7.022 -0.4521 -1.3333  0.7720
 9587SOL    HW229812   5.956   7.777   7.033 -0.2024 -4.0318 -1.0583
 9588SOL     OW29813   7.294   3.266   5.598  0.1080  0.1660 -0.6958
 9588SOL    HW129814   7.363   3.331   5.610  1.7267 -1.5551 -0.2496
 9588SOL    HW229815   7.307   3.204   5.669 -1.3394 -0.7015 -1.1457
 9589SOL     OW29816   5.212   2.442   4.563 -0.1645  0.3674 -0.1307
 9589SOL    HW129817   5.282   2.376   4.571 -0.3097 -0.0005 -1.5649
 9589SOL    HW229818   5.173   2.445   4.650  1.4638  0.3941  0.6437
 9590SOL     OW29819   5.982   5.133   1.672 -0.0341 -0.3329  0.0430
 9590SOL    HW129820   5.926   5.114   1.596 -0.2859  0.9620 -0.1162
 9590SOL    HW229821   5.981   5.052   1.723  0.4417 -1.3726 -1.5194
 9591SOL     OW29822   7.045   8.253   1.811 -0.4829  0.5413  0.4109
 9591SOL    HW129823   7.055   8.271   1.718  2.1592 -0.6802  0.3973
 9591SOL    HW229824   7.028   8.159   1.816  0.4760  0.3986  1.1965
 9592SOL     OW29825   0.408   0.285   1.913 -0.0109 -0.0878 -0.3042
 9592SOL    HW129826   0.411   0.216   1.847 -1.1398  0.0143 -0.4821
 9592SOL    HW229827   0.500   0.301   1.935  0.2826 -1.4195 -0.4875
 9593SOL     OW29828   5.774   1.203   5.887 -0.0045 -0.3836  0.0571
 9593SOL    HW129829   5.682   1.218   5.912 -0.1524 -2.3656  0.8358
 9593SOL    HW229830   5.803   1.131   5.943  2.4191  0.9645  0.6702
 9594SOL     OW29831   5.037   2.083   6.505  0.3754 -0.2735 -0.2272
 9594SOL    HW129832   4.949   2.044   6.498  0.7170 -1.0280 -0.4110
 9594SOL    HW229833   5.022   2.177   6.496 -0.4262 -0.3873 -0.1797
 9595SOL     OW29834   0.330   2.582   7.044 -0.0172 -0.1614 -0.6553
 9595SOL    HW129835   0.382   2.577   6.964  1.7161 -0.7665  0.4368
 9595SOL    HW229836   0.387   2.627   7.107 -0.7431 -0.9546  0.6219
 9596SOL     OW29837   4.681   0.075   3.845 -0.1265 -0.1786  0.4385
 9596SOL    HW129838   4.592   0.094   3.875  0.1012  0.3071  0.8237
 9596SOL    HW229839   4.682   0.102   3.753 -1.0769 -2.4659 -0.3079
 9597SOL     OW29840   3.045   2.487   7.043  0.2168 -0.1898  0.8958
 9597SOL    HW129841   3.089   2.478   7.128 -0.7122  0.0920  1.4183
 9597SOL    HW229842   2.992   2.566   7.052  1.7115  1.0756 -0.6890
 9598SOL     OW29843   2.708   4.565   1.383  0.2203  0.0012 -0.2182
 9598SOL    HW129844   2.752   4.541   1.301 -1.6514 -1.2516 -0.9156
 9598SOL    HW229845   2.703   4.482   1.432 -0.5608  0.3020  0.2219
 9599SOL     OW29846   6.778   2.660   3.428  0.1082  0.1257  0.0997
 9599SOL    HW129847   6.687   2.633   3.410  0.2361  0.3162 -0.9249
 9599SOL    HW229848   6.831   2.595   3.383  0.4854  0.0782  0.6111
 9600SOL     OW29849   7.429   4.057   6.190 -0.4154 -0.2697  0.1592
 9600SOL    HW129850   7.365   4.014   6.133 -1.8659  0.6089  1.0605
 9600SOL    HW229851   7.403   4.149   6.190  0.5091  0.0130  1.0273
 9601SOL     OW29852   6.456   4.207   7.447  0.1232  0.3891 -0.5152
 9601SOL    HW129853   6.360   4.212   7.450 -0.0194 -1.4158 -0.8443
 9601SOL    HW229854   6.476   4.116   7.466  1.7562  0.5744 -1.1508
 9602SOL     OW29855   4.116   6.680   5.019 -0.1221 -0.2397 -0.2995
 9602SOL    HW129856   4.093   6.686   4.927 -0.0553 -1.8991 -0.4551
 9602SOL    HW229857   4.067   6.752   5.061  1.1345  1.5784 -1.8149
 9603SOL     OW29858   8.035   6.387   4.772 -0.1752 -0.8398  0.7475
 9603SOL    HW129859   7.958   6.371   4.718  0.5093 -1.1632 -0.1486
 9603SOL    HW229860   8.088   6.449   4.721  0.9594 -1.9281  0.5693
 9604SOL     OW29861   1.758   2.655   0.595  0.1767  0.1336  0.3335
 9604SOL    HW129862   1.693   2.725   0.603 -0.6207 -0.5957  0.4199
 9604SOL    HW229863   1.755   2.630   0.503  0.8733  0.5775  0.1771
 9605SOL     OW29864   8.019   6.554   2.941 -0.7057  0.0127  0.6872
 9605SOL    HW129865   8.028   6.479   2.883  0.3457 -0.0586  0.9112
 9605SOL    HW229866   8.085   6.616   2.910  0.9800 -0.6453  2.7004
 9606SOL     OW29867   3.923   1.476   7.031 -0.0592  0.4401 -0.3666
 9606SOL    HW129868   4.016   1.474   7.009  0.2334  1.4785  0.6699
 9606SOL    HW229869   3.880   1.507   6.952  0.3901 -0.7302 -1.0871
 9607SOL     OW29870   0.119   5.096   5.957 -0.0158 -0.1231  0.2070
 9607SOL    HW129871   0.054   5.137   6.015  0.9482  0.0353  1.2128
 9607SOL    HW229872   0.075   5.089   5.872 -1.0423  0.7676  0.6454
 9608SOL     OW29873   2.242   8.197   0.862  0.8319  0.1057 -0.0182
 9608SOL    HW129874   2.185   8.119   0.858  0.7247  0.1686  0.2576
 9608SOL    HW229875   2.181   8.270   0.871  0.9251  0.2388 -0.4633
 9609SOL     OW29876   7.066   2.862   3.973  0.0944  0.0952  0.2780
 9609SOL    HW129877   7.007   2.829   4.041 -0.7089 -0.0188 -0.4587
 9609SOL    HW229878   7.121   2.926   4.018 -1.8729  1.6628  0.5889
 9610SOL     OW29879   7.477   2.548   4.732  0.3275 -0.6593  0.1728
 9610SOL    HW129880   7.531   2.493   4.675  1.6627  2.5468 -1.9990
 9610SOL    HW229881   7.387   2.531   4.703  0.7623 -1.1784 -0.9598
 9611SOL     OW29882   7.438   7.341   2.705  0.6502 -0.1433 -0.9372
 9611SOL    HW129883   7.412   7.387   2.785 -0.7686 -1.6647 -0.4702
 9611SOL    HW229884   7.523   7.379   2.683  1.3421 -0.0181  1.5810
 9612SOL     OW29885   3.569   7.817   2.672 -0.0973 -0.2524 -0.2372
 9612SOL    HW129886   3.633   7.820   2.743  0.6905  0.9171 -0.9664
 9612SOL    HW229887   3.555   7.909   2.648  0.1033 -0.6446 -1.9903
 9613SOL     OW29888   5.394   0.462   2.985  0.5383  0.0670 -0.0585
 9613SOL    HW129889   5.429   0.455   2.896 -1.0578 -0.9982 -0.6504
 9613SOL    HW229890   5.299   0.464   2.974  0.2723 -0.7564  1.6504
 9614SOL     OW29891   7.439   1.425   6.316  0.2372 -0.3196 -0.6879
 9614SOL    HW129892   7.477   1.507   6.284  1.5697 -0.1116  1.2606
 9614SOL    HW229893   7.373   1.402   6.251 -1.3459  3.1589 -0.5050
 9615SOL     OW29894   3.916   3.988   5.454  0.0923 -0.4538 -0.5459
 9615SOL    HW129895   3.863   4.049   5.404  1.7514  1.0393 -0.5849
 9615SOL    HW229896   3.862   3.965   5.530 -1.1631 -0.1917 -1.3431
 9616SOL     OW29897   6.510   4.277   7.985  0.2772  0.0797 -0.3865
 9616SOL    HW129898   6.508   4.310   8.075  1.2990  0.6024 -0.5411
 9616SOL    HW229899   6.468   4.345   7.933  2.5197  1.3041 -0.7264
 9617SOL     OW29900   7.115   4.742   4.444 -0.1946  0.1360 -0.2174
 9617SOL    HW129901   7.144   4.764   4.532 -0.3774  0.4930 -0.2466
 9617SOL    HW229902   7.182   4.682   4.411  1.1367  1.8185 -0.7074
 9618SOL     OW29903   5.934   7.511   6.137 -0.2705 -0.3625 -0.4181
 9618SOL    HW129904   6.004   7.576   6.135 -0.2224 -0.3310  1.0083
 9618SOL    HW229905   5.950   7.456   6.061 -0.1475  1.1150 -1.4951
 9619SOL     OW29906   3.378   4.816   4.519  0.0229  0.2686 -0.0541
 9619SOL    HW129907   3.437   4.879   4.563 -2.0385  2.0542  0.3200
 9619SOL    HW229908   3.351   4.861   4.440  0.7282 -1.4014 -1.2983
 9620SOL     OW29909   5.727   5.650   5.464  0.0813 -0.5260 -0.7015
 9620SOL    HW129910   5.721   5.593   5.541 -0.2397  0.5431  0.0942
 9620SOL    HW229911   5.645   5.634   5.416  0.1951 -1.0549 -0.7276
 9621SOL     OW29912   2.729   6.952   1.167 -0.7039  0.4076 -0.6823
 9621SOL    HW129913   2.735   6.860   1.191 -0.5979  0.4438 -0.5699
 9621SOL    HW229914   2.651   6.983   1.214 -0.8190  0.3430 -0.8290
 9622SOL     OW29915   1.985   8.251   3.453  0.8901 -0.3073  0.0311
 9622SOL    HW129916   1.994   8.204   3.371 -2.4086 -0.2624 -0.4638
 9622SOL    HW229917   1.906   8.303   3.443  0.0178 -0.7313  3.3997
 9623SOL     OW29918   2.695   8.150   7.977  0.2433 -0.4537  0.1234
 9623SOL    HW129919   2.606   8.140   7.945  0.0514 -0.5803  0.6842
 9623SOL    HW229920   2.749   8.102   7.914 -0.0094  0.1162 -0.5448
 9624SOL     OW29921   0.865   6.026   7.573  0.2736  0.1413 -0.3655
 9624SOL    HW129922   0.793   6.006   7.633 -0.0554  0.8110 -0.5298
 9624SOL    HW229923   0.881   6.119   7.585  1.5499 -0.1235  0.1314
 9625SOL     OW29924   4.259   3.782   1.509 -0.1184  0.3507 -0.6322
 9625SOL    HW129925   4.352   3.806   1.505 -0.2425  1.0195  0.2001
 9625SOL    HW229926   4.245   3.728   1.432  0.7925  0.8587 -1.1758
 9626SOL     OW29927   1.400   4.801   3.580 -0.3789  0.0937 -0.2326
 9626SOL    HW129928   1.325   4.755   3.618 -1.3400  3.3430  2.2866
 9626SOL    HW229929   1.373   4.823   3.491 -1.0521 -1.5271 -0.4575
 9627SOL     OW29930   7.999   5.662   0.982 -0.1547 -0.2296 -0.0856
 9627SOL    HW129931   8.050   5.585   1.008  1.4148  0.5617 -0.7389
 9627SOL    HW229932   7.961   5.638   0.898 -0.0990 -0.4810 -0.0408
 9628SOL     OW29933   4.036   1.312   2.226 -0.3313 -0.6337 -0.1462
 9628SOL    HW129934   4.119   1.321   2.273 -1.5586  2.2271  1.7269
 9628SOL    HW229935   4.056   1.342   2.137  0.6100  0.1986  0.3207
 9629SOL     OW29936   3.958   7.000   5.675  0.5046  0.2375  0.0808
 9629SOL    HW129937   4.042   7.021   5.715  1.1080 -1.1883 -0.3939
 9629SOL    HW229938   3.956   7.053   5.595  1.7806 -1.0099 -0.8394
 9630SOL     OW29939   4.446   2.064   1.603 -0.2062 -0.1872  0.1826
 9630SOL    HW129940   4.488   2.052   1.688 -1.9398  0.8586  1.2454
 9630SOL    HW229941   4.353   2.078   1.624 -0.8566 -0.9375 -1.9537
 9631SOL     OW29942   6.813   2.984   6.279  0.4252  0.3111 -0.0955
 9631SOL    HW129943   6.762   3.010   6.202 -0.9301  1.5804  1.1574
 9631SOL    HW229944   6.881   2.926   6.245 -1.7148 -1.3104 -1.9025
 9632SOL     OW29945   2.335   2.746   4.946 -0.7110  0.1113  0.4114
 9632SOL    HW129946   2.399   2.721   4.880 -0.7376  0.3900  0.2782
 9632SOL    HW229947   2.267   2.679   4.941 -1.2786  0.7361 -0.6231
 9633SOL     OW29948   1.925   0.574   7.579  0.4963  0.0643 -0.4548
 9633SOL    HW129949   2.010   0.614   7.596 -0.9673  2.5265  1.7530
 9633SOL    HW229950   1.878   0.638   7.526 -0.1901 -1.0667 -1.2687
 9634SOL     OW29951   0.515   0.146   3.461  0.1227 -0.9922 -0.5464
 9634SOL    HW129952   0.570   0.172   3.535 -1.0931  1.1827 -0.3241
 9634SOL    HW229953   0.472   0.066   3.490  0.3399 -0.6586  0.7615
 9635SOL     OW29954   1.112   6.190   1.204  0.6621  0.0705 -0.5726
 9635SOL    HW129955   1.130   6.282   1.188  1.3262  0.2480  1.0061
 9635SOL    HW229956   1.172   6.165   1.274 -1.4061 -0.8078  1.0062
 9636SOL     OW29957   1.883   5.491   0.242  0.3575  0.0820  0.1803
 9636SOL    HW129958   1.822   5.422   0.269  0.7538 -0.1382  0.5220
 9636SOL    HW229959   1.921   5.459   0.160 -1.4039  1.0860 -1.1105
 9637SOL     OW29960   4.422   2.735   7.877  0.3420  0.5723 -0.5326
 9637SOL    HW129961   4.331   2.756   7.897  0.7501  2.5881 -0.6083
 9637SOL    HW229962   4.427   2.738   7.781  0.4371  0.1933 -0.5419
 9638SOL     OW29963   1.406   5.427   5.773  0.6046  0.1467 -0.2075
 9638SOL    HW129964   1.356   5.497   5.732 -0.1849 -1.1541 -1.5141
 9638SOL    HW229965   1.497   5.455   5.764  0.3454  0.6643 -1.3416
 9639SOL     OW29966   8.077   5.635   3.763  0.1810  0.0131 -0.0187
 9639SOL    HW129967   8.156   5.665   3.717 -0.2773 -1.0391 -1.5605
 9639SOL    HW229968   8.009   5.633   3.696 -0.7626 -0.6391  0.9252
 9640SOL     OW29969   7.066   0.414   8.069  0.3569 -0.3995  0.2343
 9640SOL    HW129970   7.152   0.454   8.058  0.9203 -0.8734  2.5189
 9640SOL    HW229971   7.008   0.487   8.092  0.0140 -0.0308 -1.6005
 9641SOL     OW29972   4.296   0.431   2.443  0.5388 -0.3498  0.5144
 9641SOL    HW129973   4.269   0.341   2.465  0.4866 -0.6862 -0.8186
 9641SOL    HW229974   4.367   0.420   2.380 -0.4979  0.5040 -0.8779
 9642SOL     OW29975   0.273   5.013   4.829  0.2472 -0.4384  0.2485
 9642SOL    HW129976   0.278   5.054   4.915  2.5743  2.3354 -1.0399
 9642SOL    HW229977   0.183   5.027   4.800  0.1412  0.9614  1.1877
 9643SOL     OW29978   8.170   5.594   1.277  0.3515  0.1829  0.2137
 9643SOL    HW129979   8.161   5.531   1.206 -0.4921  1.3572 -0.7755
 9643SOL    HW229980   8.254   5.638   1.259  0.1150  0.5133 -0.1035
 9644SOL     OW29981   4.563   8.249   2.297  0.1947 -0.4832  0.2744
 9644SOL    HW129982   4.474   8.284   2.284 -1.0977 -2.6501  2.4528
 9644SOL    HW229983   4.560   8.162   2.257  1.2889 -0.6589  0.5518
 9645SOL     OW29984   7.138   4.976   3.898 -0.1685  0.2217 -0.3232
 9645SOL    HW129985   7.118   4.894   3.852  0.7815 -0.9337  1.2135
 9645SOL    HW229986   7.054   5.020   3.906 -0.6596 -0.4690 -1.3908
 9646SOL     OW29987   1.129   8.111   1.447  0.0575  0.7156  0.2551
 9646SOL    HW129988   1.067   8.061   1.500 -0.1326 -0.1513 -0.7575
 9646SOL    HW229989   1.211   8.062   1.453 -0.1773  0.1550 -0.8871
 9647SOL     OW29990   7.418   3.918   7.944 -0.0548  0.3407  0.2112
 9647SOL    HW129991   7.510   3.907   7.918 -0.9811 -0.6389 -3.2954
 9647SOL    HW229992   7.411   3.870   8.026  2.4187 -0.2048  0.1998
 9648SOL     OW29993   7.414   3.851   4.960  0.3867 -0.4321  0.4189
 9648SOL    HW129994   7.442   3.782   5.019  1.0534 -1.4229 -1.0068
 9648SOL    HW229995   7.358   3.907   5.014  1.3858 -0.9904  2.1028
 9649SOL     OW29996   3.586   7.884   0.527 -0.7896  0.6970 -0.3654
 9649SOL    HW129997   3.663   7.830   0.545 -0.7081  0.7516 -0.5484
 9649SOL    HW229998   3.612   7.973   0.551 -0.4795  0.8690 -1.2943
 9650SOL     OW29999   0.424   1.196   7.216 -0.5374 -0.1651  0.2249
 9650SOL    HW130000   0.331   1.175   7.218 -0.3455 -1.0830 -0.1690
 9650SOL    HW230001   0.459   1.161   7.297 -0.5481  0.2804  0.4260
 9651SOL     OW30002   2.405   5.209   7.832  0.2771 -0.8473 -0.0107
 9651SOL    HW130003   2.420   5.194   7.925 -1.6287 -5.5099 -0.1687
 9651SOL    HW230004   2.486   5.180   7.790  0.4682 -0.4919  0.1083
 9652SOL     OW30005   7.440   7.984   2.883 -0.0654  0.2805  0.3641
 9652SOL    HW130006   7.519   7.974   2.936 -0.4719 -1.7469  0.6722
 9652SOL    HW230007   7.376   8.022   2.944 -0.1985 -0.9713  1.0449
 9653SOL     OW30008   6.008   4.557   2.750 -0.2555  0.4247 -0.1214
 9653SOL    HW130009   5.964   4.541   2.833 -2.3882 -0.7244 -1.3749
 9653SOL    HW230010   6.094   4.590   2.774 -0.5657 -0.4770  2.5302
 9654SOL     OW30011   3.427   6.480   3.398 -0.4815 -0.0612 -0.5429
 9654SOL    HW130012   3.508   6.429   3.399 -1.0507 -0.9960 -1.2025
 9654SOL    HW230013   3.361   6.424   3.438 -0.6847  0.9425  0.5901
 9655SOL     OW30014   7.741   3.772   6.779  0.4071  0.3956  0.0225
 9655SOL    HW130015   7.737   3.865   6.801  0.2342  0.0345  1.6434
 9655SOL    HW230016   7.827   3.762   6.738  0.2208  1.3534 -0.6334
 9656SOL     OW30017   6.197   7.529   5.148  0.5191 -0.0226 -0.7487
 9656SOL    HW130018   6.110   7.496   5.171  1.0220  0.3915  2.1556
 9656SOL    HW230019   6.243   7.453   5.113  0.0844 -1.2536  1.1832
 9657SOL     OW30020   4.254   7.558   1.472 -0.1774 -0.3509  0.4474
 9657SOL    HW130021   4.285   7.481   1.519 -0.0628 -1.2528 -1.0538
 9657SOL    HW230022   4.324   7.577   1.409 -0.4092  0.7183  0.4931
 9658SOL     OW30023   7.081   2.504   0.785  0.6429  0.1715  0.3097
 9658SOL    HW130024   7.111   2.551   0.863  1.5877  0.5962 -0.2904
 9658SOL    HW230025   7.081   2.570   0.716 -0.5454 -0.1117  0.0218
 9659SOL     OW30026   6.656   5.812   1.736 -0.0451 -0.0530  0.2419
 9659SOL    HW130027   6.571   5.834   1.697 -0.5261  0.4695  1.5102
 9659SOL    HW230028   6.639   5.814   1.830  2.0898  3.4334  0.7261
 9660SOL     OW30029   5.381   6.846   4.318 -0.0455  0.2118  0.5571
 9660SOL    HW130030   5.316   6.842   4.388  0.4893  0.7042  1.0929
 9660SOL    HW230031   5.384   6.939   4.293 -1.2343 -0.1382 -1.1002
 9661SOL     OW30032   5.218   3.214   0.888  0.2310 -0.0568  0.3878
 9661SOL    HW130033   5.310   3.186   0.889  0.0652 -0.6124  0.3861
 9661SOL    HW230034   5.193   3.209   0.796  0.6977  1.7921  0.1295
 9662SOL     OW30035   3.724   0.234   1.546  0.3531 -0.4557  0.0364
 9662SOL    HW130036   3.695   0.198   1.630  0.7560  0.4736  0.5922
 9662SOL    HW230037   3.819   0.225   1.548  0.3365 -0.8454 -0.5307
 9663SOL     OW30038   2.141   1.525   6.785  0.0554 -0.4921  0.5683
 9663SOL    HW130039   2.118   1.517   6.878 -1.9373  1.0240  0.2649
 9663SOL    HW230040   2.094   1.454   6.742  0.8823 -1.1199  0.6772
 9664SOL     OW30041   5.250   6.618   1.667  0.1959  0.1065  0.1197
 9664SOL    HW130042   5.261   6.705   1.631  1.1255 -0.0203  0.0756
 9664SOL    HW230043   5.193   6.573   1.605  0.8747  0.2385 -0.6257
 9665SOL     OW30044   1.922   1.028   1.455  0.1385 -0.5405 -0.1919
 9665SOL    HW130045   1.985   1.015   1.526 -0.2022  0.6797  0.3500
 9665SOL    HW230046   1.913   1.123   1.447  0.3335 -0.6327 -2.0201
 9666SOL     OW30047   7.827   4.268   2.700 -0.1207  0.7132 -0.1619
 9666SOL    HW130048   7.786   4.264   2.614  1.4596 -0.3156 -0.9221
 9666SOL    HW230049   7.842   4.361   2.716  0.8684  0.8437 -1.6794
 9667SOL     OW30050   0.064   3.985   1.328  0.2349 -0.4648 -0.4339
 9667SOL    HW130051   0.001   4.033   1.275  0.5084 -0.3461 -0.6549
 9667SOL    HW230052   0.149   4.015   1.297  0.4126 -1.2190 -0.6913
 9668SOL     OW30053   2.923   5.370   5.602  0.5078 -0.8603 -0.2112
 9668SOL    HW130054   2.906   5.287   5.558 -1.4794 -1.0173  0.7382
 9668SOL    HW230055   2.916   5.349   5.695 -2.0340  0.6904  0.0267
 9669SOL     OW30056   6.845   7.685   7.511 -0.0612 -0.5268 -0.0420
 9669SOL    HW130057   6.795   7.756   7.551  2.0035  0.4239  0.9877
 9669SOL    HW230058   6.868   7.627   7.583  1.0988 -0.4466 -0.3303
 9670SOL     OW30059   0.782   6.065   5.105  0.5507 -0.1832  0.3770
 9670SOL    HW130060   0.775   6.050   5.010  0.3466 -1.6659  0.5916
 9670SOL    HW230061   0.792   6.159   5.114  0.9693 -0.0540 -1.1473
 9671SOL     OW30062   0.393   3.560   3.595  0.3720  0.0812  0.2667
 9671SOL    HW130063   0.327   3.512   3.546 -0.4307  1.3172  0.0896
 9671SOL    HW230064   0.418   3.500   3.666 -0.1349 -0.8218 -0.2959
 9672SOL     OW30065   0.088   6.548   2.875 -0.1651 -0.1327 -0.2730
 9672SOL    HW130066   0.022   6.617   2.880 -0.5695 -0.5230 -0.1099
 9672SOL    HW230067   0.135   6.554   2.959  0.1105  0.2382 -0.4476
 9673SOL     OW30068   4.339   3.206   2.606 -0.1719  0.5466 -0.2289
 9673SOL    HW130069   4.314   3.201   2.698  0.0019  0.4946 -0.1829
 9673SOL    HW230070   4.352   3.115   2.579 -0.5863  0.5410 -0.4086
 9674SOL     OW30071   0.981   5.036   3.973 -0.3385  0.4153 -0.1519
 9674SOL    HW130072   0.965   5.104   3.908  2.4766  0.4736 -0.8918
 9674SOL    HW230073   0.942   5.070   4.053 -0.6055  2.0406 -0.9269
 9675SOL     OW30074   5.680   6.835   5.114  0.1330  0.2272 -0.1847
 9675SOL    HW130075   5.639   6.921   5.115  1.9092  1.1227 -0.3036
 9675SOL    HW230076   5.612   6.776   5.083 -0.7314  1.8102 -1.4315
 9676SOL     OW30077   6.255   4.910   2.245 -0.2691  0.0874  0.0302
 9676SOL    HW130078   6.248   4.961   2.326 -0.0680 -1.0771  0.8114
 9676SOL    HW230079   6.343   4.872   2.248 -0.6676 -0.8859 -0.1572
 9677SOL     OW30080   6.267   0.799   7.288 -0.0627 -0.6114 -0.5857
 9677SOL    HW130081   6.338   0.812   7.226 -0.2855  0.6646 -0.5931
 9677SOL    HW230082   6.263   0.704   7.300  2.2016 -0.6721  0.0698
 9678SOL     OW30083   2.483   2.374   0.427 -0.4850  0.9629  0.0646
 9678SOL    HW130084   2.411   2.434   0.447 -1.2469  0.4533 -1.0804
 9678SOL    HW230085   2.508   2.338   0.512 -0.7557  2.0545  0.6271
 9679SOL     OW30086   8.240   1.151   4.500  0.3860  0.1503  0.3333
 9679SOL    HW130087   8.268   1.187   4.416 -0.5726  3.3250  1.2406
 9679SOL    HW230088   8.148   1.175   4.507  0.3140 -0.4981  2.0689
 9680SOL     OW30089   7.351   1.735   1.360 -0.4780 -0.0031 -0.0738
 9680SOL    HW130090   7.338   1.760   1.268  0.3556 -0.7435 -0.4129
 9680SOL    HW230091   7.335   1.641   1.362 -1.3351  0.1497  0.7212
 9681SOL     OW30092   6.290   4.901   5.268  0.1092  0.3859 -0.2220
 9681SOL    HW130093   6.346   4.959   5.216  0.2319  1.2367  0.8165
 9681SOL    HW230094   6.252   4.958   5.335  0.3592 -0.7586  0.9424
 9682SOL     OW30095   3.610   6.753   2.460  0.3263  0.4645 -0.3838
 9682SOL    HW130096   3.670   6.690   2.498 -0.9450  0.6826  2.2362
 9682SOL    HW230097   3.529   6.742   2.509 -0.0806  3.8458 -0.0221
 9683SOL     OW30098   2.324   0.530   4.385 -0.0789  0.3820 -0.1209
 9683SOL    HW130099   2.331   0.621   4.415  0.5604  0.5525 -0.7766
 9683SOL    HW230100   2.268   0.534   4.308  0.2069  0.2587 -0.3340
 9684SOL     OW30101   6.523   1.387   5.838 -0.2575  0.2514 -0.0015
 9684SOL    HW130102   6.616   1.407   5.826 -0.0495 -0.6620  0.0434
 9684SOL    HW230103   6.522   1.301   5.879 -1.1653 -1.2167 -2.8423
 9685SOL     OW30104   7.477   3.446   7.676 -0.3029  0.5102  0.3477
 9685SOL    HW130105   7.407   3.475   7.617  0.5093  0.3746 -0.6928
 9685SOL    HW230106   7.430   3.418   7.755 -1.4114  0.6362 -0.2376
 9686SOL     OW30107   8.000   4.918   8.087 -0.0219  0.2442  0.1743
 9686SOL    HW130108   8.001   4.934   7.992 -2.6834  1.3352  0.2630
 9686SOL    HW230109   8.078   4.964   8.119  1.2044 -0.5541 -1.5040
 9687SOL     OW30110   3.620   6.274   4.610 -0.1242  0.4045 -0.0217
 9687SOL    HW130111   3.711   6.303   4.604 -0.2395  1.5105  2.5575
 9687SOL    HW230112   3.618   6.193   4.558  2.0539  0.9232 -1.0215
 9688SOL     OW30113   1.556   5.073   6.920  0.8404  0.4341  0.4922
 9688SOL    HW130114   1.490   5.026   6.970  1.0075 -2.2785 -1.6064
 9688SOL    HW230115   1.635   5.068   6.973  0.7325 -1.3199  0.5229
 9689SOL     OW30116   7.128   2.190   7.643  0.5481  0.0396  0.6204
 9689SOL    HW130117   7.040   2.197   7.606  0.7274 -1.1864 -0.0952
 9689SOL    HW230118   7.125   2.244   7.722 -1.4487 -1.5241  1.7040
 9690SOL     OW30119   1.866   1.039   1.757 -0.0356  0.4853  0.0967
 9690SOL    HW130120   1.827   1.041   1.845  1.2035  1.7944  0.6519
 9690SOL    HW230121   1.795   1.066   1.699 -0.5188  0.8697  0.8416
 9691SOL     OW30122   2.395   7.955   1.820 -0.7695  0.1441 -0.3915
 9691SOL    HW130123   2.382   7.874   1.770 -1.2492  0.7910 -1.3212
 9691SOL    HW230124   2.466   8.000   1.775  0.2644 -0.2415  0.7720
 9692SOL     OW30125   5.686   4.889   2.005 -0.1803  0.4662 -0.6859
 9692SOL    HW130126   5.709   4.919   2.093  0.7417  1.4976 -1.2527
 9692SOL    HW230127   5.596   4.859   2.012 -0.0036  0.2002  0.6864
 9693SOL     OW30128   5.572   8.155   7.694  0.2565  0.1336 -0.1044
 9693SOL    HW130129   5.535   8.197   7.771 -1.4541 -0.7556 -0.3826
 9693SOL    HW230130   5.548   8.213   7.621  3.5054  1.9851  0.1219
 9694SOL     OW30131   4.732   2.401   0.102 -0.1708  0.3276 -0.0299
 9694SOL    HW130132   4.649   2.447   0.101  0.0668  0.8351  1.2364
 9694SOL    HW230133   4.711   2.314   0.136 -0.2279  0.3754  0.0579
 9695SOL     OW30134   4.959   3.945   5.087 -0.2289 -0.4171  0.3293
 9695SOL    HW130135   5.047   3.928   5.053  0.4316  1.6469  0.9055
 9695SOL    HW230136   4.971   3.957   5.181 -1.2593 -0.8675  0.5312
 9696SOL     OW30137   2.794   0.983   5.713  0.0115 -0.2637  0.1974
 9696SOL    HW130138   2.817   0.957   5.624  0.4961 -1.3859  0.6245
 9696SOL    HW230139   2.704   1.014   5.707 -0.2023 -0.9967 -0.5683
 9697SOL     OW30140   1.120   3.066   8.234  0.5888 -0.6217  0.8070
 9697SOL    HW130141   1.185   2.996   8.223  1.1416  0.1512 -1.3492
 9697SOL    HW230142   1.166   3.145   8.204 -1.4540 -0.1287 -1.2861
 9698SOL     OW30143   0.597   7.614   1.156 -0.3422 -0.3085  0.2248
 9698SOL    HW130144   0.625   7.643   1.069  0.5217 -0.0863  0.5651
 9698SOL    HW230145   0.524   7.673   1.178 -0.8850 -0.6803 -0.5392
 9699SOL     OW30146   0.403   4.408   0.177 -0.4545 -0.5189 -0.0073
 9699SOL    HW130147   0.480   4.461   0.198  0.3416 -2.6047  3.1138
 9699SOL    HW230148   0.330   4.457   0.213 -0.3637  0.5148 -1.1745
 9700SOL     OW30149   0.160   5.772   8.002 -0.4727 -0.3488 -0.5747
 9700SOL    HW130150   0.145   5.770   7.908 -0.0081  1.0980 -0.7125
 9700SOL    HW230151   0.241   5.723   8.015 -0.5426 -0.5576 -0.9307
 9701SOL     OW30152   3.402   1.320   5.991  0.6130 -0.0984 -0.0775
 9701SOL    HW130153   3.343   1.268   6.045  1.6416 -0.6680  0.5213
 9701SOL    HW230154   3.484   1.324   6.041  0.8335  1.3839 -0.4973
 9702SOL     OW30155   0.455   4.939   5.157 -0.1256 -0.5573 -0.2723
 9702SOL    HW130156   0.448   4.910   5.066  1.6355  0.0120 -0.6276
 9702SOL    HW230157   0.429   5.031   5.154 -1.8750 -1.0048  0.1607
 9703SOL     OW30158   6.666   3.374   0.819 -0.2078 -0.3414 -0.2609
 9703SOL    HW130159   6.639   3.332   0.737  0.6336  0.3472 -0.9173
 9703SOL    HW230160   6.698   3.460   0.792 -1.3694  0.5183  0.9834
 9704SOL     OW30161   4.557   2.708   4.108 -0.2437 -0.3909  0.2789
 9704SOL    HW130162   4.559   2.685   4.015 -0.9765 -0.3102  0.2366
 9704SOL    HW230163   4.546   2.803   4.109 -1.1603 -0.4865  0.4353
 9705SOL     OW30164   1.858   0.618   5.403 -0.5895 -0.6396 -0.4111
 9705SOL    HW130165   1.824   0.660   5.324 -0.8947 -0.0516  0.0215
 9705SOL    HW230166   1.939   0.666   5.422 -2.1166  1.4240  1.4196
 9706SOL     OW30167   1.182   3.858   7.452  0.0848 -0.2564  0.1861
 9706SOL    HW130168   1.222   3.882   7.368 -1.0630  0.1314 -0.2647
 9706SOL    HW230169   1.224   3.775   7.476  1.0690  0.0735 -0.3139
 9707SOL     OW30170   2.464   7.192   7.331  0.6078 -0.0535  0.8285
 9707SOL    HW130171   2.404   7.225   7.264  1.2682  1.3325  0.8946
 9707SOL    HW230172   2.409   7.172   7.406  0.1020  0.1789  0.5210
 9708SOL     OW30173   7.935   0.802   3.418  0.2853 -0.0481  0.3726
 9708SOL    HW130174   7.918   0.708   3.423  1.8314 -0.4056 -0.4650
 9708SOL    HW230175   8.027   0.811   3.445  0.5614  1.0478 -0.8284
 9709SOL     OW30176   4.152   5.496   6.005  0.2818 -0.2173 -0.7099
 9709SOL    HW130177   4.213   5.519   5.935  0.3445 -1.7187 -1.1939
 9709SOL    HW230178   4.065   5.503   5.966  0.0576  2.1492  0.0457
 9710SOL     OW30179   3.043   6.870   5.142  0.7926 -0.3867 -0.6129
 9710SOL    HW130180   3.020   6.806   5.075  0.7705 -1.2180  0.1661
 9710SOL    HW230181   3.081   6.818   5.213 -1.1692  0.1705  0.9518
 9711SOL     OW30182   4.776   6.099   5.936  0.5467  0.1904 -0.2531
 9711SOL    HW130183   4.854   6.120   5.988 -0.5522  2.4125  0.6573
 9711SOL    HW230184   4.712   6.067   5.999  0.0465  0.3964 -0.6408
 9712SOL     OW30185   2.233   6.782   4.396  0.0789  0.2623  0.2921
 9712SOL    HW130186   2.304   6.811   4.338 -1.4468 -0.7591 -2.2719
 9712SOL    HW230187   2.177   6.858   4.406 -1.3597 -0.2921 -2.4301
 9713SOL     OW30188   4.805   1.668   5.723  0.1227 -0.3437 -0.3507
 9713SOL    HW130189   4.901   1.668   5.719  0.1119 -0.6356 -0.5705
 9713SOL    HW230190   4.783   1.759   5.745  0.4208 -0.0821 -1.0798
 9714SOL     OW30191   3.209   7.968   3.333 -0.2992 -0.0968  0.2762
 9714SOL    HW130192   3.225   8.053   3.292  1.7654 -0.2670  0.6414
 9714SOL    HW230193   3.214   7.905   3.261  1.1565 -0.1804  0.4302
 9715SOL     OW30194   0.344   2.416   3.295  0.1144  0.0627  0.0240
 9715SOL    HW130195   0.347   2.459   3.380 -0.3811  1.2834 -0.5639
 9715SOL    HW230196   0.364   2.485   3.232 -2.0046 -0.2347 -1.0397
 9716SOL     OW30197   2.590   7.891   3.458  1.1350  0.0585 -0.1070
 9716SOL    HW130198   2.677   7.930   3.455  1.1489  0.1335  0.9342
 9716SOL    HW230199   2.551   7.926   3.538 -0.2402  0.8221 -1.0633
 9717SOL     OW30200   5.607   2.966   3.741 -0.2075  0.1699  0.2190
 9717SOL    HW130201   5.615   3.049   3.788  1.0296 -0.6149  1.4927
 9717SOL    HW230202   5.607   2.991   3.649  2.1354  1.5157  0.4939
 9718SOL     OW30203   1.178   5.327   3.840 -0.9606  0.2390 -0.1069
 9718SOL    HW130204   1.111   5.259   3.835 -0.9749  0.1154  1.3489
 9718SOL    HW230205   1.130   5.409   3.838 -0.9550  0.2254 -1.7016
 9719SOL     OW30206   6.788   6.748   1.808  0.2907 -0.4648 -0.2620
 9719SOL    HW130207   6.850   6.689   1.852  0.2422  0.6556  1.3992
 9719SOL    HW230208   6.838   6.784   1.735  1.0433 -0.8767  0.0335
 9720SOL     OW30209   8.166   6.164   7.293  0.1578 -0.4168  0.1970
 9720SOL    HW130210   8.134   6.254   7.282  0.5698  0.2549  3.5851
 9720SOL    HW230211   8.260   6.169   7.275  0.0588 -0.3350 -0.3085
 9721SOL     OW30212   3.242   6.299   5.938  0.2390 -0.1388 -0.2584
 9721SOL    HW130213   3.199   6.214   5.929  0.3249 -0.2934  0.7406
 9721SOL    HW230214   3.334   6.278   5.950  0.3254  0.1192 -0.4455
 9722SOL     OW30215   7.095   0.959   1.509 -0.0046  0.0709 -0.3732
 9722SOL    HW130216   7.069   1.032   1.565 -0.4199  0.9842 -1.7069
 9722SOL    HW230217   7.098   0.996   1.421  1.3434 -1.1396 -0.8818
 9723SOL     OW30218   3.083   5.304   3.321 -0.1700  0.4424  0.5375
 9723SOL    HW130219   3.015   5.316   3.254 -1.0577 -0.2207  1.2957
 9723SOL    HW230220   3.140   5.236   3.285  0.4147  1.3292 -0.3134
 9724SOL     OW30221   4.891   4.240   6.946  0.4676  0.4257 -0.0122
 9724SOL    HW130222   4.922   4.238   7.037 -0.0996 -0.2478  0.1779
 9724SOL    HW230223   4.812   4.186   6.947  0.8579 -0.2005 -1.0621
 9725SOL     OW30224   3.450   4.656   0.811 -0.3971  0.2873  0.1387
 9725SOL    HW130225   3.414   4.572   0.782 -0.4406 -0.2331  1.6307
 9725SOL    HW230226   3.373   4.709   0.833 -0.3896  0.9197 -1.2734
 9726SOL     OW30227   0.497   4.941   6.128  0.6294 -0.1235  0.3073
 9726SOL    HW130228   0.551   5.020   6.128  0.4138  0.0287 -0.0372
 9726SOL    HW230229   0.503   4.909   6.037  2.1690 -1.5104  0.8352
 9727SOL     OW30230   0.605   1.001   5.557 -0.0892 -0.7783  0.2518
 9727SOL    HW130231   0.636   0.921   5.515  1.5749 -0.3365  0.6018
 9727SOL    HW230232   0.652   1.005   5.640 -0.5875  0.2796  0.5004
 9728SOL     OW30233   3.633   2.491   0.059  0.3312 -0.4007  0.1801
 9728SOL    HW130234   3.695   2.528   0.121 -2.5446  1.7868  2.0430
 9728SOL    HW230235   3.631   2.554  -0.013 -0.1651 -0.0618  0.4754
 9729SOL     OW30236   1.122   1.426   4.724 -0.1775 -0.1789  0.6604
 9729SOL    HW130237   1.082   1.492   4.667  1.0746  0.3346  0.3350
 9729SOL    HW230238   1.146   1.355   4.665 -0.4797 -0.4233  0.8317
 9730SOL     OW30239   0.367   7.193   1.531 -0.3020  0.0785  0.0591
 9730SOL    HW130240   0.365   7.231   1.619  0.3620 -1.8765  0.9693
 9730SOL    HW230241   0.324   7.108   1.540 -3.3201  1.1596 -2.2780
 9731SOL     OW30242   3.321   2.634   0.981  0.3913  0.3512  0.3717
 9731SOL    HW130243   3.353   2.669   0.897  0.1104  0.8541  0.4723
 9731SOL    HW230244   3.377   2.676   1.046 -0.1259  0.8371  0.5126
 9732SOL     OW30245   2.358   7.641   2.908 -0.0832  0.3323  0.0013
 9732SOL    HW130246   2.278   7.665   2.955 -1.2943 -1.1636 -1.1749
 9732SOL    HW230247   2.378   7.553   2.939  0.7427  0.4374 -0.2097
 9733SOL     OW30248   7.997   0.337   3.145  0.0015  0.2734  0.6118
 9733SOL    HW130249   7.943   0.263   3.118 -0.5765  0.4852  1.1647
 9733SOL    HW230250   8.083   0.320   3.106 -0.3882 -0.1992 -0.0593
 9734SOL     OW30251   4.065   4.123   0.309  0.0805 -0.0679 -0.0003
 9734SOL    HW130252   4.101   4.126   0.221 -1.0319 -0.4245 -0.4846
 9734SOL    HW230253   4.015   4.204   0.317 -1.0778 -0.7370 -0.2693
 9735SOL     OW30254   2.972   1.929   6.835  0.7126 -0.3402  0.5167
 9735SOL    HW130255   3.014   2.010   6.862  2.4235 -0.2278 -2.1107
 9735SOL    HW230256   2.918   1.903   6.910  1.2550  2.4139  1.9690
 9736SOL     OW30257   5.416   4.076   7.100 -0.2282  0.4140  0.6289
 9736SOL    HW130258   5.335   4.107   7.060 -2.4260 -1.8147  3.0302
 9736SOL    HW230259   5.404   4.090   7.194  2.1948 -0.0126  1.0782
 9737SOL     OW30260   4.140   5.853   5.892 -0.7137  0.4074 -0.4363
 9737SOL    HW130261   4.189   5.784   5.846 -1.0721 -0.4648  0.4518
 9737SOL    HW230262   4.054   5.813   5.908 -0.7236  0.8353  0.6295
 9738SOL     OW30263   3.506   3.047   4.553  0.0519 -0.4722  0.0613
 9738SOL    HW130264   3.594   3.009   4.553  1.9672  3.2034  3.5048
 9738SOL    HW230265   3.485   3.058   4.646 -2.2536  2.3936 -0.6503
 9739SOL     OW30266   2.404   7.657   6.265  0.0838 -0.2153  0.1692
 9739SOL    HW130267   2.434   7.730   6.211 -0.7327  0.3439  0.4523
 9739SOL    HW230268   2.414   7.689   6.355  0.5728 -0.7925  0.3213
 9740SOL     OW30269   4.514   2.127   0.518  0.0931  0.1378  0.1149
 9740SOL    HW130270   4.519   2.196   0.583 -0.2810 -0.2227  0.5401
 9740SOL    HW230271   4.571   2.058   0.552  0.7455  0.3745 -0.4850
 9741SOL     OW30272   6.576   6.221   6.414 -0.2603  0.2449 -0.3120
 9741SOL    HW130273   6.506   6.236   6.477  0.3171 -0.5497  0.5383
 9741SOL    HW230274   6.596   6.128   6.421  1.0273  0.4960 -0.3784
 9742SOL     OW30275   1.295   4.725   3.036  0.2615 -0.0637 -0.1769
 9742SOL    HW130276   1.313   4.807   2.989 -0.9633 -0.4246 -1.3423
 9742SOL    HW230277   1.335   4.737   3.121 -1.9619  2.8077  0.6419
 9743SOL     OW30278   3.790   7.839   1.550 -0.4381  0.0762  0.3860
 9743SOL    HW130279   3.740   7.919   1.566  0.0600  0.3410  0.6324
 9743SOL    HW230280   3.867   7.867   1.501 -1.6233 -0.6422 -2.0209
 9744SOL     OW30281   2.937   6.118   4.899 -0.1094  0.4229 -0.0542
 9744SOL    HW130282   2.876   6.045   4.911 -0.2352  0.5768  0.2387
 9744SOL    HW230283   3.024   6.080   4.909 -0.1259  0.0870 -1.0267
 9745SOL     OW30284   2.987   8.125   1.900 -0.3656  0.5484  0.3132
 9745SOL    HW130285   3.010   8.191   1.835 -0.7564 -0.2993 -0.7213
 9745SOL    HW230286   2.894   8.141   1.918 -0.1061  1.1842  1.1715
 9746SOL     OW30287   1.861   1.647   3.219  0.0707 -0.0034  0.4608
 9746SOL    HW130288   1.874   1.676   3.129 -0.1372  0.8767  0.7059
 9746SOL    HW230289   1.888   1.555   3.219  0.7512  0.1903 -0.3319
 9747SOL     OW30290   4.009   7.467   7.040 -0.2126  1.0268  0.0036
 9747SOL    HW130291   3.958   7.502   7.113  0.2765  2.9008 -0.5169
 9747SOL    HW230292   3.943   7.437   6.977 -0.6322  0.6598  0.6063
 9748SOL     OW30293   5.705   2.261   3.406  0.6782  0.3422  0.2774
 9748SOL    HW130294   5.633   2.320   3.428 -0.1092 -0.0839 -1.0723
 9748SOL    HW230295   5.726   2.217   3.489  0.6990  1.8605  1.1036
 9749SOL     OW30296   2.814   3.549   6.379  0.1531 -0.6983 -0.6328
 9749SOL    HW130297   2.827   3.516   6.290  1.7015  0.2177 -0.7923
 9749SOL    HW230298   2.894   3.598   6.398  0.4645 -1.9734  1.7678
 9750SOL     OW30299   6.787   1.201   6.495  0.0563 -0.2385 -0.1351
 9750SOL    HW130300   6.749   1.122   6.534 -0.8502 -0.0070 -0.5111
 9750SOL    HW230301   6.720   1.268   6.510  1.5166  0.9045  1.7050
 9751SOL     OW30302   4.704   4.757   1.669  0.2730 -0.4376 -0.2777
 9751SOL    HW130303   4.670   4.696   1.735  1.2920 -1.4082 -0.6153
 9751SOL    HW230304   4.718   4.839   1.717 -1.5508 -0.2863  0.0897
 9752SOL     OW30305   2.985   4.098   6.210 -0.1748 -0.9293 -0.1154
 9752SOL    HW130306   3.070   4.138   6.194  0.2956 -1.5424  0.7409
 9752SOL    HW230307   2.928   4.131   6.141  0.1690  1.2398  0.5704
 9753SOL     OW30308   4.787   5.344   2.334 -0.3871  0.2861 -0.4468
 9753SOL    HW130309   4.819   5.330   2.245  0.2983  0.6904 -0.2728
 9753SOL    HW230310   4.771   5.438   2.339 -1.0528  0.1750 -0.3399
 9754SOL     OW30311   0.569   8.009   7.969 -0.0056 -0.6497 -0.2507
 9754SOL    HW130312   0.484   8.053   7.959  0.7960  1.3417  1.0724
 9754SOL    HW230313   0.581   7.999   8.063  1.3952 -0.5274 -0.3865
 9755SOL     OW30314   4.194   7.104   5.748 -0.1552  0.2471 -0.3278
 9755SOL    HW130315   4.218   7.156   5.671 -2.1962  1.7579 -0.0196
 9755SOL    HW230316   4.190   7.168   5.819 -0.6789 -0.7100  0.5237
 9756SOL     OW30317   1.683   7.824   0.720  0.3729 -0.0305 -0.3581
 9756SOL    HW130318   1.714   7.821   0.630  0.1734 -1.4512 -0.3995
 9756SOL    HW230319   1.590   7.802   0.714 -0.0165  1.3798  0.0543
 9757SOL     OW30320   2.197   5.365   6.175  0.5656  0.1066 -0.1705
 9757SOL    HW130321   2.202   5.431   6.244  2.1629  1.9425 -1.9159
 9757SOL    HW230322   2.288   5.343   6.156  0.2440  0.2726 -2.1845
 9758SOL     OW30323   1.707   1.115   2.655  0.0930  0.2916 -0.0239
 9758SOL    HW130324   1.690   1.179   2.724 -0.6428  0.7834 -0.6301
 9758SOL    HW230325   1.697   1.166   2.574  0.8637 -0.2876 -0.4915
 9759SOL     OW30326   0.919   5.226   3.793 -0.5734  0.4302  0.0928
 9759SOL    HW130327   0.923   5.322   3.788  3.7028  0.4252 -0.2350
 9759SOL    HW230328   0.925   5.196   3.703  2.6457  0.0093  0.3334
 9760SOL     OW30329   0.652   1.247   2.774 -0.3479 -0.2714  0.0035
 9760SOL    HW130330   0.604   1.328   2.761  2.1553  1.1340 -1.2593
 9760SOL    HW230331   0.744   1.272   2.767  0.6037 -2.9335  1.4037
 9761SOL     OW30332   5.021   2.447   0.357  0.4270 -0.3675  0.0077
 9761SOL    HW130333   5.014   2.366   0.306 -0.0311 -0.2448 -0.1287
 9761SOL    HW230334   5.101   2.488   0.326 -1.4154  1.3295 -3.0180
 9762SOL     OW30335   4.278   8.019   5.942 -0.4534  0.0384  0.1357
 9762SOL    HW130336   4.351   8.056   5.892 -1.0131 -0.3154 -0.9639
 9762SOL    HW230337   4.218   7.986   5.876 -0.0749 -2.6785  1.0318
 9763SOL     OW30338   4.570   2.742   7.393  0.2366 -0.4804  0.5548
 9763SOL    HW130339   4.654   2.786   7.408 -1.2836  2.7080  0.4393
 9763SOL    HW230340   4.549   2.760   7.302  0.2764 -3.0444 -0.0559
 9764SOL     OW30341   6.159   4.032   3.145  0.1305  0.3308  0.0348
 9764SOL    HW130342   6.226   4.074   3.199 -0.0422 -1.5005  1.7321
 9764SOL    HW230343   6.209   3.987   3.077  0.5608 -0.0738  0.6092
 9765SOL     OW30344   4.625   2.068   1.062  0.1796  0.5657  0.4162
 9765SOL    HW130345   4.529   2.066   1.060  0.0595  1.8272  2.5830
 9765SOL    HW230346   4.647   2.137   1.124  2.5334  1.1701 -0.9672
 9766SOL     OW30347   3.591   0.884   6.422 -0.2453  0.0085 -0.2398
 9766SOL    HW130348   3.659   0.930   6.372 -0.3496  0.4469  0.0178
 9766SOL    HW230349   3.639   0.818   6.472  0.1504  1.0852  0.8439
 9767SOL     OW30350   5.440   4.397   1.018 -0.3834  0.1548 -0.3485
 9767SOL    HW130351   5.432   4.429   1.108 -0.3506  1.6636 -0.8654
 9767SOL    HW230352   5.534   4.403   0.999 -0.5766  1.2853 -0.9883
 9768SOL     OW30353   7.818   1.540   1.318 -0.5698  0.6418 -0.2819
 9768SOL    HW130354   7.851   1.506   1.401  0.2586  0.2311 -0.7688
 9768SOL    HW230355   7.737   1.585   1.341 -2.0589 -2.1442  0.3207
 9769SOL     OW30356   2.128   4.800   1.762 -0.0903 -0.2873 -0.0319
 9769SOL    HW130357   2.163   4.889   1.751 -0.2392 -0.0340  1.3626
 9769SOL    HW230358   2.059   4.793   1.696  0.7054  0.2120 -0.9338
 9770SOL     OW30359   7.119   7.211   7.689 -0.1260  0.2272  0.2247
 9770SOL    HW130360   7.127   7.244   7.599  0.6812 -0.9239 -0.1427
 9770SOL    HW230361   7.201   7.236   7.731  0.2623 -0.8230  0.1014
 9771SOL     OW30362   7.464   5.114   7.618 -0.0546 -0.1750 -0.4445
 9771SOL    HW130363   7.382   5.164   7.613 -0.9076 -1.2546  1.4346
 9771SOL    HW230364   7.458   5.052   7.546  0.4544  1.5577 -2.0435
 9772SOL     OW30365   6.015   1.867   1.836 -0.0051  0.4026 -0.3672
 9772SOL    HW130366   6.045   1.950   1.872 -0.3622  0.4720 -0.2280
 9772SOL    HW230367   5.998   1.887   1.744 -1.0388  0.7359 -0.1113
 9773SOL     OW30368   0.253   6.066   6.021  0.1869 -0.3402 -0.7567
 9773SOL    HW130369   0.179   6.123   6.000 -0.0594  0.1763  1.3166
 9773SOL    HW230370   0.215   5.978   6.024  0.0590 -0.3169 -1.5462
 9774SOL     OW30371   4.687   2.972   8.166 -0.3438 -0.4698 -0.5878
 9774SOL    HW130372   4.729   2.900   8.213 -1.0153  0.3071  1.3051
 9774SOL    HW230373   4.593   2.954   8.173 -0.4943  0.2857 -0.5962
 9775SOL     OW30374   3.872   0.013   6.914 -1.2415 -0.4336 -0.6757
 9775SOL    HW130375   3.936   0.055   6.972  0.3640 -1.2537 -1.7925
 9775SOL    HW230376   3.821  -0.044   6.972 -2.4994  1.8429  0.6208
 9776SOL     OW30377   2.980   3.403   1.653 -0.0289  0.9452  0.0240
 9776SOL    HW130378   3.026   3.486   1.642  0.1379  0.8725  0.1686
 9776SOL    HW230379   2.988   3.359   1.568  2.4651 -0.2305  0.7969
 9777SOL     OW30380   7.199   1.709   0.827 -0.1597  0.2605 -0.0056
 9777SOL    HW130381   7.123   1.650   0.826  0.2605 -0.2953  0.6734
 9777SOL    HW230382   7.263   1.666   0.883  0.3517  1.1252  0.0951
 9778SOL     OW30383   5.546   3.768   5.486 -0.2983  0.2694 -0.8867
 9778SOL    HW130384   5.565   3.825   5.412 -2.7265  0.1185 -1.7306
 9778SOL    HW230385   5.502   3.825   5.550  0.3442  0.0630 -0.2482
 9779SOL     OW30386   4.892   1.160   3.194 -0.3193 -0.2314 -0.7648
 9779SOL    HW130387   4.855   1.132   3.110  1.0438 -0.2612 -1.3873
 9779SOL    HW230388   4.923   1.249   3.177 -1.5891  0.4294  0.2307
 9780SOL     OW30389   6.882   7.935   7.221 -0.1379  0.2896 -0.4020
 9780SOL    HW130390   6.894   7.854   7.271 -1.8380  0.4880  0.4018
 9780SOL    HW230391   6.788   7.937   7.200  0.1245  1.3807 -1.6046
 9781SOL     OW30392   6.408   4.839   6.412 -0.1934  0.3509 -0.3721
 9781SOL    HW130393   6.423   4.901   6.483 -0.0874 -0.6274  0.4668
 9781SOL    HW230394   6.485   4.783   6.412 -0.9436 -0.7148 -0.1547
 9782SOL     OW30395   2.750   6.499   6.776  0.0072 -0.4902  0.9978
 9782SOL    HW130396   2.684   6.486   6.707 -1.2867 -2.3632  2.5012
 9782SOL    HW230397   2.741   6.591   6.800  0.7292  0.3284 -1.4946
 9783SOL     OW30398   4.767   2.856   3.676 -0.2968 -0.0456 -0.1091
 9783SOL    HW130399   4.674   2.878   3.670 -0.7659 -1.5772  1.0876
 9783SOL    HW230400   4.811   2.927   3.629 -1.9384  1.6556  0.7707
 9784SOL     OW30401   2.876   3.580   5.740 -0.3504 -0.8179  0.2389
 9784SOL    HW130402   2.932   3.535   5.677  0.0125 -0.6846  0.4606
 9784SOL    HW230403   2.933   3.647   5.778 -1.5589  1.6544 -1.9850
 9785SOL     OW30404   6.677   0.057   0.617 -0.2267 -0.7092 -0.9216
 9785SOL    HW130405   6.734   0.083   0.545  2.8031  1.2812  1.9103
 9785SOL    HW230406   6.615   0.129   0.626  1.7547  0.9041  0.6305
 9786SOL     OW30407   1.973   3.647   2.951 -0.2034 -0.3511 -0.1516
 9786SOL    HW130408   2.006   3.721   2.901  0.6180 -0.5626  0.0569
 9786SOL    HW230409   1.883   3.670   2.972 -1.2995 -1.1396 -3.4549
 9787SOL     OW30410   0.636   3.675   6.684  0.4893  0.4983  0.5818
 9787SOL    HW130411   0.731   3.673   6.672  0.3467 -0.9078 -0.7137
 9787SOL    HW230412   0.622   3.649   6.775  1.3544  1.6051  1.0508
 9788SOL     OW30413   1.567   3.310   7.208  0.2250 -0.0813  0.0782
 9788SOL    HW130414   1.535   3.330   7.120  0.0869 -0.0790  0.1291
 9788SOL    HW230415   1.658   3.284   7.195  0.9776  2.2693  0.1790
 9789SOL     OW30416   0.501   3.185   5.515  0.1948  0.2152 -0.7244
 9789SOL    HW130417   0.529   3.277   5.514 -0.0203  0.2999  0.1939
 9789SOL    HW230418   0.458   3.173   5.430 -0.7710  1.2937 -0.4268
 9790SOL     OW30419   3.849   3.247   2.920 -0.3368 -0.3867 -0.2618
 9790SOL    HW130420   3.865   3.177   2.856  0.1925 -0.3545 -0.1683
 9790SOL    HW230421   3.855   3.203   3.005 -0.9870 -0.4186 -0.2251
 9791SOL     OW30422   1.389   4.397   7.051 -0.4487 -0.2321  0.0907
 9791SOL    HW130423   1.323   4.328   7.040 -0.1501 -0.4191 -0.6507
 9791SOL    HW230424   1.396   4.409   7.145 -2.1627  0.3987  0.1764
 9792SOL     OW30425   0.392   1.412   3.864 -0.6204 -0.4871  0.4911
 9792SOL    HW130426   0.474   1.410   3.814  0.7139  0.7689  2.4893
 9792SOL    HW230427   0.330   1.365   3.809  0.9264  0.1560 -1.9808
 9793SOL     OW30428   0.068   5.521   0.902  0.2247  0.3396  0.4803
 9793SOL    HW130429   0.037   5.576   0.830  3.4283  0.6792 -0.8341
 9793SOL    HW230430   0.121   5.580   0.956  1.4453 -0.8214  0.6164
 9794SOL     OW30431   1.584   7.218   5.072 -0.1313 -0.1412  0.0427
 9794SOL    HW130432   1.494   7.240   5.048 -0.2504 -0.5811  0.0852
 9794SOL    HW230433   1.636   7.240   4.995  0.0296  2.0621  0.7028
 9795SOL     OW30434   1.326   7.433   7.556 -0.2190  0.2084  0.7934
 9795SOL    HW130435   1.332   7.506   7.494  0.7682 -0.1723  0.4121
 9795SOL    HW230436   1.382   7.366   7.518  0.5572  0.0283  2.1850
 9796SOL     OW30437   2.293   5.694   0.067 -0.6430 -0.4659 -0.0347
 9796SOL    HW130438   2.233   5.686   0.141 -1.3794  2.0900 -0.2839
 9796SOL    HW230439   2.309   5.787   0.058  0.9500 -0.8454 -1.9337
 9797SOL     OW30440   3.649   4.223   7.720  0.0672 -0.4338  0.1296
 9797SOL    HW130441   3.580   4.178   7.670 -1.0356  1.4050 -0.1049
 9797SOL    HW230442   3.617   4.223   7.810  1.2667 -2.2592  0.6166
 9798SOL     OW30443   1.719   2.722   4.244  0.6953  0.1821  0.2295
 9798SOL    HW130444   1.738   2.661   4.173  2.0659 -0.6558  1.2622
 9798SOL    HW230445   1.691   2.802   4.199 -0.1452 -0.8543 -1.1858
 9799SOL     OW30446   0.349   6.680   2.202 -0.2079 -0.5199 -0.4959
 9799SOL    HW130447   0.393   6.602   2.234 -0.1132 -0.7556 -1.2033
 9799SOL    HW230448   0.416   6.749   2.206  0.7284 -1.1938 -2.9881
 9800SOL     OW30449   0.281   1.887   4.245 -0.6912 -0.6582  0.1398
 9800SOL    HW130450   0.264   1.892   4.151 -3.7583  0.7515  0.6364
 9800SOL    HW230451   0.245   1.969   4.280  0.9602 -0.8361  2.4997
 9801SOL     OW30452   5.367   1.592   6.724  0.8938 -0.8706  0.2431
 9801SOL    HW130453   5.358   1.579   6.819 -0.1248  1.0121  0.4550
 9801SOL    HW230454   5.441   1.652   6.715  0.9815 -1.0361 -0.1612
 9802SOL     OW30455   6.824   3.358   4.111 -0.4612 -0.1459 -0.4252
 9802SOL    HW130456   6.753   3.414   4.144 -0.0277  0.5584 -0.6580
 9802SOL    HW230457   6.889   3.420   4.078  0.4803 -0.7633  0.2266
 9803SOL     OW30458   3.012   4.335   3.518 -0.5260  0.0838 -0.1843
 9803SOL    HW130459   3.091   4.386   3.537  0.0430 -1.5276  2.3427
 9803SOL    HW230460   3.043   4.260   3.468 -0.7383  0.2840 -0.6182
 9804SOL     OW30461   5.336   2.010   6.784  0.4787  0.3241 -0.1120
 9804SOL    HW130462   5.243   2.032   6.792  0.1109 -1.3349  0.7128
 9804SOL    HW230463   5.382   2.082   6.827 -0.4198  1.1129 -0.4462
 9805SOL     OW30464   2.728   1.407   1.412 -0.1846 -0.2890 -0.6616
 9805SOL    HW130465   2.751   1.320   1.381 -0.0487 -0.3053 -0.5141
 9805SOL    HW230466   2.800   1.463   1.383  0.3566 -0.4510  0.3453
 9806SOL     OW30467   6.677   0.584   4.225  0.3485  0.2012 -0.0974
 9806SOL    HW130468   6.695   0.499   4.265 -3.2320 -0.3518  0.7192
 9806SOL    HW230469   6.715   0.647   4.286  3.6562 -0.6833 -1.0593
 9807SOL     OW30470   7.828   6.565   1.104 -0.3248 -0.3928 -0.3631
 9807SOL    HW130471   7.902   6.543   1.161  1.0734  0.9995 -1.5496
 9807SOL    HW230472   7.803   6.481   1.065 -0.6314 -1.1981  1.4293
 9808SOL     OW30473   0.706   7.157   0.331 -0.6133 -0.7375  0.1631
 9808SOL    HW130474   0.648   7.225   0.365 -0.3443 -0.4380  0.0249
 9808SOL    HW230475   0.724   7.101   0.406  1.4105  0.9149  0.9939
 9809SOL     OW30476   7.371   7.282   7.279 -0.3343 -0.0165  0.4509
 9809SOL    HW130477   7.458   7.243   7.271 -0.8639 -0.8748 -1.9539
 9809SOL    HW230478   7.364   7.339   7.202 -2.0411 -0.2336  0.4289
 9810SOL     OW30479   5.269   7.751   0.674  0.1059  0.3081  0.2668
 9810SOL    HW130480   5.204   7.820   0.687 -1.4825 -1.2871  1.3003
 9810SOL    HW230481   5.351   7.789   0.705 -1.0249  1.2120  2.3852
 9811SOL     OW30482   2.131   4.020   6.475 -0.3880  0.1771 -0.3574
 9811SOL    HW130483   2.211   4.035   6.525  1.6909  1.4304 -3.6981
 9811SOL    HW230484   2.071   4.089   6.503  0.5539  0.6173  0.6200
 9812SOL     OW30485   3.444   2.771   4.699  0.0467 -0.3895 -0.2514
 9812SOL    HW130486   3.525   2.807   4.664  0.6700 -0.9194  0.6250
 9812SOL    HW230487   3.469   2.730   4.782 -0.9298 -1.4556 -0.4605
 9813SOL     OW30488   2.800   3.170   1.290  0.2116 -0.1169  0.3087
 9813SOL    HW130489   2.815   3.079   1.265 -1.5278  0.0884 -1.7032
 9813SOL    HW230490   2.733   3.165   1.359 -0.5229 -0.3394 -0.4094
 9814SOL     OW30491   1.381   5.781   6.878  0.7772  0.1358 -0.2111
 9814SOL    HW130492   1.362   5.873   6.860 -1.6809 -0.3519 -0.4848
 9814SOL    HW230493   1.421   5.748   6.797  0.7005  0.7022 -0.4859
 9815SOL     OW30494   1.413   8.072   7.899  0.4900 -0.1891  0.9255
 9815SOL    HW130495   1.388   7.983   7.877  1.5681  0.3119 -3.2777
 9815SOL    HW230496   1.508   8.074   7.885  0.5542  1.5231  1.3668
 9816SOL     OW30497   2.414   3.513   2.635 -0.5545 -0.1641 -0.8068
 9816SOL    HW130498   2.397   3.441   2.696  1.2376  0.6024  0.7127
 9816SOL    HW230499   2.489   3.483   2.583  0.3885  0.6347  0.0258
 9817SOL     OW30500   0.738   1.662   1.774  0.9641 -0.5204 -0.3183
 9817SOL    HW130501   0.651   1.702   1.780  0.7924 -1.0592  1.9534
 9817SOL    HW230502   0.722   1.569   1.791  1.6434 -1.2413 -3.1516
 9818SOL     OW30503   7.461   2.347   1.046 -1.0652 -0.4117 -0.0776
 9818SOL    HW130504   7.501   2.320   1.129 -1.7298 -0.3034  0.2849
 9818SOL    HW230505   7.445   2.265   1.000 -0.3974 -0.4550 -0.2466
 9819SOL     OW30506   0.104   8.131   3.871 -0.7086 -0.0378 -0.0829
 9819SOL    HW130507   0.090   8.226   3.873  0.3505  0.1211  0.3579
 9819SOL    HW230508   0.163   8.116   3.797 -1.4870 -0.4544 -0.6357
 9820SOL     OW30509   1.233   5.220   4.722  0.0802 -0.7087  0.2919
 9820SOL    HW130510   1.152   5.270   4.714  0.6146  0.1604  0.1802
 9820SOL    HW230511   1.295   5.281   4.761  1.2892 -0.6695 -1.5933
 9821SOL     OW30512   1.917   4.006   5.148  0.2095 -0.1046 -0.1636
 9821SOL    HW130513   1.952   3.955   5.075 -0.0550 -0.2869 -0.1667
 9821SOL    HW230514   1.957   4.092   5.138  0.9981 -0.4326  0.0948
 9822SOL     OW30515   0.823   5.493   0.229  0.0891  0.5219 -0.0951
 9822SOL    HW130516   0.790   5.476   0.317 -0.9350  0.4124 -0.4840
 9822SOL    HW230517   0.861   5.409   0.202 -0.4443  0.2789 -0.1079
 9823SOL     OW30518   3.322   8.218   3.249 -0.5553  0.1291 -0.0054
 9823SOL    HW130519   3.384   8.198   3.319 -1.5519  0.3023  0.9584
 9823SOL    HW230520   3.374   8.265   3.184  0.8145 -1.6810 -0.2786
 9824SOL     OW30521   0.233   4.427   2.411  0.3366 -0.6866 -0.5556
 9824SOL    HW130522   0.176   4.367   2.362 -1.7842 -0.2076  1.2060
 9824SOL    HW230523   0.237   4.389   2.499  2.7512 -0.6609 -0.5999
 9825SOL     OW30524   1.115   1.878   6.026 -0.0641  0.9085 -0.0217
 9825SOL    HW130525   1.198   1.925   6.022 -0.7085  2.0854 -0.1624
 9825SOL    HW230526   1.072   1.914   6.104 -0.9362  1.1800 -0.6179
 9826SOL     OW30527   0.501   7.965   7.626  0.1140  0.9368 -0.2810
 9826SOL    HW130528   0.459   8.044   7.661 -2.5494 -0.8327  0.8387
 9826SOL    HW230529   0.436   7.927   7.568  0.2099 -1.7620  1.2361
 9827SOL     OW30530   1.038   2.018   6.586 -0.2502 -0.0689  0.2129
 9827SOL    HW130531   1.123   2.019   6.630 -0.9136 -0.6034  1.5445
 9827SOL    HW230532   0.978   2.060   6.646 -1.1519 -0.6593 -0.2386
 9828SOL     OW30533   4.617   7.059   1.813 -0.4177  0.3396 -0.3295
 9828SOL    HW130534   4.595   7.036   1.902  0.7501  1.9571  0.4482
 9828SOL    HW230535   4.695   7.008   1.793 -0.5088  0.1953 -0.3109
 9829SOL     OW30536   3.883   7.129   7.148 -0.5792  0.5031  0.2730
 9829SOL    HW130537   3.930   7.213   7.145 -0.6285  0.5661  1.1065
 9829SOL    HW230538   3.825   7.132   7.073  2.9196 -0.9063 -2.8029
 9830SOL     OW30539   6.744   0.192   2.820 -0.2118  0.3059  0.0242
 9830SOL    HW130540   6.722   0.116   2.766 -0.4422  0.3061  0.1182
 9830SOL    HW230541   6.717   0.167   2.908  0.7778  0.0373  0.2657
 9831SOL     OW30542   7.321   7.410   2.402  0.4521 -0.2580 -0.1802
 9831SOL    HW130543   7.327   7.361   2.484  0.2682  1.2227  0.7627
 9831SOL    HW230544   7.412   7.433   2.381  0.6328 -1.6910 -1.0970
 9832SOL     OW30545   3.703   0.521   4.285 -0.3013  0.6191  0.4793
 9832SOL    HW130546   3.642   0.501   4.214 -0.2165 -0.8248  0.7782
 9832SOL    HW230547   3.785   0.543   4.240  0.0658 -1.3273  0.0770
 9833SOL     OW30548   1.476   4.103   4.593  0.2807  0.3224  0.0268
 9833SOL    HW130549   1.502   4.173   4.652  0.8418 -0.7108  1.0355
 9833SOL    HW230550   1.456   4.028   4.650 -2.3817  0.2419 -0.8515
 9834SOL     OW30551   0.109   4.173   0.887 -0.4286 -0.1691 -0.0931
 9834SOL    HW130552   0.059   4.124   0.822  1.6307 -2.2102 -0.2806
 9834SOL    HW230553   0.116   4.261   0.851 -0.8385 -0.7920 -1.7796
 9835SOL     OW30554   1.099   0.726   4.420  0.2774  0.1096 -0.0820
 9835SOL    HW130555   1.048   0.647   4.401 -0.6168  0.7924 -0.5770
 9835SOL    HW230556   1.084   0.783   4.345 -0.0416  1.2334  0.8079
 9836SOL     OW30557   0.731   1.405   1.833 -0.5686 -0.5625 -0.6287
 9836SOL    HW130558   0.826   1.406   1.832 -0.5747 -0.0630 -1.6337
 9836SOL    HW230559   0.706   1.329   1.780 -0.7156  0.3990 -2.0009
 9837SOL     OW30560   6.856   5.110   5.396 -0.0614  0.4293 -0.3071
 9837SOL    HW130561   6.927   5.130   5.456 -0.6133 -0.7027  0.7735
 9837SOL    HW230562   6.837   5.017   5.411 -0.1083  0.0563 -2.3490
 9838SOL     OW30563   1.135   5.796   4.546 -0.4995 -0.3142 -0.0720
 9838SOL    HW130564   1.047   5.817   4.578 -0.6506  2.3247 -1.8583
 9838SOL    HW230565   1.123   5.718   4.492 -1.4234 -0.9472  1.0153
 9839SOL     OW30566   0.659   6.045   6.149  0.2494 -0.3846  0.1084
 9839SOL    HW130567   0.740   6.093   6.167  0.7494 -1.4038  0.6274
 9839SOL    HW230568   0.603   6.109   6.105  1.3899  0.2881 -0.4147
 9840SOL     OW30569   3.876   5.286   1.883 -0.3664  0.1205 -0.2881
 9840SOL    HW130570   3.872   5.381   1.871  0.2125  0.3626  1.2721
 9840SOL    HW230571   3.806   5.268   1.946 -1.3598 -0.7020 -1.5601
 9841SOL     OW30572   4.861   1.682   1.395  0.2089 -0.2446  0.5121
 9841SOL    HW130573   4.795   1.644   1.453 -0.3915  0.0584  0.0407
 9841SOL    HW230574   4.811   1.709   1.318  0.4624  2.1664  1.1150
 9842SOL     OW30575   4.609   3.326   2.882 -0.6756 -0.5009 -0.4084
 9842SOL    HW130576   4.635   3.352   2.793  0.7200  0.5057  0.2594
 9842SOL    HW230577   4.538   3.263   2.868 -1.0026  0.1949 -2.2166
 9843SOL     OW30578   1.384   2.401   0.399  0.3188  0.3762 -0.3123
 9843SOL    HW130579   1.418   2.354   0.475  1.0716 -0.7933 -1.3397
 9843SOL    HW230580   1.293   2.372   0.392  0.3730  0.1556 -0.1169
 9844SOL     OW30581   5.775   3.748   4.445 -0.1433 -0.0840  0.2820
 9844SOL    HW130582   5.789   3.821   4.505  0.4216  0.8026 -0.9047
 9844SOL    HW230583   5.719   3.783   4.376 -0.7622 -1.0849  0.2501
 9845SOL     OW30584   0.907   4.790   2.297 -0.1483 -0.1547 -0.5752
 9845SOL    HW130585   0.974   4.791   2.365  0.2383  0.3924 -0.9533
 9845SOL    HW230586   0.937   4.723   2.235 -0.7803 -1.0388  0.0559
 9846SOL     OW30587   0.278   7.413   3.936 -0.1087 -0.5977  0.3953
 9846SOL    HW130588   0.331   7.341   3.970 -1.1105 -1.9024 -0.6770
 9846SOL    HW230589   0.192   7.401   3.977 -0.6386 -0.7685 -0.7212
 9847SOL     OW30590   1.791   4.839   4.511  0.4613  0.3959  0.3013
 9847SOL    HW130591   1.796   4.921   4.461  2.2038 -0.0577 -0.3524
 9847SOL    HW230592   1.742   4.780   4.454  1.2021  0.3151 -0.2752
 9848SOL     OW30593   6.724   1.084   3.351  0.3067  0.0798  0.1454
 9848SOL    HW130594   6.634   1.060   3.328  0.7444 -0.1631 -1.4390
 9848SOL    HW230595   6.743   1.034   3.430 -0.8238 -0.1370  0.3050
 9849SOL     OW30596   5.834   7.798   2.404  0.3098 -0.8247  0.3007
 9849SOL    HW130597   5.860   7.765   2.318  1.3468  0.0642  0.2471
 9849SOL    HW230598   5.785   7.726   2.443  2.1279 -2.2844  0.0294
 9850SOL     OW30599   8.158   5.387   6.877 -0.4490 -0.3314 -0.1146
 9850SOL    HW130600   8.184   5.455   6.815 -1.0210  0.1550  0.1713
 9850SOL    HW230601   8.229   5.385   6.941 -0.2588 -0.2556 -0.3225
 9851SOL     OW30602   1.279   1.565   5.133 -0.4262  0.5766  0.3697
 9851SOL    HW130603   1.246   1.635   5.189  0.5530 -0.0786  1.8333
 9851SOL    HW230604   1.347   1.523   5.185 -0.5362 -1.0471 -0.7230
 9852SOL     OW30605   5.501   5.765   6.407  0.0910  0.2284  0.5542
 9852SOL    HW130606   5.562   5.838   6.421  0.9057 -0.4941  0.8811
 9852SOL    HW230607   5.532   5.696   6.465  0.1425 -0.8562 -0.7011
 9853SOL     OW30608   0.176   5.575   3.897 -0.2939  0.7605  0.5110
 9853SOL    HW130609   0.126   5.622   3.964 -1.1688  0.3591  0.1621
 9853SOL    HW230610   0.258   5.623   3.891 -0.8057  1.7176  0.7990
 9854SOL     OW30611   6.173   6.000   6.242  0.7212 -0.0466 -0.3989
 9854SOL    HW130612   6.198   6.088   6.215 -1.4242  0.9305  0.5174
 9854SOL    HW230613   6.082   5.991   6.214  0.6639 -1.6838  0.1954
 9855SOL     OW30614   2.008   6.313   6.511 -0.0883 -0.3466 -0.1225
 9855SOL    HW130615   2.043   6.225   6.495 -0.3039 -0.0012 -2.8990
 9855SOL    HW230616   2.014   6.357   6.427 -1.8235  1.6785  0.7311
 9856SOL     OW30617   6.633   4.378   2.651  0.7799  0.2379  0.4207
 9856SOL    HW130618   6.689   4.388   2.728  0.6123  2.3367  0.3470
 9856SOL    HW230619   6.662   4.448   2.592 -0.1813 -0.3037 -0.7264
 9857SOL     OW30620   5.934   4.129   4.030  0.2250  0.1035 -0.4171
 9857SOL    HW130621   6.021   4.150   4.064  0.1816  2.5816 -1.6141
 9857SOL    HW230622   5.884   4.211   4.038 -2.2467 -1.3909  0.8009
 9858SOL     OW30623   5.208   3.713   6.779 -0.5438  0.2288  0.2880
 9858SOL    HW130624   5.194   3.749   6.866 -3.1372  0.0566  0.0064
 9858SOL    HW230625   5.187   3.785   6.719 -1.0459 -0.3269 -0.2145
 9859SOL     OW30626   2.253   1.736   6.128 -0.3518  0.2539 -0.4504
 9859SOL    HW130627   2.279   1.732   6.220  0.4802  0.8061 -0.6539
 9859SOL    HW230628   2.332   1.764   6.082 -0.6214 -0.5115 -1.3997
 9860SOL     OW30629   5.431   1.983   8.220  0.0348 -0.6466  0.2129
 9860SOL    HW130630   5.467   2.020   8.300 -0.1553 -0.9527  0.4440
 9860SOL    HW230631   5.419   2.058   8.162  2.8058 -0.7050 -0.5912
 9861SOL     OW30632   5.521   1.127   8.097 -0.0013  0.2319 -0.7092
 9861SOL    HW130633   5.515   1.054   8.036  2.2422  0.3167 -1.1277
 9861SOL    HW230634   5.615   1.146   8.102 -0.2605  1.2215  1.6190
 9862SOL     OW30635   2.461   1.942   6.078  0.3140  0.2579  0.3586
 9862SOL    HW130636   2.535   1.881   6.080  0.2542  0.1735  0.0581
 9862SOL    HW230637   2.501   2.028   6.084  0.4214  0.2026  0.4359
 9863SOL     OW30638   0.644   0.469   1.395 -0.2090 -0.1761 -0.0181
 9863SOL    HW130639   0.678   0.550   1.432 -2.1107 -0.3950  2.5100
 9863SOL    HW230640   0.554   0.491   1.369 -0.8992 -1.5112  1.1096
 9864SOL     OW30641   5.532   3.721   6.589 -0.1506 -0.0435  0.1351
 9864SOL    HW130642   5.489   3.776   6.524  0.3691 -0.6091 -0.7110
 9864SOL    HW230643   5.576   3.783   6.648  1.2077  0.4704 -1.3453
 9865SOL     OW30644   4.338   6.890   7.885  0.0987 -0.3909  0.5313
 9865SOL    HW130645   4.342   6.922   7.975  1.6922 -0.3845  0.4820
 9865SOL    HW230646   4.337   6.795   7.894  2.3531 -0.4508  0.5439
 9866SOL     OW30647   5.343   3.227   7.904  0.1220 -0.2048 -0.1912
 9866SOL    HW130648   5.420   3.212   7.849 -0.9485 -0.1237 -1.7777
 9866SOL    HW230649   5.313   3.140   7.928  0.9024 -0.2323  0.7730
 9867SOL     OW30650   0.179   5.184   6.395 -0.2322 -0.0529 -0.0406
 9867SOL    HW130651   0.223   5.178   6.310  0.3805  0.0717  0.2607
 9867SOL    HW230652   0.179   5.095   6.429 -0.3012 -0.0705 -0.0875
 9868SOL     OW30653   5.898   7.507   7.425  0.0783 -0.1709  0.1798
 9868SOL    HW130654   5.953   7.443   7.381 -1.2629 -0.5427 -1.0145
 9868SOL    HW230655   5.935   7.514   7.513  1.0186 -1.6233 -0.0681
 9869SOL     OW30656   4.681   0.111   6.310 -0.6061 -0.8221 -0.2501
 9869SOL    HW130657   4.721   0.079   6.229 -2.4826 -0.4825 -1.3799
 9869SOL    HW230658   4.749   0.162   6.352  0.4089 -0.9653 -1.6467
 9870SOL     OW30659   2.858   6.861   3.559  0.2535  0.5261  0.4110
 9870SOL    HW130660   2.889   6.799   3.626 -2.8649 -1.4197  0.2485
 9870SOL    HW230661   2.880   6.818   3.476 -1.4819 -0.2031  0.2949
 9871SOL     OW30662   5.223   3.129   6.593 -0.1341  0.4915 -0.1522
 9871SOL    HW130663   5.205   3.055   6.535  2.4316 -0.3056 -0.0431
 9871SOL    HW230664   5.220   3.092   6.681  1.7457  0.3342 -0.1272
 9872SOL     OW30665   0.438   7.259   4.851  0.1298 -0.1380 -0.5607
 9872SOL    HW130666   0.373   7.293   4.913  0.0070  0.7861 -1.1717
 9872SOL    HW230667   0.395   7.265   4.766  1.1831  0.9684 -1.0411
 9873SOL     OW30668   1.213   2.517   2.074  0.1594  0.6911  0.0125
 9873SOL    HW130669   1.306   2.539   2.083  0.3114  0.0473  0.0055
 9873SOL    HW230670   1.176   2.536   2.161  0.0655  1.9852 -0.2824
 9874SOL     OW30671   7.579   7.585   2.815  0.0847  0.5466 -0.2604
 9874SOL    HW130672   7.542   7.648   2.753  0.3253  1.4473  0.4852
 9874SOL    HW230673   7.665   7.621   2.836  0.9183 -0.9053 -1.0751
 9875SOL     OW30674   5.037   1.990   1.976 -0.0583  0.4588  0.0258
 9875SOL    HW130675   5.055   2.031   1.892  2.9226  1.4729  1.0422
 9875SOL    HW230676   5.027   2.063   2.037 -1.2123 -0.2829  0.7698
 9876SOL     OW30677   4.686   6.921   1.481  0.0755  0.2338 -0.9988
 9876SOL    HW130678   4.614   6.983   1.468 -1.7294 -1.7137 -0.8034
 9876SOL    HW230679   4.722   6.944   1.566 -0.6915  0.9138 -0.8461
 9877SOL     OW30680   2.579   2.730   4.763  0.6765  0.0126  0.1348
 9877SOL    HW130681   2.571   2.813   4.714  0.4939  0.2406  0.5488
 9877SOL    HW230682   2.645   2.681   4.714 -1.2881 -0.8350 -1.8457
 9878SOL     OW30683   1.968   5.943   1.065 -0.0983 -0.1495  0.4205
 9878SOL    HW130684   1.989   6.036   1.057  0.6727 -0.4439 -1.2229
 9878SOL    HW230685   1.999   5.903   0.984 -0.3310 -1.8715  1.1259
 9879SOL     OW30686   1.810   5.710   6.269 -0.4978  0.1459 -0.4633
 9879SOL    HW130687   1.874   5.644   6.243  0.1472  0.3003  0.6607
 9879SOL    HW230688   1.725   5.668   6.253 -0.0964 -0.8392 -0.0942
 9880SOL     OW30689   7.716   1.026   5.022 -0.4590  0.6045 -0.3451
 9880SOL    HW130690   7.651   0.958   5.038 -2.2335  1.4270 -3.3837
 9880SOL    HW230691   7.765   0.995   4.946  1.9214  0.6177  1.0894
 9881SOL     OW30692   7.173   2.696   6.543  0.2881 -0.4767 -0.2593
 9881SOL    HW130693   7.151   2.626   6.482 -0.8703  1.2634 -1.9811
 9881SOL    HW230694   7.103   2.694   6.608 -0.2233 -0.3738 -0.8022
 9882SOL     OW30695   0.225   2.198   5.874 -0.4215 -0.1370  0.6628
 9882SOL    HW130696   0.138   2.184   5.837  0.1895 -1.6274 -0.3170
 9882SOL    HW230697   0.225   2.150   5.957 -1.1929  1.6700  1.7668
 9883SOL     OW30698   2.661   5.366   2.836 -0.2644  0.1383  0.4392
 9883SOL    HW130699   2.612   5.339   2.759  1.8542  1.2030 -1.3704
 9883SOL    HW230700   2.676   5.284   2.884 -1.0209 -0.6458 -0.6168
 9884SOL     OW30701   3.330   6.772   8.170 -0.0178  0.2322  0.4719
 9884SOL    HW130702   3.335   6.777   8.265 -0.0536 -1.7321  0.6186
 9884SOL    HW230703   3.420   6.754   8.142 -0.1693 -0.1869  0.2356
 9885SOL     OW30704   7.387   3.328   1.720 -0.5633 -0.0714 -0.1360
 9885SOL    HW130705   7.292   3.314   1.716 -0.4152 -1.0451 -0.5926
 9885SOL    HW230706   7.422   3.244   1.749  0.2168  0.0844 -0.6038
 9886SOL     OW30707   6.325   5.179   2.826  0.4171  0.4638  0.2831
 9886SOL    HW130708   6.324   5.263   2.781  2.2133  1.3889  1.8399
 9886SOL    HW230709   6.385   5.124   2.775 -1.8604 -0.4618 -1.5716
 9887SOL     OW30710   7.132   6.593   1.481 -0.3894 -0.0703 -0.1418
 9887SOL    HW130711   7.205   6.543   1.518 -0.9578 -1.6776 -1.1188
 9887SOL    HW230712   7.060   6.579   1.542 -0.4955 -0.2758 -0.3154
 9888SOL     OW30713   2.649   1.758   2.540  0.0685  0.0788  0.6218
 9888SOL    HW130714   2.648   1.746   2.445 -0.2135 -0.8701  0.7360
 9888SOL    HW230715   2.561   1.734   2.568  0.9452 -2.4971  1.4380
 9889SOL     OW30716   8.088   2.701   6.262  0.0878 -0.0424  0.3621
 9889SOL    HW130717   8.053   2.648   6.191  1.0477 -1.3889  0.8633
 9889SOL    HW230718   8.118   2.638   6.327  0.5584  1.1306  1.3247
 9890SOL     OW30719   0.718   3.809   7.047  0.0578 -0.0041 -0.0879
 9890SOL    HW130720   0.732   3.823   7.140 -0.4061 -0.8361  0.1134
 9890SOL    HW230721   0.774   3.874   7.004  1.8153 -0.9304  0.7166
 9891SOL     OW30722   4.392   3.410   5.333 -0.1103 -0.2837  0.5404
 9891SOL    HW130723   4.426   3.482   5.387  0.1461  0.0528 -0.0537
 9891SOL    HW230724   4.435   3.423   5.248 -1.3071 -0.1870 -0.0595
 9892SOL     OW30725   6.961   4.398   8.107 -0.1699  0.2763 -0.5508
 9892SOL    HW130726   6.874   4.434   8.091 -0.2922  0.6692  0.8577
 9892SOL    HW230727   6.956   4.363   8.196  0.8142 -0.6125 -0.8288
 9893SOL     OW30728   0.392   4.455   6.885  0.5663 -0.0816  0.0905
 9893SOL    HW130729   0.364   4.533   6.837  1.3789 -0.7055 -1.4645
 9893SOL    HW230730   0.486   4.466   6.897  0.2442  0.5598  2.5687
 9894SOL     OW30731   6.443   4.171   2.278  0.2217  1.0425  0.1119
 9894SOL    HW130732   6.484   4.243   2.230 -0.4388  0.9709 -0.5832
 9894SOL    HW230733   6.496   4.162   2.357  1.0779  1.4519 -0.3931
 9895SOL     OW30734   5.821   2.445   4.027  0.1237  0.1680 -0.1841
 9895SOL    HW130735   5.795   2.368   4.078  0.2278 -0.2433 -0.7310
 9895SOL    HW230736   5.908   2.423   3.994 -0.5909 -0.2778 -1.8704
 9896SOL     OW30737   8.243   5.962   4.355 -0.6347 -0.2920 -0.9174
 9896SOL    HW130738   8.311   5.935   4.293 -0.6581  2.4051 -2.2603
 9896SOL    HW230739   8.287   5.964   4.440  0.5843  0.0480 -1.5377
 9897SOL     OW30740   0.754   1.819   2.739 -0.2622  0.5302 -0.1320
 9897SOL    HW130741   0.764   1.876   2.815  0.4820  0.0374  0.1520
 9897SOL    HW230742   0.661   1.796   2.738 -0.0497 -0.6083  1.4884
 9898SOL     OW30743   4.069   4.991   2.411 -0.0678  0.2655 -0.7465
 9898SOL    HW130744   3.992   4.935   2.403  0.0231  0.0842 -0.3730
 9898SOL    HW230745   4.084   4.998   2.506 -0.0795  0.9189 -0.7893
 9899SOL     OW30746   0.372   7.306   1.766 -0.0380 -0.2845 -0.0197
 9899SOL    HW130747   0.370   7.300   1.862  0.3548  2.2942  0.2157
 9899SOL    HW230748   0.296   7.361   1.744 -0.6050 -1.5044 -1.3026
 9900SOL     OW30749   6.500   5.902   2.183 -0.2527  0.1151  0.1123
 9900SOL    HW130750   6.476   5.962   2.111  0.0930 -1.6079 -1.5268
 9900SOL    HW230751   6.594   5.914   2.193 -0.3010  0.3560  0.2953
 9901SOL     OW30752   8.172   4.696   4.388 -0.3990 -0.1048  0.3184
 9901SOL    HW130753   8.124   4.778   4.401 -0.8730 -0.3782  0.3035
 9901SOL    HW230754   8.208   4.703   4.299 -2.0301 -0.7145 -0.4186
 9902SOL     OW30755   7.543   3.409   8.074 -0.3282  0.1597  0.5558
 9902SOL    HW130756   7.618   3.350   8.077 -1.9842 -2.1068  3.1170
 9902SOL    HW230757   7.488   3.375   8.004 -0.8201 -0.8118  1.3856
 9903SOL     OW30758   6.049   3.590   1.008  0.0434 -0.2143  0.2336
 9903SOL    HW130759   6.064   3.526   0.939  1.9013 -0.0979  0.4655
 9903SOL    HW230760   6.134   3.596   1.053 -0.1496  2.1780  0.3932
 9904SOL     OW30761   2.032   7.393   2.110 -0.0532 -0.0192  0.0053
 9904SOL    HW130762   2.081   7.385   2.192 -1.9100  0.6856  1.2576
 9904SOL    HW230763   2.036   7.487   2.089  0.9126 -0.2821 -1.0699
 9905SOL     OW30764   8.218   4.481   0.653 -0.3904 -0.4317  0.0766
 9905SOL    HW130765   8.171   4.556   0.691 -0.8335 -0.0664 -1.1361
 9905SOL    HW230766   8.299   4.475   0.704  0.6343  2.1914 -1.0490
 9906SOL     OW30767   1.154   8.098   4.887 -0.0747  0.2057  0.0388
 9906SOL    HW130768   1.082   8.114   4.948  0.7740 -0.6573  1.3171
 9906SOL    HW230769   1.117   8.116   4.800 -1.5444  0.6793  0.7392
 9907SOL     OW30770   3.690   5.322   2.089 -0.2477 -0.5306  0.0820
 9907SOL    HW130771   3.614   5.373   2.120  0.2394 -0.2840  0.8912
 9907SOL    HW230772   3.736   5.297   2.169  0.9589 -0.0095 -0.4339
 9908SOL     OW30773   7.180   8.038   4.826  0.1631  0.4274 -0.0505
 9908SOL    HW130774   7.150   8.001   4.909  2.7674  2.1566  1.8294
 9908SOL    HW230775   7.099   8.063   4.781 -1.4130 -2.2693  1.0498
 9909SOL     OW30776   7.490   4.432   3.351 -0.0239 -0.3509  0.2739
 9909SOL    HW130777   7.438   4.434   3.432  1.0322  0.5853  0.9468
 9909SOL    HW230778   7.561   4.370   3.370  0.3200 -0.0031  0.1235
 9910SOL     OW30779   0.242   6.057   2.793 -0.2707 -0.3816  0.8508
 9910SOL    HW130780   0.168   6.101   2.752 -0.2955 -0.0061  1.2875
 9910SOL    HW230781   0.273   6.119   2.859  1.1619 -0.0394 -0.0918
 9911SOL     OW30782   3.420   0.648   5.824  0.2019 -0.1850 -0.3707
 9911SOL    HW130783   3.338   0.694   5.806 -1.6665 -2.1586  2.2077
 9911SOL    HW230784   3.472   0.710   5.874 -1.6228 -0.2065  1.7294
 9912SOL     OW30785   4.571   6.427   8.127  0.1121  0.2364 -0.5452
 9912SOL    HW130786   4.538   6.456   8.212  0.4944  1.0926 -0.6744
 9912SOL    HW230787   4.666   6.424   8.138  0.1903  0.6682 -1.0219
 9913SOL     OW30788   6.566   8.097   8.065  0.0535 -0.4543  0.6971
 9913SOL    HW130789   6.629   8.169   8.077  1.2334 -1.1248 -1.1036
 9913SOL    HW230790   6.613   8.019   8.093 -1.0132 -0.6413  2.0648
 9914SOL     OW30791   3.375   7.457   4.585  0.0910  0.2221 -0.2271
 9914SOL    HW130792   3.393   7.477   4.676  1.9553  1.0964 -0.7384
 9914SOL    HW230793   3.284   7.427   4.584  0.2581 -0.4843  1.9939
 9915SOL     OW30794   7.871   7.978   0.592 -0.5656  0.7291  0.3458
 9915SOL    HW130795   7.817   7.980   0.513 -0.5553  0.6518  0.3364
 9915SOL    HW230796   7.826   7.917   0.650  0.2840 -0.5013 -0.2307
 9916SOL     OW30797   4.635   4.780   1.331 -0.1653 -0.2649 -0.1496
 9916SOL    HW130798   4.667   4.862   1.368  0.8244 -0.6595 -0.0937
 9916SOL    HW230799   4.565   4.752   1.391  0.6341 -0.3053  0.7804
 9917SOL     OW30800   7.378   8.183   0.729  0.6501 -0.2277  0.1458
 9917SOL    HW130801   7.387   8.089   0.713  1.5837 -0.0185 -0.6632
 9917SOL    HW230802   7.419   8.225   0.653  0.3696  0.8346  0.5573
 9918SOL     OW30803   1.626   6.340   0.521 -0.4348  0.1591 -0.3941
 9918SOL    HW130804   1.641   6.252   0.488  1.6692  0.4983 -0.4805
 9918SOL    HW230805   1.693   6.394   0.478  0.2887  1.2062  1.8783
 9919SOL     OW30806   5.095   1.593   5.698 -0.2215 -0.0913  0.3942
 9919SOL    HW130807   5.129   1.646   5.770  0.9698  1.6874 -1.3769
 9919SOL    HW230808   5.173   1.557   5.656 -0.8228 -0.2070 -0.6566
 9920SOL     OW30809   0.519   5.183   2.885 -0.3168  0.6317 -0.3274
 9920SOL    HW130810   0.473   5.132   2.952 -1.0192  0.2718 -1.0610
 9920SOL    HW230811   0.594   5.129   2.861  0.6738  1.3264  1.0457
 9921SOL     OW30812   3.894   5.356   1.578  0.1137 -0.2750 -0.0580
 9921SOL    HW130813   3.911   5.331   1.669 -0.7223 -1.2521 -0.1622
 9921SOL    HW230814   3.886   5.273   1.531  0.5194  0.2191 -1.0310
 9922SOL     OW30815   5.895   5.918   6.676  0.1220 -0.0571  0.0213
 9922SOL    HW130816   5.891   5.873   6.591  3.4484 -3.1989  1.2774
 9922SOL    HW230817   5.804   5.918   6.707 -0.6389 -2.3680 -1.8591
 9923SOL     OW30818   3.500   4.829   4.787  0.2976  0.0185  0.1689
 9923SOL    HW130819   3.586   4.798   4.758  0.2295  0.1204 -0.1461
 9923SOL    HW230820   3.450   4.749   4.804  0.3757 -0.0429  0.1106
 9924SOL     OW30821   7.242   6.514   5.397  0.2844  0.3255 -0.1191
 9924SOL    HW130822   7.183   6.457   5.447  0.7392 -0.6943 -0.7095
 9924SOL    HW230823   7.247   6.594   5.448 -0.1785 -0.2586  0.8717
 9925SOL     OW30824   1.071   4.869   6.231  0.0568  0.1521 -0.3955
 9925SOL    HW130825   0.993   4.898   6.185 -0.2267 -2.1790 -1.5380
 9925SOL    HW230826   1.091   4.784   6.193  0.7456 -1.2337  2.7037
 9926SOL     OW30827   1.982   1.899   4.097 -0.0085  0.9981  0.1932
 9926SOL    HW130828   2.027   1.882   4.014 -0.8230  1.1852 -0.2950
 9926SOL    HW230829   2.050   1.933   4.154  0.5200  1.0854 -0.4740
 9927SOL     OW30830   2.894   6.505   4.338  0.0612  0.0282  0.4900
 9927SOL    HW130831   2.983   6.538   4.331  0.1608 -0.0893  1.1435
 9927SOL    HW230832   2.881   6.490   4.432 -0.1736 -1.2292  0.2731
 9928SOL     OW30833   6.822   4.112   5.242  0.1281 -0.4450  0.2840
 9928SOL    HW130834   6.833   4.051   5.315  1.9486 -0.3411  0.1199
 9928SOL    HW230835   6.871   4.072   5.169  2.2896  1.6642  0.4757
 9929SOL     OW30836   0.497   1.444   4.124  0.1620  0.3858 -0.0299
 9929SOL    HW130837   0.579   1.395   4.134  1.3963  2.4819  0.6195
 9929SOL    HW230838   0.505   1.486   4.038 -0.8071 -0.3573 -0.4999
 9930SOL     OW30839   5.445   8.148   1.780 -0.7228  0.0933 -0.6717
 9930SOL    HW130840   5.482   8.166   1.694 -0.3197  0.1000 -0.4989
 9930SOL    HW230841   5.516   8.105   1.828 -0.4189  1.4447  0.1572
 9931SOL     OW30842   7.099   7.846   7.409 -0.3724  0.0316  0.2991
 9931SOL    HW130843   7.135   7.764   7.444  3.5126  2.2337  2.1513
 9931SOL    HW230844   7.056   7.886   7.484 -1.8662 -0.0588 -0.4822
 9932SOL     OW30845   3.788   4.922   7.616  0.0744  0.2570 -0.0482
 9932SOL    HW130846   3.753   4.948   7.701 -0.2710  2.2142 -0.7212
 9932SOL    HW230847   3.711   4.910   7.561  0.3318  0.8321 -0.5446
 9933SOL     OW30848   7.064   3.362   1.043  0.1096  0.8342  0.3213
 9933SOL    HW130849   7.067   3.410   1.126  0.8843  1.6547 -0.1737
 9933SOL    HW230850   7.065   3.429   0.976  2.3773  0.1547 -0.4095
 9934SOL     OW30851   8.192   5.933   3.210 -0.3848  0.1990  0.1899
 9934SOL    HW130852   8.280   5.912   3.243 -1.1314  1.0308  3.0853
 9934SOL    HW230853   8.206   6.005   3.149  0.9058  1.0575  1.4239
 9935SOL     OW30854   1.571   4.117   2.864 -0.5685  0.0885  0.1031
 9935SOL    HW130855   1.548   4.031   2.828 -1.3819  0.9595 -1.5703
 9935SOL    HW230856   1.600   4.098   2.954 -0.9366 -1.8960 -0.1413
 9936SOL     OW30857   0.267   5.054   3.902 -0.2385  0.4763  0.2102
 9936SOL    HW130858   0.314   5.126   3.860 -0.4940  1.0201  0.8433
 9936SOL    HW230859   0.175   5.079   3.897 -0.3995 -0.1790 -0.2551
 9937SOL     OW30860   1.191   4.324   3.804 -0.1177 -0.1250  0.5038
 9937SOL    HW130861   1.129   4.337   3.731  0.1629 -0.8882  0.1157
 9937SOL    HW230862   1.138   4.285   3.873 -0.3565  0.4737  0.6631
 9938SOL     OW30863   7.168   2.598   2.429 -0.0261  0.1610  0.3401
 9938SOL    HW130864   7.212   2.540   2.366 -1.3029  0.1098 -0.5414
 9938SOL    HW230865   7.186   2.559   2.514  3.3694  1.2617  0.2914
 9939SOL     OW30866   0.573   7.233   0.906 -0.3425  0.2060 -0.2847
 9939SOL    HW130867   0.616   7.274   0.831 -0.2072  0.5499 -0.0213
 9939SOL    HW230868   0.484   7.270   0.906  0.4793  2.3703  1.3502
 9940SOL     OW30869   3.702   6.075   2.338  0.0391 -0.4982  0.1388
 9940SOL    HW130870   3.654   6.077   2.255  1.3927 -0.5600 -0.6625
 9940SOL    HW230871   3.705   5.983   2.362 -0.8972 -0.4223  0.6025
 9941SOL     OW30872   7.099   2.916   4.694 -0.3689 -0.2769  0.2108
 9941SOL    HW130873   7.057   2.835   4.726 -0.1813 -0.5261 -0.1658
 9941SOL    HW230874   7.192   2.895   4.692 -0.1262  0.5314  1.7924
 9942SOL     OW30875   0.140   4.821   3.307  0.3027  0.0866 -0.2968
 9942SOL    HW130876   0.130   4.731   3.336  0.9809  0.2479  0.4609
 9942SOL    HW230877   0.122   4.874   3.385 -1.4840  0.6882 -1.0527
 9943SOL     OW30878   3.620   0.805   4.156 -0.2817 -0.3875 -0.5155
 9943SOL    HW130879   3.659   0.881   4.112  0.9482 -0.8451 -0.2483
 9943SOL    HW230880   3.691   0.741   4.162 -1.3422 -1.6472 -0.8890
 9944SOL     OW30881   5.536   6.261   0.810 -0.2598  0.3448  0.1901
 9944SOL    HW130882   5.584   6.344   0.804 -0.8935  0.8238  1.4809
 9944SOL    HW230883   5.599   6.200   0.848 -0.1039  0.4939  0.1751
 9945SOL     OW30884   4.729   6.273   5.714  0.1423  0.5174  0.3801
 9945SOL    HW130885   4.752   6.196   5.766  1.8630  0.9672  0.3489
 9945SOL    HW230886   4.633   6.269   5.705  0.2461 -2.1151 -0.3868
 9946SOL     OW30887   7.906   2.523   4.658 -0.9481 -0.2549 -0.3594
 9946SOL    HW130888   7.875   2.490   4.574 -0.4049  0.2680 -0.7813
 9946SOL    HW230889   7.975   2.463   4.683  0.6066  0.9461 -1.5268
 9947SOL     OW30890   4.084   0.540   7.373 -0.1139 -0.2635  0.5514
 9947SOL    HW130891   4.005   0.515   7.324 -1.2447  2.1174  0.9920
 9947SOL    HW230892   4.140   0.583   7.308 -0.3226  0.3042  0.7411
 9948SOL     OW30893   2.926   5.383   0.038 -0.3367 -0.6511  0.6528
 9948SOL    HW130894   2.868   5.312   0.009  0.0162 -1.5326  2.0453
 9948SOL    HW230895   3.013   5.344   0.041  0.0146  0.1059  0.5326
 9949SOL     OW30896   0.882   7.162   3.932  0.2626 -0.2654 -0.2282
 9949SOL    HW130897   0.797   7.182   3.971 -0.0132  0.2071 -1.0411
 9949SOL    HW230898   0.932   7.119   4.002 -0.2822  0.3773  0.5641
 9950SOL     OW30899   3.473   0.571   0.202 -0.2970  0.3350 -0.6057
 9950SOL    HW130900   3.378   0.563   0.196 -0.3488 -0.4515  1.0136
 9950SOL    HW230901   3.493   0.560   0.295  1.3074  1.3782 -0.7813
 9951SOL     OW30902   7.951   1.962   2.172 -0.1372  0.3922 -0.1227
 9951SOL    HW130903   8.024   2.014   2.206  0.1690 -0.2722  0.2571
 9951SOL    HW230904   7.874   1.998   2.217  0.1524  0.1036  0.6212
 9952SOL     OW30905   6.108   0.454   6.897  0.0825 -0.0537  0.0864
 9952SOL    HW130906   6.045   0.525   6.910 -0.8429 -0.6260 -1.0597
 9952SOL    HW230907   6.153   0.446   6.981  0.0811  1.7487  0.2812
 9953SOL     OW30908   5.467   5.488   7.283 -0.0522  0.2087 -0.3478
 9953SOL    HW130909   5.515   5.445   7.213  0.7346  0.3757  0.0721
 9953SOL    HW230910   5.483   5.581   7.270  1.6712  0.1790  1.1018
 9954SOL     OW30911   2.938   3.475   4.038 -0.5748  0.3780 -0.1322
 9954SOL    HW130912   2.949   3.565   4.068 -1.8415  0.1919  0.9757
 9954SOL    HW230913   2.854   3.475   3.993 -0.6575 -0.2834  0.0132
 9955SOL     OW30914   3.227   0.259   6.343 -0.3760  0.0721 -0.1383
 9955SOL    HW130915   3.190   0.199   6.407  0.4205 -0.8572 -0.5084
 9955SOL    HW230916   3.169   0.252   6.267 -0.0224 -0.6266 -0.3580
 9956SOL     OW30917   0.360   2.536   4.677  0.1677 -0.4758 -0.0579
 9956SOL    HW130918   0.431   2.495   4.627  0.6062 -0.2069  0.3270
 9956SOL    HW230919   0.346   2.477   4.751  0.5653 -0.1154  0.3126
 9957SOL     OW30920   3.394   2.688   7.987 -0.3107  0.0894 -0.1705
 9957SOL    HW130921   3.359   2.731   8.065  1.3219 -0.9976  1.2054
 9957SOL    HW230922   3.342   2.725   7.915 -0.4805  2.7062  1.1558
 9958SOL     OW30923   5.873   6.773   6.399  1.1263 -0.0851  0.5386
 9958SOL    HW130924   5.941   6.826   6.440  1.5601 -0.1023 -0.1439
 9958SOL    HW230925   5.919   6.722   6.332  0.3261  0.4526 -0.4462
 9959SOL     OW30926   0.995   2.933   0.348  0.6077  0.3719 -0.5457
 9959SOL    HW130927   1.085   2.908   0.366  0.6951  0.3978 -0.9236
 9959SOL    HW230928   0.971   2.881   0.271 -0.2500 -0.8709  0.5221
 9960SOL     OW30929   1.167   6.365   7.351 -0.2113 -0.6760  0.0356
 9960SOL    HW130930   1.229   6.399   7.415 -1.0741 -1.1259  1.1295
 9960SOL    HW230931   1.144   6.441   7.298  1.3973 -0.5345 -0.5309
 9961SOL     OW30932   5.998   4.759   6.663  0.6076 -0.2228 -1.1218
 9961SOL    HW130933   6.071   4.729   6.608 -0.1864  1.4109 -3.1937
 9961SOL    HW230934   6.039   4.812   6.731  1.5017 -1.1680 -0.8845
 9962SOL     OW30935   6.732   0.511   6.165  0.3749 -0.2555  0.1855
 9962SOL    HW130936   6.773   0.546   6.086 -0.3501  0.1380 -0.0291
 9962SOL    HW230937   6.778   0.430   6.183  1.6688  0.4901  0.3150
 9963SOL     OW30938   8.118   2.364   4.659 -0.0794 -0.1657  0.0961
 9963SOL    HW130939   8.071   2.294   4.704 -2.3589  1.4810  0.4364
 9963SOL    HW230940   8.137   2.328   4.572 -1.0114 -1.2587  0.3163
 9964SOL     OW30941   3.653   3.678   4.682  0.1522  0.0224  0.0369
 9964SOL    HW130942   3.733   3.727   4.703  0.7368 -0.1501 -1.6522
 9964SOL    HW230943   3.622   3.716   4.600 -0.9634 -0.5829  0.1574
 9965SOL     OW30944   4.774   0.670   7.381  0.2725 -0.1933 -0.4374
 9965SOL    HW130945   4.712   0.597   7.386  1.2104 -0.9320  2.1768
 9965SOL    HW230946   4.860   0.628   7.380  0.8147  0.8575 -2.0140
 9966SOL     OW30947   6.965   7.036   5.342  0.7173 -0.2329  0.0861
 9966SOL    HW130948   6.890   6.977   5.336  0.9299 -0.4262 -0.7897
 9966SOL    HW230949   6.945   7.093   5.417  0.8093 -1.8113  1.3639
 9967SOL     OW30950   1.093   7.794   0.709 -0.5973 -0.6421  0.2776
 9967SOL    HW130951   1.091   7.711   0.662  0.2631 -0.1771 -0.6110
 9967SOL    HW230952   1.131   7.773   0.794 -1.5199 -1.3703  0.5244
 9968SOL     OW30953   2.037   2.911   6.265 -0.0339 -0.0882  0.3995
 9968SOL    HW130954   2.006   2.945   6.349  1.3456  1.2817  0.3890
 9968SOL    HW230955   2.124   2.949   6.254 -0.2660 -0.0737 -1.7640
 9969SOL     OW30956   3.238   5.880   0.283 -0.1111  0.0699  0.9404
 9969SOL    HW130957   3.331   5.862   0.297 -0.5262  0.0518  4.6665
 9969SOL    HW230958   3.193   5.822   0.344 -2.8958 -1.8651 -2.5177
 9970SOL     OW30959   5.598   8.082   3.435 -0.0832  0.9220 -0.5263
 9970SOL    HW130960   5.600   8.039   3.520  0.4408  0.9736 -0.5074
 9970SOL    HW230961   5.681   8.057   3.393  0.6627  2.6016 -0.1590
 9971SOL     OW30962   7.532   3.813   4.443  0.7812 -0.4505 -0.0481
 9971SOL    HW130963   7.586   3.879   4.488  0.2731  0.2132 -0.3923
 9971SOL    HW230964   7.462   3.864   4.402  0.1024 -1.2610  0.0805
 9972SOL     OW30965   1.723   6.021   5.387  0.0070  0.0558  0.1005
 9972SOL    HW130966   1.736   6.034   5.293 -0.4207  1.9088  0.2631
 9972SOL    HW230967   1.726   5.926   5.399  2.1126 -0.1389 -1.4821
 9973SOL     OW30968   2.678   0.447   0.125  0.1743  0.3566 -0.1634
 9973SOL    HW130969   2.624   0.469   0.049  0.7699 -0.1273 -0.7348
 9973SOL    HW230970   2.709   0.358   0.108  0.0455  0.1137  0.8051
 9974SOL     OW30971   0.655   4.106   6.214 -0.2497  0.0980  0.1497
 9974SOL    HW130972   0.596   4.109   6.289  0.4369 -0.9601  0.7542
 9974SOL    HW230973   0.629   4.028   6.166  0.3512 -0.1180  0.1678
 9975SOL     OW30974   1.014   1.711   1.027 -0.2965  0.4574 -0.7135
 9975SOL    HW130975   1.097   1.687   1.067 -1.5243  0.0694  1.8604
 9975SOL    HW230976   0.978   1.628   0.995 -0.6208  0.2540  0.1476
 9976SOL     OW30977   6.722   5.217   3.734 -0.0354 -0.5329  0.2223
 9976SOL    HW130978   6.790   5.204   3.799 -0.4538 -0.0874  0.7541
 9976SOL    HW230979   6.689   5.129   3.716 -0.8960 -0.5355  1.6855
 9977SOL     OW30980   6.071   7.778   3.988 -0.0455  0.4843  0.0014
 9977SOL    HW130981   6.058   7.683   3.984  0.0262  0.5159 -1.6254
 9977SOL    HW230982   6.144   7.795   3.929 -0.8872  1.6806 -0.7508
 9978SOL     OW30983   0.945   0.490   4.419  0.1539  0.7314 -0.0849
 9978SOL    HW130984   0.864   0.476   4.468 -0.8170  2.8895 -0.9353
 9978SOL    HW230985   0.988   0.405   4.419 -2.9641 -0.9959 -1.0714
 9979SOL     OW30986   6.943   4.704   1.103  0.2132  0.5906  0.3233
 9979SOL    HW130987   6.946   4.768   1.031  0.9580 -0.3778 -0.5424
 9979SOL    HW230988   6.866   4.651   1.084 -0.2713  1.0623  0.9150
 9980SOL     OW30989   4.452   0.196   6.440  0.6846  0.3441  0.0494
 9980SOL    HW130990   4.406   0.115   6.461 -0.6502  0.6720 -1.3780
 9980SOL    HW230991   4.532   0.169   6.395  0.3284 -0.1938 -0.2683
 9981SOL     OW30992   7.076   1.073   3.411  0.2896  0.0258  0.1161
 9981SOL    HW130993   7.127   1.154   3.422 -0.0387  0.3324 -0.5575
 9981SOL    HW230994   6.998   1.101   3.363 -0.9386 -0.2777  1.8649
 9982SOL     OW30995   2.601   3.875   4.174  0.2110  0.0945 -0.2670
 9982SOL    HW130996   2.676   3.815   4.170  0.1862  0.1422 -2.2039
 9982SOL    HW230997   2.556   3.863   4.091 -2.3895 -0.4424  1.1011
 9983SOL     OW30998   6.664   1.235   4.918  0.5002 -0.4562 -0.4449
 9983SOL    HW130999   6.615   1.189   4.851  1.0140 -0.9642 -0.4818
 9983SOL    HW231000   6.598   1.283   4.969  0.1677  0.5097 -1.7397
 9984SOL     OW31001   7.888   5.903   1.864 -0.3264 -0.4635 -0.4512
 9984SOL    HW131002   7.954   5.840   1.892 -0.5500 -0.7139 -0.4807
 9984SOL    HW231003   7.894   5.904   1.768 -1.0822 -1.2837 -0.5224
 9985SOL     OW31004   1.554   6.492   8.042 -0.0357 -0.4517  0.1227
 9985SOL    HW131005   1.643   6.495   8.078 -0.7959 -0.9185  2.1984
 9985SOL    HW231006   1.548   6.407   8.000 -0.3624 -1.6734  2.5160
 9986SOL     OW31007   0.771   4.645   0.485 -0.5464 -0.0990  0.2083
 9986SOL    HW131008   0.786   4.735   0.512 -0.2718  0.2409 -1.0386
 9986SOL    HW231009   0.848   4.597   0.516 -0.0834  0.3469 -0.2414
 9987SOL     OW31010   1.738   1.686   3.916 -0.3301  0.7458  0.6371
 9987SOL    HW131011   1.729   1.633   3.995 -0.6944  0.4902  0.4252
 9987SOL    HW231012   1.750   1.622   3.845 -3.3969  0.7618 -0.0234
 9988SOL     OW31013   5.866   7.708   2.119  0.0048  0.0474  0.1731
 9988SOL    HW131014   5.959   7.690   2.139 -0.0915 -1.2493 -0.4383
 9988SOL    HW231015   5.865   7.732   2.027 -0.2964 -0.1798  0.1158
 9989SOL     OW31016   1.751   4.803   6.742 -0.1108  0.2894 -0.3696
 9989SOL    HW131017   1.696   4.862   6.691  1.0939  2.5535  0.7828
 9989SOL    HW231018   1.839   4.840   6.733  1.3471 -3.1501 -2.1010
 9990SOL     OW31019   5.442   4.592   5.926 -0.3259  0.2812 -0.5999
 9990SOL    HW131020   5.419   4.672   5.974 -1.3158  0.6678 -1.6846
 9990SOL    HW231021   5.422   4.521   5.987 -2.8847  0.6917 -0.8544
 9991SOL     OW31022   6.216   5.855   0.649 -0.3813  0.2324  0.1152
 9991SOL    HW131023   6.123   5.847   0.669 -0.3791 -2.9048 -0.6584
 9991SOL    HW231024   6.219   5.859   0.553  0.2728  1.8565  0.1657
 9992SOL     OW31025   8.210   6.020   1.308 -0.2561 -0.1816 -0.0447
 9992SOL    HW131026   8.155   6.043   1.382  1.4325 -0.9903  1.5370
 9992SOL    HW231027   8.208   5.924   1.305 -0.6457 -0.1569 -1.3464
 9993SOL     OW31028   7.219   0.582   1.001 -0.1761 -0.2151  0.0789
 9993SOL    HW131029   7.167   0.612   0.927 -0.3292  0.4486  0.4484
 9993SOL    HW231030   7.158   0.532   1.055 -0.2037 -0.2227  0.0408
 9994SOL     OW31031   1.955   6.341   2.550 -0.2289 -0.5659  0.3493
 9994SOL    HW131032   1.875   6.291   2.560  0.4109 -1.4432  1.2640
 9994SOL    HW231033   2.003   6.296   2.481 -0.8996  0.4959 -0.8476
 9995SOL     OW31034   2.184   5.594   2.054 -0.4114  0.4052 -0.1311
 9995SOL    HW131035   2.169   5.611   1.962 -0.1801 -1.5316 -0.5753
 9995SOL    HW231036   2.137   5.664   2.100 -0.2390  1.6018 -1.6906
 9996SOL     OW31037   2.946   5.799   7.280 -0.0060  0.1912  0.4888
 9996SOL    HW131038   2.968   5.892   7.278  1.9428 -0.2256 -0.5101
 9996SOL    HW231039   2.879   5.789   7.213  0.7578  0.6948 -0.3806
 9997SOL     OW31040   7.179   5.255   2.752 -0.2306  0.3599 -0.6773
 9997SOL    HW131041   7.187   5.271   2.658  1.7209  1.9669 -0.3106
 9997SOL    HW231042   7.122   5.324   2.784 -0.1390  0.3706 -0.5377
 9998SOL     OW31043   3.537   7.539   1.982  0.1373  0.3667  0.0808
 9998SOL    HW131044   3.625   7.540   2.019  0.3992  1.0567 -0.5543
 9998SOL    HW231045   3.534   7.458   1.931  0.8009  0.9020 -0.8315
 9999SOL     OW31046   3.525   6.768   4.902  0.3568 -0.2203  0.5038
 9999SOL    HW131047   3.476   6.795   4.825  1.0702 -2.1615 -0.6835
 9999SOL    HW231048   3.541   6.850   4.950  2.5325  1.5781 -2.9168
10000SOL     OW31049   4.427   1.145   1.985 -0.3673  0.4956  0.0424
10000SOL    HW131050   4.390   1.186   1.907  0.0843  2.4110  0.7661
10000SOL    HW231051   4.517   1.177   1.989 -0.4346  0.5856  1.4338
10001SOL     OW31052   7.304   6.105   5.653 -0.1304  0.0503  0.0267
10001SOL    HW131053   7.347   6.178   5.608 -0.6727  0.2009 -0.2543
10001SOL    HW231054   7.210   6.119   5.637 -0.3272  0.0799  1.1715
10002SOL     OW31055   0.528   3.978   5.292 -0.4389  0.5273  0.6120
10002SOL    HW131056   0.437   3.988   5.265 -0.5169  1.6415  1.2514
10002SOL    HW231057   0.560   3.903   5.241 -1.6352  0.2725  0.2099
10003SOL     OW31058   5.682   7.202   0.305 -0.2358  0.4077 -0.3307
10003SOL    HW131059   5.610   7.259   0.332  0.0359  1.4646 -1.7822
10003SOL    HW231060   5.753   7.225   0.365 -1.1810 -1.0063  1.4623
10004SOL     OW31061   7.131   4.840   5.359 -0.4985 -0.4732 -0.1073
10004SOL    HW131062   7.166   4.757   5.392  0.9654  0.3747  0.5791
10004SOL    HW231063   7.061   4.815   5.299 -0.4634 -2.1829  0.5184
10005SOL     OW31064   2.852   6.352   5.745 -0.0077  0.1797 -0.0033
10005SOL    HW131065   2.903   6.275   5.721 -0.2868  0.1547 -0.5365
10005SOL    HW231066   2.915   6.410   5.788 -0.1199 -0.9761  1.8304
10006SOL     OW31067   1.680   5.341   0.310  0.2772  0.1451  0.3348
10006SOL    HW131068   1.668   5.319   0.402  0.9387  0.8994  0.6156
10006SOL    HW231069   1.631   5.274   0.262 -1.8072  0.9162  1.2872
10007SOL     OW31070   8.219   2.646   2.760  0.1269  0.6869 -0.0125
10007SOL    HW131071   8.281   2.574   2.775 -1.1775 -0.6782 -0.7992
10007SOL    HW231072   8.134   2.603   2.756 -0.8310  2.4507  0.5734
10008SOL     OW31073   4.263   2.350   4.313  0.5429  0.2989  0.1910
10008SOL    HW131074   4.282   2.297   4.390 -1.4179  1.6414  1.6810
10008SOL    HW231075   4.349   2.368   4.274  1.6225 -0.0616  2.3023
10009SOL     OW31076   2.126   4.912   3.411 -0.3763 -0.3013 -0.4697
10009SOL    HW131077   2.213   4.872   3.405 -0.9598 -1.7182 -0.0433
10009SOL    HW231078   2.114   4.959   3.329  1.2989  1.0383 -0.0069
10010SOL     OW31079   6.191   7.130   5.889  0.3007  0.2383 -0.3138
10010SOL    HW131080   6.248   7.101   5.960 -1.0048  0.1362  0.7350
10010SOL    HW231081   6.227   7.090   5.810  0.1490 -1.9891  0.6918
10011SOL     OW31082   5.066   7.161   4.703 -0.0914  0.1330  0.4822
10011SOL    HW131083   4.997   7.227   4.692 -1.1819 -0.9236  0.7172
10011SOL    HW231084   5.107   7.183   4.787  0.3597  1.1934  0.0057
10012SOL     OW31085   2.993   1.872   2.339 -0.5086 -0.6007 -0.1934
10012SOL    HW131086   3.025   1.930   2.271  0.5438 -0.6421  0.2592
10012SOL    HW231087   2.966   1.930   2.410  2.4920 -0.6362  1.1307
10013SOL     OW31088   7.384   2.469   7.972  0.2210  0.5180  0.5129
10013SOL    HW131089   7.355   2.557   7.999  0.4375  1.2228 -1.3887
10013SOL    HW231090   7.324   2.445   7.902  0.2868 -0.8088  0.8843
10014SOL     OW31091   6.995   0.378   5.002 -0.8219  0.4063  0.1078
10014SOL    HW131092   6.947   0.307   4.961 -1.0444  0.9839 -0.6475
10014SOL    HW231093   6.937   0.409   5.072 -0.4918 -0.4983  0.8078
10015SOL     OW31094   5.420   0.258   3.614 -0.2550 -0.2246 -0.3510
10015SOL    HW131095   5.396   0.295   3.699  0.4862  0.6243 -0.4981
10015SOL    HW231096   5.337   0.243   3.570 -0.6194  2.8771 -0.9494
10016SOL     OW31097   8.265   6.618   0.203 -0.0401 -0.1875  0.3670
10016SOL    HW131098   8.358   6.623   0.228 -0.2956 -0.3852  1.4178
10016SOL    HW231099   8.227   6.700   0.235 -0.2467 -0.1458  0.0140
10017SOL     OW31100   2.681   1.566   6.337  0.1053 -0.1823  0.4922
10017SOL    HW131101   2.704   1.638   6.396  0.2812  1.6088 -1.6061
10017SOL    HW231102   2.760   1.512   6.334  0.3241  0.0738  1.3473
10018SOL     OW31103   1.122   6.480   1.284  0.0631  0.1420 -0.0743
10018SOL    HW131104   1.096   6.452   1.372  3.2884  1.7993  1.5993
10018SOL    HW231105   1.104   6.574   1.282  1.8667  0.5323 -0.3189
10019SOL     OW31106   7.588   7.802   4.371  0.8399  0.0807  0.3307
10019SOL    HW131107   7.576   7.813   4.466 -0.0134  2.0684  0.0519
10019SOL    HW231108   7.656   7.865   4.348  0.0064  0.6940 -0.5627
10020SOL     OW31109   3.297   3.889   5.988 -0.2875 -0.6658 -0.0242
10020SOL    HW131110   3.317   3.898   6.081  0.1681 -1.9800  0.0244
10020SOL    HW231111   3.267   3.976   5.961  0.7978  0.0630  1.0454
10021SOL     OW31112   2.807   4.988   3.298  0.4254  0.2636  0.4570
10021SOL    HW131113   2.777   4.943   3.219  1.2618 -0.2820  0.4352
10021SOL    HW231114   2.902   4.977   3.297  0.3896 -0.4347  1.9454
10022SOL     OW31115   5.950   0.589   4.419 -0.5070 -0.4547  0.1914
10022SOL    HW131116   5.910   0.663   4.464 -3.2316 -0.0358 -2.5599
10022SOL    HW231117   6.036   0.622   4.390 -0.9575  1.0461  0.4991
10023SOL     OW31118   0.220   7.359   7.629  0.7601 -0.2565  0.3253
10023SOL    HW131119   0.166   7.354   7.550 -0.3776  0.0284  1.0677
10023SOL    HW231120   0.302   7.316   7.604  1.0127  1.1370 -1.4780
10024SOL     OW31121   0.207   3.970   5.310 -0.2044 -0.4601  0.1391
10024SOL    HW131122   0.115   3.944   5.321 -0.7022  0.9265 -0.4131
10024SOL    HW231123   0.238   3.918   5.236 -1.5760  1.3262 -1.8443
10025SOL     OW31124   5.239   1.035   7.783  0.1637 -0.4902  0.4269
10025SOL    HW131125   5.203   1.096   7.847 -0.6349 -1.1654  0.6376
10025SOL    HW231126   5.328   1.066   7.767  0.1543  0.0565  1.3898
10026SOL     OW31127   2.407   6.086   7.178 -0.2726  0.0029  0.2913
10026SOL    HW131128   2.394   6.175   7.210  0.5055  0.3381 -0.2817
10026SOL    HW231129   2.335   6.071   7.117  1.6241  1.7113 -2.6254
10027SOL     OW31130   7.545   6.842   1.400  0.1279 -0.0399  0.3511
10027SOL    HW131131   7.505   6.928   1.414  3.6897  1.8904  0.0058
10027SOL    HW231132   7.593   6.824   1.481  0.1845 -1.2755  0.0634
10028SOL     OW31133   6.192   1.546   2.452 -0.1888  0.3664  0.4360
10028SOL    HW131134   6.203   1.631   2.408 -2.1213  0.9020  0.9037
10028SOL    HW231135   6.148   1.491   2.387  1.8925 -0.6476 -0.2109
10029SOL     OW31136   0.292   7.494   0.092  0.3577 -0.7752  0.1449
10029SOL    HW131137   0.265   7.501   0.184  0.2782  1.1831  0.0105
10029SOL    HW231138   0.239   7.559   0.046  1.8465 -0.2627 -0.9358
10030SOL     OW31139   3.580   7.095   5.977 -0.1062  0.4975 -0.2807
10030SOL    HW131140   3.487   7.086   5.961 -0.5766 -0.3433  2.3853
10030SOL    HW231141   3.617   7.010   5.953 -0.0323  0.7547 -1.1153
10031SOL     OW31142   6.802   3.281   2.971 -0.1074  0.2967 -0.6446
10031SOL    HW131143   6.789   3.305   2.880  1.5310  0.3487 -0.9033
10031SOL    HW231144   6.760   3.195   2.980 -3.7565  1.9728 -0.3613
10032SOL     OW31145   1.471   3.235   4.197  0.0887  0.0259 -0.2589
10032SOL    HW131146   1.510   3.322   4.211  1.4341 -0.4262 -0.9516
10032SOL    HW231147   1.527   3.176   4.248 -0.6822 -0.4725  0.0285
10033SOL     OW31148   2.665   3.320   0.261  0.5085  0.0842  0.4442
10033SOL    HW131149   2.685   3.410   0.285  0.4266 -0.3171  2.1449
10033SOL    HW231150   2.747   3.287   0.223  0.0510  1.3201 -1.7514
10034SOL     OW31151   7.662   2.744   5.568 -0.4699  0.2505 -0.3270
10034SOL    HW131152   7.695   2.774   5.484  0.0560 -0.5477 -0.4140
10034SOL    HW231153   7.587   2.801   5.586 -1.5627 -0.5854 -2.0721
10035SOL     OW31154   5.718   6.322   2.077 -0.3489  0.1058 -0.2913
10035SOL    HW131155   5.795   6.372   2.053  0.5222 -1.4032 -0.7939
10035SOL    HW231156   5.686   6.364   2.157  3.6268 -1.7097  2.6463
10036SOL     OW31157   3.687   7.150   7.398  0.1240 -0.1561 -0.2561
10036SOL    HW131158   3.698   7.101   7.317  2.8463  1.2856 -0.8690
10036SOL    HW231159   3.776   7.161   7.432 -0.8341  0.3524  2.2921
10037SOL     OW31160   6.764   4.783   5.752 -0.0260  0.0503 -0.2123
10037SOL    HW131161   6.767   4.877   5.769  0.9993  0.0271 -0.2197
10037SOL    HW231162   6.852   4.752   5.774 -0.7602 -1.1515  1.1594
10038SOL     OW31163   1.121   1.787   1.391 -0.2547  0.3656 -0.3284
10038SOL    HW131164   1.111   1.872   1.350  0.2578  0.6610  0.1461
10038SOL    HW231165   1.189   1.743   1.339  0.3417  0.7113  0.1521
10039SOL     OW31166   3.286   3.209   5.310 -0.1733 -1.0409  0.0863
10039SOL    HW131167   3.259   3.148   5.379 -3.3395  1.4891  1.3664
10039SOL    HW231168   3.355   3.262   5.351 -1.3136 -0.2305  1.0463
10040SOL     OW31169   6.873   6.886   2.862 -0.0112  0.2686 -0.5940
10040SOL    HW131170   6.829   6.808   2.829 -0.7724  0.7119 -0.6345
10040SOL    HW231171   6.815   6.920   2.930 -0.2556  1.4423 -1.3609
10041SOL     OW31172   7.350   3.047   6.341  0.3844  0.5195  0.3619
10041SOL    HW131173   7.318   3.106   6.272  1.1370  1.1573  0.5428
10041SOL    HW231174   7.284   3.053   6.410  0.1822  0.7273  0.1540
10042SOL     OW31175   5.404   6.949   7.986  0.5677  0.1842  0.3418
10042SOL    HW131176   5.477   6.973   8.044 -0.1873 -1.4679  2.0651
10042SOL    HW231177   5.365   6.872   8.026 -0.2633 -0.8344 -2.1966
10043SOL     OW31178   1.638   0.389   3.332 -0.1324  0.4511 -0.1809
10043SOL    HW131179   1.720   0.411   3.287  1.3228 -1.5220  1.3215
10043SOL    HW231180   1.641   0.440   3.413  0.2240 -0.4884  0.4155
10044SOL     OW31181   4.879   3.926   7.679  0.0152 -0.4417 -0.4149
10044SOL    HW131182   4.805   3.905   7.735  0.9111 -0.3524  0.8526
10044SOL    HW231183   4.904   4.015   7.706  0.4789 -0.4104 -0.9374
10045SOL     OW31184   5.572   1.453   6.519 -0.0554 -0.3563  0.1170
10045SOL    HW131185   5.526   1.527   6.479 -1.0829 -1.4754 -0.8768
10045SOL    HW231186   5.649   1.492   6.561 -0.5740  1.2632 -0.3557
10046SOL     OW31187   2.981   1.048   5.466  0.0561  0.3960  0.0863
10046SOL    HW131188   3.047   1.076   5.404  1.9455 -0.8255  1.4129
10046SOL    HW231189   2.959   0.958   5.440  0.9268 -0.1583  1.1611
10047SOL     OW31190   6.656   7.313   3.133 -0.1748  0.2687 -0.2407
10047SOL    HW131191   6.690   7.249   3.197 -0.2776  1.2055  0.7747
10047SOL    HW231192   6.590   7.362   3.181 -0.0106  1.2314 -0.9643
10048SOL     OW31193   5.384   8.078   0.672  0.1090 -0.2866 -0.8225
10048SOL    HW131194   5.297   8.064   0.711 -0.1255 -1.1112 -1.6161
10048SOL    HW231195   5.373   8.158   0.620  0.5937  1.1840  1.2326
10049SOL     OW31196   2.676   1.944   5.565 -0.3890  0.0263 -0.2217
10049SOL    HW131197   2.702   1.878   5.630 -1.9959  0.3269  0.7841
10049SOL    HW231198   2.735   1.929   5.491  0.3423 -1.4794  0.6063
10050SOL     OW31199   5.149   4.776   6.800 -0.5205 -0.3694 -0.5711
10050SOL    HW131200   5.092   4.853   6.801  0.4532  0.3737 -1.1441
10050SOL    HW231201   5.106   4.715   6.861 -0.6025  1.1251  0.9645
10051SOL     OW31202   3.725   0.919   4.381 -1.0869 -0.7338  0.4894
10051SOL    HW131203   3.671   0.879   4.312 -0.6630 -1.2786  0.4642
10051SOL    HW231204   3.815   0.895   4.357 -0.7532  0.7905  0.1117
10052SOL     OW31205   1.130   2.715   7.041  0.0846  0.1773 -0.1343
10052SOL    HW131206   1.100   2.720   7.132  0.4165 -1.4059  0.0883
10052SOL    HW231207   1.093   2.633   7.008  0.4945  0.4160 -1.2318
10053SOL     OW31208   0.951   3.507   5.559  0.0392 -0.4862  0.7471
10053SOL    HW131209   0.894   3.508   5.636 -1.0397  1.1179 -0.0148
10053SOL    HW231210   0.959   3.599   5.535  0.5161 -0.9450 -0.9355
10054SOL     OW31211   8.218   6.133   3.026  0.1667 -0.3316 -0.3032
10054SOL    HW131212   8.199   6.082   2.948 -1.4542 -1.1675  0.5790
10054SOL    HW231213   8.312   6.149   3.022  0.3153 -1.3683 -1.8115
10055SOL     OW31214   3.913   8.125   0.940 -0.1422 -0.1639 -0.4690
10055SOL    HW131215   3.945   8.039   0.910  0.3784 -0.3160  0.4659
10055SOL    HW231216   3.990   8.166   0.979 -0.2435  0.9890 -1.4350
10056SOL     OW31217   7.052   7.481   7.181 -0.1562 -0.1977  0.7390
10056SOL    HW131218   6.992   7.535   7.232 -0.1709  0.3895  0.1093
10056SOL    HW231219   7.002   7.455   7.104 -0.6221 -2.2854  1.6674
10057SOL     OW31220   8.228   1.893   5.883 -0.4576 -0.2881  0.0723
10057SOL    HW131221   8.234   1.818   5.825 -0.2841  1.1869 -1.9212
10057SOL    HW231222   8.190   1.858   5.964 -0.7033 -2.4180 -0.9002
10058SOL     OW31223   0.519   5.150   0.974 -0.0443  0.2040 -0.6301
10058SOL    HW131224   0.559   5.164   1.060 -2.5500 -0.6534  0.7894
10058SOL    HW231225   0.575   5.085   0.932 -0.1823 -1.3650  1.4631
10059SOL     OW31226   3.457   8.214   6.347  0.7807 -0.3631 -0.7271
10059SOL    HW131227   3.515   8.290   6.353 -1.0810  1.0381  1.2299
10059SOL    HW231228   3.479   8.160   6.423 -1.3632  0.9700  0.9599
10060SOL     OW31229   5.433   4.333   6.463  0.3880 -0.3406  0.2779
10060SOL    HW131230   5.480   4.405   6.505  1.1254 -0.7408  0.1475
10060SOL    HW231231   5.441   4.350   6.369  0.5217 -0.5645  0.2472
10061SOL     OW31232   2.043   5.829   2.120 -0.8399  0.3328 -0.0317
10061SOL    HW131233   1.976   5.891   2.148 -0.7596  0.3328  0.1627
10061SOL    HW231234   2.109   5.883   2.077 -0.6454  0.4155  0.3676
10062SOL     OW31235   4.491   0.244   4.609 -0.3387 -0.3645 -0.2457
10062SOL    HW131236   4.500   0.325   4.660 -2.1588  0.4822 -1.1505
10062SOL    HW231237   4.474   0.177   4.675 -1.4365  0.4951  0.4064
10063SOL     OW31238   5.402   7.925   6.448 -0.0088  0.3840 -0.2013
10063SOL    HW131239   5.340   7.997   6.451  1.3811  1.6229 -0.0215
10063SOL    HW231240   5.371   7.870   6.376 -0.4016  1.8465 -1.2033
10064SOL     OW31241   5.345   3.893   0.339  0.6672  0.5018  0.1637
10064SOL    HW131242   5.375   3.803   0.353 -0.5113  0.1482  0.4932
10064SOL    HW231243   5.268   3.902   0.395  0.6231  1.6465 -0.0501
10065SOL     OW31244   2.177   3.402   6.177 -0.2567 -0.4073 -0.0437
10065SOL    HW131245   2.270   3.419   6.161 -0.8879  3.8995 -0.2951
10065SOL    HW231246   2.143   3.376   6.092  0.4735 -0.7476 -0.2416
10066SOL     OW31247   4.483   2.412   5.913 -0.1359 -0.1867 -0.6997
10066SOL    HW131248   4.410   2.444   5.859 -1.4420  0.5705  1.3726
10066SOL    HW231249   4.553   2.393   5.850 -2.0053 -0.7017 -2.7672
10067SOL     OW31250   4.047   6.329   5.589 -0.6814  0.9972  0.1513
10067SOL    HW131251   4.082   6.382   5.517  0.3675 -0.3686 -0.3877
10067SOL    HW231252   4.113   6.337   5.658 -0.9620  1.0928  0.4125
10068SOL     OW31253   1.945   0.266   2.729  0.5427  0.0189 -0.6852
10068SOL    HW131254   1.991   0.187   2.758 -0.4671 -0.3651 -0.0708
10068SOL    HW231255   1.881   0.283   2.798  1.0573  1.6615 -0.5757
10069SOL     OW31256   6.463   6.550   0.583  0.0804  0.2407 -0.0285
10069SOL    HW131257   6.420   6.497   0.651 -0.8391 -1.7641 -2.0439
10069SOL    HW231258   6.549   6.510   0.572 -0.7126 -1.1406 -1.7417
10070SOL     OW31259   6.007   8.143   7.884 -0.5989  0.5342 -0.2047
10070SOL    HW131260   6.066   8.071   7.862  0.2473  0.8321  0.9941
10070SOL    HW231261   5.919   8.108   7.868 -0.1769 -0.5307 -0.2764
10071SOL     OW31262   4.259   0.088   6.906  0.7983  0.0731 -0.0930
10071SOL    HW131263   4.202   0.123   6.974  1.4015  0.2915  0.3003
10071SOL    HW231264   4.227   0.127   6.825 -0.6569 -1.0686 -0.1127
10072SOL     OW31265   5.769   6.609   3.545  0.0138  0.3855 -0.2602
10072SOL    HW131266   5.840   6.588   3.605 -1.3436 -0.2338  1.2084
10072SOL    HW231267   5.718   6.676   3.591  1.0639  2.8466 -2.4218
10073SOL     OW31268   1.943   4.708   2.595  0.1608  0.1572 -0.2670
10073SOL    HW131269   1.949   4.621   2.635  0.6191  0.6433  0.7457
10073SOL    HW231270   1.910   4.691   2.507  2.3146 -1.2905 -0.8863
10074SOL     OW31271   0.699   7.819   5.786  0.6039 -0.3536  0.1099
10074SOL    HW131272   0.756   7.879   5.835  0.4439  0.0340 -0.1742
10074SOL    HW231273   0.613   7.861   5.786 -0.2110 -1.8886  2.2582
10075SOL     OW31274   6.093   6.528   2.097  0.4113  0.0777  0.3432
10075SOL    HW131275   6.151   6.452   2.088 -0.8366 -0.7903 -0.8708
10075SOL    HW231276   6.012   6.501   2.054 -0.7911  1.3699  1.6983
10076SOL     OW31277   1.793   0.161   3.525  0.2123  0.2565 -0.4573
10076SOL    HW131278   1.832   0.195   3.605 -0.6784  0.6375 -0.1666
10076SOL    HW231279   1.808   0.230   3.460  0.7168  0.0552 -0.5561
10077SOL     OW31280   0.179   2.887   1.674  0.1116  0.6631  0.3629
10077SOL    HW131281   0.084   2.900   1.665  0.3491  2.2584 -0.1575
10077SOL    HW231282   0.196   2.899   1.768 -0.1831  0.3994  0.4535
10078SOL     OW31283   7.193   7.849   7.719  0.0918  0.1368 -0.1959
10078SOL    HW131284   7.270   7.882   7.673  0.1245  0.8320  0.3348
10078SOL    HW231285   7.122   7.907   7.691 -0.8906 -2.0719 -2.7644
10079SOL     OW31286   0.205   2.033   2.526  0.0413  0.0180 -0.1791
10079SOL    HW131287   0.202   1.974   2.450  0.2440  0.5022 -0.5761
10079SOL    HW231288   0.238   1.979   2.597  1.6702 -0.0067 -0.8948
10080SOL     OW31289   4.759   7.877   0.423 -0.4508  0.3731  0.3788
10080SOL    HW131290   4.773   7.956   0.370 -2.4859  0.0490 -0.7355
10080SOL    HW231291   4.789   7.806   0.366  0.1432  0.2341  0.8613
10081SOL     OW31292   0.258   3.035   0.288  0.1824  0.3405 -0.0670
10081SOL    HW131293   0.166   3.017   0.267  0.4610  0.9130 -1.9597
10081SOL    HW231294   0.255   3.072   0.377 -1.3933  0.2559 -0.0488
10082SOL     OW31295   7.954   1.755   7.346 -0.0481 -0.9869 -0.2184
10082SOL    HW131296   7.973   1.765   7.253  0.4803 -1.2777 -0.1468
10082SOL    HW231297   7.940   1.662   7.358 -2.7523 -0.6813 -0.4705
10083SOL     OW31298   3.058   8.064   6.469  0.5456 -0.1602  0.3325
10083SOL    HW131299   3.052   8.089   6.561  2.0310 -0.4825  0.5434
10083SOL    HW231300   2.985   8.004   6.455  0.3542 -0.1613  1.3235
10084SOL     OW31301   6.429   0.374   7.362  0.5231 -0.2684 -0.0297
10084SOL    HW131302   6.431   0.336   7.449  2.1081  0.4479  0.2809
10084SOL    HW231303   6.466   0.307   7.305 -0.1327 -0.5812 -0.0932
10085SOL     OW31304   6.805   2.667   3.970 -0.9204  0.7857 -0.0217
10085SOL    HW131305   6.712   2.681   3.990 -0.4788  1.2781  1.9987
10085SOL    HW231306   6.841   2.632   4.052  0.9223  1.8925 -0.3099
10086SOL     OW31307   2.034   5.574   2.646 -0.5715 -0.0111 -0.0876
10086SOL    HW131308   1.981   5.579   2.566  0.0424  2.2861 -0.4218
10086SOL    HW231309   1.991   5.634   2.707  0.5831  0.4715  0.2764
10087SOL     OW31310   7.809   6.832   2.866  0.1190  0.2236  0.3608
10087SOL    HW131311   7.763   6.892   2.807 -3.3445 -0.7342  1.8399
10087SOL    HW231312   7.820   6.752   2.813 -1.3339 -0.0207  0.3711
10088SOL     OW31313   1.238   2.521   1.576 -0.4501  0.1884 -0.0176
10088SOL    HW131314   1.194   2.562   1.651  0.6161  1.7603 -0.2193
10088SOL    HW231315   1.216   2.576   1.502 -1.2118 -1.1689 -0.8454
10089SOL     OW31316   3.760   3.125   7.710  0.2315  0.2289 -0.4546
10089SOL    HW131317   3.791   3.178   7.636 -1.2304 -1.5278 -2.4703
10089SOL    HW231318   3.709   3.055   7.669  1.7530 -2.5502  2.0445
10090SOL     OW31319   3.459   7.701   4.433 -0.1655  0.4730  0.3934
10090SOL    HW131320   3.467   7.633   4.500  2.2229  1.4633  1.2302
10090SOL    HW231321   3.549   7.732   4.420 -1.0216  2.6224 -0.8698
10091SOL     OW31322   1.254   4.681   4.284 -0.3887  0.1942 -0.1562
10091SOL    HW131323   1.324   4.746   4.275 -1.2849  1.2392  0.1192
10091SOL    HW231324   1.175   4.728   4.258 -1.2735 -0.3604  1.3871
10092SOL     OW31325   1.716   2.594   5.238  0.0001 -0.1563  0.6905
10092SOL    HW131326   1.703   2.506   5.273  1.7809 -0.3714  0.8764
10092SOL    HW231327   1.684   2.652   5.307 -1.7210 -0.6263  0.3372
10093SOL     OW31328   7.798   7.891   3.568 -0.1086  0.0622 -0.4176
10093SOL    HW131329   7.720   7.872   3.620 -0.0627 -0.3003 -0.4761
10093SOL    HW231330   7.797   7.824   3.499  0.2561  0.0529 -0.4139
10094SOL     OW31331   2.935   1.682   2.526 -0.7569 -0.2407  0.1424
10094SOL    HW131332   2.965   1.727   2.447  0.4356 -1.1769  0.0270
10094SOL    HW231333   2.840   1.687   2.522 -0.8106 -1.6731 -2.2271
10095SOL     OW31334   7.398   3.998   5.680  0.2805  0.1096 -0.3027
10095SOL    HW131335   7.346   3.927   5.719  0.1885  1.6236  2.6632
10095SOL    HW231336   7.340   4.038   5.615 -0.7197 -0.7639  0.0263
10096SOL     OW31337   7.981   3.110   1.526 -0.7272  0.5695 -0.1116
10096SOL    HW131338   8.028   3.145   1.451 -1.9075  0.0886 -1.1261
10096SOL    HW231339   7.999   3.171   1.597  0.2619  1.1487 -0.8396
10097SOL     OW31340   3.226   6.546   1.032 -0.1071 -0.1202  0.1386
10097SOL    HW131341   3.148   6.535   0.979 -0.8318 -1.3045  1.3991
10097SOL    HW231342   3.267   6.626   0.998 -0.9837 -0.3786 -1.6034
10098SOL     OW31343   4.015   6.576   6.962  0.2295  0.7822 -0.0085
10098SOL    HW131344   4.097   6.537   6.994  0.6370  0.5659 -1.2809
10098SOL    HW231345   3.955   6.501   6.956  0.0788  0.8614  0.4464
10099SOL     OW31346   6.069   6.242   5.192  0.8430  0.2619 -0.2176
10099SOL    HW131347   6.109   6.165   5.232  1.2732 -0.1732 -1.4434
10099SOL    HW231348   6.019   6.283   5.263  1.5176 -0.5190  0.7281
10100SOL     OW31349   4.965   8.251   8.135 -0.3048 -0.2115 -0.2308
10100SOL    HW131350   5.036   8.192   8.161 -0.4346 -0.5351 -0.6018
10100SOL    HW231351   4.904   8.249   8.208 -0.9624 -1.5818 -0.7884
10101SOL     OW31352   6.200   3.491   5.826  0.3511 -0.3994 -0.2972
10101SOL    HW131353   6.278   3.522   5.781  0.3782  1.4193  0.8847
10101SOL    HW231354   6.129   3.545   5.790  0.5209  1.9180  2.3979
10102SOL     OW31355   4.628   0.570   0.215  0.4437 -0.2741  0.2313
10102SOL    HW131356   4.610   0.577   0.121  0.9513 -1.2456  0.0465
10102SOL    HW231357   4.568   0.633   0.255 -1.2443 -1.2680 -0.5856
10103SOL     OW31358   2.811   0.477   2.238  0.1936  0.4269  0.1242
10103SOL    HW131359   2.775   0.389   2.230  2.4891 -0.5722 -0.1980
10103SOL    HW231360   2.876   0.483   2.168 -0.0359  2.4757  0.0154
10104SOL     OW31361   8.253   1.461   7.444  0.3685 -0.0078  0.0679
10104SOL    HW131362   8.274   1.373   7.475  0.3891 -0.4632 -1.1831
10104SOL    HW231363   8.299   1.520   7.504 -0.9633 -0.7723  1.9279
10105SOL     OW31364   7.251   0.223   1.043 -0.4085  0.1670 -0.0348
10105SOL    HW131365   7.283   0.236   0.954 -0.0523 -2.0393 -0.2965
10105SOL    HW231366   7.326   0.187   1.090 -0.0652  2.8741  1.6798
10106SOL     OW31367   6.929   7.861   5.169 -0.0999  0.5335 -0.1391
10106SOL    HW131368   6.972   7.793   5.221  0.6733  0.4387 -0.8681
10106SOL    HW231369   6.997   7.926   5.154 -0.1920  0.3897 -1.3076
10107SOL     OW31370   5.937   6.314   8.281  0.0547 -0.5223 -0.0781
10107SOL    HW131371   5.863   6.348   8.332  0.5812  1.7635 -0.7231
10107SOL    HW231372   5.919   6.221   8.273 -2.2972 -0.2006  0.5516
10108SOL     OW31373   5.132   4.593   7.878  0.3099 -0.6335 -0.5315
10108SOL    HW131374   5.140   4.563   7.968  0.9192  0.9874 -0.0250
10108SOL    HW231375   5.062   4.658   7.880  1.4028  0.5989 -0.8793
10109SOL     OW31376   4.422   5.838   2.594 -0.7756  0.7183  0.6097
10109SOL    HW131377   4.402   5.846   2.501  3.5921  1.0013 -0.5473
10109SOL    HW231378   4.419   5.929   2.626 -0.3765  0.8715  0.2269
10110SOL     OW31379   4.867   5.799   0.254  0.6108  0.2437 -0.1661
10110SOL    HW131380   4.944   5.857   0.251  0.6848  0.7583  4.2595
10110SOL    HW231381   4.903   5.714   0.279 -0.0614 -0.0849 -0.3024
10111SOL     OW31382   5.023   6.849   5.595  0.2793 -0.1345  0.2016
10111SOL    HW131383   4.952   6.852   5.659  0.6410 -0.6542  0.6327
10111SOL    HW231384   5.089   6.793   5.635  0.8052  0.0971 -0.3290
10112SOL     OW31385   2.909   0.375   5.839 -0.3574  0.1908  0.1402
10112SOL    HW131386   2.963   0.366   5.760 -0.7106  0.6482 -0.1609
10112SOL    HW231387   2.883   0.285   5.860 -0.3198  0.0696 -0.3104
10113SOL     OW31388   0.934   3.891   3.434  0.0239 -0.2268 -0.0202
10113SOL    HW131389   0.873   3.870   3.504 -1.0137  0.8787 -0.5605
10113SOL    HW231390   0.995   3.954   3.474 -0.4757  0.2889 -0.0602
10114SOL     OW31391   2.945   7.266   5.443  0.2636 -0.1263 -0.6167
10114SOL    HW131392   2.992   7.184   5.429 -0.8212 -0.7721 -0.5608
10114SOL    HW231393   2.892   7.278   5.364 -2.2356 -1.3094  0.7789
10115SOL     OW31394   3.286   3.058   1.513 -0.0757 -0.1295 -0.6331
10115SOL    HW131395   3.237   3.016   1.442  1.9323 -1.0950 -1.5673
10115SOL    HW231396   3.375   3.023   1.503  1.2614  2.8145 -0.1630
10116SOL     OW31397   7.787   0.494   2.029  0.7333  0.1414 -0.2030
10116SOL    HW131398   7.718   0.428   2.027  1.3980 -0.5832  0.2818
10116SOL    HW231399   7.848   0.464   2.097  0.9438  1.3641  0.1813
10117SOL     OW31400   4.685   0.334   3.029  0.6549 -0.2327  0.4172
10117SOL    HW131401   4.757   0.272   3.021 -0.2534 -1.2498 -0.2147
10117SOL    HW231402   4.651   0.343   2.940  0.3047  0.6109  0.6266
10118SOL     OW31403   1.613   2.778   5.443 -0.0440 -0.4047  0.3291
10118SOL    HW131404   1.697   2.812   5.415  0.7958 -0.2532  2.7893
10118SOL    HW231405   1.572   2.850   5.491  0.2695 -1.6471  2.6319
10119SOL     OW31406   7.748   7.248   0.250  0.0055  0.3366 -0.9672
10119SOL    HW131407   7.767   7.204   0.167  0.9229 -1.4141  0.1134
10119SOL    HW231408   7.701   7.183   0.302  0.7159  0.8715  0.4085
10120SOL     OW31409   2.055   0.208   0.194 -0.3703 -0.3163  0.1082
10120SOL    HW131410   2.034   0.135   0.134 -1.3509  0.3892 -0.4413
10120SOL    HW231411   2.086   0.165   0.273  0.9246 -1.2896 -0.8707
10121SOL     OW31412   7.964   7.215   3.383  0.2595 -0.0020 -0.2919
10121SOL    HW131413   8.011   7.141   3.423  0.3014 -0.0926 -0.5107
10121SOL    HW231414   8.015   7.292   3.409  0.9172 -0.1525 -1.0803
10122SOL     OW31415   3.878   4.728   5.767  0.3262  0.2115 -0.2841
10122SOL    HW131416   3.863   4.657   5.831 -2.5673  1.5707  0.7363
10122SOL    HW231417   3.813   4.711   5.698  0.3627  1.2503 -0.5768
10123SOL     OW31418   2.524   3.497   6.304  0.0660 -0.5442  0.1897
10123SOL    HW131419   2.487   3.510   6.392 -0.3126 -1.3700  0.1561
10123SOL    HW231420   2.603   3.551   6.304 -0.3645  0.1081  0.7564
10124SOL     OW31421   7.161   1.869   3.651 -0.1021  0.0486 -0.8003
10124SOL    HW131422   7.116   1.947   3.683  0.1485 -0.2561  0.3200
10124SOL    HW231423   7.090   1.813   3.619 -0.5098 -0.2778  0.6307
10125SOL     OW31424   4.884   3.938   6.400  0.0482  0.3844  0.2084
10125SOL    HW131425   4.935   4.003   6.351  0.5498  0.7605  1.2058
10125SOL    HW231426   4.936   3.921   6.478  0.2746 -1.7449 -0.3484
10126SOL     OW31427   2.217   4.561   2.718 -0.0069 -0.2808 -0.6571
10126SOL    HW131428   2.244   4.487   2.663  0.4623  1.0784 -2.3751
10126SOL    HW231429   2.235   4.638   2.663 -1.1537  1.0587  0.7812
10127SOL     OW31430   7.001   3.716   0.391  0.4476  0.6230  0.3990
10127SOL    HW131431   6.991   3.812   0.388 -0.4200  0.5300 -0.1808
10127SOL    HW231432   7.012   3.691   0.299 -1.3185  0.0030  0.3059
10128SOL     OW31433   2.126   6.093   1.756  0.5233  0.4113  0.1959
10128SOL    HW131434   2.188   6.120   1.688 -0.0790 -1.3485 -1.1243
10128SOL    HW231435   2.045   6.076   1.710 -0.1934  0.0916  1.5179
10129SOL     OW31436   6.855   0.380   3.131 -0.0771  0.0942 -0.0267
10129SOL    HW131437   6.910   0.439   3.182  0.8321 -0.1193 -0.7402
10129SOL    HW231438   6.916   0.328   3.079 -0.9081 -0.7972 -0.1530
10130SOL     OW31439   7.130   6.172   0.740  0.0098  0.0191 -0.1712
10130SOL    HW131440   7.070   6.170   0.814 -3.4979  1.7672 -2.6444
10130SOL    HW231441   7.152   6.265   0.729  0.2701 -0.1614 -1.3987
10131SOL     OW31442   5.935   3.872   2.095 -0.6279  0.2689  0.0635
10131SOL    HW131443   5.891   3.953   2.122 -0.5188  0.2198  0.3934
10131SOL    HW231444   5.982   3.843   2.174  1.7828  1.4733 -0.8265
10132SOL     OW31445   4.506   7.346   5.053 -0.2602 -0.3444 -0.0980
10132SOL    HW131446   4.559   7.361   5.131 -1.4253  0.4231  0.5733
10132SOL    HW231447   4.519   7.425   5.000 -1.2906  0.1797  0.4114
10133SOL     OW31448   2.022   1.903   5.049 -0.1175 -0.3078 -0.3450
10133SOL    HW131449   2.026   1.992   5.014 -1.0596 -0.8223 -1.8572
10133SOL    HW231450   1.931   1.876   5.034 -0.6760 -0.5072  2.7907
10134SOL     OW31451   0.483   7.960   2.487 -0.3777 -0.0155  0.0011
10134SOL    HW131452   0.449   7.946   2.399  0.9994  0.7959 -0.6845
10134SOL    HW231453   0.437   8.038   2.519  0.7821  1.0928 -0.9331
10135SOL     OW31454   6.856   6.386   0.149 -0.0818  0.3498 -0.2102
10135SOL    HW131455   6.797   6.314   0.174  0.4498  0.4997  1.5641
10135SOL    HW231456   6.855   6.384   0.053 -2.6070  0.0541 -0.2649
10136SOL     OW31457   3.886   5.221   2.295 -0.2701  0.4663  0.4892
10136SOL    HW131458   3.832   5.247   2.370  0.1303  1.2518  0.5249
10136SOL    HW231459   3.944   5.153   2.330 -0.5077  0.3889  0.7330
10137SOL     OW31460   6.226   4.332   5.253  0.0488 -0.0742 -0.8630
10137SOL    HW131461   6.261   4.263   5.196  0.6148 -0.7765  0.3049
10137SOL    HW231462   6.303   4.383   5.279 -0.2036  0.2199 -0.6853
10138SOL     OW31463   5.539   2.157   5.621  0.3589 -0.0124 -0.1543
10138SOL    HW131464   5.586   2.229   5.579  0.2535  0.1345 -0.0226
10138SOL    HW231465   5.604   2.117   5.680  0.2880  0.2618  0.1135
10139SOL     OW31466   1.955   1.369   2.716  0.4179  0.4955  0.7868
10139SOL    HW131467   1.868   1.404   2.698  0.4684  0.5511  0.6523
10139SOL    HW231468   2.013   1.444   2.708  0.6802  0.1762 -0.6549
10140SOL     OW31469   3.459   7.456   0.976  0.3179 -0.5513  0.5083
10140SOL    HW131470   3.502   7.541   0.973  0.4165 -0.5674  1.2813
10140SOL    HW231471   3.426   7.442   0.887 -0.1678  0.5342  0.5004
10141SOL     OW31472   0.201   1.875   3.630  0.3751 -0.3733 -0.2053
10141SOL    HW131473   0.271   1.937   3.650 -1.0060  1.3823 -0.5549
10141SOL    HW231474   0.126   1.930   3.605 -1.7587 -2.0360  1.9766
10142SOL     OW31475   5.542   0.607   7.759 -0.2259 -0.0265 -0.1692
10142SOL    HW131476   5.607   0.677   7.766 -1.2456  0.9651 -0.4060
10142SOL    HW231477   5.591   0.533   7.721  0.5105  1.0669 -1.4445
10143SOL     OW31478   6.451   2.733   2.840 -0.1106  0.2093 -0.1531
10143SOL    HW131479   6.490   2.818   2.822 -0.3519  0.1425 -1.0432
10143SOL    HW231480   6.521   2.670   2.821  0.3469  0.2399  1.3527
10144SOL     OW31481   1.704   1.259   3.357 -0.2943  0.3632 -0.1325
10144SOL    HW131482   1.656   1.312   3.421 -0.3148 -0.0401  0.1959
10144SOL    HW231483   1.700   1.309   3.276 -0.0684  1.0014  0.2354
10145SOL     OW31484   4.161   5.121   1.911  0.1476  0.3044 -0.3098
10145SOL    HW131485   4.073   5.157   1.902  0.4827  1.0800 -0.6779
10145SOL    HW231486   4.195   5.162   1.991  0.5013  0.7547 -0.6831
10146SOL     OW31487   3.038   0.131   8.119  0.0862  0.0236 -0.1822
10146SOL    HW131488   3.133   0.119   8.120 -0.0054 -0.9084  1.5041
10146SOL    HW231489   3.021   0.189   8.045  1.9340 -0.0516 -0.6972
10147SOL     OW31490   5.577   6.599   6.369 -0.0940  0.0776 -0.1477
10147SOL    HW131491   5.592   6.692   6.354 -0.3320  0.0490 -0.5590
10147SOL    HW231492   5.611   6.555   6.291  0.4867 -0.2291  0.2590
10148SOL     OW31493   5.816   0.153   4.809  0.1745  0.1224 -0.1058
10148SOL    HW131494   5.762   0.116   4.878  2.2627  1.0463  2.1581
10148SOL    HW231495   5.769   0.231   4.781  0.0502  0.6611  1.4978
10149SOL     OW31496   6.203   2.672   1.842 -0.0359 -0.3633 -0.2300
10149SOL    HW131497   6.298   2.659   1.838 -0.0434 -0.3790 -0.3542
10149SOL    HW231498   6.192   2.751   1.894  0.1303  0.7919 -1.8678
10150SOL     OW31499   5.165   1.894   0.790 -0.5458  0.2409 -0.1558
10150SOL    HW131500   5.166   1.875   0.884  2.1680 -0.8157 -0.3086
10150SOL    HW231501   5.161   1.808   0.748 -0.4847  0.6414 -1.0064
10151SOL     OW31502   8.157   6.035   4.022  0.3082  0.3257  0.0794
10151SOL    HW131503   8.221   6.072   4.082  2.7503  0.3803 -2.3876
10151SOL    HW231504   8.137   6.105   3.961  0.4828 -0.6608 -1.1530
10152SOL     OW31505   7.127   6.375   2.860 -0.1322 -0.4508 -0.1366
10152SOL    HW131506   7.112   6.454   2.912 -0.2146 -0.7494  0.2956
10152SOL    HW231507   7.042   6.356   2.821 -0.3953 -0.9510  0.6468
10153SOL     OW31508   5.019   7.803   3.969  0.2473 -0.2737 -0.2719
10153SOL    HW131509   4.978   7.797   3.882  1.8926  0.8049 -1.1790
10153SOL    HW231510   4.994   7.890   4.001 -0.5014 -0.7359  0.4522
10154SOL     OW31511   2.849   3.424   2.368 -0.3143 -0.0946 -0.1619
10154SOL    HW131512   2.912   3.401   2.436  0.2338 -1.1155 -0.9914
10154SOL    HW231513   2.903   3.451   2.294 -0.7971 -1.6547 -1.1338
10155SOL     OW31514   6.140   8.162   0.665 -0.2674 -0.4264  0.0967
10155SOL    HW131515   6.048   8.148   0.684 -0.2997 -1.2322 -0.5950
10155SOL    HW231516   6.158   8.105   0.591  0.4464  0.7715 -0.6810
10156SOL     OW31517   1.315   3.494   0.770 -0.2197  0.2794  0.7595
10156SOL    HW131518   1.296   3.578   0.811 -1.8000 -0.3882  1.4666
10156SOL    HW231519   1.246   3.435   0.801  2.0491 -1.8979  2.0606
10157SOL     OW31520   2.382   4.125   7.072  0.7770  0.7477 -0.1392
10157SOL    HW131521   2.465   4.172   7.082  0.7540  0.5523  1.0706
10157SOL    HW231522   2.403   4.035   7.097  0.0521  0.8414  0.8404
10158SOL     OW31523   7.001   4.623   2.330 -0.1603  0.3477 -0.2934
10158SOL    HW131524   6.991   4.575   2.412 -0.5647  1.0352  0.0792
10158SOL    HW231525   7.092   4.653   2.330 -0.5003  1.4647  0.5658
10159SOL     OW31526   6.097   5.370   1.584  0.0401 -0.5534  0.4413
10159SOL    HW131527   6.045   5.289   1.584 -0.4502 -0.2885 -1.6605
10159SOL    HW231528   6.046   5.432   1.532  1.0392  0.7048  0.8968
10160SOL     OW31529   8.053   6.863   1.806 -0.4390 -0.5131  0.0157
10160SOL    HW131530   8.034   6.793   1.744 -1.4926 -0.7340  0.5655
10160SOL    HW231531   8.079   6.817   1.886 -1.7104 -0.3090  0.5644
10161SOL     OW31532   5.875   4.412   1.040 -0.1079  0.2662 -0.0045
10161SOL    HW131533   5.814   4.479   1.009 -0.7546  0.2806  1.2391
10161SOL    HW231534   5.944   4.410   0.974  0.0617  2.3470  0.0294
10162SOL     OW31535   7.883   2.170   7.768  0.1639 -0.0999 -0.4368
10162SOL    HW131536   7.922   2.237   7.824 -0.7789 -1.1082  1.5538
10162SOL    HW231537   7.957   2.124   7.730  0.8412  0.7137 -0.1414
10163SOL     OW31538   5.985   3.867   1.211  0.4157  0.0364  0.3308
10163SOL    HW131539   6.051   3.811   1.251 -0.1719 -2.2058 -1.5875
10163SOL    HW231540   5.906   3.854   1.263  0.6928  0.3857  0.8473
10164SOL     OW31541   4.201   7.988   7.442  0.7668 -0.0897  0.0113
10164SOL    HW131542   4.198   7.904   7.396 -0.4929 -0.4543  0.7073
10164SOL    HW231543   4.150   8.048   7.387  0.1908 -0.2461  0.3594
10165SOL     OW31544   7.470   4.740   0.297 -0.2515 -0.0019 -0.4723
10165SOL    HW131545   7.560   4.710   0.285 -0.7869 -2.3057  0.6180
10165SOL    HW231546   7.429   4.725   0.212 -0.3148 -1.8859 -0.1600
10166SOL     OW31547   4.802   1.727   0.152  0.0693  0.3162 -0.4608
10166SOL    HW131548   4.850   1.648   0.128 -0.0995  0.6603 -1.9966
10166SOL    HW231549   4.712   1.696   0.167  0.1672  0.1025 -0.3091
10167SOL     OW31550   4.628   1.834   1.529 -0.4525  0.1978  0.5782
10167SOL    HW131551   4.705   1.867   1.575  0.2185  2.0917 -1.6925
10167SOL    HW231552   4.572   1.911   1.517 -1.4633 -0.6146 -0.1564
10168SOL     OW31553   6.244   1.823   6.553 -0.3223 -0.0368  0.1765
10168SOL    HW131554   6.195   1.839   6.634  0.4405  1.1114  0.4310
10168SOL    HW231555   6.333   1.850   6.573 -0.2921  1.1027 -1.2942
10169SOL     OW31556   3.204   0.989   0.485  0.5283 -0.3591  0.6702
10169SOL    HW131557   3.153   0.930   0.540 -0.1165 -0.4611 -0.0191
10169SOL    HW231558   3.239   1.055   0.546 -1.8810  0.7432  0.9536
10170SOL     OW31559   6.530   0.561   5.080 -0.1249  0.1184 -0.2546
10170SOL    HW131560   6.478   0.640   5.092 -1.0849 -0.7368  1.5998
10170SOL    HW231561   6.492   0.518   5.004  0.2511  1.2992 -1.1258
10171SOL     OW31562   7.453   7.718   7.347  0.9746 -0.0596  0.2477
10171SOL    HW131563   7.424   7.628   7.337  1.2593 -0.0995 -0.2160
10171SOL    HW231564   7.545   7.712   7.373  0.8862  0.0906  0.6080
10172SOL     OW31565   4.191   7.799   5.061 -0.1755 -0.0453  0.4910
10172SOL    HW131566   4.262   7.746   5.024 -1.1494 -0.6902 -0.5300
10172SOL    HW231567   4.164   7.856   4.989 -1.1266 -0.2861  0.6430
10173SOL     OW31568   0.404   5.204   1.265  0.3353 -0.1842 -0.5976
10173SOL    HW131569   0.366   5.117   1.266  0.1594 -0.1750 -2.7615
10173SOL    HW231570   0.497   5.190   1.246  0.7663  0.0240  1.1141
10174SOL     OW31571   7.181   1.822   0.365  0.0806 -0.0535 -0.2803
10174SOL    HW131572   7.115   1.753   0.368  0.0016  0.0455  0.8588
10174SOL    HW231573   7.132   1.903   0.354  0.0519 -0.0410 -0.0714
10175SOL     OW31574   0.495   8.088   6.031 -0.0214 -0.0162 -0.4658
10175SOL    HW131575   0.405   8.115   6.047 -0.3430 -0.2196 -1.8227
10175SOL    HW231576   0.489   8.024   5.960  1.1055 -0.7181  0.0347
10176SOL     OW31577   0.245   3.785   2.999  0.0028  0.4622  0.0842
10176SOL    HW131578   0.295   3.722   3.051 -0.4701  1.7295  2.2251
10176SOL    HW231579   0.196   3.835   3.064 -0.3531  2.4100 -1.5849
10177SOL     OW31580   2.147   1.497   6.049 -0.0179  0.2185 -0.7729
10177SOL    HW131581   2.078   1.501   5.982 -0.1023  0.8992 -0.6453
10177SOL    HW231582   2.179   1.587   6.057  0.4241  0.0291 -0.3430
10178SOL     OW31583   3.711   6.846   4.284 -0.5787 -0.0718  0.0668
10178SOL    HW131584   3.702   6.857   4.379  0.9064 -0.4721  0.2718
10178SOL    HW231585   3.753   6.761   4.273 -2.2775 -0.8286 -1.0592
10179SOL     OW31586   6.342   7.566   3.928  0.4621 -0.0026 -0.3864
10179SOL    HW131587   6.282   7.498   3.898  0.5682  0.5206 -1.8922
10179SOL    HW231588   6.315   7.645   3.880  0.4590  0.9880  1.1730
10180SOL     OW31589   3.048   3.456   5.563  0.3946 -0.5626  0.3377
10180SOL    HW131590   3.129   3.490   5.523 -1.3929  3.0384 -0.6108
10180SOL    HW231591   3.017   3.390   5.501 -0.9463  3.0673 -3.3083
10181SOL     OW31592   2.103   7.685   4.904 -0.1338 -0.0903  0.5554
10181SOL    HW131593   2.084   7.693   4.997 -0.3884 -0.0777  0.5033
10181SOL    HW231594   2.139   7.770   4.880 -0.8730  0.2052  0.4600
10182SOL     OW31595   2.469   0.020   5.869  0.0288  0.4408  0.1178
10182SOL    HW131596   2.377   0.008   5.894 -0.5882  2.2358 -1.0728
10182SOL    HW231597   2.518  -0.036   5.929 -1.8678 -0.9200  0.4843
10183SOL     OW31598   5.119   6.499   1.459  0.2894  0.3469 -0.4244
10183SOL    HW131599   5.118   6.513   1.364  1.6608  0.3855 -0.4489
10183SOL    HW231600   5.133   6.405   1.469 -0.3787  0.2632 -0.2558
10184SOL     OW31601   0.970   7.996   1.618 -0.3748  0.3787  0.2854
10184SOL    HW131602   0.884   8.023   1.651 -1.1325 -1.1918 -0.2643
10184SOL    HW231603   1.031   8.016   1.689 -1.1692  1.6152  0.6438
10185SOL     OW31604   5.169   3.444   0.479 -0.3848  0.7164 -0.2771
10185SOL    HW131605   5.076   3.424   0.491 -0.4018  0.0994 -1.3176
10185SOL    HW231606   5.183   3.434   0.385  1.4760 -2.5942  0.1908
10186SOL     OW31607   3.251   4.210   3.081  0.1150 -0.3133 -0.6782
10186SOL    HW131608   3.293   4.295   3.075 -0.3679 -0.1069 -1.2143
10186SOL    HW231609   3.161   4.225   3.052 -0.4373 -0.6797  0.7443
10187SOL     OW31610   5.711   5.914   3.526 -0.2399 -0.1377 -0.3841
10187SOL    HW131611   5.771   5.928   3.599  1.2312 -1.0763 -1.3655
10187SOL    HW231612   5.724   5.822   3.502 -2.3232 -0.4755 -0.4394
10188SOL     OW31613   7.392   4.583   1.761 -0.2750 -0.3021  0.0398
10188SOL    HW131614   7.329   4.630   1.708 -0.8886 -1.1002  0.0495
10188SOL    HW231615   7.458   4.552   1.699 -1.3140 -1.7675 -0.3791
10189SOL     OW31616   3.867   7.433   0.557  0.6147  0.0589 -0.2439
10189SOL    HW131617   3.910   7.364   0.506 -3.1627 -2.4212 -0.5218
10189SOL    HW231618   3.797   7.464   0.499  0.1435  1.7363  1.1556
10190SOL     OW31619   2.855   2.481   2.465 -0.3836 -0.5440  0.8248
10190SOL    HW131620   2.797   2.474   2.541 -1.6119  0.4789  0.0141
10190SOL    HW231621   2.848   2.572   2.437  0.2353 -0.8486 -0.3848
10191SOL     OW31622   1.948   7.312   6.315 -0.3552  0.6077 -0.3813
10191SOL    HW131623   1.876   7.258   6.281 -0.1199  0.4397 -0.6206
10191SOL    HW231624   1.912   7.401   6.317 -0.4762  0.5720 -0.7768
10192SOL     OW31625   1.387   5.839   3.986 -0.2302  0.2503 -0.0416
10192SOL    HW131626   1.379   5.888   4.067 -0.0156 -0.0931  0.1900
10192SOL    HW231627   1.416   5.904   3.921  0.5090  0.3338  0.3651
10193SOL     OW31628   4.878   4.450   4.323 -0.3615  0.2195 -0.1194
10193SOL    HW131629   4.833   4.410   4.397 -0.7031 -2.4122 -1.6321
10193SOL    HW231630   4.834   4.414   4.246  2.0428  0.3272 -1.6424
10194SOL     OW31631   8.038   5.393   6.525  0.0780 -0.5558 -0.2351
10194SOL    HW131632   7.950   5.401   6.488  0.2737  0.9223 -0.4245
10194SOL    HW231633   8.096   5.393   6.449  0.2457 -2.2550 -0.1614
10195SOL     OW31634   2.773   0.620   2.480 -0.1698 -0.2787  0.1925
10195SOL    HW131635   2.769   0.564   2.402 -1.0609 -1.3290  0.9582
10195SOL    HW231636   2.862   0.657   2.478  0.7084 -2.2260 -0.0207
10196SOL     OW31637   3.480   5.866   2.145 -0.5700 -0.2723 -0.1741
10196SOL    HW131638   3.425   5.906   2.213  0.6291  0.6092  0.3168
10196SOL    HW231639   3.517   5.940   2.097  0.6036 -0.8178 -0.1504
10197SOL     OW31640   3.656   8.084   2.541  0.1211 -0.3155  1.2209
10197SOL    HW131641   3.697   8.160   2.499  0.1908 -0.3547  1.2165
10197SOL    HW231642   3.605   8.121   2.613 -1.4650 -0.0713  0.0193
10198SOL     OW31643   3.757   7.507   1.268  0.4613  0.0057  0.2270
10198SOL    HW131644   3.738   7.595   1.302 -0.9867  0.1255 -0.8059
10198SOL    HW231645   3.852   7.499   1.275  0.4404  0.7487  2.4770
10199SOL     OW31646   2.105   6.799   5.037  0.4252  0.3775 -0.3761
10199SOL    HW131647   2.042   6.737   5.075  0.6219  0.6731  0.4376
10199SOL    HW231648   2.119   6.864   5.105  1.3297  0.5270 -0.6929
10200SOL     OW31649   1.023   2.817   2.763 -0.3170 -0.1570  0.4219
10200SOL    HW131650   1.073   2.890   2.727 -0.8270 -0.1397 -0.2692
10200SOL    HW231651   0.967   2.857   2.830  0.7705 -0.2196  1.4133
10201SOL     OW31652   0.149   2.741   6.400 -0.1685  0.0109 -0.0241
10201SOL    HW131653   0.103   2.823   6.419  0.5515  0.1201  1.3776
10201SOL    HW231654   0.102   2.675   6.451 -0.0065 -0.2375 -0.1975
10202SOL     OW31655   4.292   7.130   6.410 -0.1027 -0.3893 -0.4795
10202SOL    HW131656   4.304   7.164   6.499  0.0305  0.3273 -0.7651
10202SOL    HW231657   4.246   7.047   6.422 -0.6514  0.0034  0.2222
10203SOL     OW31658   7.399   0.493   4.404  0.2591  0.1985 -0.1297
10203SOL    HW131659   7.329   0.469   4.464  0.5867  0.5227  0.3959
10203SOL    HW231660   7.359   0.490   4.317 -0.4493  0.5528  0.1775
10204SOL     OW31661   1.820   3.393   4.802  0.1880 -0.1504 -0.1223
10204SOL    HW131662   1.772   3.351   4.731 -0.3438  0.5537 -0.1808
10204SOL    HW231663   1.789   3.349   4.881 -1.6219  1.2321 -0.0091
10205SOL     OW31664   3.125   4.187   2.060 -0.1282 -0.2609 -0.6391
10205SOL    HW131665   3.126   4.124   2.132 -1.9489 -0.9069 -1.1223
10205SOL    HW231666   3.200   4.243   2.076 -0.5892 -0.2580  1.9032
10206SOL     OW31667   1.748   3.200   5.587 -0.5190 -0.0809 -0.1761
10206SOL    HW131668   1.681   3.188   5.653 -0.2739 -0.9530 -0.0814
10206SOL    HW231669   1.701   3.230   5.509 -0.7321  1.6708  0.5748
10207SOL     OW31670   1.235   2.819   2.340 -0.1597 -0.6151  0.1448
10207SOL    HW131671   1.300   2.854   2.401 -1.5118 -0.3707  1.5290
10207SOL    HW231672   1.173   2.891   2.327 -0.2426 -0.8775 -1.0470
10208SOL     OW31673   5.359   2.636   0.518 -0.7002  0.2090 -0.5562
10208SOL    HW131674   5.407   2.609   0.597  0.2869 -0.2184 -1.2789
10208SOL    HW231675   5.357   2.732   0.523 -1.9448  0.1418  0.7154
10209SOL     OW31676   1.009   5.735   5.189 -0.8201 -0.3254 -0.3273
10209SOL    HW131677   0.939   5.678   5.157 -0.1166 -1.1085 -0.5195
10209SOL    HW231678   1.070   5.675   5.233 -0.2842  0.3459 -0.1435
10210SOL     OW31679   3.615   2.254   1.486  0.1808  0.3204  0.0106
10210SOL    HW131680   3.629   2.251   1.391  1.2534  0.4984  0.1480
10210SOL    HW231681   3.525   2.285   1.496 -0.5934 -1.4117 -0.9617
10211SOL     OW31682   7.872   0.040   3.272 -0.3206  0.1916 -0.2667
10211SOL    HW131683   7.792   0.048   3.220 -1.8152  0.1766  1.9413
10211SOL    HW231684   7.862   0.104   3.342  1.0787 -0.6116  0.7238
10212SOL     OW31685   2.544   1.533   6.839  0.1972  0.2079  0.6812
10212SOL    HW131686   2.622   1.488   6.870  1.0068  0.0083 -1.4689
10212SOL    HW231687   2.498   1.468   6.787 -0.3196  0.9179  0.2324
10213SOL     OW31688   0.422   8.200   0.460  0.2855  0.4390 -0.3281
10213SOL    HW131689   0.375   8.274   0.422 -0.3847  1.2469  1.9213
10213SOL    HW231690   0.504   8.195   0.410  0.1176  2.3569 -0.8655
10214SOL     OW31691   1.250   5.521   0.233  0.2609 -0.0241  0.6472
10214SOL    HW131692   1.209   5.520   0.147 -2.2159 -1.2509  1.7320
10214SOL    HW231693   1.274   5.430   0.250  0.4684  0.1512  1.3480
10215SOL     OW31694   0.089   0.996   3.596  0.0693  0.3559  0.6615
10215SOL    HW131695   0.019   0.973   3.536  0.8310  1.0735 -0.5610
10215SOL    HW231696   0.125   0.912   3.626 -0.3493 -0.0104  0.1376
10216SOL     OW31697   6.864   3.489   0.453 -0.2417 -0.3528 -0.0256
10216SOL    HW131698   6.915   3.569   0.437  0.0950 -0.7849 -1.2918
10216SOL    HW231699   6.880   3.468   0.545 -0.9248  1.4213  0.5378
10217SOL     OW31700   6.543   2.046   4.652  0.8328  0.0799 -0.1859
10217SOL    HW131701   6.618   1.990   4.672 -0.1537 -0.3267  2.9386
10217SOL    HW231702   6.469   1.986   4.643  0.1850  0.6883  0.8332
10218SOL     OW31703   6.293   3.596   1.630  0.6973 -0.0780  0.2730
10218SOL    HW131704   6.248   3.515   1.607  0.0062 -0.0827  1.5080
10218SOL    HW231705   6.225   3.664   1.622  0.8560  0.1380  0.7205
10219SOL     OW31706   6.898   3.184   3.208 -0.3661 -1.0525 -0.2566
10219SOL    HW131707   6.857   3.219   3.129  0.3000  0.2665 -0.0474
10219SOL    HW231708   6.986   3.224   3.209 -0.0536 -1.7364  0.6806
10220SOL     OW31709   4.973   1.144   4.918 -0.0379  0.3516 -0.0993
10220SOL    HW131710   4.888   1.180   4.891 -2.4955 -2.2605  3.2111
10220SOL    HW231711   4.988   1.071   4.859  0.0796  0.9569 -0.8393
10221SOL     OW31712   1.235   6.233   0.400 -0.3206 -0.2617 -0.0912
10221SOL    HW131713   1.265   6.144   0.379 -3.2481 -0.9410 -2.0310
10221SOL    HW231714   1.275   6.252   0.485  0.2200 -3.5341  0.5345
10222SOL     OW31715   0.686   1.682   5.814  0.2263 -0.1310 -0.0614
10222SOL    HW131716   0.720   1.593   5.827  0.3136 -0.0774  0.0781
10222SOL    HW231717   0.756   1.727   5.767  1.1345  0.5085  1.8113
10223SOL     OW31718   5.036   2.382   6.544 -0.0825  0.9902 -0.0872
10223SOL    HW131719   5.115   2.401   6.493 -0.9227 -0.3896 -2.0189
10223SOL    HW231720   5.009   2.467   6.579  1.6452  1.6475 -0.2727
10224SOL     OW31721   0.738   7.205   6.213 -0.8313  0.2065 -0.0752
10224SOL    HW131722   0.742   7.301   6.209 -2.3721  0.2910 -0.0918
10224SOL    HW231723   0.803   7.182   6.280  1.7491  1.0128 -2.1284
10225SOL     OW31724   8.186   7.850   0.211 -0.8368  0.3524  0.0044
10225SOL    HW131725   8.120   7.854   0.280 -0.5143  0.2605  0.3274
10225SOL    HW231726   8.145   7.798   0.141 -0.2500 -1.8514  1.1970
10226SOL     OW31727   4.732   8.132   2.484 -0.0006  0.5567  0.5187
10226SOL    HW131728   4.685   8.076   2.546  0.5167 -1.5701 -0.8962
10226SOL    HW231729   4.663   8.187   2.444 -0.6325  0.4670  1.4602
10227SOL     OW31730   3.997   3.799   5.248 -0.0866  0.0555  0.4944
10227SOL    HW131731   4.080   3.755   5.225  0.2269  0.1221  1.4556
10227SOL    HW231732   4.017   3.847   5.328 -1.0504  0.1217  0.7057
10228SOL     OW31733   0.030   2.779   2.525 -0.3885 -0.0676  0.8882
10228SOL    HW131734  -0.024   2.719   2.577 -0.7784 -1.1078 -0.6471
10228SOL    HW231735   0.119   2.747   2.536 -0.4018  0.0522  1.3518
10229SOL     OW31736   5.856   5.915   2.541 -0.2856  0.0455  0.1853
10229SOL    HW131737   5.791   5.970   2.584  0.6596  1.4562 -0.1344
10229SOL    HW231738   5.912   5.976   2.494 -0.2811 -1.3269 -1.6984
10230SOL     OW31739   3.902   7.207   4.540 -0.0517  0.3682  0.3664
10230SOL    HW131740   3.965   7.272   4.570 -0.1099  0.6356 -0.0853
10230SOL    HW231741   3.824   7.257   4.516 -0.0262  0.1602 -0.1745
10231SOL     OW31742   6.441   6.731   5.023  0.8182 -0.0610 -0.0177
10231SOL    HW131743   6.482   6.653   4.985  0.0878 -0.4887  0.0502
10231SOL    HW231744   6.358   6.699   5.059 -0.6196  1.1803 -2.0525
10232SOL     OW31745   7.487   0.368   4.886 -0.5165  0.9189  0.4991
10232SOL    HW131746   7.548   0.415   4.943 -0.4942  0.4628  0.8642
10232SOL    HW231747   7.411   0.350   4.942  0.7985 -2.4119  1.4613
10233SOL     OW31748   2.910   6.997   2.739 -0.2511 -0.8882 -0.7426
10233SOL    HW131749   2.853   7.000   2.663 -2.2368 -0.3905  0.7005
10233SOL    HW231750   2.851   6.988   2.814  1.2450  2.6604  1.1418
10234SOL     OW31751   2.940   7.925   6.252 -0.3832  0.8329  0.1424
10234SOL    HW131752   3.016   7.867   6.242  0.8099  2.1301  1.2600
10234SOL    HW231753   2.960   8.001   6.197 -0.8525  1.2114  0.4868
10235SOL     OW31754   2.182   4.624   1.948  0.4491  0.5090  0.4520
10235SOL    HW131755   2.277   4.630   1.932  0.6143  0.1830  1.2833
10235SOL    HW231756   2.144   4.680   1.881  1.2012  0.2544 -0.2183
10236SOL     OW31757   0.341   6.948   0.918 -0.2537  0.5422  0.0035
10236SOL    HW131758   0.324   6.997   0.999  0.9490 -1.1949  1.4051
10236SOL    HW231759   0.421   6.899   0.937  1.5223  1.8983 -3.1474
10237SOL     OW31760   4.753   4.432   0.873  0.0885 -0.3802 -0.2801
10237SOL    HW131761   4.719   4.468   0.791 -3.9130  0.3957  1.4725
10237SOL    HW231762   4.774   4.509   0.926  2.8568 -0.8710 -0.5008
10238SOL     OW31763   2.938   2.188   1.375 -0.6348  0.2413  0.0206
10238SOL    HW131764   2.847   2.162   1.374 -1.6831  3.3823  0.7660
10238SOL    HW231765   2.949   2.233   1.460  0.9286  1.8432 -0.9552
10239SOL     OW31766   2.988   6.722   2.978  0.1342  0.3276 -0.3240
10239SOL    HW131767   3.057   6.786   2.993 -1.3614  1.3471  3.0158
10239SOL    HW231768   2.907   6.767   3.000 -1.4664 -1.4600 -2.0938
10240SOL     OW31769   0.371   5.411   1.469  0.7841  0.4035  0.0111
10240SOL    HW131770   0.459   5.381   1.489  0.5524  0.3269  0.9937
10240SOL    HW231771   0.349   5.369   1.386  1.8869  0.9087 -0.5430
10241SOL     OW31772   3.829   4.516   5.521 -0.3068  0.0373  0.3992
10241SOL    HW131773   3.735   4.508   5.536 -0.5386  0.9186 -0.4508
10241SOL    HW231774   3.866   4.433   5.550 -1.3349 -0.2578  0.8710
10242SOL     OW31775   2.432   5.019   2.634 -0.1287  0.1611 -0.1888
10242SOL    HW131776   2.519   4.983   2.614 -0.2994 -0.6126  0.4017
10242SOL    HW231777   2.406   5.065   2.555  0.5116 -0.2247 -0.6359
10243SOL     OW31778   0.384   6.124   7.335  0.0749 -0.1757  0.2857
10243SOL    HW131779   0.377   6.042   7.286  1.3083 -0.3831  0.4252
10243SOL    HW231780   0.407   6.096   7.424  1.6754  0.3506  0.0596
10244SOL     OW31781   2.810   4.683   4.970 -0.3635  0.0247 -0.2503
10244SOL    HW131782   2.879   4.739   5.005 -1.3453  1.0066  0.1916
10244SOL    HW231783   2.855   4.624   4.910  0.8058  0.8860 -0.2583
10245SOL     OW31784   1.813   7.862   0.501 -1.2277 -0.0127  0.8838
10245SOL    HW131785   1.761   7.861   0.421 -0.1642 -0.3290  0.1740
10245SOL    HW231786   1.807   7.952   0.533 -1.3134  0.2228  0.2080
10246SOL     OW31787   0.247   0.321   2.595  0.0436  0.2252  0.2532
10246SOL    HW131788   0.295   0.251   2.549 -1.0553 -0.0640 -0.4740
10246SOL    HW231789   0.292   0.401   2.569  0.6484 -0.1065  0.2397
10247SOL     OW31790   5.170   4.157   0.658  0.0079  0.0097  0.1504
10247SOL    HW131791   5.118   4.203   0.724  0.7519  1.9064 -0.5111
10247SOL    HW231792   5.259   4.159   0.693  0.8338  2.9950 -1.7635
10248SOL     OW31793   4.553   0.329   6.056  0.1075 -0.6510  0.5038
10248SOL    HW131794   4.501   0.250   6.074 -1.5772 -0.3101 -2.2999
10248SOL    HW231795   4.619   0.300   5.993 -1.2595  0.3057 -1.4737
10249SOL     OW31796   7.880   2.400   1.279  0.1847  0.5316 -0.0537
10249SOL    HW131797   7.883   2.376   1.187  0.6963  0.9105 -0.1427
10249SOL    HW231798   7.914   2.490   1.282  1.0539  0.2069  0.6023
10250SOL     OW31799   7.790   4.557   6.629  0.5468  0.1426 -0.2501
10250SOL    HW131800   7.771   4.486   6.689 -0.4958  0.4023 -0.2564
10250SOL    HW231801   7.791   4.636   6.684  1.0634  0.2029 -0.3420
10251SOL     OW31802   6.405   3.256   1.264 -0.6326 -0.7339 -0.2034
10251SOL    HW131803   6.488   3.221   1.296 -0.1593  0.2562 -0.3224
10251SOL    HW231804   6.421   3.277   1.172  0.4930  3.7236  0.7662
10252SOL     OW31805   0.183   2.048   6.312 -0.1176 -0.3975  0.2519
10252SOL    HW131806   0.108   1.988   6.311 -1.0450  0.7251 -1.0921
10252SOL    HW231807   0.180   2.088   6.399 -0.7240 -0.7852  0.4216
10253SOL     OW31808   0.937   4.943   6.619  0.7438  0.5142 -0.6001
10253SOL    HW131809   0.939   4.849   6.639 -0.0409  0.3264 -1.3238
10253SOL    HW231810   0.849   4.957   6.583 -0.0903  2.0095  1.8167
10254SOL     OW31811   3.722   3.857   2.145  0.2482  0.2324 -0.3067
10254SOL    HW131812   3.745   3.883   2.056 -0.4134 -0.0783 -0.5727
10254SOL    HW231813   3.659   3.786   2.134 -0.9279  1.1347  0.3987
10255SOL     OW31814   1.890   5.797   0.496  0.1696 -0.3115 -0.1054
10255SOL    HW131815   1.966   5.844   0.460 -0.6015  2.4388  1.5916
10255SOL    HW231816   1.818   5.819   0.437  0.1302 -0.7691 -0.2333
10256SOL     OW31817   0.567   6.611   5.373  0.1693 -0.1923  0.0178
10256SOL    HW131818   0.568   6.704   5.394  1.5380 -0.1044 -0.3640
10256SOL    HW231819   0.502   6.604   5.302 -0.7947  0.2680  0.8275
10257SOL     OW31820   5.931   3.101   5.630 -0.5794  0.6945  0.3637
10257SOL    HW131821   5.860   3.145   5.583 -0.1207  0.5515 -0.4906
10257SOL    HW231822   5.893   3.076   5.714 -1.7815 -0.1033 -0.3956
10258SOL     OW31823   1.401   4.927   4.397 -0.0218 -0.0763 -0.8137
10258SOL    HW131824   1.401   4.947   4.491  0.8138 -0.2647 -0.7654
10258SOL    HW231825   1.486   4.886   4.382  0.0804  0.4653 -1.7616
10259SOL     OW31826   1.927   2.333   0.014  0.4443 -0.5917 -0.2401
10259SOL    HW131827   1.858   2.279   0.053 -1.1899  2.2532  1.1091
10259SOL    HW231828   1.929   2.306  -0.078  0.7600 -3.8726  0.6176
10260SOL     OW31829   1.377   4.858   0.296 -0.0451  0.6667 -0.0056
10260SOL    HW131830   1.311   4.789   0.306  1.5095 -1.0191 -0.8632
10260SOL    HW231831   1.375   4.905   0.379  0.8477 -2.2898  1.8643
10261SOL     OW31832   3.314   1.014   3.932  0.2209  0.2109 -0.2597
10261SOL    HW131833   3.265   1.041   4.010 -0.9611 -1.5454 -0.3556
10261SOL    HW231834   3.396   1.064   3.938 -0.2590  0.8896  1.5519
10262SOL     OW31835   3.102   1.633   4.904  0.6930  0.1396  0.2416
10262SOL    HW131836   3.164   1.582   4.956  2.0412  0.8043 -0.6484
10262SOL    HW231837   3.033   1.571   4.881 -0.0105 -0.1585  2.8357
10263SOL     OW31838   6.099   1.976   0.581 -0.4787 -0.1927  0.3160
10263SOL    HW131839   6.040   1.927   0.524 -0.3330  0.6035 -0.5494
10263SOL    HW231840   6.137   2.043   0.524  1.8612 -1.1454  0.6461
10264SOL     OW31841   0.579   7.812   0.430 -0.0637 -0.2038  0.3800
10264SOL    HW131842   0.606   7.844   0.516 -0.0798  0.1382  0.2605
10264SOL    HW231843   0.608   7.880   0.369  0.1004 -0.5259  0.0952
10265SOL     OW31844   6.101   7.498   6.500  0.1833  0.2655  0.4435
10265SOL    HW131845   6.011   7.526   6.486  0.1239 -0.0732  0.1500
10265SOL    HW231846   6.094   7.407   6.528  0.4211  0.3059  0.6379
10266SOL     OW31847   8.107   3.618   0.802 -0.5183 -0.0457 -0.2711
10266SOL    HW131848   8.113   3.542   0.860  1.2125 -0.3341 -0.7645
10266SOL    HW231849   8.013   3.627   0.784 -1.0092 -0.5059  1.7848
10267SOL     OW31850   2.150   1.004   3.908 -0.1624  0.7476 -0.7854
10267SOL    HW131851   2.107   1.057   3.841  0.2487  0.7782 -1.0340
10267SOL    HW231852   2.179   1.066   3.974 -1.5546  0.5966 -0.0165
10268SOL     OW31853   3.372   1.254   5.165 -0.3879 -0.3453  0.1805
10268SOL    HW131854   3.409   1.292   5.245  1.9507  0.4486 -1.1902
10268SOL    HW231855   3.422   1.294   5.094 -2.5852 -0.8011 -1.7404
10269SOL     OW31856   1.554   5.965   0.087 -0.1215  0.1302 -0.0352
10269SOL    HW131857   1.541   6.045   0.137 -1.6781  1.2714 -2.0936
10269SOL    HW231858   1.465   5.931   0.072  0.3266 -0.5983 -1.2703
10270SOL     OW31859   5.508   7.195   7.373 -0.5881 -0.6986  0.5738
10270SOL    HW131860   5.594   7.234   7.357 -1.3528  0.1697 -1.9602
10270SOL    HW231861   5.517   7.104   7.345 -0.3047 -0.8306  1.0793
10271SOL     OW31862   3.711   0.474   0.099  0.7446 -0.1939  0.8401
10271SOL    HW131863   3.639   0.492   0.159  0.3950  2.8793 -0.2839
10271SOL    HW231864   3.672   0.479   0.012  1.6016 -2.6283  0.2250
10272SOL     OW31865   2.815   0.785   0.059 -0.1823 -0.3958 -0.1759
10272SOL    HW131866   2.776   0.841   0.126 -0.1251 -0.8961  0.2766
10272SOL    HW231867   2.852   0.712   0.107  3.1576  1.0230 -0.3297
10273SOL     OW31868   1.755   7.864   8.230 -0.0877 -0.4201  0.2074
10273SOL    HW131869   1.751   7.951   8.192  2.1968  0.0213  0.8516
10273SOL    HW231870   1.825   7.820   8.181 -0.5677 -1.5724  0.5283
10274SOL     OW31871   8.263   1.850   7.117 -0.2978  0.0631 -0.8426
10274SOL    HW131872   8.321   1.860   7.192 -0.9699 -0.2687 -0.2661
10274SOL    HW231873   8.303   1.782   7.064 -1.1054 -1.5032  0.4911
10275SOL     OW31874   4.007   3.403   4.593  0.4445  0.4064  0.2617
10275SOL    HW131875   3.978   3.435   4.678 -0.8141  0.8617 -0.3195
10275SOL    HW231876   3.943   3.337   4.568 -0.2333  1.5300 -1.1113
10276SOL     OW31877   1.368   0.348   6.289  0.2144 -0.1054  0.0090
10276SOL    HW131878   1.425   0.361   6.213 -0.1240  0.3643 -0.1706
10276SOL    HW231879   1.334   0.259   6.279  1.3571 -0.6033  0.4227
10277SOL     OW31880   3.192   3.941   7.944  0.7390 -0.2614  0.1061
10277SOL    HW131881   3.203   4.009   7.878 -0.2358 -3.0646 -3.2175
10277SOL    HW231882   3.097   3.935   7.958  0.8166 -0.8840  0.4339
10278SOL     OW31883   3.466   5.940   6.079 -0.0210 -0.0027 -0.1734
10278SOL    HW131884   3.487   5.950   6.172  0.9405  2.4246 -0.5574
10278SOL    HW231885   3.373   5.961   6.073  0.1487  0.9178  0.1493
10279SOL     OW31886   5.539   2.060   3.294 -0.3544  0.0706 -0.4713
10279SOL    HW131887   5.574   2.148   3.307 -0.9785  0.1777  0.6212
10279SOL    HW231888   5.613   2.011   3.257  0.1691  0.9068 -0.5784
10280SOL     OW31889   7.074   4.768   6.791  0.2377  0.3819  0.3630
10280SOL    HW131890   7.038   4.855   6.806  0.1883  0.0557  2.3196
10280SOL    HW231891   7.119   4.775   6.707 -0.0817  2.1845  0.3087
10281SOL     OW31892   5.201   5.586   6.548  0.3495 -0.1317  0.2566
10281SOL    HW131893   5.184   5.646   6.621  0.1057 -0.2110  0.2633
10281SOL    HW231894   5.228   5.644   6.476  0.1083 -0.0126  0.2616
10282SOL     OW31895   6.363   2.837   6.558 -0.6249  0.0219 -0.5481
10282SOL    HW131896   6.323   2.777   6.494 -1.0503  0.6856 -0.9091
10282SOL    HW231897   6.396   2.779   6.627 -0.2078 -0.6989 -1.3370
10283SOL     OW31898   1.489   6.375   2.489  0.3761  0.3097 -0.4595
10283SOL    HW131899   1.488   6.342   2.399 -2.6086  0.0221 -0.4165
10283SOL    HW231900   1.482   6.297   2.543  2.3264  0.4686  0.1084
10284SOL     OW31901   7.175   2.977   6.557  0.1753  0.3935 -0.4465
10284SOL    HW131902   7.189   2.884   6.541  1.0652  0.4450 -0.0153
10284SOL    HW231903   7.190   2.988   6.651 -1.2318  0.7540 -0.2459
10285SOL     OW31904   4.229   2.587   3.889 -0.3786  0.3215 -0.1871
10285SOL    HW131905   4.320   2.558   3.885  0.1976  1.9915  0.0717
10285SOL    HW231906   4.194   2.545   3.968  0.0168 -0.6621 -0.5093
10286SOL     OW31907   4.862   4.285   4.740 -0.5888  0.2717  0.0856
10286SOL    HW131908   4.841   4.332   4.659  1.4140 -1.3376 -1.4862
10286SOL    HW231909   4.910   4.207   4.711 -1.3593 -1.3147  2.7410
10287SOL     OW31910   3.567   0.739   7.061  0.2754  0.2582 -0.1909
10287SOL    HW131911   3.634   0.794   7.020  0.0846 -0.3726 -1.3929
10287SOL    HW231912   3.562   0.661   7.005 -2.9033  1.1632 -1.3743
10288SOL     OW31913   7.704   2.020   4.147  0.2907  0.3721  0.3569
10288SOL    HW131914   7.713   1.932   4.110 -0.4443  0.2762  0.3863
10288SOL    HW231915   7.666   2.005   4.234 -3.1681  0.8675 -0.9441
10289SOL     OW31916   1.487   2.328   7.401 -0.4073  0.4401  0.4997
10289SOL    HW131917   1.572   2.307   7.364 -0.4541  3.3068 -1.5464
10289SOL    HW231918   1.432   2.253   7.378  0.6374  0.2518 -1.6420
10290SOL     OW31919   8.096   3.975   0.050 -0.9514  0.3422 -0.5564
10290SOL    HW131920   8.125   3.966  -0.040  1.0092  1.7809 -0.1160
10290SOL    HW231921   8.083   4.069   0.062 -2.0182  0.0953  0.4460
10291SOL     OW31922   0.380   0.211   4.378 -0.5483  0.3702  0.2194
10291SOL    HW131923   0.423   0.241   4.298  3.0659  0.1066  1.8537
10291SOL    HW231924   0.346   0.124   4.355  0.8319  0.0871 -0.9679
10292SOL     OW31925   7.083   6.637   2.973 -0.3204  1.3183  0.3802
10292SOL    HW131926   7.125   6.716   2.938 -0.1815  1.1051  0.0594
10292SOL    HW231927   7.134   6.616   3.052  0.1904  1.0570 -0.0107
10293SOL     OW31928   1.662   0.020   3.290 -0.3934  0.3422  0.1519
10293SOL    HW131929   1.642   0.104   3.331 -0.3166  1.0114 -1.1430
10293SOL    HW231930   1.672   0.040   3.197  2.4491 -0.5898  0.1502
10294SOL     OW31931   1.460   1.585   0.183  0.2754  0.0132  0.0438
10294SOL    HW131932   1.380   1.540   0.212  0.9888 -1.4737 -0.1889
10294SOL    HW231933   1.531   1.525   0.206  1.2710  0.9694 -0.4323
10295SOL     OW31934   1.868   1.336   2.246 -0.6915 -0.7099 -0.2291
10295SOL    HW131935   1.901   1.265   2.190 -0.4869  0.7260 -2.0450
10295SOL    HW231936   1.789   1.366   2.201 -1.4679 -0.5755  1.1798
10296SOL     OW31937   7.679   5.859   0.040 -0.4130 -0.3042 -0.7707
10296SOL    HW131938   7.750   5.797   0.022 -0.9967 -1.0505 -0.5463
10296SOL    HW231939   7.712   5.913   0.112 -0.7133 -1.7697  0.5169
10297SOL     OW31940   2.420   7.549   4.067  0.0519 -0.2632  0.0562
10297SOL    HW131941   2.329   7.566   4.043  0.3384  0.2356 -0.6974
10297SOL    HW231942   2.437   7.460   4.034 -0.5261 -0.8699  1.3163
10298SOL     OW31943   6.655   3.024   6.052 -0.6358 -0.0855 -0.2737
10298SOL    HW131944   6.566   3.001   6.026 -1.6959  0.9103  2.1314
10298SOL    HW231945   6.693   3.066   5.975 -2.4843  0.0853 -1.1402
10299SOL     OW31946   4.496   3.193   0.218  0.0402  0.3527  0.0908
10299SOL    HW131947   4.486   3.288   0.214  1.1444  0.5085  0.6620
10299SOL    HW231948   4.572   3.174   0.162  0.3210 -0.0985  0.6080
10300SOL     OW31949   4.522   7.440   1.326  0.0346  0.0080 -0.3317
10300SOL    HW131950   4.587   7.400   1.385  0.3297  1.8219  0.6323
10300SOL    HW231951   4.467   7.367   1.298  2.1052 -1.5010 -0.6992
10301SOL     OW31952   7.556   3.987   6.425  0.1880 -0.1835 -0.3765
10301SOL    HW131953   7.550   4.010   6.332 -1.3642  0.2004 -0.2115
10301SOL    HW231954   7.469   4.007   6.460  0.7456 -0.3363  1.1600
10302SOL     OW31955   0.779   3.419   7.898  0.0174 -0.4405 -0.3242
10302SOL    HW131956   0.685   3.399   7.893 -0.0871 -0.0125 -0.1553
10302SOL    HW231957   0.803   3.395   7.988  0.5212 -2.4051 -0.9466
10303SOL     OW31958   3.558   0.430   2.310 -0.0954  0.0480  0.1820
10303SOL    HW131959   3.628   0.378   2.270  0.3836  0.5294  0.3723
10303SOL    HW231960   3.477   0.388   2.282  0.2853 -0.8692  0.4478
10304SOL     OW31961   0.558   5.827   2.742  0.2421  0.0780  0.6839
10304SOL    HW131962   0.468   5.804   2.720  0.1524 -0.0420  1.1537
10304SOL    HW231963   0.552   5.915   2.779  0.6614  1.1721 -1.6649
10305SOL     OW31964   3.591   7.942   1.824 -0.3147 -0.1873  0.4023
10305SOL    HW131965   3.533   7.867   1.809  0.4103 -0.7649  0.3821
10305SOL    HW231966   3.589   7.955   1.919 -1.5503  0.6943  0.2707
10306SOL     OW31967   4.935   0.762   0.760  0.2163 -0.3095  0.0963
10306SOL    HW131968   4.969   0.842   0.722  2.0382 -0.0594  2.0799
10306SOL    HW231969   4.888   0.790   0.838  0.4409 -1.1370  0.5432
10307SOL     OW31970   7.582   2.593   4.387 -0.6579 -0.0931  0.1660
10307SOL    HW131971   7.636   2.514   4.383 -0.7847 -0.1399 -1.7687
10307SOL    HW231972   7.593   2.633   4.301 -1.5536  1.3616  0.7016
10308SOL     OW31973   2.377   4.460   6.019  0.5775 -0.4442  1.4079
10308SOL    HW131974   2.411   4.370   6.017 -1.2213 -1.1824  1.5812
10308SOL    HW231975   2.303   4.456   6.080 -1.0581  0.5371 -0.3931
10309SOL     OW31976   6.962   0.064   5.619 -0.3786 -0.3055 -0.6081
10309SOL    HW131977   6.944   0.032   5.531  0.4956 -1.2003 -0.4737
10309SOL    HW231978   6.897   0.134   5.632 -1.3327 -0.9911 -1.4735
10310SOL     OW31979   4.579   6.570   5.372 -0.0873 -0.5767 -0.1718
10310SOL    HW131980   4.634   6.647   5.358 -0.6230 -0.4544 -1.7633
10310SOL    HW231981   4.520   6.596   5.443  0.3548  0.1364 -0.0524
10311SOL     OW31982   4.810   2.984   5.996 -0.2033 -0.3753 -0.2133
10311SOL    HW131983   4.777   3.025   6.075 -0.8793  0.5418 -0.9415
10311SOL    HW231984   4.752   2.909   5.982  0.4842 -1.0836  0.6367
10312SOL     OW31985   2.049   0.524   1.008  0.3928  0.4072 -0.8677
10312SOL    HW131986   2.128   0.470   1.018 -1.1669 -1.7056  1.0987
10312SOL    HW231987   2.070   0.605   1.054  1.2493 -0.3450  0.1221
10313SOL     OW31988   7.280   6.742   1.097  0.2610  0.0731  0.3478
10313SOL    HW131989   7.266   6.776   1.185  1.6978 -0.7952  0.9393
10313SOL    HW231990   7.373   6.752   1.081  0.2781 -1.1345 -0.4865
10314SOL     OW31991   5.397   7.254   1.173 -0.1890  0.5660 -0.3898
10314SOL    HW131992   5.446   7.335   1.162  0.8712  0.6421  3.5036
10314SOL    HW231993   5.320   7.279   1.224 -1.9796 -0.3267 -2.4959
10315SOL     OW31994   3.559   1.474   7.270 -0.6865 -0.1448  0.1766
10315SOL    HW131995   3.523   1.469   7.359  1.4191  0.3917  1.1266
10315SOL    HW231996   3.650   1.446   7.280 -0.1077  0.9512 -1.6317
10316SOL     OW31997   5.924   6.372   7.251 -0.5837  0.5506  0.1648
10316SOL    HW131998   5.938   6.305   7.318 -0.6307  0.1242 -0.2460
10316SOL    HW231999   6.007   6.377   7.205 -0.7519  0.3790 -0.1591
10317SOL     OW32000   4.118   1.075   5.724  0.2472  0.5444  0.8248
10317SOL    HW132001   4.165   1.122   5.656  0.7315 -0.2773  0.5742
10317SOL    HW232002   4.149   0.984   5.716 -2.7715 -0.4716 -0.6190
10318SOL     OW32003   5.471   2.445   3.215  0.2345  0.1587 -0.1320
10318SOL    HW132004   5.517   2.526   3.236  0.2668  0.3619 -0.9712
10318SOL    HW232005   5.431   2.461   3.130 -0.0939 -0.5700 -0.1225
10319SOL     OW32006   3.222   4.232   6.137  0.4941 -0.6512 -0.3585
10319SOL    HW132007   3.289   4.273   6.081  0.6818 -0.9311 -0.3428
10319SOL    HW232008   3.152   4.297   6.143  0.0821 -0.9478 -1.6347
10320SOL     OW32009   4.290   7.382   0.837  0.2149  0.2528  0.6025
10320SOL    HW132010   4.224   7.335   0.887  0.8767  0.0040  1.2666
10320SOL    HW232011   4.290   7.340   0.751 -2.1731  1.8207 -0.2727
10321SOL     OW32012   2.110   0.714   0.613  0.1968 -0.5980 -0.1020
10321SOL    HW132013   2.167   0.722   0.690 -1.0029 -0.3434  0.7850
10321SOL    HW232014   2.067   0.629   0.623  0.8418 -1.0587 -1.0824
10322SOL     OW32015   5.666   6.070   2.670 -0.8406  0.2755 -0.0744
10322SOL    HW132016   5.655   6.073   2.765 -0.7653 -1.6492  0.0183
10322SOL    HW232017   5.599   6.130   2.636 -4.1563 -2.5420  1.0000
10323SOL     OW32018   8.053   6.805   2.076 -0.3355 -0.6310 -0.1826
10323SOL    HW132019   7.977   6.848   2.117 -0.5281 -0.4459 -0.7267
10323SOL    HW232020   8.026   6.714   2.066 -1.0343 -0.2848 -1.6549
10324SOL     OW32021   7.529   2.794   0.320  0.1595  0.0033 -0.0017
10324SOL    HW132022   7.557   2.865   0.377 -0.8978 -0.4445  1.1139
10324SOL    HW232023   7.582   2.719   0.347 -1.4033 -0.6186  1.5207
10325SOL     OW32024   2.960   4.816   7.924  0.2895  0.8349 -0.3080
10325SOL    HW132025   3.049   4.848   7.935 -0.4752  2.6439  0.9948
10325SOL    HW232026   2.904   4.884   7.961 -1.5554 -1.0530  0.6077
10326SOL     OW32027   6.555   4.420   2.214 -0.0846  0.2980  0.6906
10326SOL    HW132028   6.606   4.494   2.181 -2.0676 -0.0177 -3.7793
10326SOL    HW232029   6.475   4.459   2.248  0.0377  0.3665  0.8997
10327SOL     OW32030   2.640   1.758   6.135 -0.2583  0.2657  1.0544
10327SOL    HW132031   2.633   1.712   6.218 -0.3561 -0.3923  0.6874
10327SOL    HW232032   2.732   1.784   6.130 -0.2529  0.3151  1.3684
10328SOL     OW32033   3.464   7.779   8.107 -0.3353  0.4972  0.7975
10328SOL    HW132034   3.404   7.753   8.177  0.4150  1.7767  1.9544
10328SOL    HW232035   3.447   7.716   8.037 -1.4141 -0.5571  1.9535
10329SOL     OW32036   2.637   2.156   6.329  0.3189 -0.1958  0.2474
10329SOL    HW132037   2.715   2.211   6.330  0.6425 -0.6549  0.7979
10329SOL    HW232038   2.604   2.162   6.240  0.2354  1.0522  0.3381
10330SOL     OW32039   0.670   1.165   5.283  0.4505 -0.0598 -0.4137
10330SOL    HW132040   0.658   1.162   5.378  1.7166 -2.5704 -0.2654
10330SOL    HW232041   0.722   1.088   5.263  0.1388  0.3630 -3.1916
10331SOL     OW32042   2.992   3.496   3.522  0.6928  0.1924  1.3722
10331SOL    HW132043   3.031   3.440   3.589  1.9289  2.9503  3.1276
10331SOL    HW232044   2.935   3.556   3.570 -0.9659  0.2199 -0.4889
10332SOL     OW32045   5.498   7.341   5.000  0.0350  0.0433 -0.2857
10332SOL    HW132046   5.528   7.423   4.961  0.2418  0.6364  1.0585
10332SOL    HW232047   5.455   7.368   5.082  1.2078 -1.2716  0.7958
10333SOL     OW32048   0.913   4.623   3.626  0.5091  0.7996 -0.2287
10333SOL    HW132049   0.940   4.714   3.620 -1.2421  1.5287  1.5755
10333SOL    HW232050   0.867   4.617   3.710  3.5123 -2.5586  1.4655
10334SOL     OW32051   3.836   2.485   4.104 -0.4552  0.3544 -0.0015
10334SOL    HW132052   3.870   2.549   4.042  3.2514 -1.5787 -0.2469
10334SOL    HW232053   3.771   2.435   4.054  0.7901  0.3071 -1.6631
10335SOL     OW32054   2.321   7.254   6.801 -0.1854 -0.9236  0.5560
10335SOL    HW132055   2.320   7.259   6.705 -1.5823  0.5922  0.6122
10335SOL    HW232056   2.376   7.327   6.828  0.7298 -1.7312  0.9167
10336SOL     OW32057   6.024   6.460   5.768 -0.6692  0.4419  0.7697
10336SOL    HW132058   6.094   6.421   5.820 -1.8638 -1.4762  1.0447
10336SOL    HW232059   6.042   6.554   5.769  2.4642 -0.0484 -0.0705
10337SOL     OW32060   6.902   5.406   6.306 -0.3985  0.5022  0.0490
10337SOL    HW132061   6.834   5.368   6.251  0.5029 -1.4602  0.2425
10337SOL    HW232062   6.984   5.370   6.273  0.2883  0.3985  1.7522
10338SOL     OW32063   4.658   7.232   5.912  0.0852 -0.1304 -0.3207
10338SOL    HW132064   4.607   7.223   5.831 -0.7475  0.4049  0.1377
10338SOL    HW232065   4.674   7.143   5.940  1.3436 -0.3727 -1.6617
10339SOL     OW32066   4.622   5.644   4.425  0.5184 -0.1195  0.0128
10339SOL    HW132067   4.677   5.574   4.391 -1.7577 -1.2764 -1.5558
10339SOL    HW232068   4.568   5.671   4.351 -2.2761 -0.3652  1.7971
10340SOL     OW32069   0.927   2.949   4.601  0.1569  0.4178 -0.2616
10340SOL    HW132070   0.893   3.038   4.606 -0.4181  0.1813  0.1335
10340SOL    HW232071   1.008   2.957   4.550  0.9037  1.3904  1.0071
10341SOL     OW32072   7.572   0.333   0.745 -0.1619 -0.1952 -0.2626
10341SOL    HW132073   7.632   0.260   0.764  0.7725  0.7993  0.7198
10341SOL    HW232074   7.556   0.326   0.651  2.3611  0.1177 -0.7922
10342SOL     OW32075   7.188   4.859   7.059  0.0118  0.0673  0.3578
10342SOL    HW132076   7.220   4.774   7.030  0.3912  0.1852  0.4318
10342SOL    HW232077   7.230   4.872   7.144  0.8302  0.8277 -0.1495
10343SOL     OW32078   2.238   3.248   1.865  0.1509  0.0397  0.0024
10343SOL    HW132079   2.314   3.305   1.864 -0.1166  0.4112  0.5330
10343SOL    HW232080   2.172   3.296   1.915  0.1215 -0.9798  0.9787
10344SOL     OW32081   4.848   5.679   5.379  0.1681  0.0402  0.3270
10344SOL    HW132082   4.924   5.622   5.392  1.1982  0.5215 -2.6649
10344SOL    HW232083   4.885   5.767   5.371 -0.6978  0.3346 -0.7949
10345SOL     OW32084   7.012   7.515   5.105  0.6202 -0.6007  0.2214
10345SOL    HW132085   7.038   7.424   5.119  0.7682 -0.5452  0.3141
10345SOL    HW232086   6.946   7.531   5.173  1.2696 -0.3611  0.8171
10346SOL     OW32087   5.139   0.010   7.223  0.1561  0.0991 -0.1119
10346SOL    HW132088   5.151   0.092   7.175  0.1882 -0.1458 -0.5326
10346SOL    HW232089   5.085   0.033   7.298 -0.9384  0.2530 -0.9355
10347SOL     OW32090   8.027   5.672   0.616 -0.2255 -0.2605 -0.0220
10347SOL    HW132091   7.985   5.692   0.532  0.9953  0.0141 -0.5895
10347SOL    HW232092   8.118   5.697   0.604 -0.1694  0.4611  1.6350
10348SOL     OW32093   6.205   5.305   1.285 -0.5412 -0.8667  0.5476
10348SOL    HW132094   6.199   5.226   1.338  0.0777 -1.3049 -0.0264
10348SOL    HW232095   6.283   5.293   1.232 -0.1715  0.3318  0.7771
10349SOL     OW32096   7.112   3.889   1.494 -0.0176 -0.0722 -0.0030
10349SOL    HW132097   7.019   3.874   1.514  0.6256 -1.5528  2.2528
10349SOL    HW232098   7.129   3.978   1.526 -0.4240 -0.1899  0.5589
10350SOL     OW32099   7.965   2.255   3.363  0.4333 -0.0353  0.2235
10350SOL    HW132100   7.929   2.308   3.291 -0.5297 -0.4575  0.3739
10350SOL    HW232101   8.049   2.224   3.330 -0.3571 -0.9283 -1.0790
10351SOL     OW32102   6.862   2.432   7.069 -0.0546  0.2250 -0.1940
10351SOL    HW132103   6.831   2.428   7.160  0.2833 -0.0328 -0.0897
10351SOL    HW232104   6.854   2.524   7.045  0.4866  0.4103  0.3221
10352SOL     OW32105   1.104   0.525   7.974 -0.0580  0.1372 -0.1064
10352SOL    HW132106   1.183   0.482   8.007  0.4340  1.4408  0.4615
10352SOL    HW232107   1.127   0.550   7.884 -0.0122  0.0590 -0.1171
10353SOL     OW32108   5.863   7.217   2.107 -0.2229  0.2096 -0.6682
10353SOL    HW132109   5.870   7.157   2.181  1.4564 -0.0489 -0.9882
10353SOL    HW232110   5.874   7.304   2.145  0.0167  0.1178 -0.5243
10354SOL     OW32111   3.824   0.601   2.570 -0.0036 -0.7462  0.5578
10354SOL    HW132112   3.880   0.592   2.493 -1.1566 -1.8120 -0.1985
10354SOL    HW232113   3.777   0.518   2.575 -0.0510 -0.6548  2.3562
10355SOL     OW32114   4.546   7.181   0.693 -0.2087 -0.6128  0.2001
10355SOL    HW132115   4.586   7.230   0.621  0.1501  0.7516  1.2817
10355SOL    HW232116   4.611   7.185   0.764 -1.3035 -0.3403  1.2185
10356SOL     OW32117   5.883   7.177   4.187 -0.0939  0.1904 -0.2284
10356SOL    HW132118   5.883   7.184   4.282  1.9105  0.5833 -0.2112
10356SOL    HW232119   5.975   7.164   4.164 -0.6648 -1.1180 -2.0483
10357SOL     OW32120   2.236   7.280   3.317  0.2277 -0.0602  0.4545
10357SOL    HW132121   2.225   7.372   3.295  0.8907  0.0270  0.4720
10357SOL    HW232122   2.330   7.269   3.329  0.0612 -0.5082  1.4865
10358SOL     OW32123   7.825   4.372   3.016  0.3607  0.7206 -0.6870
10358SOL    HW132124   7.875   4.303   3.060 -0.6530  1.2745  1.4310
10358SOL    HW232125   7.891   4.439   2.996  0.6937  0.9571  1.0604
10359SOL     OW32126   7.501   0.960   7.382  0.4328 -0.2875 -0.3217
10359SOL    HW132127   7.491   0.956   7.477 -0.6023  1.4257 -0.3109
10359SOL    HW232128   7.553   0.883   7.359  0.8016 -0.6549  1.6390
10360SOL     OW32129   2.433   4.617   8.047  0.1226 -0.2379 -0.1908
10360SOL    HW132130   2.506   4.609   8.107 -0.0290 -0.8719 -0.0889
10360SOL    HW232131   2.455   4.559   7.974  0.5879  0.9765 -1.0411
10361SOL     OW32132   5.476   7.593   0.245  0.0989 -0.1122 -0.2201
10361SOL    HW132133   5.412   7.641   0.193  2.2791  1.3729 -1.7408
10361SOL    HW232134   5.519   7.535   0.182 -0.6028 -2.1276  1.0414
10362SOL     OW32135   0.816   1.104   4.367  0.6852 -0.0565  0.3889
10362SOL    HW132136   0.791   1.196   4.377  0.7405  0.0246 -0.1996
10362SOL    HW232137   0.845   1.097   4.276 -0.9370 -1.0441 -0.0812
10363SOL     OW32138   2.621   0.576   4.135  0.0135  0.1233  0.3731
10363SOL    HW132139   2.617   0.623   4.219 -1.7744 -0.4475  0.6484
10363SOL    HW232140   2.660   0.492   4.157  1.0692  0.5796  0.3071
10364SOL     OW32141   3.237   2.600   4.119 -0.4615  0.1172 -0.1705
10364SOL    HW132142   3.201   2.582   4.032 -1.3295  2.2544 -0.2985
10364SOL    HW232143   3.160   2.602   4.177 -0.0017 -0.1856  0.4631
10365SOL     OW32144   1.698   7.657   4.824 -0.7820 -0.2788 -0.1689
10365SOL    HW132145   1.750   7.737   4.832 -0.6010 -0.3803 -0.3184
10365SOL    HW232146   1.697   7.620   4.912 -0.1383 -0.5610 -0.2735
10366SOL     OW32147   5.759   5.597   6.342 -0.7586 -0.3226  0.9791
10366SOL    HW132148   5.679   5.650   6.344 -0.6762 -0.0824 -0.7654
10366SOL    HW232149   5.730   5.508   6.322 -0.5527 -0.0631 -0.6064
10367SOL     OW32150   3.283   0.973   3.650  0.0989 -0.1193 -0.0746
10367SOL    HW132151   3.361   0.952   3.599  0.6511  1.3361  0.1513
10367SOL    HW232152   3.315   0.992   3.738 -0.7617 -1.7023  0.6306
10368SOL     OW32153   7.583   5.551   1.360  0.6189 -0.3648  0.0810
10368SOL    HW132154   7.670   5.517   1.342  0.8994  0.2760  0.1788
10368SOL    HW232155   7.596   5.646   1.368 -0.0127 -0.3138  0.5542
10369SOL     OW32156   4.174   3.714   4.658 -0.5574  0.3576  0.0714
10369SOL    HW132157   4.218   3.753   4.583  0.2542 -0.5950  0.0292
10369SOL    HW232158   4.206   3.623   4.660 -0.4643  0.3929  1.6261
10370SOL     OW32159   3.859   2.596   4.469  0.2760  0.1688  0.2083
10370SOL    HW132160   3.893   2.507   4.463 -1.8539 -0.7893  1.1504
10370SOL    HW232161   3.936   2.651   4.474  1.6592 -1.6571  0.0560
10371SOL     OW32162   6.478   4.974   6.676  0.1943 -0.0926  0.8176
10371SOL    HW132163   6.439   5.056   6.706  1.2974  0.2859  1.2596
10371SOL    HW232164   6.444   4.908   6.735  1.9651  0.5716  2.6981
10372SOL     OW32165   3.139   5.542   8.166 -0.1230 -0.0078 -0.1282
10372SOL    HW132166   3.178   5.460   8.197 -0.4337 -0.1654 -0.1516
10372SOL    HW232167   3.130   5.596   8.245  0.7490  0.2879 -0.2198
10373SOL     OW32168   5.289   2.127   3.781 -0.1797  0.1521  0.0213
10373SOL    HW132169   5.280   2.167   3.868 -2.4183 -0.7947  0.3002
10373SOL    HW232170   5.266   2.196   3.720  2.4664  1.1516  0.0429
10374SOL     OW32171   4.353   1.083   2.747 -0.7750  0.0218  0.3875
10374SOL    HW132172   4.262   1.059   2.764 -0.1021 -1.5229  2.1589
10374SOL    HW232173   4.404   1.019   2.795  1.2857  0.7393 -0.7119
10375SOL     OW32174   5.147   3.547   3.901  0.7755  0.0732  0.0757
10375SOL    HW132175   5.161   3.453   3.910 -0.1630 -0.2603 -1.5311
10375SOL    HW232176   5.212   3.587   3.959  0.5196 -1.5656  1.5732
10376SOL     OW32177   2.712   5.651   5.243 -0.7510 -0.2336  0.2508
10376SOL    HW132178   2.723   5.574   5.299  3.5138 -0.3482 -0.3972
10376SOL    HW232179   2.744   5.623   5.157 -1.8461  1.4957 -0.7886
10377SOL     OW32180   6.861   7.155   7.670  0.3562  0.2134  0.1351
10377SOL    HW132181   6.888   7.093   7.601  1.7839  2.0674 -1.0912
10377SOL    HW232182   6.941   7.168   7.722  0.9742  3.0344 -1.3273
10378SOL     OW32183   1.786   7.918   0.958 -0.5378 -0.3412  0.1137
10378SOL    HW132184   1.729   7.905   0.882 -1.5001 -1.2137  0.9584
10378SOL    HW232185   1.755   8.000   0.997  0.3517  0.4262 -0.7540
10379SOL     OW32186   6.835   5.416   7.786  0.2492 -0.0819  0.0310
10379SOL    HW132187   6.766   5.351   7.795  1.4572 -1.3794  0.2284
10379SOL    HW232188   6.865   5.432   7.875 -0.0349  0.7687 -0.0121
10380SOL     OW32189   6.067   5.619   7.239  0.1087  0.3251 -0.1220
10380SOL    HW132190   5.992   5.662   7.199 -1.2858 -1.2977  0.6201
10380SOL    HW232191   6.102   5.562   7.171  1.1354  1.5660 -0.6802
10381SOL     OW32192   1.633   6.976   3.307 -0.4390 -0.5865  0.0993
10381SOL    HW132193   1.630   7.011   3.218  0.9090 -0.2442  0.1682
10381SOL    HW232194   1.647   6.882   3.295  3.4924 -0.1183 -0.1183
10382SOL     OW32195   2.086   3.942   0.525 -0.1575 -0.2332  0.3706
10382SOL    HW132196   2.005   3.891   0.531  0.3829 -1.3282 -1.0783
10382SOL    HW232197   2.057   4.032   0.509 -1.0885 -0.6440 -0.3076
10383SOL     OW32198   1.587   6.930   3.770 -0.1970  0.7089 -0.4292
10383SOL    HW132199   1.625   7.010   3.807 -1.0107  1.2235 -0.6562
10383SOL    HW232200   1.538   6.961   3.693  0.2739 -0.1461 -1.0791
10384SOL     OW32201   2.597   5.645   7.375 -0.3314  0.4658 -0.5951
10384SOL    HW132202   2.588   5.738   7.352  0.0545  0.2862 -1.5553
10384SOL    HW232203   2.679   5.640   7.423 -0.4363  0.6461 -0.3953
10385SOL     OW32204   7.239   4.424   7.561 -0.0134 -0.3124  0.1071
10385SOL    HW132205   7.308   4.358   7.574  1.9845  1.1732 -2.1510
10385SOL    HW232206   7.199   4.401   7.478 -0.5868  0.2810  0.2153
10386SOL     OW32207   4.991   5.583   3.316  0.8011 -0.2079 -0.6585
10386SOL    HW132208   5.008   5.653   3.252 -0.4142 -0.0316 -0.8091
10386SOL    HW232209   5.054   5.599   3.386  1.5188  0.1627 -1.3718
10387SOL     OW32210   2.500   0.295   5.909  0.9059 -0.0007 -0.6527
10387SOL    HW132211   2.482   0.205   5.885  1.0990 -0.2221  0.0052
10387SOL    HW232212   2.580   0.291   5.961  0.9336  0.5492 -0.6434
10388SOL     OW32213   6.003   3.947   4.932  0.2756 -0.9125  0.3499
10388SOL    HW132214   6.022   3.972   4.842 -0.1075 -0.6873  0.3290
10388SOL    HW232215   6.011   4.029   4.981  3.0782 -1.4401  0.9783
10389SOL     OW32216   1.098   5.030   7.812  0.5386 -0.3423 -0.4051
10389SOL    HW132217   1.179   5.018   7.763  0.3897 -0.6156 -0.5872
10389SOL    HW232218   1.039   5.073   7.750  0.8448  0.7293  0.0269
10390SOL     OW32219   7.090   0.787   2.131 -0.3826 -0.3576  0.6808
10390SOL    HW132220   7.183   0.780   2.149 -0.3742  0.8825  1.2414
10390SOL    HW232221   7.082   0.777   2.036  0.3908  0.1211  0.5600
10391SOL     OW32222   0.443   2.207   0.370  0.5201  0.3158 -0.2354
10391SOL    HW132223   0.506   2.246   0.310  0.8454  0.9476  0.5014
10391SOL    HW232224   0.431   2.118   0.337  3.3152 -0.5333  0.6902
10392SOL     OW32225   7.276   4.454   0.919  0.0219  0.2288  0.2726
10392SOL    HW132226   7.301   4.449   1.011  2.8640 -0.6313 -0.4216
10392SOL    HW232227   7.341   4.514   0.881  0.1518 -0.9843 -1.5118
10393SOL     OW32228   6.792   3.290   5.073  0.3320  0.1348  0.2284
10393SOL    HW132229   6.843   3.341   5.137 -1.2456  0.6898  1.1080
10393SOL    HW232230   6.819   3.200   5.087  1.5565  0.4728  0.1906
10394SOL     OW32231   7.224   2.351   7.376 -0.2244 -0.6395 -0.2012
10394SOL    HW132232   7.203   2.301   7.454 -1.0961  1.2818  0.8627
10394SOL    HW232233   7.154   2.331   7.314 -1.3154  0.2363  0.7076
10395SOL     OW32234   0.004   7.392   3.619 -0.8664 -0.1180  0.6281
10395SOL    HW132235  -0.023   7.390   3.711 -1.5128  1.2261  0.4871
10395SOL    HW232236   0.094   7.426   3.621 -0.8762 -0.0998  0.7520
10396SOL     OW32237   7.130   1.264   4.651 -0.7577  0.4443  0.3928
10396SOL    HW132238   7.184   1.234   4.724  1.0209  1.2294 -0.5336
10396SOL    HW232239   7.120   1.358   4.666 -2.6926  0.1707  1.0307
10397SOL     OW32240   5.227   8.001   5.268 -0.3315 -0.0812 -0.1156
10397SOL    HW132241   5.205   7.988   5.176  2.4750 -1.9252 -0.6434
10397SOL    HW232242   5.148   7.972   5.315 -1.4829  0.0273 -1.8926
10398SOL     OW32243   6.928   4.708   1.859 -0.0101  0.4966 -0.0657
10398SOL    HW132244   6.930   4.755   1.776 -1.9295  0.7416 -0.0275
10398SOL    HW232245   6.882   4.767   1.919 -0.1629 -0.3655  0.6921
10399SOL     OW32246   0.968   1.117   6.174  0.3510 -0.2078 -0.5057
10399SOL    HW132247   1.055   1.086   6.199  0.6112 -0.0572 -1.2099
10399SOL    HW232248   0.970   1.120   6.079 -0.1375  0.6353 -0.4979
10400SOL     OW32249   6.671   1.881   7.504 -0.4214 -0.2627  0.2516
10400SOL    HW132250   6.745   1.886   7.443 -0.9268  0.2718 -0.3369
10400SOL    HW232251   6.691   1.805   7.559  0.7294  0.0785  0.3347
10401SOL     OW32252   5.904   1.625   1.009 -0.0930  0.0689  0.3508
10401SOL    HW132253   5.854   1.656   0.934 -0.7767  0.5421  0.9807
10401SOL    HW232254   5.839   1.581   1.064  0.5856 -1.1993  0.1784
10402SOL     OW32255   5.469   1.027   1.024 -0.3471  0.1370 -0.1681
10402SOL    HW132256   5.512   1.112   1.038 -0.7996  0.0834  1.9400
10402SOL    HW232257   5.412   1.017   1.101 -0.6637 -1.8681 -0.6213
10403SOL     OW32258   3.708   6.046   3.653  0.4683  0.0831 -0.3832
10403SOL    HW132259   3.692   6.017   3.742 -1.5433  1.3838 -0.2438
10403SOL    HW232260   3.776   5.988   3.620 -1.2645 -2.8249  0.7760
10404SOL     OW32261   3.051   1.791   3.979 -0.0271 -0.5636  0.3580
10404SOL    HW132262   3.041   1.869   3.923 -1.4341 -0.2119  1.0647
10404SOL    HW232263   3.029   1.822   4.067  1.2363 -1.3378  0.9757
10405SOL     OW32264   2.744   7.319   4.876  0.0621  0.1080 -0.1654
10405SOL    HW132265   2.664   7.266   4.868  0.4199 -0.2458 -1.7170
10405SOL    HW232266   2.814   7.256   4.891  0.2286  0.3086 -0.0891
10406SOL     OW32267   7.192   1.367   6.789  0.1357  0.7094  0.1942
10406SOL    HW132268   7.227   1.429   6.725 -0.4468  1.3592  0.4870
10406SOL    HW232269   7.116   1.329   6.745  1.2272 -0.7480 -0.4682
10407SOL     OW32270   3.216   1.644   0.375 -0.0592 -0.0720 -0.3693
10407SOL    HW132271   3.268   1.711   0.330 -1.5806  2.4004  1.3005
10407SOL    HW232272   3.217   1.671   0.467 -1.8706 -1.5843  0.1588
10408SOL     OW32273   0.127   4.221   5.512 -0.1003 -0.6020  0.1732
10408SOL    HW132274   0.190   4.292   5.524  1.2249 -1.5934 -0.5788
10408SOL    HW232275   0.149   4.184   5.426 -0.3704 -2.2658  0.7862
10409SOL     OW32276   5.587   3.880   4.296 -0.2071 -0.3951  0.3935
10409SOL    HW132277   5.640   3.898   4.218  0.9224  0.9956  1.4280
10409SOL    HW232278   5.570   3.966   4.334 -1.1592 -1.0115  1.4215
10410SOL     OW32279   6.756   8.055   5.276 -0.5646  0.6332  0.3246
10410SOL    HW132280   6.769   8.035   5.368  2.1234  1.9611  0.3462
10410SOL    HW232281   6.808   7.990   5.229  1.5255  2.4133  0.0250
10411SOL     OW32282   6.712   5.346   4.132  0.3515  0.0648  0.3402
10411SOL    HW132283   6.706   5.303   4.218 -1.8086 -3.6535 -1.3933
10411SOL    HW232284   6.623   5.378   4.116  0.5809  0.1899 -0.7124
10412SOL     OW32285   7.155   3.861   2.989 -0.0922  0.1148 -0.5137
10412SOL    HW132286   7.218   3.905   2.931  0.6802 -0.5640 -0.2074
10412SOL    HW232287   7.157   3.912   3.070  0.0598  0.1136 -0.5149
10413SOL     OW32288   4.114   4.828   0.891 -0.1733 -0.1639  0.2787
10413SOL    HW132289   4.161   4.746   0.907 -0.4700 -0.5653 -0.8320
10413SOL    HW232290   4.149   4.859   0.807  0.8011  1.4711  1.2521
10414SOL     OW32291   3.795   5.805   5.735 -0.1727 -0.6959  0.5497
10414SOL    HW132292   3.863   5.846   5.682 -1.0311  1.2332  0.8526
10414SOL    HW232293   3.740   5.758   5.672  0.4538 -0.8298  0.0978
10415SOL     OW32294   6.682   3.500   3.152 -0.2294  0.6584 -0.3940
10415SOL    HW132295   6.716   3.426   3.101 -0.0052  1.4750 -1.4676
10415SOL    HW232296   6.621   3.544   3.093 -1.4144  0.5615  0.7047
10416SOL     OW32297   1.501   7.492   0.554 -0.4306 -0.2739  0.8684
10416SOL    HW132298   1.594   7.482   0.574  0.0062  1.7158  0.1240
10416SOL    HW232299   1.466   7.403   0.552  1.2524 -1.0040  2.0458
10417SOL     OW32300   8.143   7.284   3.817  0.6495 -0.5324 -0.2021
10417SOL    HW132301   8.123   7.367   3.859  1.4754 -0.4645  0.0738
10417SOL    HW232302   8.057   7.247   3.794  0.2662  0.2260 -0.0155
10418SOL     OW32303   7.925   6.678   3.852 -0.3161 -0.7049 -0.3870
10418SOL    HW132304   7.853   6.725   3.895  1.1064  0.0892  1.2593
10418SOL    HW232305   7.917   6.588   3.883  0.5805 -0.1835  1.5378
10419SOL     OW32306   2.620   7.844   6.002  0.4871  0.2572  0.0831
10419SOL    HW132307   2.594   7.860   6.093  2.0298  1.5358  0.3424
10419SOL    HW232308   2.669   7.923   5.977 -0.0544  0.0174 -1.9331
10420SOL     OW32309   5.610   0.365   5.713  0.2090  1.1084  1.1345
10420SOL    HW132310   5.688   0.364   5.768  2.0853 -2.5524 -1.1984
10420SOL    HW232311   5.556   0.292   5.745 -0.8167  1.7000  0.8222
10421SOL     OW32312   2.097   5.708   3.933  0.4126 -0.2851  0.1192
10421SOL    HW132313   2.064   5.786   3.977  0.9847  0.2522 -0.3763
10421SOL    HW232314   2.020   5.654   3.916 -0.2378  0.9561 -1.0619
10422SOL     OW32315   3.535   6.104   1.162  0.1518  0.3107 -0.5790
10422SOL    HW132316   3.610   6.130   1.215  0.4893  2.3810 -1.9698
10422SOL    HW232317   3.459   6.133   1.211  0.3838  0.6134 -0.3951
10423SOL     OW32318   2.575   4.221   6.834  0.0509 -0.2219 -0.4915
10423SOL    HW132319   2.595   4.245   6.744  1.3218  0.1948 -0.1130
10423SOL    HW232320   2.627   4.280   6.888  1.8140 -2.5261  0.5001
10424SOL     OW32321   3.615   8.149   1.004  0.3352  0.0301  0.3869
10424SOL    HW132322   3.703   8.138   0.968  0.8481 -0.6911  1.7811
10424SOL    HW232323   3.617   8.232   1.050 -0.5463  1.3296 -1.7551
10425SOL     OW32324   1.862   1.748   5.249 -0.0668 -0.1979 -0.6396
10425SOL    HW132325   1.860   1.668   5.195  1.7451 -2.0684  1.8003
10425SOL    HW232326   1.953   1.757   5.275 -0.7406  0.8797  1.6490
10426SOL     OW32327   7.142   3.969   2.554  0.0715  0.3568 -0.1022
10426SOL    HW132328   7.127   3.927   2.470  0.3518 -0.3826  0.2113
10426SOL    HW232329   7.149   4.063   2.533 -1.3205  0.3580 -0.7106
10427SOL     OW32330   0.076   4.961   0.388  0.5691  0.8384  0.0862
10427SOL    HW132331  -0.014   4.984   0.365  0.4020 -0.8257 -1.1802
10427SOL    HW232332   0.068   4.881   0.440  1.2934  0.4666 -0.3434
10428SOL     OW32333   7.568   5.374   4.330  0.4285 -0.1530  0.2648
10428SOL    HW132334   7.480   5.409   4.348  1.1598  0.4468  3.2235
10428SOL    HW232335   7.555   5.279   4.327 -0.4069 -0.0458 -0.0591
10429SOL     OW32336   1.561   0.949   8.127 -0.4079  0.1762  0.1043
10429SOL    HW132337   1.514   0.952   8.044  0.3153  0.6365 -0.2968
10429SOL    HW232338   1.542   0.862   8.162 -0.4704 -0.1354 -0.6890
10430SOL     OW32339   4.535   6.212   7.931  0.3830 -0.1795 -1.0198
10430SOL    HW132340   4.519   6.304   7.954 -2.8301 -0.6654 -0.8354
10430SOL    HW232341   4.625   6.196   7.958  1.0694  2.8977 -1.0658
10431SOL     OW32342   5.123   6.463   0.673  0.3291 -0.3156 -0.3552
10431SOL    HW132343   5.031   6.438   0.681  0.2174  0.6733  2.6056
10431SOL    HW232344   5.171   6.392   0.715  0.7870  0.0168 -0.3165
10432SOL     OW32345   2.561   0.599   6.303  0.4587 -0.2448 -0.3442
10432SOL    HW132346   2.468   0.620   6.302  0.7893  1.5517  1.4847
10432SOL    HW232347   2.566   0.513   6.260 -1.8633  0.1321 -1.5521
10433SOL     OW32348   3.824   2.186   3.833 -0.0208 -0.6530 -0.0210
10433SOL    HW132349   3.908   2.227   3.814 -0.8564  1.1028 -0.1363
10433SOL    HW232350   3.846   2.109   3.886  1.6382 -0.1849  0.0233
10434SOL     OW32351   2.609   4.273   5.028 -0.0996  0.2774  0.3848
10434SOL    HW132352   2.596   4.247   5.119  2.4154  0.6535  0.9322
10434SOL    HW232353   2.705   4.277   5.018 -0.3173  2.3329 -1.6479
10435SOL     OW32354   0.648   7.962   0.171 -0.5675  0.1344  0.0169
10435SOL    HW132355   0.564   7.930   0.139  0.8526 -2.2674 -1.6392
10435SOL    HW232356   0.668   8.036   0.115 -0.9899 -0.1080 -0.4691
10436SOL     OW32357   0.979   7.338   6.956 -0.3053  0.1909  0.6332
10436SOL    HW132358   1.029   7.419   6.964  0.8297 -0.3264 -0.8660
10436SOL    HW232359   0.923   7.336   7.034 -0.0454  2.1890  0.9049
10437SOL     OW32360   4.347   8.232   5.466  1.1448 -0.4021 -0.2173
10437SOL    HW132361   4.376   8.198   5.551  0.9574 -1.3489 -0.5112
10437SOL    HW232362   4.312   8.155   5.421 -2.4347  0.7200  0.3431
10438SOL     OW32363   5.038   1.106   0.386 -0.5422  0.1584 -0.1341
10438SOL    HW132364   5.047   1.126   0.293 -0.3452  0.5011 -0.0412
10438SOL    HW232365   4.987   1.178   0.422 -0.2000  0.2811  0.1150
10439SOL     OW32366   3.272   3.571   6.541  0.4145 -0.0840  0.4014
10439SOL    HW132367   3.215   3.495   6.533 -0.2022  0.0715  2.6114
10439SOL    HW232368   3.354   3.536   6.575  1.2010 -0.1240 -1.4605
10440SOL     OW32369   0.603   4.564   0.722 -0.0845 -0.0257  0.0286
10440SOL    HW132370   0.545   4.639   0.711 -0.8447 -0.4388  1.1253
10440SOL    HW232371   0.666   4.573   0.650 -1.4149  0.4870 -1.1227
10441SOL     OW32372   0.096   1.832   1.347  0.5269 -0.2396  0.1399
10441SOL    HW132373   0.072   1.910   1.397 -0.5058 -0.0471 -0.6165
10441SOL    HW232374   0.089   1.760   1.410  3.7144  0.4689  1.4714
10442SOL     OW32375   6.536   6.660   1.794  0.1826  0.3225 -1.0526
10442SOL    HW132376   6.625   6.697   1.794  0.0371  0.6725 -1.3920
10442SOL    HW232377   6.532   6.609   1.714  0.2632 -0.1547 -0.7594
10443SOL     OW32378   7.945   4.220   5.765 -0.3271  0.5187  0.4638
10443SOL    HW132379   7.921   4.310   5.745  0.2387  0.9328  1.6110
10443SOL    HW232380   8.040   4.217   5.757  0.0032  0.8090  3.2454
10444SOL     OW32381   0.719   3.146   2.754  0.3982  0.1972 -0.4711
10444SOL    HW132382   0.737   3.176   2.843 -0.0579  1.8946 -0.9048
10444SOL    HW232383   0.805   3.141   2.713  0.6548 -1.0550  0.1808
10445SOL     OW32384   0.204   4.855   2.120  0.4031  0.3212  0.6078
10445SOL    HW132385   0.268   4.919   2.151  2.2271  0.1534 -2.4201
10445SOL    HW232386   0.123   4.906   2.108  1.1746  1.5466  0.4433
10446SOL     OW32387   1.124   2.317   0.737  0.4442 -0.2572  0.4855
10446SOL    HW132388   1.109   2.332   0.644  1.3018 -0.9261  0.2268
10446SOL    HW232389   1.109   2.223   0.749 -1.4212  0.1032  1.3914
10447SOL     OW32390   1.881   0.128   1.095  0.1483 -0.8405  0.1025
10447SOL    HW132391   1.838   0.209   1.068  0.8677 -0.1934  0.8370
10447SOL    HW232392   1.956   0.120   1.036  1.6376  0.4979  1.6892
10448SOL     OW32393   0.632   2.341   3.737 -0.3402  0.6143 -0.1754
10448SOL    HW132394   0.613   2.281   3.808 -3.6229  2.4438  0.7407
10448SOL    HW232395   0.695   2.404   3.773  0.3269 -0.1703  0.0451
10449SOL     OW32396   6.936   0.885   0.780  0.2880  0.5565 -0.3997
10449SOL    HW132397   6.915   0.976   0.801  0.2065  0.6264 -0.7709
10449SOL    HW232398   6.859   0.835   0.808  0.5607  0.5327  0.3096
10450SOL     OW32399   7.408   5.293   5.260 -0.2995 -0.3063  0.4680
10450SOL    HW132400   7.445   5.372   5.223 -1.1815 -0.2155 -0.2563
10450SOL    HW232401   7.483   5.245   5.295  0.3958  0.2251 -0.2715
10451SOL     OW32402   6.733   2.442   3.662  0.1858  0.1247  0.1067
10451SOL    HW132403   6.783   2.499   3.604 -0.0078 -0.7374 -0.9387
10451SOL    HW232404   6.729   2.489   3.745  2.5748  0.3004  0.1815
10452SOL     OW32405   6.004   1.859   2.515  0.4095  0.0501  0.4723
10452SOL    HW132406   5.929   1.837   2.460  0.1758 -1.6119  1.3750
10452SOL    HW232407   6.055   1.778   2.519  1.0545  0.4874  1.6918
10453SOL     OW32408   2.804   0.110   0.644 -0.2267  0.0953  0.2719
10453SOL    HW132409   2.791   0.020   0.674  1.4516  0.2886  1.8099
10453SOL    HW232410   2.753   0.117   0.564 -1.6295 -1.7586  0.9359
10454SOL     OW32411   0.775   7.888   6.852 -0.0296  0.2282  0.1755
10454SOL    HW132412   0.836   7.944   6.899  1.5319  0.0956 -1.5669
10454SOL    HW232413   0.771   7.808   6.904  0.5977  0.5647  0.7621
10455SOL     OW32414   0.779   5.100   1.470  0.0912  0.1559 -0.0168
10455SOL    HW132415   0.851   5.116   1.531  0.2866  0.9810 -0.4536
10455SOL    HW232416   0.745   5.014   1.495  3.7389 -2.2293 -2.2688
10456SOL     OW32417   4.276   5.927   3.337 -0.4200 -0.2869  0.0070
10456SOL    HW132418   4.185   5.954   3.347 -0.8090 -0.9787 -1.3533
10456SOL    HW232419   4.317   5.997   3.286 -0.4167 -0.3856 -0.1265
10457SOL     OW32420   4.759   5.077   0.609  0.3169 -0.8983 -0.5989
10457SOL    HW132421   4.775   5.155   0.662  0.3410 -1.5110  0.3312
10457SOL    HW232422   4.846   5.052   0.578  0.1229  0.3459 -2.2563
10458SOL     OW32423   1.806   2.862   7.632  0.0545 -1.2499  0.0806
10458SOL    HW132424   1.740   2.833   7.568  0.2498 -0.7708 -0.3476
10458SOL    HW232425   1.863   2.921   7.582 -0.0448 -0.5237  0.8017
10459SOL     OW32426   3.587   6.390   5.862 -0.5622  0.1172  0.5276
10459SOL    HW132427   3.578   6.296   5.877  1.6961 -0.2851 -0.3031
10459SOL    HW232428   3.623   6.397   5.773  1.0199  1.6555  1.2236
10460SOL     OW32429   4.292   4.769   6.959 -0.4139  0.2050  0.2083
10460SOL    HW132430   4.223   4.703   6.967 -1.1377  0.6591 -1.6598
10460SOL    HW232431   4.272   4.834   7.025 -1.8552  0.3686 -0.3572
10461SOL     OW32432   7.034   5.397   8.033  0.1717 -0.0620  0.5722
10461SOL    HW132433   7.113   5.371   7.986 -0.5148  1.9807 -1.9649
10461SOL    HW232434   7.048   5.489   8.055 -1.5263  0.4141 -0.1372
10462SOL     OW32435   2.652   6.858   5.217  0.1862  0.3722 -0.2685
10462SOL    HW132436   2.612   6.773   5.238 -1.8621  0.4888 -3.1202
10462SOL    HW232437   2.693   6.845   5.132 -1.4303  2.5498 -1.4751
10463SOL     OW32438   3.778   1.692   3.836 -0.5914 -0.4567  0.3098
10463SOL    HW132439   3.757   1.754   3.767 -0.1229 -0.0535  0.5318
10463SOL    HW232440   3.777   1.744   3.916  1.3548 -0.4026  0.3241
10464SOL     OW32441   5.162   2.746   4.576  0.6779  0.3881 -0.7613
10464SOL    HW132442   5.166   2.755   4.481 -1.8060 -1.8550 -1.1998
10464SOL    HW232443   5.156   2.652   4.590 -0.2428  0.7427  1.5644
10465SOL     OW32444   8.136   5.128   2.465 -0.1826 -0.3574  0.3468
10465SOL    HW132445   8.135   5.182   2.544 -0.0905  0.8036 -0.4202
10465SOL    HW232446   8.229   5.119   2.444 -0.2464  1.5664 -1.0608
10466SOL     OW32447   3.360   7.805   1.596  0.8682 -0.3524 -0.2420
10466SOL    HW132448   3.381   7.803   1.690  2.3306  0.2814 -0.5353
10466SOL    HW232449   3.404   7.728   1.560 -2.5722 -2.7156  0.0711
10467SOL     OW32450   1.268   7.469   6.259 -0.4085  0.1964 -0.0297
10467SOL    HW132451   1.319   7.506   6.331 -0.1859  0.5372 -0.3640
10467SOL    HW232452   1.180   7.458   6.296 -0.4463  0.9272  0.1147
10468SOL     OW32453   3.642   7.966   3.765 -0.0501 -0.0286 -0.3911
10468SOL    HW132454   3.562   7.955   3.714 -0.1214  0.4726 -0.3932
10468SOL    HW232455   3.620   8.031   3.832 -0.6078 -2.2156  1.6871
10469SOL     OW32456   0.906   2.038   1.651 -0.2412 -0.3933 -0.0350
10469SOL    HW132457   0.948   2.057   1.567  1.9342  0.0976  1.1034
10469SOL    HW232458   0.834   2.101   1.656 -0.1922 -0.1903 -1.3607
10470SOL     OW32459   3.370   5.617   5.697 -0.4209  0.8623  0.9261
10470SOL    HW132460   3.412   5.665   5.769 -1.4847  0.6290  1.7231
10470SOL    HW232461   3.335   5.538   5.738 -0.6345  0.4838  0.0442
10471SOL     OW32462   6.449   4.982   4.390 -0.0277 -0.5280  0.4488
10471SOL    HW132463   6.410   5.032   4.319 -1.5023  0.1761  1.7248
10471SOL    HW232464   6.544   4.992   4.377 -0.2530  2.5150  0.5862
10472SOL     OW32465   1.588   3.265   5.378 -0.0486  0.5084  0.2277
10472SOL    HW132466   1.590   3.216   5.295 -0.9395 -0.4261  0.7370
10472SOL    HW232467   1.579   3.357   5.351 -0.3500  0.2197 -0.7102
10473SOL     OW32468   0.512   0.323   8.187  0.2133  0.7020 -0.2240
10473SOL    HW132469   0.448   0.392   8.169  1.0866  1.8047  0.7344
10473SOL    HW232470   0.548   0.302   8.101 -0.8831  0.6103 -0.6780
10474SOL     OW32471   1.071   4.005   8.241  0.9846 -0.3552  0.1233
10474SOL    HW132472   1.164   4.029   8.237  1.3646 -1.7079 -0.0210
10474SOL    HW232473   1.072   3.909   8.244 -0.4115 -0.3832  0.3371
10475SOL     OW32474   4.448   1.399   4.927 -0.2980 -0.4418  0.0744
10475SOL    HW132475   4.443   1.478   4.872 -0.3936  0.3061  1.1249
10475SOL    HW232476   4.369   1.403   4.981  0.1549 -0.7701  0.7764
10476SOL     OW32477   3.865   7.122   1.300  0.5190  0.0124  0.0366
10476SOL    HW132478   3.927   7.194   1.304  0.0438  0.5111 -1.0542
10476SOL    HW232479   3.805   7.138   1.373  1.3837 -0.2251  0.8159
10477SOL     OW32480   0.437   1.518   1.138  0.5434 -0.1459 -0.1458
10477SOL    HW132481   0.429   1.455   1.067 -1.7633  1.6556 -1.6579
10477SOL    HW232482   0.468   1.598   1.095 -0.3461  0.8326  0.9760
10478SOL     OW32483   7.802   7.156   0.634  0.1380  0.0588 -0.3238
10478SOL    HW132484   7.894   7.174   0.655 -0.0299 -0.1073  0.5956
10478SOL    HW232485   7.766   7.241   0.609  0.2415  0.3456  0.4896
10479SOL     OW32486   2.774   5.234   2.490  0.0611 -0.1960  0.0907
10479SOL    HW132487   2.744   5.261   2.404  2.2815  0.8399 -0.4384
10479SOL    HW232488   2.721   5.157   2.511 -1.8176  0.6275 -1.3328
10480SOL     OW32489   1.222   2.114   4.465  0.0436  0.5484  0.0946
10480SOL    HW132490   1.285   2.050   4.500 -0.4533 -0.0214 -0.0314
10480SOL    HW232491   1.273   2.194   4.453  0.7827  0.0521 -0.1544
10481SOL     OW32492   4.842   8.145   2.039 -0.0548 -0.2718 -0.4743
10481SOL    HW132493   4.809   8.235   2.034 -0.0611 -0.2395  0.1043
10481SOL    HW232494   4.868   8.134   2.131 -1.8679 -1.4996 -0.0637
10482SOL     OW32495   3.075   4.807   4.042  0.1763  0.0218 -0.5027
10482SOL    HW132496   3.038   4.720   4.058  0.5386 -0.2299 -0.9965
10482SOL    HW232497   3.002   4.856   4.003  0.0119 -0.1056 -0.3587
10483SOL     OW32498   1.795   4.344   0.214 -0.7761 -0.3268  0.4083
10483SOL    HW132499   1.850   4.378   0.144  0.4096  0.3328  1.6070
10483SOL    HW232500   1.776   4.254   0.188 -0.9875  0.1153 -1.0911
10484SOL     OW32501   6.508   7.465   3.351  0.3120 -0.1799 -0.1520
10484SOL    HW132502   6.438   7.400   3.338  1.1178 -1.2112  0.4696
10484SOL    HW232503   6.516   7.471   3.446  0.9781  0.0312 -0.2200
10485SOL     OW32504   5.225   7.119   2.978  0.1202 -0.3202 -0.1796
10485SOL    HW132505   5.208   7.042   2.924 -0.7757 -0.1807 -0.1035
10485SOL    HW232506   5.213   7.193   2.919  0.3159 -0.2109 -0.0835
10486SOL     OW32507   6.537   3.558   2.907  0.4276 -0.2852  0.3664
10486SOL    HW132508   6.462   3.545   2.849  1.7980 -0.7547 -1.3883
10486SOL    HW232509   6.595   3.484   2.890  1.1549 -0.1223  1.9314
10487SOL     OW32510   6.302   1.385   5.689 -0.3617 -0.2929  0.5589
10487SOL    HW132511   6.376   1.368   5.748  0.5274  1.0634 -0.1033
10487SOL    HW232512   6.226   1.391   5.746 -0.0649 -2.2053  1.2195
10488SOL     OW32513   2.069   7.592   4.299  0.2953 -0.2333  0.0344
10488SOL    HW132514   2.090   7.589   4.393 -0.7331  2.5333  0.4468
10488SOL    HW232515   1.979   7.562   4.293 -0.0361  0.6906  0.1410
10489SOL     OW32516   3.630   2.664   4.941 -0.1192  0.1567  0.1809
10489SOL    HW132517   3.623   2.598   5.010 -0.0661 -1.0159 -0.8805
10489SOL    HW232518   3.717   2.650   4.902  0.3839  1.6636  0.6925
10490SOL     OW32519   1.401   5.638   3.115 -0.3101  0.3708 -0.1284
10490SOL    HW132520   1.487   5.625   3.076 -0.1283  0.7882  0.1335
10490SOL    HW232521   1.340   5.607   3.048  0.0722 -1.0806  0.1669
10491SOL     OW32522   6.953   3.639   2.932  0.2742 -0.5354 -0.2362
10491SOL    HW132523   6.869   3.685   2.932  0.0726 -0.8940  0.3238
10491SOL    HW232524   7.018   3.709   2.936 -0.0119 -0.2737 -0.0926
10492SOL     OW32525   3.461   4.295   2.328  0.3626  0.0798 -0.3570
10492SOL    HW132526   3.547   4.333   2.308 -1.0298  3.6062 -0.5061
10492SOL    HW232527   3.477   4.239   2.404  2.6641  1.5718  0.4008
10493SOL     OW32528   5.477   0.734   7.394 -0.3897 -0.3348  0.1948
10493SOL    HW132529   5.521   0.781   7.465  0.0887 -2.0639  1.1068
10493SOL    HW232530   5.548   0.701   7.339 -0.7705  1.6191 -1.5919
10494SOL     OW32531   8.017   2.614   7.682 -0.4054  0.4317 -0.5652
10494SOL    HW132532   8.110   2.629   7.662  0.0824  0.4097  1.4179
10494SOL    HW232533   8.007   2.519   7.678  0.0237  0.3247  0.5235
10495SOL     OW32534   0.904   3.971   6.942 -0.3391 -0.0655 -0.4643
10495SOL    HW132535   0.995   3.981   6.970 -0.8575 -0.5386  1.5231
10495SOL    HW232536   0.906   3.990   6.848  1.7199  0.3895 -0.3782
10496SOL     OW32537   7.617   6.112   4.413 -0.3523 -0.3479  0.5170
10496SOL    HW132538   7.546   6.097   4.350  0.0737  0.6349 -0.2137
10496SOL    HW232539   7.685   6.157   4.363  0.8762 -1.4024  1.1601
10497SOL     OW32540   1.289   3.266   8.227  0.0134  0.4388 -0.1278
10497SOL    HW132541   1.359   3.224   8.278 -0.3787 -0.2156 -0.1238
10497SOL    HW232542   1.334   3.334   8.177  0.5827  0.3334  0.2257
10498SOL     OW32543   7.110   7.901   0.258  0.2719 -0.4810 -0.5427
10498SOL    HW132544   7.068   7.912   0.343  0.2768 -1.8914 -0.3368
10498SOL    HW232545   7.040   7.916   0.194 -0.5271 -2.5250 -0.2087
10499SOL     OW32546   2.511   6.191   4.572  0.2132 -0.0435 -0.5437
10499SOL    HW132547   2.537   6.265   4.517 -1.4904  0.2801 -0.9651
10499SOL    HW232548   2.524   6.222   4.662  3.0127 -0.5716 -0.6960
10500SOL     OW32549   2.886   1.002   0.248 -0.0926 -0.2375  0.2876
10500SOL    HW132550   2.981   1.007   0.235  0.0783  0.6058  1.7446
10500SOL    HW232551   2.851   1.075   0.197  0.1801  0.3198  0.8842
10501SOL     OW32552   3.002   1.034   7.839 -0.0924  0.6088 -0.2199
10501SOL    HW132553   3.096   1.016   7.852 -0.1224  0.2457 -0.4743
10501SOL    HW232554   2.997   1.067   7.749 -0.1200  1.3063  0.0345
10502SOL     OW32555   5.705   4.779   0.263 -0.1378 -0.5346 -0.2320
10502SOL    HW132556   5.750   4.861   0.245  0.0546 -0.7879 -0.9487
10502SOL    HW232557   5.732   4.721   0.192  0.9312 -1.7048  1.0604
10503SOL     OW32558   1.483   7.861   2.478 -0.0283 -0.4016 -0.1986
10503SOL    HW132559   1.478   7.928   2.547 -0.8219  1.8191 -2.2505
10503SOL    HW232560   1.533   7.902   2.408  0.9283 -2.6580 -0.9272
10504SOL     OW32561   7.076   5.330   1.356  0.3834 -0.1417 -0.2375
10504SOL    HW132562   7.158   5.372   1.330 -0.1444  0.5701 -0.7828
10504SOL    HW232563   7.060   5.265   1.288 -1.2946  2.1061 -2.1702
10505SOL     OW32564   0.361   3.291   3.087 -0.0797 -0.4265  0.1275
10505SOL    HW132565   0.394   3.244   3.010 -1.0663 -0.5560 -0.2323
10505SOL    HW232566   0.301   3.229   3.129 -2.0183  0.7022 -0.7904
10506SOL     OW32567   4.860   6.516   1.219 -0.2355  0.0823 -0.5832
10506SOL    HW132568   4.852   6.605   1.253  0.0279  0.5480 -1.6834
10506SOL    HW232569   4.954   6.504   1.206 -0.2398 -0.4882 -0.1147
10507SOL     OW32570   2.833   5.033   8.053  0.0435 -0.1650 -0.0897
10507SOL    HW132571   2.816   5.063   8.142  0.2993 -0.3592  0.0242
10507SOL    HW232572   2.765   5.075   8.000 -1.1591 -1.3571  0.4405
10508SOL     OW32573   2.246   1.699   1.409 -0.9234  0.2219  0.0026
10508SOL    HW132574   2.198   1.654   1.339 -2.8369  2.2840 -0.1248
10508SOL    HW232575   2.198   1.780   1.422 -0.3924  0.1223  3.4597
10509SOL     OW32576   4.353   2.248   7.103 -0.3085 -0.5097  0.3024
10509SOL    HW132577   4.264   2.225   7.077  0.6822 -2.1250 -2.0215
10509SOL    HW232578   4.344   2.329   7.153 -2.8963  0.5442 -1.6800
10510SOL     OW32579   6.864   0.341   7.028 -0.0765 -0.2249 -0.4844
10510SOL    HW132580   6.924   0.268   7.042 -1.9768 -1.6863  0.4233
10510SOL    HW232581   6.882   0.401   7.100  0.1110 -0.7569 -0.0841
10511SOL     OW32582   2.743   0.904   1.499  0.4481  0.3687  0.4737
10511SOL    HW132583   2.781   0.835   1.444  1.4663  0.9416  0.4311
10511SOL    HW232584   2.651   0.907   1.473  0.4769 -0.7102  0.2056
10512SOL     OW32585   6.254   7.414   2.621 -0.4308  0.3539  0.1650
10512SOL    HW132586   6.282   7.338   2.671  0.3304 -0.6827 -1.7473
10512SOL    HW232587   6.236   7.481   2.687  1.6487 -0.5623  1.7673
10513SOL     OW32588   4.664   2.561   2.819  0.0493  1.1185  0.0221
10513SOL    HW132589   4.571   2.561   2.843  0.3660  1.9037  1.3025
10513SOL    HW232590   4.681   2.471   2.791 -0.3835  0.1583  2.6285
10514SOL     OW32591   4.210   4.901   6.328 -0.0455 -0.5823 -0.5576
10514SOL    HW132592   4.157   4.859   6.396 -1.0540  0.3419 -0.7413
10514SOL    HW232593   4.286   4.937   6.376 -0.0324 -1.1430 -0.1493
10515SOL     OW32594   6.261   7.287   1.179 -0.6982 -0.2700  0.3867
10515SOL    HW132595   6.302   7.362   1.136  0.4697 -0.4608  1.1293
10515SOL    HW232596   6.168   7.296   1.159 -0.4189  0.6754 -0.5891
10516SOL     OW32597   7.426   3.310   2.432 -0.4342 -0.2655 -0.1046
10516SOL    HW132598   7.357   3.244   2.428 -0.4496 -0.2355 -3.2817
10516SOL    HW232599   7.381   3.389   2.464 -1.1654 -0.9704  0.6474
10517SOL     OW32600   0.883   1.288   2.080  0.1311  0.1082 -0.6071
10517SOL    HW132601   0.958   1.331   2.041  1.1962  0.0277  1.2442
10517SOL    HW232602   0.919   1.240   2.154 -1.5171 -1.2598 -0.6319
10518SOL     OW32603   4.716   2.413   4.256  0.8014 -0.6385 -0.0088
10518SOL    HW132604   4.732   2.326   4.220  0.3460 -1.2229  1.1182
10518SOL    HW232605   4.767   2.414   4.337  1.8846  0.6630 -0.6750
10519SOL     OW32606   3.367   3.290   6.196 -0.0191 -0.2122 -0.3324
10519SOL    HW132607   3.292   3.344   6.220  0.4311 -0.6716  2.4397
10519SOL    HW232608   3.431   3.351   6.161 -0.3953  0.7410  0.5850
10520SOL     OW32609   6.670   5.194   0.721 -0.6195 -0.5694  1.0455
10520SOL    HW132610   6.604   5.125   0.712 -0.4323 -0.6112 -0.1653
10520SOL    HW232611   6.662   5.245   0.641  1.4690 -1.1487  0.4081
10521SOL     OW32612   3.320   2.493   2.788  0.2000 -0.3273  0.7630
10521SOL    HW132613   3.394   2.550   2.810 -0.5979  0.9039  0.3059
10521SOL    HW232614   3.329   2.418   2.848  3.0107 -1.2628 -0.6465
10522SOL     OW32615   3.923   4.989   6.838  0.2881  0.0424  0.0098
10522SOL    HW132616   3.890   4.940   6.762  0.3304 -0.8319  0.5428
10522SOL    HW232617   3.880   4.949   6.913 -0.1158  1.2050  0.4324
10523SOL     OW32618   2.697   8.273   3.709  0.0846  0.0672 -0.4307
10523SOL    HW132619   2.682   8.181   3.731  0.6937  0.2138  0.6670
10523SOL    HW232620   2.627   8.295   3.646  0.6465 -1.4593 -1.6434
10524SOL     OW32621   5.229   0.277   5.374  0.5428 -0.3119 -0.4848
10524SOL    HW132622   5.257   0.195   5.413  1.4334  1.0994  2.1084
10524SOL    HW232623   5.135   0.282   5.393  0.3512 -0.9827 -1.2136
10525SOL     OW32624   3.115   7.999   4.336  0.0985  0.3502  0.1237
10525SOL    HW132625   3.168   7.921   4.347  1.2656  1.0060 -0.6012
10525SOL    HW232626   3.178   8.069   4.318 -1.0368  0.9312 -2.0119
10526SOL     OW32627   1.608   1.432   3.572  0.5039 -0.5390 -0.9912
10526SOL    HW132628   1.523   1.432   3.529 -0.6924  0.5904  1.2420
10526SOL    HW232629   1.650   1.513   3.541 -0.3213  0.2385 -0.1224
10527SOL     OW32630   5.288   2.616   3.687 -0.2368 -0.2227  0.2202
10527SOL    HW132631   5.247   2.687   3.736 -1.7020 -0.8606 -0.0201
10527SOL    HW232632   5.282   2.540   3.745  2.2764  0.0264  0.9133
10528SOL     OW32633   2.139   5.097   1.638 -0.1637  0.4281  0.2542
10528SOL    HW132634   2.214   5.128   1.587  1.3462 -1.5358  1.1420
10528SOL    HW232635   2.075   5.069   1.572 -0.0888  1.9488 -0.5119
10529SOL     OW32636   3.598   6.416   6.246 -0.8660 -0.0699  0.4884
10529SOL    HW132637   3.673   6.407   6.188  0.3077  0.8136  1.8182
10529SOL    HW232638   3.526   6.443   6.188  0.2310  0.7099 -0.5501
10530SOL     OW32639   6.136   7.527   5.436 -0.0142 -0.2421  0.8002
10530SOL    HW132640   6.126   7.455   5.497  0.8045 -0.6212  0.5013
10530SOL    HW232641   6.116   7.490   5.350  0.2750 -0.0877  0.6612
10531SOL     OW32642   3.362   1.143   5.550 -0.1433  0.8892  0.3105
10531SOL    HW132643   3.357   1.066   5.493 -0.4225  0.8430  0.3985
10531SOL    HW232644   3.293   1.130   5.615 -1.2202  1.9380 -0.5713
10532SOL     OW32645   3.416   2.081   4.384  0.6326  0.8471 -0.4256
10532SOL    HW132646   3.428   2.134   4.462 -1.8841 -0.7851  1.2295
10532SOL    HW232647   3.340   2.119   4.340 -0.2129 -0.4020 -0.0758
10533SOL     OW32648   5.206   3.746   0.870 -0.0208 -0.2850  0.1259
10533SOL    HW132649   5.253   3.740   0.787  0.9622 -0.6100  0.6868
10533SOL    HW232650   5.257   3.693   0.931 -1.9378 -1.9002  0.4183
10534SOL     OW32651   5.505   3.153   2.299  0.4356  0.0276 -0.9275
10534SOL    HW132652   5.533   3.070   2.338  0.2981  0.0944 -0.6790
10534SOL    HW232653   5.558   3.163   2.221  0.1481 -0.5125 -1.1988
10535SOL     OW32654   3.596   0.717   1.312  0.1720  0.0093  0.1437
10535SOL    HW132655   3.626   0.786   1.370 -0.2246 -0.6835  1.1971
10535SOL    HW232656   3.620   0.636   1.356  0.5001 -0.5467 -0.9983
10536SOL     OW32657   0.608   3.018   3.368  0.2165 -0.0009  1.0448
10536SOL    HW132658   0.583   3.097   3.417  0.8039 -0.6503  2.4243
10536SOL    HW232659   0.704   3.018   3.370  0.8299  2.9857 -4.9751
10537SOL     OW32660   3.434   7.094   1.051 -0.2354 -0.0903  0.3780
10537SOL    HW132661   3.499   7.135   1.108  2.0203 -0.9764 -1.3510
10537SOL    HW232662   3.369   7.162   1.034  0.6194  1.0774  1.6475
10538SOL     OW32663   7.861   6.361   1.546 -0.0029 -0.2142 -0.0837
10538SOL    HW132664   7.887   6.289   1.488  1.9162  0.2759  0.1076
10538SOL    HW232665   7.823   6.426   1.487 -0.6159 -0.8505 -0.4132
10539SOL     OW32666   0.658   7.724   1.531 -0.2915  0.2079 -0.7835
10539SOL    HW132667   0.708   7.696   1.608 -0.3453 -0.9453 -1.1432
10539SOL    HW232668   0.724   7.735   1.462 -0.3189  0.6117 -0.7493
10540SOL     OW32669   4.993   6.949   5.343 -0.1264  0.1226  0.6032
10540SOL    HW132670   4.995   6.925   5.436 -0.8023 -0.8551  0.3806
10540SOL    HW232671   4.965   6.869   5.298 -0.4619  0.7748 -0.3845
10541SOL     OW32672   7.499   4.980   5.915  0.8004 -0.2150 -0.4013
10541SOL    HW132673   7.516   5.069   5.885  0.7377 -0.1252 -0.1695
10541SOL    HW232674   7.489   4.929   5.835  0.9566 -0.0354 -0.5340
10542SOL     OW32675   1.741   5.013   1.817 -0.0956 -0.3096  0.7336
10542SOL    HW132676   1.711   4.942   1.874  0.2925 -0.7846  0.3651
10542SOL    HW232677   1.823   5.042   1.856 -0.0932 -0.2820  0.7081
10543SOL     OW32678   0.460   2.273   2.399  0.1737 -0.9786  0.0954
10543SOL    HW132679   0.438   2.342   2.338  1.0328  0.2220  1.0832
10543SOL    HW232680   0.518   2.214   2.350  1.4602  0.3687 -0.0655
10544SOL     OW32681   2.181   1.776   3.713  0.2203  0.3462 -0.9995
10544SOL    HW132682   2.088   1.755   3.703  0.0248 -1.2740  2.6507
10544SOL    HW232683   2.221   1.695   3.745  2.2099  1.8734  0.6540
10545SOL     OW32684   4.905   3.584   0.204  0.5364  0.1092  0.3795
10545SOL    HW132685   4.979   3.645   0.197  1.1136 -0.4487  1.3934
10545SOL    HW232686   4.869   3.580   0.115  2.1536 -0.1354 -0.3040
10546SOL     OW32687   1.877   7.546   0.123  0.1537  0.5802 -0.3177
10546SOL    HW132688   1.930   7.605   0.177  0.6763 -1.1672  1.1881
10546SOL    HW232689   1.928   7.535   0.042  0.7876  0.9866  0.0164
10547SOL     OW32690   1.210   4.192   7.040 -0.1841 -0.0667 -0.3612
10547SOL    HW132691   1.217   4.098   7.025 -1.1476  0.0613 -1.7479
10547SOL    HW232692   1.163   4.199   7.124  4.4426 -0.7774  2.6532
10548SOL     OW32693   3.422   4.034   2.091 -0.3388 -0.2290  0.0664
10548SOL    HW132694   3.440   4.052   2.183 -0.6695 -1.4219  0.3868
10548SOL    HW232695   3.496   4.072   2.044 -0.2174  0.4833  0.8058
10549SOL     OW32696   5.265   1.702   7.602  0.3236 -0.3004  0.0238
10549SOL    HW132697   5.271   1.643   7.526 -0.3261 -0.1697 -0.1331
10549SOL    HW232698   5.322   1.662   7.667 -0.5828 -1.4682  0.1487
10550SOL     OW32699   7.018   2.291   0.470  0.1027 -0.2643 -0.1983
10550SOL    HW132700   7.103   2.312   0.433  0.1631 -1.7123 -0.9788
10550SOL    HW232701   6.955   2.331   0.410  0.2223  1.1030  0.5714
10551SOL     OW32702   5.815   1.453   5.779 -0.0903 -0.2921  0.6599
10551SOL    HW132703   5.780   1.523   5.834 -3.3500 -0.1713 -1.2792
10551SOL    HW232704   5.811   1.374   5.834  1.3865  0.5713  2.0876
10552SOL     OW32705   1.609   0.029   3.853  0.3667  0.5929 -0.1953
10552SOL    HW132706   1.529   0.047   3.805 -0.4042 -0.2684  0.7354
10552SOL    HW232707   1.624   0.108   3.906  0.6244  1.0980 -0.9987
10553SOL     OW32708   4.245   4.689   2.704  0.0797 -0.3654 -0.5303
10553SOL    HW132709   4.167   4.642   2.733  0.6005 -1.7072 -1.1853
10553SOL    HW232710   4.213   4.753   2.642 -0.5319 -0.7867 -0.6578
10554SOL     OW32711   4.928   0.031   0.345 -0.0951 -0.6282  0.1172
10554SOL    HW132712   4.975   0.063   0.421  1.5271 -0.9977 -0.6923
10554SOL    HW232713   4.857  -0.023   0.381  0.0839 -0.0566  1.3627
10555SOL     OW32714   6.042   3.162   5.939  0.2885 -0.1434  0.5175
10555SOL    HW132715   5.981   3.088   5.940 -1.4268  1.1781 -0.3884
10555SOL    HW232716   5.986   3.239   5.941  1.9405  1.1466 -0.2515
10556SOL     OW32717   3.911   0.610   4.125  0.2500 -0.0846 -0.4239
10556SOL    HW132718   3.973   0.539   4.111 -0.6292 -0.7725 -0.9450
10556SOL    HW232719   3.911   0.659   4.043  1.4923  1.0731  0.2178
10557SOL     OW32720   2.827   2.330   6.291 -0.1826  0.0452 -0.0760
10557SOL    HW132721   2.789   2.410   6.254 -0.1266  0.0009 -0.2335
10557SOL    HW232722   2.905   2.314   6.237  1.9607  1.9274  2.2239
10558SOL     OW32723   2.922   2.533   1.420 -0.1367  0.5797 -0.0833
10558SOL    HW132724   2.937   2.566   1.332 -0.2295 -1.0395 -0.7276
10558SOL    HW232725   2.831   2.553   1.438 -0.6357 -0.6546 -1.0853
10559SOL     OW32726   6.207   5.321   6.698 -0.2646 -0.1657 -0.4413
10559SOL    HW132727   6.186   5.410   6.729 -0.4890  0.5600 -2.5164
10559SOL    HW232728   6.216   5.331   6.604  2.6118 -1.7987 -0.4536
10560SOL     OW32729   6.261   4.234   3.743  0.6781 -0.0955  0.1264
10560SOL    HW132730   6.167   4.252   3.743  0.5143 -0.8032 -1.1763
10560SOL    HW232731   6.267   4.139   3.741  1.4543 -0.0899  1.1472
10561SOL     OW32732   4.833   7.302   7.548  0.2432 -0.2958 -0.1875
10561SOL    HW132733   4.747   7.308   7.507 -1.2542 -1.9016  2.4639
10561SOL    HW232734   4.879   7.234   7.498 -0.6678 -0.6522 -0.5551
10562SOL     OW32735   6.675   6.154   0.229 -0.2706  0.2714 -0.3591
10562SOL    HW132736   6.709   6.075   0.272 -0.5460  0.1713 -0.3173
10562SOL    HW232737   6.595   6.174   0.278 -1.2883 -0.5819 -1.5868
10563SOL     OW32738   0.347   2.754   5.160 -0.1211 -0.2801 -0.3528
10563SOL    HW132739   0.388   2.758   5.247 -1.9254  2.4130  0.4973
10563SOL    HW232740   0.369   2.667   5.128  1.1471 -1.1650  2.5373
10564SOL     OW32741   1.132   6.487   7.801 -0.9145  0.2062 -0.0423
10564SOL    HW132742   1.189   6.499   7.725 -0.7953  0.5698  0.1014
10564SOL    HW232743   1.170   6.543   7.869 -0.2863 -1.0842  0.7020
10565SOL     OW32744   2.229   7.324   7.934  0.3083 -0.2375  0.0905
10565SOL    HW132745   2.159   7.283   7.984 -0.6250  1.0115 -0.1318
10565SOL    HW232746   2.309   7.281   7.964 -0.4528 -1.0560  1.0152
10566SOL     OW32747   2.729   8.149   2.267  0.0750 -0.1387  1.0458
10566SOL    HW132748   2.719   8.095   2.189  0.5551  0.6357  0.4335
10566SOL    HW232749   2.639   8.162   2.299 -0.2103  0.2938  0.0963
10567SOL     OW32750   6.088   1.029   6.723  0.3027 -0.2497 -0.1784
10567SOL    HW132751   6.005   1.030   6.675  0.2351 -0.0238 -0.0549
10567SOL    HW232752   6.150   1.072   6.664  0.1590  0.2704  0.0475
10568SOL     OW32753   7.714   1.810   6.883  0.5063  0.6458  0.2590
10568SOL    HW132754   7.683   1.750   6.814  2.2370  0.7189 -0.6165
10568SOL    HW232755   7.642   1.872   6.893 -1.2009 -1.2860  0.9169
10569SOL     OW32756   4.136   1.157   5.987  0.4712 -0.4486  0.2322
10569SOL    HW132757   4.101   1.154   5.898 -1.2526  0.8811  0.8324
10569SOL    HW232758   4.188   1.076   5.994  1.0764 -0.3427 -2.1171
10570SOL     OW32759   3.129   3.309   4.302  0.5409  0.2743  0.0452
10570SOL    HW132760   3.195   3.264   4.355  0.2755  0.1050  0.2321
10570SOL    HW232761   3.132   3.400   4.333  0.4727  0.2022  0.2675
10571SOL     OW32762   6.125   0.257   0.029 -0.0789  0.4139 -0.3570
10571SOL    HW132763   6.204   0.208   0.004 -0.2170  0.1793 -0.3427
10571SOL    HW232764   6.055   0.217  -0.024  0.0246  1.4583 -1.3154
10572SOL     OW32765   3.045   7.617   1.358 -0.6435  0.2569  0.4653
10572SOL    HW132766   3.020   7.709   1.354  0.9629  0.6867 -2.2959
10572SOL    HW232767   2.997   7.577   1.285  0.3358 -0.5920  0.2652
10573SOL     OW32768   3.605   0.838   8.142 -0.1385  0.1516 -1.3778
10573SOL    HW132769   3.670   0.851   8.211 -1.7478 -0.6173  0.3590
10573SOL    HW232770   3.599   0.923   8.098  0.8978  0.6641 -0.5620
10574SOL     OW32771   6.184   2.919   8.156 -0.2287  0.1536  0.1574
10574SOL    HW132772   6.097   2.886   8.132 -0.2991  0.6151 -0.2356
10574SOL    HW232773   6.209   2.867   8.233 -1.3713  0.8199  1.0184
10575SOL     OW32774   0.761   7.470   0.934  0.1014 -1.2042 -0.0228
10575SOL    HW132775   0.670   7.441   0.935 -0.3888  0.0402 -2.3286
10575SOL    HW232776   0.783   7.477   0.841  0.8935  3.2527  0.2787
10576SOL     OW32777   8.158   0.232   4.183  0.0686 -0.1590 -0.2694
10576SOL    HW132778   8.253   0.239   4.191 -0.1469  0.6405  2.3518
10576SOL    HW232779   8.142   0.140   4.162  1.3640 -0.5527  0.4056
10577SOL     OW32780   4.269   0.621   6.696  0.0675 -0.0670 -0.1551
10577SOL    HW132781   4.202   0.655   6.636  0.4760 -1.0888 -1.2310
10577SOL    HW232782   4.316   0.555   6.645 -0.1771 -1.6814  1.6036
10578SOL     OW32783   5.824   1.116   4.671 -0.6012  0.2071 -0.1079
10578SOL    HW132784   5.753   1.165   4.628 -0.6338 -0.8141 -1.2816
10578SOL    HW232785   5.889   1.183   4.692 -0.0413  0.6782 -2.8939
10579SOL     OW32786   4.992   3.178   4.872  0.1560  0.5081  0.1003
10579SOL    HW132787   5.040   3.110   4.824  1.1078  0.4495  1.0979
10579SOL    HW232788   4.996   3.151   4.963 -1.2574  0.8444  0.2936
10580SOL     OW32789   1.580   7.317   6.549  0.3697 -0.1902 -0.2555
10580SOL    HW132790   1.641   7.244   6.561  2.0361  1.2749  0.5781
10580SOL    HW232791   1.536   7.298   6.466  2.4305 -0.9947 -1.2261
10581SOL     OW32792   3.126   7.911   1.517  0.3100 -0.2199 -1.0392
10581SOL    HW132793   3.135   8.006   1.528 -0.0256 -0.1240 -1.5261
10581SOL    HW232794   3.212   7.876   1.538 -0.1506 -0.0457  1.4307
10582SOL     OW32795   1.894   6.915   7.378  0.3881 -0.2407  0.1109
10582SOL    HW132796   1.857   6.915   7.289 -1.0833 -1.6109  0.6773
10582SOL    HW232797   1.840   6.978   7.426  0.2373 -0.5595  0.3696
10583SOL     OW32798   6.066   4.357   3.381  0.1782  0.2023  0.4379
10583SOL    HW132799   6.155   4.326   3.371 -0.1422 -0.7667  0.5121
10583SOL    HW232800   6.014   4.303   3.321 -0.4967  0.0880  1.1124
10584SOL     OW32801   4.069   0.852   6.840 -0.3718  0.0535 -0.1590
10584SOL    HW132802   4.083   0.869   6.746  1.8084  2.3557  0.4754
10584SOL    HW232803   4.143   0.894   6.883 -2.4311  0.9734  2.7661
10585SOL     OW32804   6.095   8.200   8.142 -0.1819  0.3492 -0.0994
10585SOL    HW132805   6.177   8.152   8.145 -0.8613 -0.8567 -0.4469
10585SOL    HW232806   6.056   8.176   8.059 -0.6294  1.3731 -0.2007
10586SOL     OW32807   1.593   3.945   3.666 -0.1054 -0.2660 -0.0624
10586SOL    HW132808   1.646   3.919   3.742  1.0787 -3.6871 -1.8306
10586SOL    HW232809   1.504   3.918   3.689 -1.1498  4.3776  2.4182
10587SOL     OW32810   4.291   5.112   5.598 -0.2220 -0.0920  0.9327
10587SOL    HW132811   4.310   5.185   5.539 -0.7224  0.1874  1.1105
10587SOL    HW232812   4.267   5.154   5.681 -1.3583 -0.4334  0.7850
10588SOL     OW32813   3.126   1.715   2.714 -0.0354  0.1816 -0.2942
10588SOL    HW132814   3.083   1.679   2.636 -0.7844  1.3922 -0.4695
10588SOL    HW232815   3.094   1.660   2.786 -0.3489 -0.1488 -0.6779
10589SOL     OW32816   0.211   7.820   1.004  0.0798  0.2053 -0.0352
10589SOL    HW132817   0.293   7.818   0.956  0.7174 -1.6905  1.0276
10589SOL    HW232818   0.147   7.856   0.942  1.3122 -0.0924 -1.5222
10590SOL     OW32819   7.376   3.527   1.076  0.3547  0.2118  0.7136
10590SOL    HW132820   7.430   3.578   1.016 -1.3713  0.7253 -0.4766
10590SOL    HW232821   7.383   3.437   1.044 -0.1072  0.4003  0.0594
10591SOL     OW32822   5.731   2.216   1.924 -0.8875  0.1265 -0.1779
10591SOL    HW132823   5.742   2.141   1.982 -2.0608 -0.2703 -0.4394
10591SOL    HW232824   5.703   2.179   1.841 -0.5688  0.7903 -0.5915
10592SOL     OW32825   5.424   2.573   1.467  0.3098  0.5643  0.1031
10592SOL    HW132826   5.516   2.549   1.474  0.4486  0.6889 -1.1140
10592SOL    HW232827   5.401   2.555   1.375 -1.2682 -0.8274  0.7053
10593SOL     OW32828   5.412   7.930   4.075 -0.1085 -0.4842  0.4731
10593SOL    HW132829   5.380   7.999   4.133  0.4621 -0.5729  0.9020
10593SOL    HW232830   5.351   7.931   4.001 -1.0346 -0.5848  1.2189
10594SOL     OW32831   2.370   4.214   5.588 -0.1427  0.5220 -1.0879
10594SOL    HW132832   2.438   4.250   5.531  0.8188 -0.5725 -0.6665
10594SOL    HW232833   2.302   4.185   5.527 -0.9507  2.9453 -1.4415
10595SOL     OW32834   8.075   6.104   5.499 -0.3149 -0.0316 -0.4583
10595SOL    HW132835   8.053   6.105   5.406 -0.7038 -2.6203 -0.4555
10595SOL    HW232836   7.992   6.086   5.544  0.1904 -0.7286  0.2279
10596SOL     OW32837   4.150   6.335   1.788  0.5798 -0.0184 -0.0841
10596SOL    HW132838   4.138   6.368   1.699  1.8090 -1.1776 -0.7163
10596SOL    HW232839   4.229   6.281   1.783  1.0068  0.3540  1.8469
10597SOL     OW32840   2.877   2.689   7.096  0.6556 -0.0799  0.0982
10597SOL    HW132841   2.911   2.769   7.136  1.7953 -1.3166  1.7295
10597SOL    HW232842   2.840   2.639   7.169 -0.3698 -0.8957 -0.9431
10598SOL     OW32843   3.999   1.886   0.294 -0.0035  0.0457  0.0995
10598SOL    HW132844   3.973   1.798   0.321  2.2259 -0.2402  1.5075
10598SOL    HW232845   3.918   1.924   0.260 -1.7041 -1.5412  2.0574
10599SOL     OW32846   7.878   8.108   3.724 -0.2390 -0.0968  0.1908
10599SOL    HW132847   7.971   8.084   3.723 -0.2493 -0.1357 -0.9691
10599SOL    HW232848   7.843   8.070   3.644 -1.4533 -0.7801  1.0121
10600SOL     OW32849   0.349   3.752   2.502 -0.7077  0.8602 -0.0569
10600SOL    HW132850   0.371   3.844   2.516 -1.2888  1.3928 -2.3103
10600SOL    HW232851   0.423   3.704   2.540  0.4486  2.3261 -0.3601
10601SOL     OW32852   7.384   6.980   5.924 -0.6756  0.2069 -0.2100
10601SOL    HW132853   7.397   6.924   5.847 -1.8768  1.0552 -1.0700
10601SOL    HW232854   7.343   7.059   5.889  1.1492  1.7448  0.9492
10602SOL     OW32855   6.154   6.573   1.376  0.1357 -0.1590  0.3933
10602SOL    HW132856   6.225   6.509   1.383 -2.5649 -3.5467 -0.4007
10602SOL    HW232857   6.142   6.586   1.282  0.0361  0.8755  0.5289
10603SOL     OW32858   5.356   0.903   1.391 -0.1402 -0.5602  0.4292
10603SOL    HW132859   5.349   0.981   1.335 -0.0312 -0.2726  0.8134
10603SOL    HW232860   5.274   0.856   1.377 -0.1563 -0.4376  0.1041
10604SOL     OW32861   5.692   6.608   3.835 -0.0629 -0.0619  0.6028
10604SOL    HW132862   5.627   6.678   3.827 -0.6128 -0.6635 -0.3194
10604SOL    HW232863   5.776   6.652   3.822 -0.3883  0.4634  0.2390
10605SOL     OW32864   4.114   4.436   0.307 -0.6115 -0.4121 -0.1913
10605SOL    HW132865   4.097   4.435   0.213 -2.2474  1.4631  0.0190
10605SOL    HW232866   4.031   4.462   0.347  0.3560  0.0237  1.6903
10606SOL     OW32867   1.936   4.742   5.584  0.3954 -0.3255 -0.1308
10606SOL    HW132868   1.960   4.652   5.606  0.9123 -0.4914 -1.3001
10606SOL    HW232869   1.897   4.735   5.496  2.4485  0.8488 -1.1931
10607SOL     OW32870   2.265   1.776   2.095  0.1614 -0.4688 -0.1516
10607SOL    HW132871   2.343   1.724   2.074 -1.8926 -4.1085  0.3307
10607SOL    HW232872   2.249   1.758   2.188 -1.0501  0.4891 -0.1541
10608SOL     OW32873   5.117   5.482   4.632  0.3201 -0.5476  0.6766
10608SOL    HW132874   5.125   5.506   4.724 -1.2449  1.7712  0.2984
10608SOL    HW232875   5.195   5.520   4.590  0.8977 -1.3766  0.9819
10609SOL     OW32876   0.361   7.330   7.204  0.0436 -0.1285 -0.0095
10609SOL    HW132877   0.288   7.316   7.263 -1.8752 -0.1762 -2.2740
10609SOL    HW232878   0.401   7.244   7.193 -0.4817 -0.3898  0.1054
10610SOL     OW32879   2.754   1.831   0.676 -0.2950  0.5313 -0.0023
10610SOL    HW132880   2.765   1.779   0.756  1.0777 -0.2065 -0.6508
10610SOL    HW232881   2.793   1.916   0.698 -0.4048  0.5120  0.2771
10611SOL     OW32882   3.016   0.499   6.074  0.4822  0.3915 -0.1984
10611SOL    HW132883   2.950   0.459   6.130 -0.9894  2.0691 -0.6516
10611SOL    HW232884   3.007   0.453   5.990  0.2841  0.2325 -0.0900
10612SOL     OW32885   6.674   1.906   6.339  0.1236 -0.0134  0.4979
10612SOL    HW132886   6.697   1.828   6.290 -1.0751 -0.5709  0.7865
10612SOL    HW232887   6.755   1.934   6.380  0.3599 -1.7055  1.2317
10613SOL     OW32888   1.856   2.480   7.955 -0.1906 -0.6961  0.1403
10613SOL    HW132889   1.901   2.550   7.908  0.7098  0.4737  2.5534
10613SOL    HW232890   1.773   2.470   7.909 -0.0361  1.4854 -0.7398
10614SOL     OW32891   7.831   2.806   7.073  0.1378  0.4749  0.1272
10614SOL    HW132892   7.781   2.725   7.081 -0.0180  0.6357  0.7956
10614SOL    HW232893   7.836   2.822   6.979 -0.0970 -0.1442  0.0076
10615SOL     OW32894   6.015   3.037   1.810 -0.1617 -0.7035  0.3280
10615SOL    HW132895   5.926   3.041   1.846  0.3881  0.0802  1.6536
10615SOL    HW232896   6.010   3.087   1.728 -0.6915  0.2812  0.9448
10616SOL     OW32897   0.134   1.402   4.674  0.2498  0.0831  0.0985
10616SOL    HW132898   0.040   1.415   4.663 -0.0050 -0.6782  1.1854
10616SOL    HW232899   0.171   1.490   4.684  0.1158  0.6520 -3.3665
10617SOL     OW32900   2.061   3.449   7.815  0.0771 -0.1963 -0.4080
10617SOL    HW132901   2.116   3.372   7.806 -0.7370 -1.1475  1.9292
10617SOL    HW232902   2.064   3.469   7.909 -0.3630  2.1603 -0.8315
10618SOL     OW32903   7.438   5.524   1.622 -0.0483  0.3639 -0.1490
10618SOL    HW132904   7.461   5.468   1.547  0.1010  0.0974  0.0956
10618SOL    HW232905   7.349   5.499   1.644  0.0655  0.1281  0.0448
10619SOL     OW32906   2.722   3.653   3.164  0.1716 -0.0379 -0.7586
10619SOL    HW132907   2.658   3.626   3.098 -0.6923 -0.7295  0.3382
10619SOL    HW232908   2.779   3.577   3.175  1.2200  0.5576 -1.6984
10620SOL     OW32909   5.418   1.709   1.619 -0.0858 -0.9441 -0.0114
10620SOL    HW132910   5.373   1.739   1.541  1.4264  0.0376 -0.5562
10620SOL    HW232911   5.501   1.758   1.619  1.0443 -2.7562  0.8583
10621SOL     OW32912   5.674   2.771   0.138  0.2720  0.2244  0.1269
10621SOL    HW132913   5.623   2.846   0.106  1.1159  2.8032  4.1744
10621SOL    HW232914   5.758   2.809   0.164  1.9997 -2.8163 -0.5587
10622SOL     OW32915   1.129   1.849   7.797 -0.1968  0.2260 -0.0682
10622SOL    HW132916   1.065   1.826   7.730  0.2752 -0.0720 -0.4253
10622SOL    HW232917   1.080   1.845   7.879 -1.1202  1.9434 -0.4925
10623SOL     OW32918   4.347   2.636   3.250  0.2298 -0.3455 -0.3266
10623SOL    HW132919   4.381   2.686   3.176  0.8495 -2.2004 -1.3600
10623SOL    HW232920   4.278   2.582   3.213 -0.5531 -0.1591  0.7998
10624SOL     OW32921   0.996   3.720   2.641 -0.3228  0.4571 -0.0745
10624SOL    HW132922   1.010   3.781   2.713  3.7752  0.2284 -0.4290
10624SOL    HW232923   0.981   3.776   2.564 -1.7297  0.7852  0.4168
10625SOL     OW32924   4.256   0.629   0.663 -0.0854  0.2557  0.2915
10625SOL    HW132925   4.194   0.556   0.664  0.0633  0.1226  0.0275
10625SOL    HW232926   4.302   0.623   0.747 -0.8352  0.7126  0.7423
10626SOL     OW32927   5.371   7.805   4.775  0.3377 -0.7699  0.0280
10626SOL    HW132928   5.450   7.805   4.720 -0.0661 -1.3949 -0.5787
10626SOL    HW232929   5.351   7.897   4.789  0.4941 -0.5920 -0.8410
10627SOL     OW32930   2.719   3.453   6.995  0.5828 -0.4531 -0.1070
10627SOL    HW132931   2.720   3.360   7.015  3.7518 -0.5815 -0.4035
10627SOL    HW232932   2.787   3.491   7.051  0.2054  1.4736 -0.8580
10628SOL     OW32933   1.781   5.644   1.032  0.6441 -0.3833 -0.2359
10628SOL    HW132934   1.816   5.697   0.960 -0.4440 -0.5597 -0.9271
10628SOL    HW232935   1.743   5.708   1.093  1.6051 -0.2298  0.2083
10629SOL     OW32936   1.823   7.641   1.453 -0.1443  0.5316  0.0328
10629SOL    HW132937   1.913   7.662   1.431  0.1679 -1.8940 -1.4040
10629SOL    HW232938   1.829   7.562   1.507 -1.3698  0.4975  0.1543
10630SOL     OW32939   3.226   8.032   4.972 -0.2903 -0.1695  0.4654
10630SOL    HW132940   3.180   8.086   4.907  0.1202  1.2078  1.2955
10630SOL    HW232941   3.158   7.971   5.003 -1.5865  1.7595  1.5973
10631SOL     OW32942   1.419   4.475   7.897  0.1658  0.5400  0.6828
10631SOL    HW132943   1.394   4.406   7.958  0.9913  0.1566  0.5995
10631SOL    HW232944   1.382   4.555   7.934 -5.2556 -0.3990 -1.6319
10632SOL     OW32945   7.484   7.710   1.598  0.3248  0.1206 -0.2444
10632SOL    HW132946   7.567   7.753   1.576 -0.4884  1.9092  0.0252
10632SOL    HW232947   7.487   7.701   1.693  0.0080  0.6657 -0.1774
10633SOL     OW32948   4.448   6.974   1.169  0.4343  0.5966 -0.1177
10633SOL    HW132949   4.542   6.963   1.155  0.2993 -2.1646  0.5011
10633SOL    HW232950   4.431   7.065   1.146  2.8558  0.5907 -2.4607
10634SOL     OW32951   2.563   2.321   5.379  0.1328  0.1661 -0.2540
10634SOL    HW132952   2.632   2.378   5.344 -0.7843 -0.3752 -3.2700
10634SOL    HW232953   2.511   2.378   5.436  1.9468  1.0509  0.5853
10635SOL     OW32954   7.665   2.009   2.256 -0.0140  0.3356  0.4393
10635SOL    HW132955   7.658   2.063   2.178  0.3003  0.2857  0.3729
10635SOL    HW232956   7.585   1.956   2.256 -0.4410  0.9648  0.6356
10636SOL     OW32957   1.770   2.037   0.580 -0.1916 -0.2291  0.4282
10636SOL    HW132958   1.865   2.039   0.571 -0.0243  1.8095  1.7887
10636SOL    HW232959   1.754   1.976   0.653  0.0327 -0.8262 -0.0175
10637SOL     OW32960   5.427   2.763   4.133 -0.2013  0.0295  0.0144
10637SOL    HW132961   5.475   2.711   4.067 -0.0647  0.6011 -0.3462
10637SOL    HW232962   5.493   2.822   4.169 -0.8218  1.5910 -1.2595
10638SOL     OW32963   5.003   2.335   6.826  0.0091  0.7283 -0.3564
10638SOL    HW132964   4.945   2.385   6.769 -1.0143 -1.0035 -0.9047
10638SOL    HW232965   4.988   2.244   6.802  1.0457  0.0636  1.3172
10639SOL     OW32966   0.435   6.570   4.031  0.2806 -0.0689 -0.0123
10639SOL    HW132967   0.445   6.477   4.052  1.3334 -0.1281 -0.7258
10639SOL    HW232968   0.440   6.574   3.936  0.4404  0.7357  0.0250
10640SOL     OW32969   7.956   5.961   1.131 -0.3808 -0.6009 -0.0230
10640SOL    HW132970   8.034   5.934   1.083  0.1580  1.0896 -0.1731
10640SOL    HW232971   7.937   5.887   1.189  1.2101 -1.1421 -0.1375
10641SOL     OW32972   1.046   3.019   0.628 -0.3614 -0.4155 -0.1872
10641SOL    HW132973   1.001   2.985   0.550  0.2549  1.0357 -1.2205
10641SOL    HW232974   1.018   2.961   0.699  0.1864 -2.7098 -1.7162
10642SOL     OW32975   1.671   2.721   3.847  0.2859  0.3814 -0.2033
10642SOL    HW132976   1.692   2.804   3.891  1.3748 -0.2650  0.5299
10642SOL    HW232977   1.695   2.654   3.911 -1.4658 -0.4916 -0.4226
10643SOL     OW32978   5.212   4.860   7.122  0.4898 -0.2157  0.1093
10643SOL    HW132979   5.303   4.837   7.104  0.6600  0.1203  0.5325
10643SOL    HW232980   5.195   4.937   7.068  0.9923  0.7741  1.3222
10644SOL     OW32981   1.564   6.103   5.047 -0.2792 -0.1202 -0.0701
10644SOL    HW132982   1.598   6.016   5.065  1.1788  0.1982 -1.1325
10644SOL    HW232983   1.482   6.107   5.096  0.0678 -1.7534  0.7114
10645SOL     OW32984   4.125   2.851   2.272 -0.0699 -0.2653 -0.1903
10645SOL    HW132985   4.078   2.879   2.194  1.5178  1.3495 -0.6169
10645SOL    HW232986   4.083   2.899   2.343  1.3835  1.8335 -0.6750
10646SOL     OW32987   0.991   6.943   7.563 -0.3336 -0.2467 -0.5287
10646SOL    HW132988   0.899   6.919   7.559  0.0886 -2.3716  0.8678
10646SOL    HW232989   1.003   6.975   7.652  0.0498  1.2346 -1.0843
10647SOL     OW32990   3.610   2.663   4.330 -0.1087 -0.3514 -0.2956
10647SOL    HW132991   3.605   2.609   4.251 -0.2534 -1.0801  0.2055
10647SOL    HW232992   3.696   2.641   4.368  0.3647  0.6867 -0.7317
10648SOL     OW32993   6.590   5.418   2.141 -0.5450  0.3387  0.1602
10648SOL    HW132994   6.521   5.354   2.158  0.4928 -1.0546 -0.7039
10648SOL    HW232995   6.575   5.447   2.051 -0.3695  0.5070  0.1839
10649SOL     OW32996   1.601   1.730   2.849 -0.4560 -0.5628 -0.3752
10649SOL    HW132997   1.522   1.715   2.900  1.5490 -0.7532  2.9614
10649SOL    HW232998   1.612   1.825   2.850 -0.2321 -0.5905 -0.1373
10650SOL     OW32999   1.279   2.061   6.707  0.3014  0.0913 -0.6994
10650SOL    HW133000   1.371   2.069   6.730  0.6170 -0.1207 -1.7928
10650SOL    HW233001   1.265   2.129   6.641 -0.2338 -0.1020 -0.7891
10651SOL     OW33002   2.614   2.163   7.179 -0.5261 -0.3765  0.5459
10651SOL    HW133003   2.528   2.155   7.138  0.5482 -1.0710 -1.7110
10651SOL    HW233004   2.625   2.081   7.227 -0.1650 -1.3821 -1.1849
10652SOL     OW33005   3.839   1.470   2.364  0.1093 -0.2865  0.1468
10652SOL    HW133006   3.918   1.517   2.390  0.1173 -1.0221  1.5422
10652SOL    HW233007   3.871   1.393   2.319  0.2037 -0.5858  0.7148
10653SOL     OW33008   5.901   3.185   2.543  0.4481  0.1085 -0.1044
10653SOL    HW133009   5.826   3.214   2.596  0.4653  0.9505 -0.5077
10653SOL    HW233010   5.873   3.102   2.505 -0.9159  1.1207 -1.4548
10654SOL     OW33011   2.921   1.789   5.151  0.4092 -0.3453 -0.1002
10654SOL    HW133012   2.838   1.750   5.178  0.2031  0.6846  0.8208
10654SOL    HW233013   2.984   1.718   5.157 -0.2904 -0.9945 -0.2485
10655SOL     OW33014   3.917   3.747   7.040 -0.1140  0.2066  0.1212
10655SOL    HW133015   3.872   3.662   7.045 -0.6957  0.4745 -0.4895
10655SOL    HW233016   3.945   3.754   6.949  1.8762 -0.2982  0.6432
10656SOL     OW33017   7.734   3.057   2.370  0.0828  0.4762 -0.1829
10656SOL    HW133018   7.808   3.009   2.333 -0.4477 -0.2925 -0.2697
10656SOL    HW233019   7.710   3.006   2.447  0.3244  1.3253  0.4630
10657SOL     OW33020   0.381   6.314   0.294 -0.0661  1.0253 -0.1027
10657SOL    HW133021   0.365   6.282   0.205 -3.0195  0.7474  0.4261
10657SOL    HW233022   0.471   6.288   0.313  0.7203  1.2680 -3.0527
10658SOL     OW33023   0.621   6.208   0.407 -0.2157 -0.2332 -0.1266
10658SOL    HW133024   0.663   6.121   0.411 -0.4880 -0.3450  0.4209
10658SOL    HW233025   0.693   6.269   0.422 -0.4203 -0.4725  2.2827
10659SOL     OW33026   3.713   7.757   4.133  0.5648 -0.4587 -0.1574
10659SOL    HW133027   3.759   7.727   4.212 -0.6028 -1.0417  0.3334
10659SOL    HW233028   3.643   7.813   4.167 -0.3263 -1.2053 -0.7106
10660SOL     OW33029   5.659   7.132   0.812  0.0938  0.1150 -1.0563
10660SOL    HW133030   5.649   7.217   0.855 -2.0832  0.1729 -1.5841
10660SOL    HW233031   5.573   7.114   0.775  1.0446 -1.4417 -2.6061
10661SOL     OW33032   3.744   2.495   6.239 -0.1180  0.1029 -0.3310
10661SOL    HW133033   3.789   2.553   6.178 -1.4098  0.2106 -1.2189
10661SOL    HW233034   3.733   2.547   6.318  1.7196 -0.0918  0.0933
10662SOL     OW33035   5.279   3.102   7.355 -0.4228 -0.5482 -0.1689
10662SOL    HW133036   5.326   3.185   7.364  1.8906 -1.6849 -0.9213
10662SOL    HW233037   5.282   3.063   7.442 -1.4476  0.0953  0.1674
10663SOL     OW33038   1.400   4.736   6.210 -0.1423  0.3518 -0.1045
10663SOL    HW133039   1.368   4.717   6.299  1.4213 -1.2142  0.1758
10663SOL    HW233040   1.369   4.825   6.193  1.2157  1.5337  2.8322
10664SOL     OW33041   6.058   4.109   7.830 -0.4317 -0.6781 -0.1837
10664SOL    HW133042   5.987   4.172   7.818  1.6674  1.4962 -2.2392
10664SOL    HW233043   6.119   4.151   7.889  0.9087 -0.7952 -1.4207
10665SOL     OW33044   0.184   2.038   3.138  0.1335  0.0480  0.0931
10665SOL    HW133045   0.211   1.968   3.078 -1.5223  0.7881 -1.6282
10665SOL    HW233046   0.263   2.061   3.186  1.3666 -1.0580 -1.3247
10666SOL     OW33047   1.995   3.015   6.517  0.0405 -0.1616 -0.3380
10666SOL    HW133048   1.928   2.994   6.581  0.3184  0.7945  0.2902
10666SOL    HW233049   1.992   3.111   6.510  2.5295  0.1116  1.0632
10667SOL     OW33050   8.049   4.949   4.415  0.1190 -0.1206 -0.3927
10667SOL    HW133051   7.983   4.982   4.355 -0.2484 -0.5480 -0.2262
10667SOL    HW233052   8.024   4.983   4.501  0.2075 -0.1465 -0.3556
10668SOL     OW33053   2.111   5.797   3.305  0.3394  0.0395  0.2582
10668SOL    HW133054   2.160   5.878   3.314  1.0384 -0.5203  1.8363
10668SOL    HW233055   2.084   5.774   3.394  0.7966 -1.8162 -0.0208
10669SOL     OW33056   3.552   3.819   4.899 -0.1643  0.1273  0.5703
10669SOL    HW133057   3.582   3.773   4.821 -2.3199 -1.3003  0.4967
10669SOL    HW233058   3.584   3.909   4.887  0.0690 -0.1911 -1.6776
10670SOL     OW33059   3.164   3.308   1.893  0.1794 -0.4597  0.0546
10670SOL    HW133060   3.234   3.261   1.848  1.5531  1.8103 -0.3015
10670SOL    HW233061   3.112   3.347   1.822 -0.0129 -0.1622  0.3555
10671SOL     OW33062   6.140   1.629   0.452  0.0137 -0.0120  0.1105
10671SOL    HW133063   6.125   1.560   0.387  1.0657 -1.6907  1.5620
10671SOL    HW233064   6.223   1.668   0.427  0.1034 -0.2144  0.0916
10672SOL     OW33065   0.742   5.550   3.507  0.6262  0.0767  0.4675
10672SOL    HW133066   0.679   5.612   3.544 -0.5409 -1.0703  0.4589
10672SOL    HW233067   0.731   5.560   3.412 -1.6592 -2.1051  0.4082
10673SOL     OW33068   4.773   3.057   2.138  0.0800  0.1910  0.0585
10673SOL    HW133069   4.744   3.088   2.224 -0.6147 -1.2019  0.3596
10673SOL    HW233070   4.828   3.127   2.104 -2.9547  2.6483 -0.1702
10674SOL     OW33071   3.972   3.008   4.328 -0.0394  0.3057 -0.0628
10674SOL    HW133072   4.066   3.015   4.312 -0.1812  0.2828 -0.9217
10674SOL    HW233073   3.961   2.920   4.363  0.2771  0.3752  0.2260
10675SOL     OW33074   1.104   0.283   1.858 -0.2496 -0.0281  0.1954
10675SOL    HW133075   1.183   0.336   1.867 -0.6428  0.5382  0.3670
10675SOL    HW233076   1.077   0.264   1.948 -1.3077  1.3072  0.1942
10676SOL     OW33077   0.565   3.866   4.339 -0.3060 -0.2693 -0.1917
10676SOL    HW133078   0.647   3.829   4.370  0.4274  2.2729  1.1648
10676SOL    HW233079   0.512   3.876   4.419 -0.8924  0.5686 -0.6770
10677SOL     OW33080   6.349   4.018   1.353  0.1457 -0.5039 -0.4232
10677SOL    HW133081   6.349   4.101   1.306 -1.0626 -0.0158  0.4138
10677SOL    HW233082   6.407   3.962   1.301 -0.3949  0.3117 -1.9626
10678SOL     OW33083   2.167   6.574   2.297 -1.0528  0.0021 -0.3157
10678SOL    HW133084   2.226   6.602   2.227  0.1472 -0.2466  0.5705
10678SOL    HW233085   2.094   6.532   2.251 -0.0747 -0.5699 -1.4069
10679SOL     OW33086   2.039   5.308   2.298  0.9178  0.1369 -0.1848
10679SOL    HW133087   2.088   5.342   2.373 -0.0145 -0.0502  0.5288
10679SOL    HW233088   1.949   5.334   2.315  0.8835  1.3360 -1.9621
10680SOL     OW33089   1.275   6.773   6.460  0.0474  0.1909 -0.3709
10680SOL    HW133090   1.257   6.679   6.468 -0.6896  0.3892  0.4075
10680SOL    HW233091   1.370   6.778   6.447  0.0891 -0.6625 -0.4465
10681SOL     OW33092   1.070   7.550   7.929 -0.6139  0.1661 -0.1075
10681SOL    HW133093   1.029   7.595   7.856 -1.3022 -0.5003 -0.1457
10681SOL    HW233094   1.017   7.575   8.005 -0.6543 -0.1156 -0.0417
10682SOL     OW33095   6.256   3.034   2.712  0.7278  0.3873 -0.2279
10682SOL    HW133096   6.187   2.968   2.711  0.6556  0.4653 -0.3333
10682SOL    HW233097   6.229   3.097   2.779  0.3175  0.8223 -0.7910
10683SOL     OW33098   6.335   5.054   0.292  0.3604  0.4686 -0.4750
10683SOL    HW133099   6.295   4.987   0.237  0.1952 -0.0493  0.2510
10683SOL    HW233100   6.414   5.012   0.327  1.0947  1.1978 -1.2393
10684SOL     OW33101   6.852   5.192   6.699 -0.7397 -0.1891  0.7025
10684SOL    HW133102   6.795   5.140   6.642 -0.6346  0.2541  0.1790
10684SOL    HW233103   6.795   5.261   6.732 -0.9873 -0.8745  1.7399
10685SOL     OW33104   3.034   5.733   4.677 -0.0491  1.2847 -0.5527
10685SOL    HW133105   3.030   5.639   4.661 -2.7986  0.4221  3.5428
10685SOL    HW233106   3.127   5.752   4.691  0.3414 -1.4444  1.1690
10686SOL     OW33107   7.325   0.278   7.880  0.0801  0.3870  0.0636
10686SOL    HW133108   7.385   0.204   7.874  0.1200  0.3919  0.3685
10686SOL    HW233109   7.254   0.258   7.819  1.7101  1.6276 -2.4225
10687SOL     OW33110   2.476   4.230   1.704 -0.4539 -0.1363  0.4298
10687SOL    HW133111   2.479   4.191   1.791  0.4155  1.0624  0.9578
10687SOL    HW233112   2.394   4.280   1.702 -0.8840 -0.8296  0.2418
10688SOL     OW33113   4.151   3.899   8.135 -0.2290  0.1570 -0.2349
10688SOL    HW133114   4.083   3.902   8.067  1.8230  2.1163 -2.3951
10688SOL    HW233115   4.224   3.950   8.099  1.7075 -0.2199  2.7415
10689SOL     OW33116   6.791   7.518   4.664 -0.6086 -0.0252 -1.2123
10689SOL    HW133117   6.840   7.509   4.582 -1.8007 -1.4586 -1.8172
10689SOL    HW233118   6.848   7.568   4.721  0.3393  0.8399 -2.8584
10690SOL     OW33119   5.233   6.314   2.729 -0.2645 -0.6601  0.3710
10690SOL    HW133120   5.227   6.374   2.803  3.7899 -0.5449  0.8498
10690SOL    HW233121   5.225   6.371   2.652 -0.8237 -0.2254  0.7378
10691SOL     OW33122   1.672   0.720   5.196 -0.1274 -0.1852 -0.0871
10691SOL    HW133123   1.663   0.765   5.280  1.0883 -0.4290  0.2037
10691SOL    HW233124   1.595   0.664   5.189 -0.7231  0.5698  0.4080
10692SOL     OW33125   7.806   2.068   5.048  0.1816 -0.1960 -0.3132
10692SOL    HW133126   7.786   2.074   4.954  0.5206 -1.1966 -0.4653
10692SOL    HW233127   7.793   2.157   5.081 -1.5255 -0.1527 -0.9909
10693SOL     OW33128   7.377   7.947   0.164 -0.1203 -0.4442  0.1785
10693SOL    HW133129   7.291   7.941   0.207  0.2867  0.2862  1.1404
10693SOL    HW233130   7.383   7.867   0.112 -1.0311 -0.9176  0.7599
10694SOL     OW33131   4.684   2.961   4.486 -0.1188  0.7172 -0.2811
10694SOL    HW133132   4.598   2.961   4.528 -0.3622 -0.5415 -0.7257
10694SOL    HW233133   4.683   3.037   4.428 -1.1517  0.3883 -0.7145
10695SOL     OW33134   7.397   3.056   3.064 -0.1482  0.3453 -0.0033
10695SOL    HW133135   7.367   2.973   3.101  1.6388 -0.9533 -1.2723
10695SOL    HW233136   7.323   3.089   3.014 -0.6682 -0.8399 -0.0401
10696SOL     OW33137   3.427   5.131   1.507 -0.2545 -0.0604 -0.0061
10696SOL    HW133138   3.473   5.211   1.482  0.2966 -0.2310  0.4425
10696SOL    HW233139   3.479   5.095   1.579  0.3922 -1.6416 -1.2279
10697SOL     OW33140   1.193   3.189   4.770 -0.1544 -0.1268 -0.1213
10697SOL    HW133141   1.124   3.196   4.836  1.0965  0.9053  1.1225
10697SOL    HW233142   1.237   3.273   4.772  1.8215 -1.1119 -0.1218
10698SOL     OW33143   6.887   7.962   3.896  0.3228  0.1052  0.2456
10698SOL    HW133144   6.938   8.026   3.846  1.4070  0.7772  2.1328
10698SOL    HW233145   6.796   7.983   3.875  0.6704  1.9415  0.4237
10699SOL     OW33146   0.760   7.601   3.604 -0.1193  0.0300 -0.0128
10699SOL    HW133147   0.740   7.674   3.546 -0.2029  0.2869  0.3310
10699SOL    HW233148   0.680   7.550   3.608  0.3719 -0.8946 -1.3940
10700SOL     OW33149   3.482   2.064   2.610 -0.4572  0.1930  0.1888
10700SOL    HW133150   3.442   2.010   2.541  0.5466  2.5410 -2.3968
10700SOL    HW233151   3.548   2.007   2.649 -1.7396 -1.5492 -0.0510
10701SOL     OW33152   1.120   6.179   8.209 -0.0145 -0.4162 -0.4334
10701SOL    HW133153   1.125   6.192   8.303 -1.7739 -0.0262 -0.3658
10701SOL    HW233154   1.041   6.225   8.182  0.1566 -0.9762 -2.0276
10702SOL     OW33155   6.144   7.792   5.090  0.1668 -0.1267 -0.3152
10702SOL    HW133156   6.163   7.700   5.105  0.1753 -0.2099 -0.8205
10702SOL    HW233157   6.048   7.796   5.083  0.1322 -0.0247  0.1480
10703SOL     OW33158   1.562   7.133   1.739  0.0808 -0.1890 -0.1291
10703SOL    HW133159   1.596   7.169   1.820 -1.2016  0.6108  0.0883
10703SOL    HW233160   1.499   7.066   1.767  0.2635 -0.5206 -0.4916
10704SOL     OW33161   6.100   1.232   0.834  0.2362 -0.3955 -0.1450
10704SOL    HW133162   6.110   1.154   0.780 -1.3147 -1.2822  0.7827
10704SOL    HW233163   6.104   1.305   0.772  1.3433 -1.2186 -1.0695
10705SOL     OW33164   3.446   7.017   4.774 -0.0829 -0.3432 -0.6194
10705SOL    HW133165   3.397   7.072   4.713  0.7077 -0.0423 -1.0018
10705SOL    HW233166   3.412   7.041   4.860 -1.1724 -0.7359 -0.9232
10706SOL     OW33167   3.193   1.419   2.029  0.3098 -0.3764  0.1043
10706SOL    HW133168   3.209   1.486   2.095 -1.3039  0.0761  0.0732
10706SOL    HW233169   3.230   1.339   2.066  2.7286  0.5725 -0.0676
10707SOL     OW33170   2.971   4.487   5.111 -0.3020  0.0135 -0.2243
10707SOL    HW133171   2.965   4.521   5.201 -2.0336 -1.9511  0.4891
10707SOL    HW233172   2.909   4.540   5.061  0.9109  1.3375 -0.3933
10708SOL     OW33173   4.865   4.390   7.936  0.3351  0.2210 -0.1629
10708SOL    HW133174   4.882   4.473   7.980  4.1181  0.7035 -2.1340
10708SOL    HW233175   4.876   4.323   8.004 -1.4151  1.1925  1.1417
10709SOL     OW33176   5.092   5.338   1.965 -0.0241  0.2246  0.0456
10709SOL    HW133177   5.166   5.314   2.021 -0.9906 -0.4107  1.0844
10709SOL    HW233178   5.065   5.424   1.994 -0.8848 -0.3393  0.9785
10710SOL     OW33179   1.208   4.643   0.337 -0.5779 -0.2233 -0.0362
10710SOL    HW133180   1.136   4.677   0.284 -0.1797  0.6679 -0.0233
10710SOL    HW233181   1.172   4.565   0.380 -2.0809  1.1822  1.3583
10711SOL     OW33182   7.588   5.231   0.167 -0.4341  0.3050  0.4224
10711SOL    HW133183   7.521   5.208   0.233  0.1695 -0.0141  0.9403
10711SOL    HW233184   7.618   5.146   0.135  0.3381  0.4130  0.8321
10712SOL     OW33185   5.665   3.878   0.433  0.0233 -0.8069  0.2995
10712SOL    HW133186   5.606   3.839   0.498  1.7665 -0.1319  2.4130
10712SOL    HW233187   5.743   3.902   0.483  2.3477 -2.1145 -2.4126
10713SOL     OW33188   3.967   6.786   0.582  0.1784 -0.5073 -0.6545
10713SOL    HW133189   3.936   6.858   0.527 -0.5592 -1.7872 -1.9852
10713SOL    HW233190   3.915   6.710   0.555 -0.0611 -1.2704  1.6726
10714SOL     OW33191   3.209   0.317   2.542  0.2647 -0.0581  0.1297
10714SOL    HW133192   3.217   0.391   2.601 -0.7298  0.8066 -0.7793
10714SOL    HW233193   3.122   0.281   2.560  0.0404  0.0816 -0.6361
10715SOL     OW33194   7.383   6.895   4.090  0.3690 -0.1615  0.4259
10715SOL    HW133195   7.356   6.984   4.069  0.3249  0.0692  1.4091
10715SOL    HW233196   7.302   6.847   4.106  0.3484 -0.5877 -0.8076
10716SOL     OW33197   4.470   3.671   5.432  0.1372 -0.7772  0.1690
10716SOL    HW133198   4.514   3.700   5.512  0.9647 -0.6443 -0.3313
10716SOL    HW233199   4.440   3.752   5.391 -0.4998 -0.8610  0.4573
10717SOL     OW33200   1.481   3.100   0.084 -0.5639 -0.0897  0.4903
10717SOL    HW133201   1.419   3.029   0.103 -1.4705  0.8322  1.0684
10717SOL    HW233202   1.526   3.116   0.167  1.3558 -1.5574 -0.2063
10718SOL     OW33203   2.440   3.377   3.857 -0.2366 -0.4195  0.0205
10718SOL    HW133204   2.433   3.325   3.937 -0.7856  0.0302  0.2755
10718SOL    HW233205   2.525   3.419   3.862 -1.3031  1.7123  1.6975
10719SOL     OW33206   6.750   7.985   5.553  0.0762 -0.3899 -0.2673
10719SOL    HW133207   6.697   7.905   5.558 -1.1160  0.2445 -1.7915
10719SOL    HW233208   6.726   8.033   5.632 -1.2697 -0.3657 -0.6554
10720SOL     OW33209   5.726   6.896   4.742 -0.3185  1.0995 -0.3651
10720SOL    HW133210   5.814   6.886   4.705 -0.3174  0.1341 -0.1378
10720SOL    HW233211   5.722   6.987   4.770 -0.7496  2.2741 -3.8003
10721SOL     OW33212   4.650   3.862   7.826 -0.1585  0.2919 -0.2910
10721SOL    HW133213   4.635   3.854   7.920  1.7743  0.0981  0.0479
10721SOL    HW233214   4.570   3.827   7.786 -0.7090 -0.3468  1.2662
10722SOL     OW33215   8.081   1.088   6.847 -0.0029 -0.1479 -0.1406
10722SOL    HW133216   8.162   1.128   6.879  0.2649  0.8077 -1.8740
10722SOL    HW233217   8.012   1.129   6.899  0.5071  0.1884  0.2855
10723SOL     OW33218   1.805   1.042   3.089  0.2231 -0.7366  0.1437
10723SOL    HW133219   1.845   1.044   3.176  0.6773  2.3329 -0.0261
10723SOL    HW233220   1.854   1.106   3.038 -1.1779 -1.1476 -1.8513
10724SOL     OW33221   4.715   1.966   7.631  0.0636  0.5552 -0.0506
10724SOL    HW133222   4.749   2.055   7.618  2.0314 -0.2741 -1.0607
10724SOL    HW233223   4.712   1.929   7.543 -0.7558 -0.3984  0.3595
10725SOL     OW33224   3.271   3.412   7.689 -0.3295 -0.2547 -0.4751
10725SOL    HW133225   3.278   3.357   7.611 -2.4152 -0.2763 -0.7130
10725SOL    HW233226   3.181   3.400   7.718  0.4207 -0.3291  2.0360
10726SOL     OW33227   5.499   1.375   2.135 -0.4497  0.1829 -0.1708
10726SOL    HW133228   5.490   1.461   2.095 -0.6839 -0.2696 -1.1372
10726SOL    HW233229   5.577   1.380   2.189  1.6395  0.0047 -2.9551
10727SOL     OW33230   0.983   0.298   4.177 -0.1679  0.1633  0.0427
10727SOL    HW133231   0.922   0.311   4.249  0.2838 -0.5641  0.5743
10727SOL    HW233232   0.964   0.209   4.146  1.0077 -0.3097  0.6117
10728SOL     OW33233   4.477   3.459   0.188  0.0762  0.1807 -0.1270
10728SOL    HW133234   4.533   3.535   0.170 -0.5875  0.3012 -1.8578
10728SOL    HW233235   4.393   3.497   0.215 -0.2643  0.1025 -1.0194
10729SOL     OW33236   8.167   5.519   2.675 -0.0900 -0.5129  0.4568
10729SOL    HW133237   8.228   5.475   2.734  0.4418 -1.8804 -1.0340
10729SOL    HW233238   8.206   5.605   2.659 -0.8571  0.4137  2.9670
10730SOL     OW33239   5.859   6.482   4.022  0.3398  0.0785  0.3879
10730SOL    HW133240   5.773   6.517   3.998  0.9220  0.2619 -1.5897
10730SOL    HW233241   5.845   6.387   4.027  0.2070 -0.0068 -1.0126
10731SOL     OW33242   5.126   0.348   7.816  0.1167  0.6066  0.0897
10731SOL    HW133243   5.155   0.292   7.888 -1.7319 -0.1287  0.2989
10731SOL    HW233244   5.039   0.378   7.842  0.2339  1.9347 -0.9549
10732SOL     OW33245   4.232   6.200   6.850 -0.1964  0.1364 -0.9776
10732SOL    HW133246   4.246   6.108   6.825 -1.0064 -0.0568 -0.7719
10732SOL    HW233247   4.310   6.224   6.898 -1.2357 -1.4403  1.7382
10733SOL     OW33248   6.672   6.125   7.822  0.5177 -0.1054 -0.2195
10733SOL    HW133249   6.758   6.100   7.856  0.8401  1.7681  0.5053
10733SOL    HW233250   6.613   6.111   7.896  0.6313  0.8118  0.0572
10734SOL     OW33251   4.591   4.593   4.568 -0.4370 -0.1527 -0.5522
10734SOL    HW133252   4.527   4.623   4.503  0.0383 -0.3418 -1.1154
10734SOL    HW233253   4.665   4.654   4.559 -0.2692 -0.3242 -0.3515
10735SOL     OW33254   6.894   5.882   6.134  0.4003  0.0661 -0.5478
10735SOL    HW133255   6.934   5.927   6.208  0.5105 -1.3945  0.3267
10735SOL    HW233256   6.887   5.791   6.163 -1.3903 -0.1664 -1.5748
10736SOL     OW33257   4.718   5.262   2.946  0.5111  0.6401 -0.1123
10736SOL    HW133258   4.766   5.233   2.869 -0.1971  0.4930 -0.5101
10736SOL    HW233259   4.783   5.310   2.999  1.1651  0.1453 -0.4585
10737SOL     OW33260   4.023   6.613   3.013 -0.4358 -0.0382 -0.2332
10737SOL    HW133261   3.962   6.551   2.972 -4.0924  1.7087  2.0260
10737SOL    HW233262   4.048   6.673   2.943 -2.0587 -0.3212 -1.1003
10738SOL     OW33263   2.221   8.019   7.693  0.3221 -0.0388 -0.3120
10738SOL    HW133264   2.144   8.012   7.637  1.8007  0.7759 -2.6141
10738SOL    HW233265   2.287   7.965   7.649  1.1856 -0.4912  1.4348
10739SOL     OW33266   1.241   4.992   6.697 -0.0432  0.2208 -0.7188
10739SOL    HW133267   1.336   4.998   6.683 -0.0857 -0.0757 -1.1442
10739SOL    HW233268   1.228   4.908   6.740 -0.2026 -0.1695 -1.5111
10740SOL     OW33269   7.510   2.984   5.574  0.4636  0.0008  0.3891
10740SOL    HW133270   7.585   3.023   5.619  1.9629 -1.3370 -0.8674
10740SOL    HW233271   7.488   3.047   5.505  0.6762  0.2032  0.5046
10741SOL     OW33272   3.483   7.596   5.296 -0.3046 -0.1034 -0.5150
10741SOL    HW133273   3.528   7.676   5.267 -0.6410 -0.3073 -1.6783
10741SOL    HW233274   3.445   7.619   5.381  0.6639  0.5676 -0.2519
10742SOL     OW33275   2.804   6.480   6.191  0.3683 -0.0449 -0.5370
10742SOL    HW133276   2.733   6.480   6.126 -0.4933 -1.5016  0.3598
10742SOL    HW233277   2.822   6.388   6.207  1.1187  0.2949  0.7165
10743SOL     OW33278   2.824   6.273   4.665  0.2383  0.1015  0.0650
10743SOL    HW133279   2.855   6.212   4.732  1.6388 -0.5728 -1.1438
10743SOL    HW233280   2.899   6.284   4.607 -0.7925  1.0408 -1.1237
10744SOL     OW33281   2.459   0.127   1.556  0.2351  0.3356  0.4094
10744SOL    HW133282   2.488   0.036   1.556  1.4954  0.7172 -0.6195
10744SOL    HW233283   2.370   0.123   1.519 -0.1096 -0.5661  1.2851
10745SOL     OW33284   4.732   4.798   0.192  0.0741  0.1438  0.1896
10745SOL    HW133285   4.740   4.891   0.210  0.7291  0.1871 -0.2718
10745SOL    HW233286   4.804   4.758   0.240  0.3464 -0.0128 -0.3359
10746SOL     OW33287   2.801   2.895   2.696  0.4373  0.1416 -0.1811
10746SOL    HW133288   2.860   2.923   2.766 -0.1116  1.2047 -0.1268
10746SOL    HW233289   2.723   2.950   2.706  0.3987  0.4168 -1.6987
10747SOL     OW33290   2.198   0.914   3.535  0.4956 -0.2572  0.3848
10747SOL    HW133291   2.130   0.847   3.531 -0.2446  0.2869  2.5293
10747SOL    HW233292   2.241   0.900   3.619 -1.0681  3.1246  1.9455
10748SOL     OW33293   6.709   4.604   7.313  0.3873  0.0057 -0.5383
10748SOL    HW133294   6.765   4.676   7.285  1.2121  0.8275  2.7785
10748SOL    HW233295   6.751   4.570   7.392 -2.3207 -1.2249  0.5182
10749SOL     OW33296   3.508   1.260   6.935  0.1466  0.1234  0.0799
10749SOL    HW133297   3.482   1.297   6.851 -1.6296  0.4485  0.7338
10749SOL    HW233298   3.598   1.231   6.922 -0.0649  0.2611 -1.8933
10750SOL     OW33299   7.426   0.346   1.365  0.1079  0.0172  0.2445
10750SOL    HW133300   7.393   0.426   1.326  0.3733 -0.0942 -0.2164
10750SOL    HW233301   7.437   0.286   1.292 -1.9207 -1.1179  0.8102
10751SOL     OW33302   3.540   1.621   3.525  0.5167 -0.0184 -0.0604
10751SOL    HW133303   3.534   1.648   3.617  0.8320  0.7563 -0.2631
10751SOL    HW233304   3.627   1.581   3.518  0.6953  0.3881 -0.1455
10752SOL     OW33305   7.288   1.469   7.449  0.0510  0.1894 -0.4675
10752SOL    HW133306   7.290   1.391   7.505 -0.4965  0.1082 -0.5626
10752SOL    HW233307   7.202   1.507   7.463 -0.0961  0.1626 -1.2613
10753SOL     OW33308   1.635   6.866   1.152  0.4478  1.0371 -0.0318
10753SOL    HW133309   1.622   6.922   1.076  1.5742  2.0313  0.4678
10753SOL    HW233310   1.583   6.788   1.134  1.3004  0.9153 -2.1549
10754SOL     OW33311   2.591   6.702   7.793  0.3953  0.2465  0.1310
10754SOL    HW133312   2.594   6.611   7.763  0.3783  0.1138  0.5323
10754SOL    HW233313   2.546   6.749   7.723  1.4473  0.1584 -0.6331
10755SOL     OW33314   4.835   0.279   8.237  0.3072 -0.2097  0.3002
10755SOL    HW133315   4.916   0.314   8.274 -0.0431  0.4055  0.4936
10755SOL    HW233316   4.828   0.192   8.276  1.0996 -0.4489 -0.0609
10756SOL     OW33317   1.849   3.166   0.237  0.2855  0.4342  0.2708
10756SOL    HW133318   1.757   3.158   0.264  0.5547 -0.5791  0.9386
10756SOL    HW233319   1.882   3.077   0.238  0.9688  0.6392 -1.1517
10757SOL     OW33320   7.702   4.355   2.139  0.4068 -0.3797 -0.7074
10757SOL    HW133321   7.662   4.335   2.054 -0.6137 -2.8125  0.2469
10757SOL    HW233322   7.628   4.377   2.195  1.0667  1.1349 -0.3783
10758SOL     OW33323   4.236   3.891   6.899  0.0336 -0.6760  0.2166
10758SOL    HW133324   4.256   3.891   6.993 -0.7398  0.5593  0.4022
10758SOL    HW233325   4.292   3.822   6.863 -1.8682 -3.3942  2.0214
10759SOL     OW33326   2.983   1.680   6.759 -0.5164 -0.2207 -0.1997
10759SOL    HW133327   2.960   1.769   6.782  1.4562  0.1981  0.3266
10759SOL    HW233328   3.075   1.670   6.787 -0.2422 -1.9455 -1.5097
10760SOL     OW33329   5.931   6.853   1.211 -0.1634  0.1326 -0.3842
10760SOL    HW133330   6.008   6.798   1.210 -0.7038 -0.7714 -3.7619
10760SOL    HW233331   5.869   6.807   1.267  0.1066 -1.7253 -1.5310
10761SOL     OW33332   7.166   2.196   6.115  0.0056  0.0843  0.2256
10761SOL    HW133333   7.176   2.291   6.123  1.9682  0.0369 -1.0333
10761SOL    HW233334   7.255   2.163   6.106 -0.7075 -1.7531 -0.6755
10762SOL     OW33335   2.109   3.069   8.279  0.0724  0.3395 -0.5843
10762SOL    HW133336   2.118   3.012   8.355  0.1459  2.6470  1.2674
10762SOL    HW233337   2.064   3.015   8.214 -0.7680 -1.5003  1.3906
10763SOL     OW33338   0.768   1.049   5.774  0.5487 -0.1299 -0.1671
10763SOL    HW133339   0.782   1.000   5.855 -1.5377  0.9221  0.8978
10763SOL    HW233340   0.856   1.078   5.749  1.4154 -1.6478  0.9223
10764SOL     OW33341   6.180   4.661   3.332 -1.0893 -0.2719 -0.0875
10764SOL    HW133342   6.121   4.660   3.407  0.0181 -0.1486  0.8247
10764SOL    HW233343   6.205   4.570   3.320 -0.1620 -0.1226  0.6204
10765SOL     OW33344   0.644   6.015   4.521  0.7934  0.1758  0.1828
10765SOL    HW133345   0.562   6.052   4.551  0.9195  1.0652 -0.5156
10765SOL    HW233346   0.709   6.085   4.535  1.2373 -0.1491 -0.2008
10766SOL     OW33347   3.415   6.538   2.869 -0.4156 -0.4062 -0.2128
10766SOL    HW133348   3.418   6.516   2.962  0.2594  1.1759  0.1736
10766SOL    HW233349   3.325   6.519   2.843 -0.6079 -0.8841  0.7653
10767SOL     OW33350   0.445   7.473   7.932 -0.3933  0.2221 -0.4113
10767SOL    HW133351   0.448   7.568   7.929  0.1062  0.1964 -0.9614
10767SOL    HW233352   0.358   7.450   7.901 -0.8304  0.5248  0.5568
10768SOL     OW33353   6.759   1.164   6.167 -0.2339 -0.5583 -0.1555
10768SOL    HW133354   6.781   1.256   6.155  2.5582 -1.2774 -1.4594
10768SOL    HW233355   6.748   1.154   6.262  2.2170  0.6541  0.3380
10769SOL     OW33356   7.346   3.492   6.363  0.6703 -0.2520 -0.6124
10769SOL    HW133357   7.333   3.436   6.439  1.2013 -1.3124 -1.2845
10769SOL    HW233358   7.266   3.482   6.311  0.7820 -0.4129 -0.7524
10770SOL     OW33359   5.886   4.317   0.028 -1.2025  0.6175  0.0488
10770SOL    HW133360   5.804   4.272   0.007  0.3390 -1.2308 -2.4406
10770SOL    HW233361   5.935   4.254   0.081 -0.7623  1.1358  0.2662
10771SOL     OW33362   3.883   2.904   5.156  0.8848  0.3728  0.4541
10771SOL    HW133363   3.841   2.824   5.188  1.3046 -0.0424 -0.0387
10771SOL    HW233364   3.862   2.906   5.063  3.3477 -0.7318 -0.1908
10772SOL     OW33365   5.066   3.426   5.195  0.3997  0.5612  0.2183
10772SOL    HW133366   4.972   3.442   5.191  0.3668  0.4050  0.3681
10772SOL    HW233367   5.075   3.332   5.181  0.5837  0.6832 -0.5114
10773SOL     OW33368   6.132   2.080   2.616  0.6402 -0.2038  0.1318
10773SOL    HW133369   6.073   2.081   2.692 -2.1831 -0.4736 -1.8895
10773SOL    HW233370   6.089   2.021   2.554  3.0157 -0.2502 -1.5947
10774SOL     OW33371   5.163   4.246   5.055  0.0045 -0.3084  0.7500
10774SOL    HW133372   5.131   4.278   5.139  1.6486  1.0673  0.9251
10774SOL    HW233373   5.112   4.295   4.990  0.2662  0.2811  0.9835
10775SOL     OW33374   0.860   5.001   6.070 -0.3254 -0.3978 -0.5481
10775SOL    HW133375   0.812   5.064   6.016  0.4483  0.4531 -0.2848
10775SOL    HW233376   0.858   4.920   6.020  0.3356  0.3529 -1.8595
10776SOL     OW33377   6.551   2.155   5.879  0.0671  0.3549  0.4671
10776SOL    HW133378   6.605   2.107   5.816 -1.8485 -2.2465  0.6621
10776SOL    HW233379   6.583   2.126   5.965 -0.9921 -0.4866  0.5923
10777SOL     OW33380   4.348   1.749   4.322  0.1147 -0.1924  0.4445
10777SOL    HW133381   4.374   1.811   4.390 -2.4878  1.2549  0.2209
10777SOL    HW233382   4.307   1.676   4.369  1.9857 -1.2032  0.6140
10778SOL     OW33383   7.393   3.683   1.778 -0.3541 -0.6650 -0.4406
10778SOL    HW133384   7.480   3.645   1.760  0.0815 -0.0387  0.3095
10778SOL    HW233385   7.352   3.688   1.692  0.9545  0.4947 -1.0337
10779SOL     OW33386   1.257   0.925   7.585 -0.1459 -0.3561 -0.2502
10779SOL    HW133387   1.172   0.895   7.615  0.6067 -0.9398  1.3987
10779SOL    HW233388   1.247   0.936   7.490 -2.4660  1.0205  0.0729
10780SOL     OW33389   6.768   2.566   0.591 -0.1488 -0.4009 -0.1425
10780SOL    HW133390   6.739   2.648   0.550  0.2884  0.0086  0.3549
10780SOL    HW233391   6.864   2.569   0.586 -0.1171 -0.6629  0.3024
10781SOL     OW33392   6.058   4.798   3.100 -0.0216 -0.1517  0.3077
10781SOL    HW133393   6.125   4.784   3.033  0.1846 -0.4110  0.5672
10781SOL    HW233394   6.095   4.761   3.180 -0.9108 -1.2462  0.2291
10782SOL     OW33395   5.553   5.345   3.400  0.3182  0.4922 -0.1525
10782SOL    HW133396   5.557   5.251   3.383 -0.4406  0.7297 -1.7265
10782SOL    HW233397   5.636   5.379   3.366  0.6431  0.4076  0.5197
10783SOL     OW33398   3.490   6.441   4.782 -1.0439 -0.1833  0.2492
10783SOL    HW133399   3.465   6.374   4.846  0.2241  0.5322  1.5420
10783SOL    HW233400   3.545   6.394   4.719  0.9141 -0.1681  1.8573
10784SOL     OW33401   3.743   3.113   3.741  0.1314  0.1917 -0.9976
10784SOL    HW133402   3.674   3.152   3.688  0.7309  1.0893 -1.1374
10784SOL    HW233403   3.732   3.153   3.827  0.4955  0.3616 -1.0297
10785SOL     OW33404   0.015   7.926   1.193  0.3735  0.0200  0.1203
10785SOL    HW133405  -0.051   7.949   1.127 -1.8077 -1.7907  1.5276
10785SOL    HW233406   0.083   7.879   1.145 -0.3866  0.0961 -1.0581
10786SOL     OW33407   1.372   3.498   2.914  0.4866  0.1948  0.2476
10786SOL    HW133408   1.425   3.491   2.994 -0.6203  2.0053  1.1931
10786SOL    HW233409   1.300   3.556   2.937 -1.4955 -1.5180 -1.2571
10787SOL     OW33410   4.500   6.252   0.210  0.5249  0.6958  0.5629
10787SOL    HW133411   4.594   6.270   0.209  0.4080  1.2860 -0.2421
10787SOL    HW233412   4.458   6.338   0.211 -0.0178  0.4392  0.5165
10788SOL     OW33413   7.616   2.503   2.027 -0.2128  0.2836 -0.4202
10788SOL    HW133414   7.590   2.552   1.949  0.4653 -0.1241 -0.9196
10788SOL    HW233415   7.542   2.511   2.087  0.0059  2.1831 -0.3517
10789SOL     OW33416   3.982   1.383   5.316 -0.1686  0.0125  0.1182
10789SOL    HW133417   3.890   1.358   5.314 -0.0198 -1.1975  3.3613
10789SOL    HW233418   3.981   1.477   5.333 -0.7613  0.2227 -0.9997
10790SOL     OW33419   6.093   0.742   2.113 -0.1081 -0.8742  0.0787
10790SOL    HW133420   6.068   0.689   2.189  0.5319 -0.8992  0.2785
10790SOL    HW233421   6.077   0.832   2.141 -0.3026 -0.9070  0.0771
10791SOL     OW33422   5.848   0.389   5.118  0.3493  0.5452  0.1068
10791SOL    HW133423   5.894   0.330   5.058  0.2952 -0.7966  1.3237
10791SOL    HW233424   5.863   0.351   5.205 -1.2746  1.2700  0.7385
10792SOL     OW33425   5.272   4.605   5.680  0.4946  0.4940 -0.2996
10792SOL    HW133426   5.291   4.559   5.762 -1.2819 -1.8276 -1.0958
10792SOL    HW233427   5.249   4.694   5.708 -1.3156 -0.5764  1.8995
10793SOL     OW33428   0.025   3.366   3.233  0.7552  0.1853 -0.2206
10793SOL    HW133429   0.013   3.395   3.143  0.6283 -0.2001 -0.3295
10793SOL    HW233430   0.064   3.279   3.225  1.1923  0.3485  0.1013
10794SOL     OW33431   6.190   8.250   4.455  0.3480  0.1775  0.6666
10794SOL    HW133432   6.152   8.200   4.383  1.0466 -2.6351  2.0849
10794SOL    HW233433   6.115   8.284   4.503 -0.2554 -1.2530  0.7678
10795SOL     OW33434   0.294   6.124   7.610  0.6332 -0.2384 -0.1441
10795SOL    HW133435   0.247   6.207   7.599 -0.8253 -1.2481 -2.2142
10795SOL    HW233436   0.287   6.105   7.703  0.1214  1.4508  0.2047
10796SOL     OW33437   1.024   4.787   4.644 -0.0991 -0.5290 -0.3196
10796SOL    HW133438   0.972   4.836   4.708 -1.0145 -0.3926 -1.1490
10796SOL    HW233439   1.058   4.712   4.693 -0.2936 -0.1035  0.4748
10797SOL     OW33440   5.704   5.305   5.083  0.1490 -0.0882  0.0672
10797SOL    HW133441   5.609   5.321   5.091  0.0293  0.4700 -1.9332
10797SOL    HW233442   5.739   5.388   5.050  1.4092 -0.1838  1.1134
10798SOL     OW33443   3.997   4.595   4.199 -0.4167  0.9142  0.1319
10798SOL    HW133444   4.076   4.643   4.223  0.1021  0.1713 -0.0609
10798SOL    HW233445   4.025   4.537   4.129 -0.4063 -1.5097  2.0246
10799SOL     OW33446   6.337   3.783   8.138 -0.2495 -0.1199 -0.0493
10799SOL    HW133447   6.325   3.857   8.196 -0.8731  0.5366 -0.9836
10799SOL    HW233448   6.354   3.822   8.052  1.8420 -1.0597 -0.1162
10800SOL     OW33449   4.821   7.873   2.390 -0.3603 -0.0214 -0.1951
10800SOL    HW133450   4.780   7.829   2.464  1.6259  0.7863  1.4841
10800SOL    HW233451   4.798   7.965   2.400 -1.6149 -0.1177 -1.7153
10801SOL     OW33452   7.626   3.384   6.390  0.2751 -0.1061 -0.2509
10801SOL    HW133453   7.678   3.455   6.429 -0.2627 -0.6694  1.5759
10801SOL    HW233454   7.541   3.424   6.374 -0.3014 -0.5080  1.5799
10802SOL     OW33455   7.679   0.787   4.858  0.3293 -0.2188 -0.3289
10802SOL    HW133456   7.725   0.839   4.791  0.0749  1.5051  0.7593
10802SOL    HW233457   7.746   0.728   4.892  1.3825  1.2067  0.1826
10803SOL     OW33458   1.861   1.649   1.279  0.2398 -0.5650 -0.6848
10803SOL    HW133459   1.802   1.606   1.217 -0.2063  0.1653 -0.7847
10803SOL    HW233460   1.946   1.609   1.264 -0.1680 -1.4295 -0.7460
10804SOL     OW33461   5.134   2.719   3.181 -0.2723  0.6165 -1.0691
10804SOL    HW133462   5.105   2.684   3.265  0.7469  1.1207 -0.4858
10804SOL    HW233463   5.155   2.641   3.129  1.5879  0.2778  0.0770
10805SOL     OW33464   7.184   0.357   6.813  0.1778 -0.1094  0.3964
10805SOL    HW133465   7.145   0.434   6.856  1.7242  0.5740  0.6376
10805SOL    HW233466   7.109   0.313   6.772 -0.7655  1.5171  0.2531
10806SOL     OW33467   4.966   6.472   1.953  0.2716 -0.3515 -0.3624
10806SOL    HW133468   5.012   6.431   2.026 -0.6660 -0.4702  0.1627
10806SOL    HW233469   4.976   6.566   1.969 -0.8514 -0.3695  0.5126
10807SOL     OW33470   5.688   1.875   8.163 -0.0214  0.1072 -0.2042
10807SOL    HW133471   5.685   1.892   8.069  1.4223 -1.4386 -0.5635
10807SOL    HW233472   5.598   1.891   8.193 -1.5615 -2.9867 -2.5492
10808SOL     OW33473   2.883   3.204   6.372 -0.2226 -0.0153 -0.1178
10808SOL    HW133474   2.890   3.109   6.363 -0.0713 -0.2483  1.9939
10808SOL    HW233475   2.799   3.226   6.331 -0.1361 -1.0014 -0.8508
10809SOL     OW33476   0.586   0.338   6.617 -0.2094  0.2308 -0.5242
10809SOL    HW133477   0.558   0.260   6.664  1.0018  0.5895  0.8909
10809SOL    HW233478   0.678   0.321   6.595 -0.7917  0.0076 -2.9914
10810SOL     OW33479   6.163   0.713   1.205  0.3160 -0.0687 -0.3559
10810SOL    HW133480   6.192   0.654   1.135  3.3597  2.3508 -1.3541
10810SOL    HW233481   6.067   0.708   1.202  0.3156 -5.0730 -0.0990
10811SOL     OW33482   1.308   4.989   1.795  0.4745  0.2949  0.2765
10811SOL    HW133483   1.348   5.012   1.879  1.2797  1.1089 -0.3156
10811SOL    HW233484   1.229   4.940   1.819  1.8401 -1.4332  1.4894
10812SOL     OW33485   1.486   1.058   4.977 -0.5940  0.0503 -0.4480
10812SOL    HW133486   1.392   1.040   4.983 -0.5494 -0.6027 -1.4304
10812SOL    HW233487   1.511   1.088   5.065 -1.6837  0.0723 -0.1364
10813SOL     OW33488   7.806   5.403   0.276 -0.2968  0.4319 -0.5806
10813SOL    HW133489   7.773   5.486   0.311 -1.2907  1.0315 -2.8050
10813SOL    HW233490   7.728   5.347   0.269  0.0707 -0.0633 -0.7985
10814SOL     OW33491   6.239   1.953   2.004  0.8705 -1.1760 -0.1916
10814SOL    HW133492   6.169   2.015   2.027  1.3986  0.4879 -2.7116
10814SOL    HW233493   6.202   1.867   2.024 -0.6004 -0.2051  1.6530
10815SOL     OW33494   1.358   6.621   3.523 -0.4209 -0.3771  0.0861
10815SOL    HW133495   1.298   6.695   3.515 -0.9838 -0.9902 -2.0175
10815SOL    HW233496   1.322   6.553   3.466  1.9121 -1.0038 -0.7941
10816SOL     OW33497   4.654   5.420   1.628  0.2498  0.0009 -0.4446
10816SOL    HW133498   4.630   5.328   1.616  1.8523 -0.2141 -2.5616
10816SOL    HW233499   4.632   5.462   1.545  1.6907  1.0079 -0.3526
10817SOL     OW33500   1.202   2.581   7.822  0.4267 -0.1273  0.4214
10817SOL    HW133501   1.284   2.625   7.802 -0.2761  0.6019 -0.9625
10817SOL    HW233502   1.200   2.505   7.764  0.5852 -0.7596  1.2099
10818SOL     OW33503   5.489   1.721   0.967  0.0865  0.2244 -0.0538
10818SOL    HW133504   5.580   1.726   0.940  0.0339  0.8341 -0.1342
10818SOL    HW233505   5.470   1.807   1.005 -0.6252  0.3172 -0.5933
10819SOL     OW33506   6.117   1.795   0.987  0.3962 -0.6946 -0.0223
10819SOL    HW133507   6.032   1.751   0.974  0.8980 -1.7227  0.0635
10819SOL    HW233508   6.096   1.870   1.042 -0.7461  0.1185 -1.4902
10820SOL     OW33509   5.264   8.055   1.972 -0.7832 -0.5103  0.1296
10820SOL    HW133510   5.184   8.089   1.932  0.1490  2.0910  0.2752
10820SOL    HW233511   5.330   8.065   1.903 -0.4410 -2.0813  0.2055
10821SOL     OW33512   0.868   3.861   1.244  0.1359 -0.1306 -0.3013
10821SOL    HW133513   0.776   3.878   1.224 -0.1825 -0.4675  0.7943
10821SOL    HW233514   0.880   3.896   1.332  0.8786 -0.7163 -0.1588
10822SOL     OW33515   4.180   4.844   0.237 -0.1874 -0.9112  0.4816
10822SOL    HW133516   4.086   4.845   0.217 -0.4608  1.7159  1.5005
10822SOL    HW233517   4.222   4.839   0.151 -1.2847 -0.2697 -0.1251
10823SOL     OW33518   3.261   0.402   1.210  0.2152  0.0961  0.5173
10823SOL    HW133519   3.187   0.423   1.267 -1.8870  0.6605 -2.2064
10823SOL    HW233520   3.293   0.487   1.179  1.3687 -0.1906  0.8718
10824SOL     OW33521   6.485   4.417   5.318  0.4235  0.0496  0.1369
10824SOL    HW133522   6.564   4.462   5.289  0.7930 -1.0963 -0.6947
10824SOL    HW233523   6.513   4.326   5.332 -0.6709 -0.3017  0.1203
10825SOL     OW33524   3.800   0.823   5.058  0.1642 -0.3463 -0.2449
10825SOL    HW133525   3.768   0.893   5.115 -1.8703  0.0741 -1.7749
10825SOL    HW233526   3.889   0.848   5.036 -0.0163  0.9646  0.4629
10826SOL     OW33527   4.245   0.364   7.483 -0.3660 -0.6917 -0.2999
10826SOL    HW133528   4.211   0.303   7.548  0.8610 -0.4772  0.5789
10826SOL    HW233529   4.175   0.428   7.470 -1.6298 -2.1949 -1.1628
10827SOL     OW33530   5.847   5.916   3.757  0.0081  0.1629  0.6720
10827SOL    HW133531   5.855   5.984   3.823  2.8078  0.2236  0.4240
10827SOL    HW233532   5.921   5.858   3.774 -0.6215 -1.1815 -0.9126
10828SOL     OW33533   3.273   5.829   0.987  0.2310 -0.3582  0.0597
10828SOL    HW133534   3.247   5.738   1.001 -0.8770  0.1130  1.2507
10828SOL    HW233535   3.190   5.876   0.974  0.3893  1.1094  3.4506
10829SOL     OW33536   3.635   5.395   2.919  0.5890 -0.1799 -0.4258
10829SOL    HW133537   3.607   5.322   2.975 -0.4034  0.2135 -0.3946
10829SOL    HW233538   3.629   5.359   2.830  1.9989 -0.7490 -0.3111
10830SOL     OW33539   6.174   1.533   0.175 -0.7309  0.1584 -0.3500
10830SOL    HW133540   6.168   1.460   0.114  0.4519 -0.3233  0.0748
10830SOL    HW233541   6.180   1.610   0.120  0.1656 -0.2586 -0.8536
10831SOL     OW33542   1.577   3.763   7.818  0.4261  0.1321  0.1811
10831SOL    HW133543   1.481   3.757   7.826  0.4886  0.5426  1.3237
10831SOL    HW233544   1.610   3.681   7.855  0.5747  0.6760  1.2903
10832SOL     OW33545   2.724   6.674   0.070  0.3950  0.2241  0.2383
10832SOL    HW133546   2.711   6.611   0.141  0.0481  0.2024  0.1576
10832SOL    HW233547   2.780   6.628   0.007 -0.0445 -0.0950  0.0694
10833SOL     OW33548   2.213   6.321   4.431 -0.1955 -0.0717 -0.4687
10833SOL    HW133549   2.185   6.242   4.384  1.0213 -0.4977 -0.5201
10833SOL    HW233550   2.309   6.315   4.433 -0.1817 -0.0173  1.9738
10834SOL     OW33551   4.233   4.946   1.629  0.3267  0.1281 -0.0993
10834SOL    HW133552   4.291   5.010   1.670  1.3532 -1.2624  0.7199
10834SOL    HW233553   4.233   4.970   1.536  1.8112  0.4844 -0.0339
10835SOL     OW33554   1.703   5.384   1.118 -0.3003  0.4419 -0.1895
10835SOL    HW133555   1.747   5.459   1.078  0.1117  0.7128  0.7474
10835SOL    HW233556   1.614   5.416   1.137 -0.1113  0.7081  0.2502
10836SOL     OW33557   1.207   0.161   2.365 -0.4472 -0.1695 -0.3154
10836SOL    HW133558   1.196   0.236   2.424  1.6509  0.9141 -1.1987
10836SOL    HW233559   1.179   0.085   2.417 -2.1496  1.1404  0.7730
10837SOL     OW33560   2.477   4.538   1.145 -0.4826 -0.0396  0.7928
10837SOL    HW133561   2.417   4.484   1.196  0.9740 -0.8264  1.7469
10837SOL    HW233562   2.513   4.600   1.209  0.1752  0.0096  0.3788
10838SOL     OW33563   1.018   2.140   5.477  0.1684  0.2695  0.3216
10838SOL    HW133564   1.059   2.151   5.563  1.4365  0.9943 -0.3501
10838SOL    HW233565   0.926   2.162   5.492  0.7396  2.3190  1.0969
10839SOL     OW33566   5.169   4.722   6.295  0.1376 -0.2205 -0.2738
10839SOL    HW133567   5.075   4.729   6.281  0.0528 -0.0386  0.3870
10839SOL    HW233568   5.179   4.706   6.389  0.6640 -2.1293 -0.5959
10840SOL     OW33569   3.489   0.063   6.631 -0.2681 -0.4139  0.2310
10840SOL    HW133570   3.507  -0.023   6.668  0.3890 -1.0016 -1.3828
10840SOL    HW233571   3.575   0.106   6.629 -0.4158 -0.1287  0.0414
10841SOL     OW33572   1.901   5.783   4.489  0.3125 -0.2665  0.4724
10841SOL    HW133573   1.852   5.865   4.492 -1.3617 -1.2420  1.7021
10841SOL    HW233574   1.941   5.782   4.402 -0.5918  1.3094  0.0030
10842SOL     OW33575   4.711   7.877   1.279  0.4651 -0.2934 -0.1274
10842SOL    HW133576   4.778   7.944   1.266 -0.5588  0.7940  0.1005
10842SOL    HW233577   4.650   7.915   1.342  0.4268 -1.8672  0.8586
10843SOL     OW33578   1.123   3.468   5.328  0.2947 -0.2108 -0.1010
10843SOL    HW133579   1.150   3.533   5.393 -0.5412  1.1885 -1.1061
10843SOL    HW233580   1.159   3.386   5.361  0.8454  0.6346  1.5425
10844SOL     OW33581   2.027   7.455   8.120  0.4174  0.5514  0.5383
10844SOL    HW133582   2.086   7.397   8.168  0.3213 -0.8408 -0.9551
10844SOL    HW233583   2.081   7.497   8.053 -0.0738 -0.0074 -0.2260
10845SOL     OW33584   7.501   2.107   2.748  1.0429  0.1399  0.2992
10845SOL    HW133585   7.567   2.043   2.721  0.8510  0.7727 -1.8193
10845SOL    HW233586   7.523   2.127   2.839  2.3303 -1.4083  0.3701
10846SOL     OW33587   3.473   0.200   2.560  0.0885  0.6955 -0.0463
10846SOL    HW133588   3.460   0.218   2.653  0.3331  1.5773 -0.1715
10846SOL    HW233589   3.403   0.250   2.516 -0.4518 -0.2636 -0.3043
10847SOL     OW33590   7.166   5.397   5.288 -0.3919 -0.5010  0.0334
10847SOL    HW133591   7.103   5.353   5.231  0.5771  0.9767 -2.3259
10847SOL    HW233592   7.243   5.341   5.288 -0.4203 -0.5394 -0.0538
10848SOL     OW33593   6.835   3.206   3.730  0.4199  0.5087  0.2306
10848SOL    HW133594   6.829   3.196   3.635  0.8432  0.8273  0.1675
10848SOL    HW233595   6.748   3.235   3.757  0.4874  1.0841 -0.1459
10849SOL     OW33596   1.646   5.773   7.595  0.8094 -0.0291 -0.2693
10849SOL    HW133597   1.609   5.855   7.560 -0.7945 -0.6753 -0.1730
10849SOL    HW233598   1.627   5.776   7.689  0.1349 -0.7939 -0.3690
10850SOL     OW33599   4.271   3.191   4.472 -0.1155 -0.0340  0.6172
10850SOL    HW133600   4.312   3.135   4.406  1.3421  0.0960  1.3680
10850SOL    HW233601   4.230   3.261   4.421  0.7267 -0.0967 -0.1812
10851SOL     OW33602   4.599   2.998   1.235  0.0023 -0.4279  0.7008
10851SOL    HW133603   4.513   2.955   1.227 -0.0177 -0.3422  0.4305
10851SOL    HW233604   4.600   3.033   1.324 -0.2342 -0.4525  0.7152
10852SOL     OW33605   7.308   6.215   2.988 -0.0023 -0.5969  0.1712
10852SOL    HW133606   7.242   6.260   2.935  0.0282 -0.5646  0.1607
10852SOL    HW233607   7.258   6.169   3.055 -0.0125 -0.2852  0.3791
10853SOL     OW33608   2.628   2.994   7.969  0.3092  0.2523 -0.3985
10853SOL    HW133609   2.670   2.924   8.018  0.4398  0.9055  0.4470
10853SOL    HW233610   2.682   3.004   7.890  2.8073  2.1732  1.4016
10854SOL     OW33611   2.576   3.067   1.452 -0.1321  0.0633  0.2030
10854SOL    HW133612   2.563   2.994   1.513  0.4119 -0.4151 -0.2385
10854SOL    HW233613   2.541   3.036   1.369 -0.0653  0.3718  0.0573
10855SOL     OW33614   6.066   2.176   4.105 -0.5193  0.3729  0.2486
10855SOL    HW133615   5.978   2.155   4.076 -0.4293 -0.3987  0.5011
10855SOL    HW233616   6.122   2.154   4.031 -0.3551 -0.9939  0.7389
10856SOL     OW33617   7.743   1.521   2.174 -0.0630  0.0121 -0.0169
10856SOL    HW133618   7.763   1.477   2.257 -0.3016 -1.9821 -0.9770
10856SOL    HW233619   7.802   1.481   2.111 -1.2127  0.1439 -1.2027
10857SOL     OW33620   0.160   7.833   2.473  0.0951  0.2351 -0.2687
10857SOL    HW133621   0.112   7.752   2.457 -0.5296  0.5201  0.1226
10857SOL    HW233622   0.226   7.837   2.404  1.0664 -1.3187  0.4973
10858SOL     OW33623   3.186   7.421   6.764 -0.0978  0.1031  0.0221
10858SOL    HW133624   3.095   7.451   6.771 -0.4404 -0.7217 -0.7863
10858SOL    HW233625   3.188   7.341   6.817  0.2390  0.2731  0.2710
10859SOL     OW33626   2.608   4.611   7.614 -0.5243  0.4312  0.4797
10859SOL    HW133627   2.563   4.689   7.583 -0.7771  0.2143  0.2991
10859SOL    HW233628   2.685   4.645   7.660 -0.3920  0.7696  0.0195
10860SOL     OW33629   1.814   0.802   1.539 -0.2023  0.4945  0.4269
10860SOL    HW133630   1.823   0.894   1.514  1.9291  0.5825  1.3535
10860SOL    HW233631   1.902   0.775   1.565  0.0661 -2.7586 -2.9079
10861SOL     OW33632   0.237   5.194   7.320  0.4680 -0.3847  0.1160
10861SOL    HW133633   0.171   5.249   7.363  1.3325 -0.2299  1.2705
10861SOL    HW233634   0.187   5.120   7.285 -0.7470  1.1387 -1.5934
10862SOL     OW33635   6.113   4.939   6.980 -0.0639  0.6327  0.3927
10862SOL    HW133636   6.061   4.863   7.005  0.6913  0.0677  0.3111
10862SOL    HW233637   6.138   4.980   7.063  1.3908 -0.5153  0.5622
10863SOL     OW33638   0.917   7.128   6.768  0.6094  0.0991 -0.3521
10863SOL    HW133639   0.826   7.109   6.790  0.1631  0.5822 -1.6928
10863SOL    HW233640   0.944   7.193   6.833 -0.2764  0.5702 -0.4397
10864SOL     OW33641   7.077   3.947   6.226  0.2549 -0.9816 -0.7289
10864SOL    HW133642   7.075   4.039   6.251 -0.5549 -1.5400  1.4980
10864SOL    HW233643   7.001   3.909   6.271 -0.3241 -2.4541 -2.8375
10865SOL     OW33644   0.932   3.098   5.847  0.1069  0.0960  0.2550
10865SOL    HW133645   0.851   3.142   5.872  0.1082  0.0631  0.3170
10865SOL    HW233646   0.928   3.092   5.751 -0.5113 -0.9637  0.3338
10866SOL     OW33647   2.266   4.119   1.493 -1.0438  0.1259  0.0479
10866SOL    HW133648   2.245   4.033   1.528 -0.9697 -0.6467 -1.7154
10866SOL    HW233649   2.328   4.155   1.556  1.0780 -2.2575 -0.5014
10867SOL     OW33650   4.050   7.112   1.965 -0.6440 -0.2664  0.4117
10867SOL    HW133651   4.117   7.048   1.941 -0.8313 -1.6131  3.0787
10867SOL    HW233652   4.063   7.127   2.059 -1.2828  2.8938  0.1070
10868SOL     OW33653   6.519   6.418   4.865  0.2216 -0.5374  0.2778
10868SOL    HW133654   6.495   6.393   4.776 -2.5381  1.3120  0.3692
10868SOL    HW233655   6.439   6.404   4.917  1.4022 -0.4570  2.2226
10869SOL     OW33656   2.592   0.156   1.817  0.2697 -0.5287  0.4834
10869SOL    HW133657   2.644   0.237   1.818 -1.6007  0.7454  1.1738
10869SOL    HW233658   2.583   0.135   1.724  1.1758 -0.2053  0.3140
10870SOL     OW33659   7.551   0.712   2.431  0.2343 -0.2344 -0.6047
10870SOL    HW133660   7.560   0.720   2.526 -1.9241 -0.3150 -0.3312
10870SOL    HW233661   7.461   0.739   2.413  0.6077 -0.1660 -2.6534
10871SOL     OW33662   1.022   7.150   3.234 -0.4571  0.1996 -0.3691
10871SOL    HW133663   1.109   7.116   3.253 -0.4401  0.0015 -0.7875
10871SOL    HW233664   0.969   7.126   3.310  0.3397  2.1805  0.8992
10872SOL     OW33665   1.475   5.743   5.271 -0.3935 -0.2837 -0.2999
10872SOL    HW133666   1.503   5.726   5.181  0.6452  3.0300 -0.7374
10872SOL    HW233667   1.554   5.726   5.323 -0.2748  0.1166 -0.3445
10873SOL     OW33668   1.620   6.113   1.655  0.5046  0.4830 -0.1341
10873SOL    HW133669   1.699   6.157   1.685  0.8754  0.6693 -1.3190
10873SOL    HW233670   1.651   6.050   1.590 -0.2008 -0.3168  0.2769
10874SOL     OW33671   0.052   6.543   7.429 -0.0935  0.3261  0.3493
10874SOL    HW133672  -0.037   6.509   7.445 -0.3757  0.9793  0.2035
10874SOL    HW233673   0.071   6.516   7.339  0.4029 -0.9803  0.8262
10875SOL     OW33674   5.734   6.352   0.193 -0.0931 -0.3727  0.2775
10875SOL    HW133675   5.673   6.308   0.253  0.6759 -0.2586  1.1699
10875SOL    HW233676   5.728   6.445   0.216  0.7253 -0.4065  0.6775
10876SOL     OW33677   0.938   3.791   0.934 -0.0225  0.1630 -0.4834
10876SOL    HW133678   0.846   3.772   0.915 -1.4891  4.7127  0.7447
10876SOL    HW233679   0.962   3.728   1.002 -2.0578 -1.4017 -1.1248
10877SOL     OW33680   0.922   6.838   1.936  0.2199  0.0616 -0.4559
10877SOL    HW133681   0.911   6.762   1.879 -0.6502 -0.8073  0.8207
10877SOL    HW233682   0.836   6.879   1.938 -0.0205 -0.4700  0.9530
10878SOL     OW33683   6.692   7.200   7.903 -0.3255  0.0570  0.6604
10878SOL    HW133684   6.734   7.275   7.945  2.4295 -0.3724 -1.0814
10878SOL    HW233685   6.756   7.171   7.838 -2.3407 -2.3143 -0.3811
10879SOL     OW33686   4.730   6.906   6.095  0.1803  0.6681 -0.7995
10879SOL    HW133687   4.646   6.946   6.118  0.3146  0.4478  0.1009
10879SOL    HW233688   4.709   6.814   6.078  0.0272  0.8970 -1.9360
10880SOL     OW33689   5.011   1.443   3.323  0.1358  0.6911  0.4382
10880SOL    HW133690   4.951   1.488   3.383  0.5909  1.1448  0.5670
10880SOL    HW233691   4.993   1.481   3.237 -1.7847 -1.2349 -0.0868
10881SOL     OW33692   1.056   1.195   3.637 -0.1461 -0.0640  0.1320
10881SOL    HW133693   1.014   1.265   3.688  0.0538 -0.5503  0.9945
10881SOL    HW233694   0.986   1.159   3.583 -1.0859 -1.3552  2.0814
10882SOL     OW33695   7.340   6.504   3.403 -0.3348 -0.1720  0.2529
10882SOL    HW133696   7.269   6.532   3.462 -2.0543  1.0644 -2.2243
10882SOL    HW233697   7.325   6.411   3.390 -0.5441 -0.2440  0.9368
10883SOL     OW33698   3.214   7.595   7.520 -0.1813 -0.2144  0.3100
10883SOL    HW133699   3.129   7.550   7.516 -0.7971  0.9737 -0.8737
10883SOL    HW233700   3.230   7.607   7.613 -0.6260 -1.6977  0.6040
10884SOL     OW33701   6.738   2.298   7.888  0.1057 -0.1903 -0.2029
10884SOL    HW133702   6.749   2.229   7.823 -0.1463 -0.0139 -0.4316
10884SOL    HW233703   6.684   2.258   7.956  0.3194 -0.3558 -0.1292
10885SOL     OW33704   6.386   3.563   0.492  0.3614 -0.5218  0.5627
10885SOL    HW133705   6.295   3.587   0.510  0.8211  2.4906 -0.4444
10885SOL    HW233706   6.435   3.602   0.565  1.0240 -0.0671 -0.1147
10886SOL     OW33707   4.611   5.402   6.575 -0.6549  0.3268  0.0300
10886SOL    HW133708   4.651   5.489   6.578 -1.7736  0.9310 -1.2870
10886SOL    HW233709   4.564   5.400   6.492 -1.1886 -1.3132  0.3271
10887SOL     OW33710   2.369   1.564   0.553 -0.4648  0.6050  0.1354
10887SOL    HW133711   2.353   1.636   0.492  0.3728 -0.9583 -2.0920
10887SOL    HW233712   2.324   1.589   0.633  0.9958  4.2311 -0.0210
10888SOL     OW33713   7.216   5.187   4.157 -0.8441 -0.4643  0.1312
10888SOL    HW133714   7.210   5.179   4.062 -0.6070 -1.8718  0.2244
10888SOL    HW233715   7.126   5.202   4.185 -1.0123 -0.7386 -0.2506
10889SOL     OW33716   1.054   4.952   3.597 -0.0070 -0.1182  0.2670
10889SOL    HW133717   1.106   5.023   3.558 -0.9484  1.1536  1.2382
10889SOL    HW233718   1.097   4.934   3.680 -0.4986  0.2252  0.6042
10890SOL     OW33719   2.781   3.394   0.597  0.2513 -0.0473 -0.1186
10890SOL    HW133720   2.807   3.312   0.556  1.2873  1.3353 -2.4303
10890SOL    HW233721   2.826   3.462   0.547 -1.2338  2.0131  1.1470
10891SOL     OW33722   1.843   6.980   2.831 -0.3051  0.3758 -0.1301
10891SOL    HW133723   1.795   6.899   2.812 -2.0738  1.0443  1.2659
10891SOL    HW233724   1.873   6.969   2.921  3.0243 -0.3585 -1.1765
10892SOL     OW33725   3.663   0.818   3.324  0.2501  0.6177  0.3762
10892SOL    HW133726   3.651   0.864   3.241 -1.3209  0.8977  0.7331
10892SOL    HW233727   3.758   0.808   3.332  0.4275  0.6167 -1.4244
10893SOL     OW33728   6.312   1.574   6.463  0.9680  0.3614  0.1454
10893SOL    HW133729   6.277   1.663   6.467 -1.2441 -0.4480  0.2207
10893SOL    HW233730   6.349   1.558   6.549  1.4428  1.2287  0.1079
10894SOL     OW33731   2.110   6.101   3.543  0.6272  0.1268 -0.5449
10894SOL    HW133732   2.154   6.044   3.607  0.9124  0.4112 -0.4833
10894SOL    HW233733   2.130   6.190   3.573 -1.3666  0.3104  0.4552
10895SOL     OW33734   6.880   4.994   7.714 -0.4789  0.0871 -0.1159
10895SOL    HW133735   6.911   5.055   7.647  1.6742  0.2310  0.9071
10895SOL    HW233736   6.790   5.020   7.730 -0.2655  1.6473 -1.1991
10896SOL     OW33737   4.752   5.745   6.868 -0.3406 -0.1123  0.4918
10896SOL    HW133738   4.702   5.756   6.787  0.0108 -1.6738  0.0277
10896SOL    HW233739   4.762   5.650   6.878  0.1221  0.0613  2.0674
10897SOL     OW33740   1.409   3.615   1.127 -0.1711 -0.1464  0.3387
10897SOL    HW133741   1.433   3.529   1.161 -1.0966 -0.8778 -0.7909
10897SOL    HW233742   1.318   3.626   1.152  0.0445  0.6964  0.8042
10898SOL     OW33743   1.838   7.824   4.445  0.3858  0.2626 -0.7512
10898SOL    HW133744   1.813   7.916   4.445 -0.8191 -0.0399 -1.4108
10898SOL    HW233745   1.851   7.803   4.353 -0.1995 -0.4352 -0.6834
10899SOL     OW33746   0.692   1.543   6.960 -0.2486 -0.0482  0.2234
10899SOL    HW133747   0.756   1.585   7.017  1.3154 -3.6737  1.3710
10899SOL    HW233748   0.637   1.492   7.019 -1.5799 -0.2710 -1.1464
10900SOL     OW33749   7.635   3.158   7.149  0.4949  0.4645 -0.3959
10900SOL    HW133750   7.727   3.182   7.158  0.7042 -0.2281 -0.6373
10900SOL    HW233751   7.630   3.067   7.180 -0.1996  0.6580  0.0925
10901SOL     OW33752   5.172   6.504   4.569 -0.2133  0.1500 -0.2680
10901SOL    HW133753   5.180   6.448   4.646 -1.0963 -0.1545 -0.3851
10901SOL    HW233754   5.253   6.489   4.520 -0.1093 -0.4434  0.0797
10902SOL     OW33755   3.884   3.752   6.344 -0.4347 -0.2873  0.2041
10902SOL    HW133756   3.824   3.827   6.348  0.9822  0.8683  0.5715
10902SOL    HW233757   3.971   3.790   6.354  0.2843 -2.0971  1.3253
10903SOL     OW33758   3.592   2.914   0.491  0.3071 -0.8584 -0.2597
10903SOL    HW133759   3.548   2.830   0.478 -1.2916  0.2151 -2.6518
10903SOL    HW233760   3.545   2.974   0.433  4.3738  0.6363 -2.4143
10904SOL     OW33761   5.652   3.867   8.043 -0.1554 -0.2041  0.0950
10904SOL    HW133762   5.670   3.776   8.064  2.4696  0.2029  0.0387
10904SOL    HW233763   5.728   3.915   8.077 -0.5850  1.7138 -1.4173
10905SOL     OW33764   5.997   4.848   2.096 -0.3381  0.0673 -0.0680
10905SOL    HW133765   6.066   4.877   2.155  1.7023 -2.8757 -0.8059
10905SOL    HW233766   5.946   4.786   2.147 -2.3942  1.9620  0.3630
10906SOL     OW33767   2.575   7.902   6.242 -0.4043  0.3782 -0.0941
10906SOL    HW133768   2.581   7.887   6.337  0.8450 -0.0436 -0.2281
10906SOL    HW233769   2.551   7.995   6.235  2.6877  1.3523  0.6493
10907SOL     OW33770   1.288   7.568   1.000  0.5212  0.1392  0.3908
10907SOL    HW133771   1.313   7.644   0.947  0.3198 -1.4646 -2.2079
10907SOL    HW233772   1.238   7.513   0.939 -2.3538 -0.5381  3.1159
10908SOL     OW33773   1.365   0.098   2.657  0.0712 -0.0851 -0.7419
10908SOL    HW133774   1.271   0.079   2.654 -0.2610  1.5563 -2.3098
10908SOL    HW233775   1.402   0.049   2.583  0.1365  0.7384 -1.2624
10909SOL     OW33776   4.596   1.541   0.315 -0.1679  0.0258  0.3359
10909SOL    HW133777   4.662   1.515   0.250 -0.1320  3.2499 -1.0755
10909SOL    HW233778   4.637   1.521   0.399  0.1001 -3.5422 -0.4661
10910SOL     OW33779   1.701   6.477   6.425  0.5119  0.4053 -0.1383
10910SOL    HW133780   1.737   6.494   6.512  1.0580 -0.6452 -0.1479
10910SOL    HW233781   1.756   6.407   6.389 -1.7362 -1.5814  0.0012
10911SOL     OW33782   5.309   6.507   2.935 -0.3646 -0.6334 -0.5170
10911SOL    HW133783   5.332   6.453   3.010 -0.9992  1.6556  1.4577
10911SOL    HW233784   5.388   6.557   2.916 -0.7942  0.2677 -0.0023
10912SOL     OW33785   3.649   2.330   6.731  0.0800  0.0743  0.0438
10912SOL    HW133786   3.617   2.240   6.726 -0.3175  0.2576 -1.6066
10912SOL    HW233787   3.604   2.367   6.807 -0.6782 -0.7881  0.0451
10913SOL     OW33788   7.804   4.751   7.888  0.4669  0.0535  0.1542
10913SOL    HW133789   7.759   4.765   7.971  1.1589 -0.2086  0.5893
10913SOL    HW233790   7.863   4.826   7.879  1.8153 -0.8671  0.8866
10914SOL     OW33791   6.557   6.236   0.771 -0.0561 -0.1282 -0.3397
10914SOL    HW133792   6.479   6.185   0.745  0.2702 -1.0048  0.3524
10914SOL    HW233793   6.602   6.179   0.833  1.0439  0.4578 -0.5956
10915SOL     OW33794   1.675   3.603   6.678  0.4426 -0.4996  0.0908
10915SOL    HW133795   1.709   3.655   6.605 -0.0116 -0.3511 -0.0220
10915SOL    HW233796   1.581   3.599   6.661  0.3663 -0.6401  0.5597
10916SOL     OW33797   7.800   7.630   0.583  0.1375 -0.6521  0.5586
10916SOL    HW133798   7.888   7.662   0.601 -0.0597 -0.1621  0.6946
10916SOL    HW233799   7.812   7.544   0.543  0.7171 -0.0491 -0.6049
10917SOL     OW33800   0.600   4.043   3.409  0.6303 -0.0360  0.2787
10917SOL    HW133801   0.635   4.064   3.322  1.3442 -0.3745  0.4717
10917SOL    HW233802   0.674   4.057   3.469  1.1209 -2.7136  0.4641
10918SOL     OW33803   2.674   2.312   7.947  0.2384 -0.3188 -0.4312
10918SOL    HW133804   2.653   2.309   8.040 -1.4092  0.2251 -0.7556
10918SOL    HW233805   2.769   2.322   7.944  0.5046 -1.9047  1.1628
10919SOL     OW33806   8.007   5.791   2.844  0.1052 -0.2010 -0.1104
10919SOL    HW133807   7.950   5.717   2.824 -1.4142  0.4388  1.5615
10919SOL    HW233808   7.951   5.868   2.833  0.7541  0.4894  1.1939
10920SOL     OW33809   8.072   0.453   1.504  0.0522 -0.5207 -0.3804
10920SOL    HW133810   7.995   0.398   1.518 -2.0321  2.1116 -0.5992
10920SOL    HW233811   8.095   0.440   1.412 -2.0708  0.7810 -1.1834
10921SOL     OW33812   1.500   2.431   2.042  0.0696 -0.5274 -0.5052
10921SOL    HW133813   1.482   2.461   1.953  0.1301  1.0517 -0.0164
10921SOL    HW233814   1.561   2.495   2.077 -3.2993  1.6204  2.1520
10922SOL     OW33815   1.274   2.790   3.514  0.5758  0.4829  0.2834
10922SOL    HW133816   1.271   2.768   3.421 -0.5089  0.7907  0.2232
10922SOL    HW233817   1.357   2.836   3.525  0.0964  1.6920 -0.8466
10923SOL     OW33818   0.975   0.102   3.155  0.7030  0.2404 -0.1414
10923SOL    HW133819   0.943   0.175   3.101 -0.7925 -1.4274 -1.6953
10923SOL    HW233820   1.042   0.060   3.101 -0.3910 -1.0987 -0.5462
10924SOL     OW33821   6.818   3.277   6.663  0.7015  0.1021 -0.0816
10924SOL    HW133822   6.854   3.198   6.623  0.8762  0.5624 -0.8394
10924SOL    HW233823   6.894   3.323   6.698  0.8956  1.0670 -1.6685
10925SOL     OW33824   7.855   4.426   3.314  0.3917  0.0751 -0.3969
10925SOL    HW133825   7.933   4.480   3.302  0.3168 -0.3676 -3.9841
10925SOL    HW233826   7.797   4.451   3.242 -2.6597  0.0363  1.8629
10926SOL     OW33827   7.039   3.773   3.770 -0.0311  0.5671  0.4830
10926SOL    HW133828   7.055   3.811   3.856 -0.5489 -0.7570  1.2008
10926SOL    HW233829   7.023   3.680   3.787  2.0974 -0.2128 -1.2623
10927SOL     OW33830   1.438   0.553   7.885  0.0060  0.3852  1.2934
10927SOL    HW133831   1.375   0.625   7.880  0.0623  0.4778  1.9205
10927SOL    HW233832   1.405   0.489   7.822 -0.3692  0.7010  1.1623
10928SOL     OW33833   0.254   1.193   2.289 -0.3539  0.4651  0.4995
10928SOL    HW133834   0.309   1.157   2.220 -0.2874  2.1350 -0.3824
10928SOL    HW233835   0.165   1.187   2.254 -0.2220  2.3351 -0.2813
10929SOL     OW33836   4.000   0.178   1.495 -0.0869  0.1425  0.0042
10929SOL    HW133837   4.013   0.213   1.407 -2.8750  2.6604  0.4257
10929SOL    HW233838   4.061   0.226   1.550  0.4676 -0.2082 -0.2960
10930SOL     OW33839   5.443   3.660   6.320 -0.2962 -0.4429  0.5926
10930SOL    HW133840   5.368   3.669   6.379 -1.5011 -0.4009 -0.8897
10930SOL    HW233841   5.449   3.565   6.305 -0.9070 -0.3504 -0.3163
10931SOL     OW33842   1.908   5.306   5.489  0.2593  0.5656 -0.0987
10931SOL    HW133843   1.883   5.216   5.509  1.0061  0.1854 -0.7710
10931SOL    HW233844   1.861   5.327   5.409  0.3328  0.6520 -0.1201
10932SOL     OW33845   0.724   0.691   0.560 -0.8305  0.2010 -0.5557
10932SOL    HW133846   0.766   0.713   0.643 -2.4283  0.3174  0.2531
10932SOL    HW233847   0.752   0.601   0.543  0.0896  0.4201 -0.2746
10933SOL     OW33848   3.931   3.821   4.620 -0.4572  0.2216 -0.3599
10933SOL    HW133849   3.952   3.905   4.579  0.5597  0.0336 -0.2324
10933SOL    HW233850   4.014   3.775   4.625 -0.6088  0.0716  1.5532
10934SOL     OW33851   2.392   0.284   7.857  1.2346 -0.6147  0.3679
10934SOL    HW133852   2.483   0.267   7.881  1.5603  0.8820  0.2918
10934SOL    HW233853   2.396   0.362   7.801 -0.0455 -0.8368 -0.0683
10935SOL     OW33854   1.429   6.573   6.719 -0.0679  0.3074 -0.1691
10935SOL    HW133855   1.427   6.563   6.624  0.9408 -1.1468 -0.0674
10935SOL    HW233856   1.518   6.546   6.743 -0.5147  0.0581  1.2453
10936SOL     OW33857   4.796   5.566   7.653  0.3244 -0.0765 -0.1900
10936SOL    HW133858   4.879   5.519   7.662  0.8876  0.9887  0.2791
10936SOL    HW233859   4.786   5.613   7.735  0.6780  2.0460 -1.2767
10937SOL     OW33860   5.146   1.658   8.096  0.2796  0.0106  0.1556
10937SOL    HW133861   5.115   1.729   8.040  1.1617 -1.3115 -2.1392
10937SOL    HW233862   5.234   1.684   8.122 -0.0032  0.4655  0.6854
10938SOL     OW33863   6.124   1.066   3.327  0.3950  0.1387 -0.1941
10938SOL    HW133864   6.051   1.082   3.386  0.4138 -0.0709 -0.1138
10938SOL    HW233865   6.134   1.148   3.279 -0.3329 -0.0482 -0.6859
10939SOL     OW33866   0.403   3.794   2.089  0.3493 -0.6330  0.5547
10939SOL    HW133867   0.325   3.799   2.144 -0.1620 -1.7757 -0.0243
10939SOL    HW233868   0.399   3.706   2.050  0.6769  0.1297 -1.2998
10940SOL     OW33869   7.990   3.118   0.406 -0.3087 -0.2100 -0.2149
10940SOL    HW133870   7.986   3.042   0.348  2.2894 -0.4415 -0.1733
10940SOL    HW233871   7.994   3.194   0.348  0.3967 -0.3276 -0.3281
10941SOL     OW33872   3.985   6.819   4.519  0.7908 -0.2243  0.3630
10941SOL    HW133873   4.049   6.807   4.449 -0.5464 -0.7243 -0.8342
10941SOL    HW233874   3.966   6.913   4.518  0.0223 -0.3729 -0.6777
10942SOL     OW33875   4.521   7.902   1.037 -0.8320 -0.1657  1.0307
10942SOL    HW133876   4.458   7.943   1.097 -0.0265  2.0829  0.4409
10942SOL    HW233877   4.470   7.885   0.958 -0.7310  1.7860  0.5008
10943SOL     OW33878   3.059   1.914   1.084 -0.8547  0.9568 -0.4403
10943SOL    HW133879   3.004   1.841   1.111  0.9739 -0.3392 -0.0528
10943SOL    HW233880   3.097   1.887   1.000 -0.3835  1.5884 -0.4410
10944SOL     OW33881   2.134   0.755   5.864 -0.1745 -0.1806  0.5918
10944SOL    HW133882   2.194   0.736   5.791  1.1406  0.3489  1.4989
10944SOL    HW233883   2.192   0.773   5.938 -1.4628 -2.5108  2.2837
10945SOL     OW33884   5.160   5.247   3.110 -0.4429  0.3396  0.4919
10945SOL    HW133885   5.106   5.234   3.188  0.1577  0.0764  0.8720
10945SOL    HW233886   5.211   5.326   3.129  1.0832 -0.7706  1.1807
10946SOL     OW33887   8.052   5.565   4.017  0.7605 -0.0823 -1.1363
10946SOL    HW133888   8.060   5.587   3.925 -1.3853  1.1253 -1.0943
10946SOL    HW233889   7.959   5.543   4.029  0.4310  2.0147  1.1362
10947SOL     OW33890   5.401   6.203   3.529  0.2820  0.6562  0.5935
10947SOL    HW133891   5.318   6.236   3.496  0.3065 -1.0129 -1.3434
10947SOL    HW233892   5.418   6.254   3.608 -1.1858  2.9585 -0.4802
10948SOL     OW33893   6.393   7.369   0.596 -0.0155 -1.1861 -0.1865
10948SOL    HW133894   6.309   7.366   0.552  0.4193 -2.3632 -0.9684
10948SOL    HW233895   6.450   7.311   0.545  2.0091  1.4491 -1.1985
10949SOL     OW33896   6.510   6.339   2.617  0.1819  0.1517 -0.1523
10949SOL    HW133897   6.541   6.314   2.530  0.3876 -4.5956  1.0318
10949SOL    HW233898   6.590   6.350   2.668  0.0323  2.0603 -0.2501
10950SOL     OW33899   0.890   4.832   2.736 -0.0070 -0.0983  0.1767
10950SOL    HW133900   0.845   4.762   2.688 -1.9752  0.0889  1.6049
10950SOL    HW233901   0.945   4.786   2.800 -0.3961 -0.3558  0.3302
10951SOL     OW33902   5.863   1.472   0.498  0.4591 -0.2304  0.2821
10951SOL    HW133903   5.953   1.453   0.525  0.0393 -1.7774  0.6961
10951SOL    HW233904   5.837   1.546   0.553  2.1014  1.5877 -1.2175
10952SOL     OW33905   4.579   4.538   4.832 -0.2201  0.9919  0.1440
10952SOL    HW133906   4.591   4.445   4.852  1.5138  1.3155  0.8430
10952SOL    HW233907   4.592   4.545   4.738  0.3524  0.6145  0.1915
10953SOL     OW33908   4.421   1.316   2.630  0.0853  0.8951 -0.6616
10953SOL    HW133909   4.390   1.241   2.682 -0.1187  1.6646  0.3542
10953SOL    HW233910   4.515   1.320   2.648  0.0361  1.0835 -0.4359
10954SOL     OW33911   5.935   4.585   5.038  0.0519  0.1989 -0.2601
10954SOL    HW133912   6.009   4.615   4.985  2.2576 -2.1323  1.2716
10954SOL    HW233913   5.960   4.603   5.128 -0.7530 -1.6036  0.3697
10955SOL     OW33914   2.174   7.759   3.076 -0.2099 -0.8528 -0.0820
10955SOL    HW133915   2.084   7.736   3.052 -0.4254 -0.4970  0.3660
10955SOL    HW233916   2.180   7.853   3.060  0.9138 -1.2792 -2.6871
10956SOL     OW33917   1.756   8.263   7.799 -0.4329  0.2968 -0.5746
10956SOL    HW133918   1.700   8.327   7.755  0.9093  0.8318 -1.5827
10956SOL    HW233919   1.804   8.314   7.864 -1.3535 -0.2290  0.5502
10957SOL     OW33920   4.762   2.275   0.530 -0.0219  0.0872 -0.1279
10957SOL    HW133921   4.754   2.346   0.593 -0.7698 -0.0918 -0.0131
10957SOL    HW233922   4.676   2.269   0.488 -0.9644 -2.5656  1.8448
10958SOL     OW33923   2.996   3.900   3.083  0.0383  0.4197 -0.3571
10958SOL    HW133924   2.992   3.806   3.069 -0.5866  0.5669 -1.2489
10958SOL    HW233925   2.935   3.917   3.155  0.6701  0.0709  0.2726
10959SOL     OW33926   4.928   5.492   6.170 -0.1503  0.3389  0.2361
10959SOL    HW133927   4.861   5.434   6.133 -0.5680  0.3995  0.8744
10959SOL    HW233928   5.008   5.440   6.170 -0.0214  0.5158 -1.2217
10960SOL     OW33929   0.453   1.000   4.373  0.0940  0.8903  0.0168
10960SOL    HW133930   0.476   1.036   4.287 -2.2670 -1.0747 -1.5557
10960SOL    HW233931   0.490   0.912   4.373 -0.5451  0.6082  0.7330
10961SOL     OW33932   1.490   5.529   2.863 -0.3116  0.1165  0.0574
10961SOL    HW133933   1.539   5.602   2.824 -0.2777 -0.4824 -1.0770
10961SOL    HW233934   1.543   5.452   2.845 -0.7160 -0.2863  0.5653
10962SOL     OW33935   0.517   7.708   2.561  0.1738  0.2048  0.0347
10962SOL    HW133936   0.569   7.694   2.641 -0.5286  1.4876  0.7511
10962SOL    HW233937   0.507   7.803   2.556  1.9479  0.3757 -2.7391
10963SOL     OW33938   1.319   3.798   3.003  0.3178 -0.4264  0.2494
10963SOL    HW133939   1.390   3.839   3.052 -0.2377  0.6114  0.2205
10963SOL    HW233940   1.249   3.788   3.067  1.0164 -2.9937  0.7154
10964SOL     OW33941   0.879   0.082   0.769 -0.6804 -0.5837 -0.1674
10964SOL    HW133942   0.844   0.028   0.699 -2.8023 -1.2879  1.3266
10964SOL    HW233943   0.807   0.089   0.832  0.9403  0.4593  1.6880
10965SOL     OW33944   5.974   7.924   4.619 -0.5147 -0.4392  0.2448
10965SOL    HW133945   6.069   7.932   4.630 -0.7808  1.1317  2.0468
10965SOL    HW233946   5.945   8.013   4.596 -1.5101 -1.0185 -0.8454
10966SOL     OW33947   0.085   1.276   0.768 -0.1590  0.2169 -0.2294
10966SOL    HW133948   0.152   1.285   0.700 -0.1560  2.1476 -0.0176
10966SOL    HW233949   0.003   1.292   0.723 -0.0809  2.5473  0.3568
10967SOL     OW33950   3.857   0.527   7.241  0.1301  0.4060 -0.1932
10967SOL    HW133951   3.864   0.570   7.156  0.8542  0.9046  0.1138
10967SOL    HW233952   3.795   0.580   7.290 -0.5494 -0.0737 -0.5179
10968SOL     OW33953   4.649   1.354   1.494 -0.5281  0.5612  0.1372
10968SOL    HW133954   4.686   1.427   1.544  0.8089  0.8666 -1.2264
10968SOL    HW233955   4.614   1.394   1.414 -0.5825 -0.1798 -0.2189
10969SOL     OW33956   4.930   3.971   2.429  0.0643 -0.7221  0.5689
10969SOL    HW133957   4.963   4.059   2.447 -0.1089 -0.4773 -0.2973
10969SOL    HW233958   4.836   3.981   2.422  0.1572 -0.7201 -0.9170
10970SOL     OW33959   1.471   4.079   5.982 -0.1972 -0.4005 -0.1891
10970SOL    HW133960   1.403   4.125   6.032 -0.8394  0.2739 -1.6427
10970SOL    HW233961   1.499   4.141   5.915  0.0164 -1.5885 -1.2433
10971SOL     OW33962   4.110   4.739   3.672 -0.5923  0.6435 -0.0091
10971SOL    HW133963   4.113   4.715   3.765 -1.2475  2.1733  0.4369
10971SOL    HW233964   4.019   4.725   3.647 -0.3871  0.1014 -0.4737
10972SOL     OW33965   4.981   0.290   0.319 -0.3139 -0.4309  0.0819
10972SOL    HW133966   4.926   0.368   0.311  0.3994 -0.0542 -1.3542
10972SOL    HW233967   4.923   0.218   0.292 -0.1030 -0.0198 -1.5534
10973SOL     OW33968   2.487   2.589   6.384 -0.1574 -0.0246 -0.1308
10973SOL    HW133969   2.413   2.529   6.390 -0.3199  0.3008  1.4567
10973SOL    HW233970   2.451   2.668   6.344 -0.3522 -0.3411 -0.5839
10974SOL     OW33971   3.949   4.725   5.419 -0.0348  0.0449  0.2529
10974SOL    HW133972   3.901   4.807   5.409  0.2446  0.8062  3.8061
10974SOL    HW233973   3.883   4.661   5.446  0.4308  0.4440  2.5222
10975SOL     OW33974   3.361   1.025   1.635 -0.2657  0.5908 -0.2953
10975SOL    HW133975   3.270   1.051   1.645  0.1973  1.5181  2.5168
10975SOL    HW233976   3.411   1.099   1.669  1.3806 -1.1932  1.4319
10976SOL     OW33977   4.178   7.199   7.108 -0.1155  0.2513  1.0991
10976SOL    HW133978   4.178   7.137   7.182  0.3665  0.5502  1.3540
10976SOL    HW233979   4.140   7.279   7.144  1.0172  0.7116  1.2984
10977SOL     OW33980   3.839   3.802   0.477 -0.0212 -0.4386 -0.1193
10977SOL    HW133981   3.914   3.764   0.523 -1.7492 -2.0982  1.5250
10977SOL    HW233982   3.870   3.818   0.388  1.7536 -2.8547 -0.0329
10978SOL     OW33983   4.569   7.945   5.853 -0.6523 -0.5978  0.6559
10978SOL    HW133984   4.623   7.909   5.924  0.2865 -0.6432 -0.0693
10978SOL    HW233985   4.620   8.019   5.819 -0.6446 -1.1429 -0.5760
10979SOL     OW33986   3.791   3.292   2.367 -0.5938 -0.3981 -0.3043
10979SOL    HW133987   3.872   3.250   2.398 -0.1277  0.3364 -0.5004
10979SOL    HW233988   3.773   3.250   2.283 -0.7454 -0.9745  0.0111
10980SOL     OW33989   6.178   5.575   0.119 -0.1513  0.1227 -0.3086
10980SOL    HW133990   6.169   5.488   0.157  1.2153 -0.0048 -0.2238
10980SOL    HW233991   6.212   5.559   0.031 -2.3903  0.4628 -1.2980
10981SOL     OW33992   4.498   1.280   3.952  0.1331  0.8128 -0.2812
10981SOL    HW133993   4.539   1.260   4.036 -0.2831  1.7562  0.1665
10981SOL    HW233994   4.477   1.373   3.957  0.0323  0.8678 -1.4081
10982SOL     OW33995   2.873   7.887   4.386  0.3322  0.3648  0.2552
10982SOL    HW133996   2.949   7.938   4.358  0.4323 -0.5315 -1.2604
10982SOL    HW233997   2.901   7.844   4.467  0.7980  1.4162  0.6739
10983SOL     OW33998   1.527   3.420   7.698  0.4244  0.1201 -0.0943
10983SOL    HW133999   1.474   3.343   7.675 -1.3121  1.3703 -0.4376
10983SOL    HW234000   1.577   3.438   7.618  1.9161 -1.4536  0.4395
10984SOL     OW34001   6.491   7.557   1.631 -0.1840  0.1423  0.0479
10984SOL    HW134002   6.452   7.475   1.601  0.1223  0.1241 -0.3100
10984SOL    HW234003   6.580   7.533   1.656 -0.4241  0.1631  0.9551
10985SOL     OW34004   6.277   8.148   2.979  0.1644  0.3414 -0.0191
10985SOL    HW134005   6.256   8.119   2.890 -1.2373  0.6828  0.1895
10985SOL    HW234006   6.373   8.152   2.980  0.2909 -1.3805 -0.9595
10986SOL     OW34007   6.521   2.319   3.528 -0.1772  0.1193  0.0588
10986SOL    HW134008   6.549   2.232   3.498  0.2730  0.3949 -0.3377
10986SOL    HW234009   6.601   2.358   3.564 -0.1771  0.6985 -0.5613
10987SOL     OW34010   2.975   3.009   4.589  0.0741  0.5335 -0.7624
10987SOL    HW134011   2.891   3.043   4.618 -0.0536 -2.1152  2.4621
10987SOL    HW234012   3.039   3.073   4.620 -0.5193  1.1573 -0.7899
10988SOL     OW34013   5.427   7.599   1.077  0.6759  0.0600  0.1311
10988SOL    HW134014   5.476   7.575   1.156  0.4483 -1.3499 -0.1188
10988SOL    HW234015   5.337   7.611   1.108  1.0038  1.8697  0.4590
10989SOL     OW34016   0.790   3.265   0.413 -0.1775  0.1492 -0.1019
10989SOL    HW134017   0.761   3.182   0.377 -1.2415  0.8041 -0.8275
10989SOL    HW234018   0.796   3.323   0.338 -0.2160  0.9385  0.4873
10990SOL     OW34019   5.910   5.678   0.166  0.5197  0.5301  0.6734
10990SOL    HW134020   6.002   5.658   0.147  0.3804 -0.2376  0.7664
10990SOL    HW234021   5.907   5.687   0.261  0.3267 -0.4088  0.7653
10991SOL     OW34022   1.349   4.208   2.368 -0.0630  0.4179  0.9113
10991SOL    HW134023   1.388   4.222   2.282 -0.4278  0.9424  0.8280
10991SOL    HW234024   1.263   4.168   2.350  0.4440 -0.8186  1.0965
10992SOL     OW34025   7.971   4.795   0.454  0.4933  0.0064 -0.3434
10992SOL    HW134026   7.988   4.741   0.532  1.2523  1.1111  0.2840
10992SOL    HW234027   7.934   4.876   0.489 -0.6887 -0.1076 -1.2746
10993SOL     OW34028   1.628   5.837   5.776 -0.0536 -0.5400 -0.5901
10993SOL    HW134029   1.639   5.917   5.826  1.4349  1.3060 -3.5895
10993SOL    HW234030   1.552   5.853   5.721  0.3508 -1.1219 -1.3369
10994SOL     OW34031   0.417   7.503   3.351  0.3383  0.0095 -0.3553
10994SOL    HW134032   0.441   7.469   3.437 -0.8954  1.9599  0.8499
10994SOL    HW234033   0.500   7.517   3.306  0.9925 -1.0923  0.4707
10995SOL     OW34034   4.607   1.904   0.630  0.5165  0.4388 -0.2208
10995SOL    HW134035   4.676   1.856   0.583  0.3318 -0.5903  0.5160
10995SOL    HW234036   4.545   1.836   0.657  0.1037  1.1332  0.6276
10996SOL     OW34037   1.102   5.915   7.560  0.3769  0.3498  0.1961
10996SOL    HW134038   1.096   5.839   7.502  1.9497  1.5922 -1.7353
10996SOL    HW234039   1.011   5.939   7.576 -0.1382 -0.1820 -1.6214
10997SOL     OW34040   3.668   6.037   1.743  0.2682  0.2608 -0.0292
10997SOL    HW134041   3.738   6.066   1.685 -0.7906  1.0995 -0.9259
10997SOL    HW234042   3.592   6.089   1.717 -1.2423 -2.0536 -0.4672
10998SOL     OW34043   6.870   7.836   4.302 -0.2403 -0.6533  0.1054
10998SOL    HW134044   6.906   7.779   4.234  0.3607 -1.9553  1.4636
10998SOL    HW234045   6.851   7.918   4.256 -0.3963 -1.6590 -1.7470
10999SOL     OW34046   1.195   0.020   5.907 -0.1897  0.4510 -0.0118
10999SOL    HW134047   1.183  -0.068   5.942 -1.7049  1.1747  1.4521
10999SOL    HW234048   1.118   0.069   5.938  0.2084  2.0943 -1.4291
11000SOL     OW34049   5.427   4.519   3.929 -0.0871 -0.3976  0.3072
11000SOL    HW134050   5.359   4.552   3.988 -0.9179  0.2631 -0.9729
11000SOL    HW234051   5.507   4.563   3.957 -0.7601  1.0782  0.0246
11001SOL     OW34052   1.856   0.162   1.942  0.1690  0.1256  0.3100
11001SOL    HW134053   1.828   0.086   1.994 -1.7723  1.4416  1.3589
11001SOL    HW234054   1.774   0.209   1.924  1.3186  2.0343 -0.1816
11002SOL     OW34055   8.189   3.323   1.290 -0.0841  0.1728  0.1197
11002SOL    HW134056   8.258   3.338   1.355  0.5391 -0.2650 -0.4286
11002SOL    HW234057   8.177   3.229   1.289 -1.4991  0.3239  1.0158
11003SOL     OW34058   1.837   7.890   4.915  0.0340 -0.0276 -0.3834
11003SOL    HW134059   1.857   7.977   4.950 -2.0879  0.0117  0.8543
11003SOL    HW234060   1.830   7.834   4.992 -0.1203 -0.9894 -1.0759
11004SOL     OW34061   0.870   3.980   1.492  0.1713 -0.6071  0.3991
11004SOL    HW134062   0.834   4.065   1.468  1.0603 -0.2432  0.2856
11004SOL    HW234063   0.818   3.951   1.567 -1.3134 -0.8062 -0.6648
11005SOL     OW34064   3.638   3.510   1.299 -0.6832 -0.3155  0.8278
11005SOL    HW134065   3.699   3.490   1.369  0.2418 -1.1602 -0.1939
11005SOL    HW234066   3.668   3.594   1.264 -1.1136  0.0800  1.3965
11006SOL     OW34067   2.139   5.463   5.935  0.1121  0.3228 -0.3450
11006SOL    HW134068   2.159   5.418   6.017 -1.6045  0.0442 -0.0426
11006SOL    HW234069   2.144   5.394   5.868  1.0584  0.4597 -0.4385
11007SOL     OW34070   0.009   3.649   2.749  0.1827 -0.7965  0.1714
11007SOL    HW134071  -0.065   3.589   2.743 -0.8725  0.5073 -0.2453
11007SOL    HW234072   0.065   3.626   2.675 -0.2025 -1.2858  0.0309
11008SOL     OW34073   6.882   2.453   3.278  0.3863  0.1621 -0.2254
11008SOL    HW134074   6.969   2.479   3.247  0.1849  1.8724  0.5355
11008SOL    HW234075   6.877   2.359   3.259  1.4037  0.5160 -2.6072
11009SOL     OW34076   7.559   3.002   0.812  0.0332 -0.8606 -0.0293
11009SOL    HW134077   7.499   2.944   0.767 -0.1083 -0.1714 -0.7571
11009SOL    HW234078   7.503   3.056   0.868 -0.0945  0.1002 -1.0603
11010SOL     OW34079   1.235   5.633   2.860  0.3621  0.2551 -0.0804
11010SOL    HW134080   1.315   5.581   2.867 -0.2282 -0.5946  0.4952
11010SOL    HW234081   1.264   5.717   2.823  1.5998  0.1635  0.6238
11011SOL     OW34082   1.927   0.346   2.251  0.0626  0.0966 -0.5406
11011SOL    HW134083   1.855   0.329   2.313  0.7218  0.1907  0.2628
11011SOL    HW234084   1.980   0.266   2.254  1.3279  0.9421  0.7277
11012SOL     OW34085   3.603   5.305   8.008 -0.3619  0.4725  0.0416
11012SOL    HW134086   3.670   5.236   8.012  0.2906  0.9670 -1.7598
11012SOL    HW234087   3.551   5.284   7.931 -0.4901  1.6909 -0.2252
11013SOL     OW34088   6.417   0.062   7.298 -0.1482  0.1961  0.4134
11013SOL    HW134089   6.412   0.020   7.384  0.5173  0.3002  0.5047
11013SOL    HW234090   6.510   0.069   7.279 -0.2938 -0.0743 -0.4483
11014SOL     OW34091   2.355   0.192   5.330  0.1293  0.3720 -0.7075
11014SOL    HW134092   2.403   0.273   5.347  0.8567 -0.4435  1.4461
11014SOL    HW234093   2.423   0.127   5.313 -0.0899 -0.7259  2.0755
11015SOL     OW34094   2.754   4.263   2.844  0.3465 -0.1387 -0.3366
11015SOL    HW134095   2.663   4.279   2.817  0.5403  0.8392 -0.4499
11015SOL    HW234096   2.768   4.170   2.826 -1.0389 -0.6284  0.9205
11016SOL     OW34097   4.482   1.499   1.908  0.0003 -0.3774 -0.5513
11016SOL    HW134098   4.565   1.536   1.940 -0.7618 -0.0982  1.2043
11016SOL    HW234099   4.454   1.560   1.840  0.2706  0.6243  0.2108
11017SOL     OW34100   4.657   0.803   2.702  0.4092 -0.2639 -0.3470
11017SOL    HW134101   4.656   0.858   2.624  0.5381 -1.4283 -1.2007
11017SOL    HW234102   4.624   0.859   2.772 -1.5926  0.2375 -1.6204
11018SOL     OW34103   7.101   0.590   5.282 -0.2884 -0.1131 -0.3385
11018SOL    HW134104   7.043   0.638   5.223 -0.8950 -1.6561 -1.0600
11018SOL    HW234105   7.189   0.615   5.255 -0.5384  2.0995  0.6335
11019SOL     OW34106   7.296   1.164   4.130 -0.2752  0.1982 -0.0957
11019SOL    HW134107   7.288   1.094   4.195 -2.7832 -0.2058 -0.7704
11019SOL    HW234108   7.279   1.121   4.046  0.4915  1.1895 -0.7731
11020SOL     OW34109   4.231   2.421   3.568 -0.4807  0.2649 -0.5467
11020SOL    HW134110   4.311   2.408   3.619 -0.3946  0.3302 -0.6646
11020SOL    HW234111   4.253   2.392   3.480 -0.6318  0.1449 -0.5460
11021SOL     OW34112   3.355   6.311   6.493 -0.3606  0.0794  0.6095
11021SOL    HW134113   3.280   6.328   6.435  0.4916 -0.8454 -0.8063
11021SOL    HW234114   3.407   6.392   6.489 -1.6590  1.0832  2.3025
11022SOL     OW34115   2.437   5.061   1.234  0.1995  0.3402 -0.1208
11022SOL    HW134116   2.452   4.974   1.196 -0.5235  0.6067 -1.0600
11022SOL    HW234117   2.493   5.119   1.183 -0.4802  0.6440 -0.5329
11023SOL     OW34118   7.962   7.888   7.429  0.1180 -0.1637  0.3858
11023SOL    HW134119   7.891   7.834   7.463 -0.7439  0.5853 -0.1681
11023SOL    HW234120   8.017   7.827   7.380  0.4460 -0.9437  1.6672
11024SOL     OW34121   3.755   4.834   3.032 -0.1725 -0.1977 -0.2591
11024SOL    HW134122   3.773   4.911   3.087  1.2764  0.7396 -1.9297
11024SOL    HW234123   3.714   4.771   3.091 -0.3751  1.4391  1.4312
11025SOL     OW34124   1.033   6.232   7.789 -0.1579 -0.1624  0.4054
11025SOL    HW134125   0.945   6.212   7.821  0.0357  0.1767  1.1804
11025SOL    HW234126   1.052   6.319   7.825  0.0006  0.3123 -0.8030
11026SOL     OW34127   6.663   5.601   4.894  0.1128  0.1446  0.0393
11026SOL    HW134128   6.626   5.568   4.812 -2.0700 -0.6603  1.2776
11026SOL    HW234129   6.722   5.532   4.923 -1.7319 -1.1746  0.8237
11027SOL     OW34130   7.580   8.039   7.215  0.7718 -0.2230 -0.0048
11027SOL    HW134131   7.513   7.971   7.210  0.1191  0.4841 -2.6918
11027SOL    HW234132   7.661   7.994   7.192  0.9600 -0.7322  1.5617
11028SOL     OW34133   4.788   5.443   4.275 -0.2994  0.2410  0.1442
11028SOL    HW134134   4.813   5.406   4.190 -0.0527  0.0021  0.3163
11028SOL    HW234135   4.841   5.395   4.338 -1.4953 -0.5601  0.5647
11029SOL     OW34136   3.503   3.502   0.314 -0.2275  0.2417  0.2860
11029SOL    HW134137   3.508   3.408   0.332  0.5684 -0.2951 -2.2516
11029SOL    HW234138   3.563   3.542   0.378 -0.0048 -1.0525  0.9174
11030SOL     OW34139   4.316   0.877   3.650 -0.3974  0.0617 -0.9666
11030SOL    HW134140   4.374   0.805   3.628 -1.5706 -1.8010  1.5924
11030SOL    HW234141   4.371   0.937   3.702  0.2733  0.5011 -2.1365
11031SOL     OW34142   0.136   5.365   0.482 -0.4106  0.2139  0.0112
11031SOL    HW134143   0.085   5.354   0.563 -0.1528 -0.1527  0.1281
11031SOL    HW234144   0.200   5.294   0.485 -0.7253 -0.1057 -0.7631
11032SOL     OW34145   0.959   6.638   4.904  0.0445  0.5210  0.1423
11032SOL    HW134146   0.898   6.572   4.873 -1.2270  1.4000  0.6597
11032SOL    HW234147   1.043   6.615   4.863 -0.6675 -0.6051 -0.7497
11033SOL     OW34148   2.257   5.398   0.123 -0.0928 -0.5629  0.3973
11033SOL    HW134149   2.212   5.396   0.207  0.6460  0.3667  0.8343
11033SOL    HW234150   2.262   5.491   0.101  1.2736 -0.6593  0.1883
11034SOL     OW34151   0.095   7.193   7.839  0.0133  0.0292 -0.0912
11034SOL    HW134152   0.126   7.261   7.779 -2.3784  1.6684  0.4232
11034SOL    HW234153   0.039   7.137   7.785 -3.4016  2.3790  0.6884
11035SOL     OW34154   2.669   1.333   7.303  0.1114  0.0658 -0.0543
11035SOL    HW134155   2.689   1.379   7.385  3.2289  0.0703 -0.6981
11035SOL    HW234156   2.754   1.310   7.267 -1.2167 -1.6954 -2.3551
11036SOL     OW34157   6.384   3.993   2.602 -0.4161 -0.0843  0.2153
11036SOL    HW134158   6.340   3.982   2.518 -0.9042  0.3799  0.4006
11036SOL    HW234159   6.457   4.051   2.584  0.1028 -0.8080 -0.0829
11037SOL     OW34160   3.779   4.213   8.057 -0.4491 -0.1975 -0.1318
11037SOL    HW134161   3.696   4.183   8.018 -0.3984  1.0179 -1.2246
11037SOL    HW234162   3.768   4.195   8.150 -2.1658  0.3748 -0.1729
11038SOL     OW34163   3.069   2.860   0.555  0.0222  0.5688 -0.3073
11038SOL    HW134164   3.087   2.862   0.649 -0.3029  1.7862 -0.2493
11038SOL    HW234165   3.010   2.786   0.543 -1.4388  1.5207  0.7443
11039SOL     OW34166   1.949   6.599   7.828 -0.9060 -0.2368 -0.4144
11039SOL    HW134167   1.933   6.510   7.797 -0.5437  0.7004 -3.6998
11039SOL    HW234168   1.924   6.655   7.754  0.0937  2.3220  1.0500
11040SOL     OW34169   5.765   2.218   2.657 -0.1460 -0.3808 -0.1036
11040SOL    HW134170   5.713   2.148   2.618 -2.0012  1.1938 -0.6403
11040SOL    HW234171   5.847   2.218   2.608 -1.1539 -0.5148 -1.8893
11041SOL     OW34172   7.124   0.803   3.873  0.0903 -0.4964 -0.2505
11041SOL    HW134173   7.104   0.726   3.926  2.8729  0.0022  1.7214
11041SOL    HW234174   7.195   0.775   3.816 -0.6226 -0.0724 -1.3719
11042SOL     OW34175   7.009   0.007   6.294  0.1377  0.1223 -0.2089
11042SOL    HW134176   7.045  -0.070   6.339  1.4613  0.0695 -1.2574
11042SOL    HW234177   7.000   0.073   6.362  1.9586  0.0080  0.2033
11043SOL     OW34178   0.651   1.799   7.163  0.1151 -0.0775  0.3030
11043SOL    HW134179   0.623   1.815   7.072  0.3001 -0.7956  0.1165
11043SOL    HW234180   0.576   1.759   7.205  0.6798 -1.6211 -0.0872
11044SOL     OW34181   6.920   3.649   2.267 -0.3145 -0.1460  0.6856
11044SOL    HW134182   6.862   3.575   2.249 -0.6151  0.2597 -0.0581
11044SOL    HW234183   6.964   3.666   2.183  0.9784 -0.5197  1.2664
11045SOL     OW34184   3.411   6.802   4.590 -0.4158 -0.1316  0.1890
11045SOL    HW134185   3.425   6.863   4.663 -1.0006 -0.6805  0.7682
11045SOL    HW234186   3.494   6.754   4.584  0.6151  1.7004 -1.2433
11046SOL     OW34187   2.287   6.018   3.298 -0.3406 -0.1494  0.1389
11046SOL    HW134188   2.317   6.036   3.387 -0.6502  1.0529  0.0119
11046SOL    HW234189   2.288   6.103   3.254 -0.0330 -0.7538 -1.0664
11047SOL     OW34190   4.858   0.728   2.999  0.0786 -0.1624 -0.4159
11047SOL    HW134191   4.836   0.664   2.931 -0.1904 -0.0778 -0.4091
11047SOL    HW234192   4.900   0.676   3.068 -0.4951 -0.3923 -0.2376
11048SOL     OW34193   0.401   0.851   5.848  0.2508 -0.1887  0.4079
11048SOL    HW134194   0.469   0.817   5.790  2.3775 -0.3511  2.8320
11048SOL    HW234195   0.437   0.841   5.936 -2.0044  1.8195  1.6829
11049SOL     OW34196   2.335   5.790   4.295  0.0100  0.4485  0.4697
11049SOL    HW134197   2.387   5.713   4.318 -0.6842 -0.6681 -1.4619
11049SOL    HW234198   2.308   5.827   4.380  1.1689 -0.8423  1.4527
11050SOL     OW34199   8.192   2.462   7.323  0.1427  0.0287 -0.4976
11050SOL    HW134200   8.270   2.446   7.269  0.2374  1.1867 -0.7398
11050SOL    HW234201   8.119   2.458   7.262  0.0199 -0.8602 -0.3047
11051SOL     OW34202   2.208   1.883   7.493 -0.2434 -0.1684  0.2256
11051SOL    HW134203   2.294   1.906   7.528 -0.7170  0.6128  0.9233
11051SOL    HW234204   2.223   1.868   7.399  0.2796  2.2228 -0.1334
11052SOL     OW34205   3.507   3.145   2.010  0.5205  0.2530 -0.3276
11052SOL    HW134206   3.481   3.062   2.050 -4.0340  1.2426 -0.6650
11052SOL    HW234207   3.478   3.137   1.919  0.3949  1.9970 -0.4667
11053SOL     OW34208   1.665   4.774   0.265 -0.4465 -0.7763  0.4667
11053SOL    HW134209   1.605   4.837   0.305 -2.2948 -1.8928 -0.3882
11053SOL    HW234210   1.698   4.819   0.187 -0.9748 -0.4890  0.4011
11054SOL     OW34211   3.968   0.319   6.034  0.4514 -0.2600  0.0030
11054SOL    HW134212   3.960   0.413   6.019 -1.8635  0.0326  2.3120
11054SOL    HW234213   4.039   0.311   6.098 -0.2844  0.0657  0.8646
11055SOL     OW34214   0.498   5.777   4.828 -0.0115  0.7391  0.0413
11055SOL    HW134215   0.406   5.786   4.852 -0.1253  1.2379 -0.5639
11055SOL    HW234216   0.498   5.717   4.754  0.1264  0.8734 -0.0702
11056SOL     OW34217   7.662   4.080   5.831 -0.5257 -0.1064  0.2159
11056SOL    HW134218   7.680   4.172   5.847  0.3745 -0.1661 -0.3942
11056SOL    HW234219   7.739   4.034   5.865  0.1096 -0.4459 -1.5493
11057SOL     OW34220   6.898   0.396   0.628 -0.5956 -0.0632 -0.0147
11057SOL    HW134221   6.986   0.420   0.655  0.0003 -1.4523 -0.6004
11057SOL    HW234222   6.843   0.469   0.657  0.5827  0.3728  1.2588
11058SOL     OW34223   2.186   7.334   1.029 -0.4018 -0.4528 -0.4012
11058SOL    HW134224   2.269   7.317   1.073  0.1585 -0.4074 -1.4049
11058SOL    HW234225   2.176   7.429   1.033  0.1804 -0.3433 -1.2778
11059SOL     OW34226   1.153   1.608   6.139 -0.3293  0.4126 -0.2066
11059SOL    HW134227   1.112   1.694   6.143 -0.1396  0.5032 -0.1599
11059SOL    HW234228   1.082   1.546   6.152 -0.5083  0.5551 -0.5159
11060SOL     OW34229   1.235   8.169   6.843 -0.1233 -0.2407 -0.3849
11060SOL    HW134230   1.307   8.228   6.866  1.6493 -2.3211 -0.2881
11060SOL    HW234231   1.219   8.118   6.923 -0.7609 -0.7375 -0.8195
11061SOL     OW34232   6.180   4.055   3.464 -0.5270 -0.1019  0.1084
11061SOL    HW134233   6.128   3.992   3.413  0.8159 -0.3328 -1.0583
11061SOL    HW234234   6.182   4.018   3.552  0.8483 -2.1771 -0.6965
11062SOL     OW34235   4.153   0.392   0.900 -0.3840 -0.1646  0.1169
11062SOL    HW134236   4.113   0.335   0.966  3.1985 -1.8880  1.1215
11062SOL    HW234237   4.194   0.331   0.838  1.0043  1.3356 -0.5155
11063SOL     OW34238   1.063   5.316   0.508 -0.6293 -0.2733  0.3391
11063SOL    HW134239   1.083   5.277   0.423  0.1239 -0.8384  0.7559
11063SOL    HW234240   0.999   5.256   0.548  1.3875 -1.8179  1.4605
11064SOL     OW34241   4.692   1.647   4.034  0.6272 -0.3028  0.6758
11064SOL    HW134242   4.713   1.608   3.949 -1.2035  0.6468 -0.2737
11064SOL    HW234243   4.677   1.740   4.016 -3.7271 -0.6703  1.1224
11065SOL     OW34244   7.937   3.148   6.907  0.1934 -0.0870  0.0838
11065SOL    HW134245   7.864   3.088   6.895 -0.2948  0.4512  0.3407
11065SOL    HW234246   8.012   3.091   6.927 -0.3328 -0.5869  0.6652
11066SOL     OW34247   1.319   3.632   7.557  0.6049 -0.0384 -0.0475
11066SOL    HW134248   1.290   3.553   7.602  1.3315 -0.5506 -0.4454
11066SOL    HW234249   1.357   3.686   7.626 -2.6513  1.4126  0.8045
11067SOL     OW34250   6.942   0.352   5.696 -0.1903  0.4053  0.2737
11067SOL    HW134251   6.989   0.428   5.732 -0.3581  1.4763 -1.6420
11067SOL    HW234252   6.978   0.341   5.608 -0.8779 -1.1563  0.1552
11068SOL     OW34253   2.669   7.078   7.530 -0.0984 -0.2357  0.0915
11068SOL    HW134254   2.722   7.025   7.590  1.4785  0.0075 -1.0285
11068SOL    HW234255   2.584   7.034   7.528 -0.8408  0.6471  3.7531
11069SOL     OW34256   6.237   5.167   1.744  0.0734 -0.1877  0.2178
11069SOL    HW134257   6.146   5.155   1.718 -0.4187  1.4369  1.0762
11069SOL    HW234258   6.234   5.229   1.816  2.1141  2.9062 -2.1111
11070SOL     OW34259   3.236   4.394   4.885  0.0313 -0.1196  0.4436
11070SOL    HW134260   3.273   4.458   4.824  1.0006 -0.0739  1.0588
11070SOL    HW234261   3.143   4.416   4.890 -0.6592 -1.6956 -2.9584
11071SOL     OW34262   3.576   5.051   6.891  0.2130 -0.2930 -0.0927
11071SOL    HW134263   3.626   5.130   6.908  1.4877 -1.0681 -0.1271
11071SOL    HW234264   3.576   5.004   6.974 -0.5500 -0.2608 -0.0685
11072SOL     OW34265   5.773   6.224   5.701 -0.4159 -0.1109  0.0905
11072SOL    HW134266   5.685   6.192   5.684  0.2808 -1.8942 -0.3765
11072SOL    HW234267   5.792   6.194   5.790  0.0827 -0.6412 -0.1886
11073SOL     OW34268   3.874   0.868   3.763  0.4193  0.2424  0.2994
11073SOL    HW134269   3.930   0.933   3.721  1.4145  0.8112  2.3708
11073SOL    HW234270   3.842   0.912   3.842  0.0068 -1.3172  1.0293
11074SOL     OW34271   4.963   0.271   7.271 -0.1417  0.4567 -0.2787
11074SOL    HW134272   4.902   0.298   7.203  0.3378  0.9185 -0.5294
11074SOL    HW234273   4.975   0.349   7.325  0.5237  0.4824 -0.4548
11075SOL     OW34274   5.305   4.786   4.869  0.1383  0.6421 -0.2040
11075SOL    HW134275   5.368   4.835   4.922  0.6838  0.8751 -1.0552
11075SOL    HW234276   5.262   4.728   4.932  0.2865  1.3950  0.6201
11076SOL     OW34277   7.695   0.498   2.351  0.2571  0.6256  0.3118
11076SOL    HW134278   7.668   0.486   2.260  2.2440  0.3171 -0.2677
11076SOL    HW234279   7.649   0.578   2.379  1.0182  1.7946 -1.5623
11077SOL     OW34280   7.788   6.010   3.761 -0.1452 -0.3342 -0.0500
11077SOL    HW134281   7.832   5.982   3.841 -0.0850  1.8341  0.7624
11077SOL    HW234282   7.853   6.063   3.715 -1.2491  1.3951  0.2674
11078SOL     OW34283   1.741   4.433   5.740  0.1498 -0.1865 -0.6149
11078SOL    HW134284   1.833   4.460   5.740 -0.2122  1.1767  1.0279
11078SOL    HW234285   1.700   4.486   5.808 -1.7259 -1.2586 -0.8429
11079SOL     OW34286   6.856   2.391   4.527 -0.4348  0.4951  0.5644
11079SOL    HW134287   6.812   2.383   4.442 -0.4082 -1.4259  0.6918
11079SOL    HW234288   6.941   2.350   4.514 -0.2025  0.7072  1.3718
11080SOL     OW34289   5.090   4.054   0.237  0.5149  0.2176 -0.4664
11080SOL    HW134290   5.022   4.122   0.238  1.1934  0.9380 -1.0287
11080SOL    HW234291   5.157   4.088   0.296 -0.4361 -1.4218  1.6656
11081SOL     OW34292   0.572   4.288   5.967 -0.2397  0.5981  0.3955
11081SOL    HW134293   0.501   4.352   5.972 -0.7200  0.0973  0.0769
11081SOL    HW234294   0.610   4.288   6.055 -1.1779  0.2716  0.8192
11082SOL     OW34295   4.456   2.328   3.710 -0.1339  0.4721  0.2709
11082SOL    HW134296   4.421   2.272   3.779 -1.3437  1.2349  0.3027
11082SOL    HW234297   4.467   2.269   3.634 -1.5779  0.2158  0.2354
11083SOL     OW34298   6.825   0.256   7.361  0.3822  0.7021 -0.4146
11083SOL    HW134299   6.880   0.201   7.306 -0.1718  0.3015 -0.5766
11083SOL    HW234300   6.757   0.289   7.302 -1.4396 -1.3572  0.3822
11084SOL     OW34301   7.831   2.930   0.807  0.6238  0.6755 -0.3012
11084SOL    HW134302   7.871   2.955   0.890  0.1745 -1.4444  0.6255
11084SOL    HW234303   7.737   2.949   0.819  0.4448 -0.3440 -0.0020
11085SOL     OW34304   1.680   7.019   7.540  0.1802 -0.4827 -0.1380
11085SOL    HW134305   1.605   6.960   7.538  1.1023 -1.6893 -0.0525
11085SOL    HW234306   1.728   6.994   7.618  1.1277 -0.2845 -0.6476
11086SOL     OW34307   5.977   7.041   0.684  0.0398 -0.2751 -0.2961
11086SOL    HW134308   6.031   6.973   0.645 -1.5984 -3.0777  1.9477
11086SOL    HW234309   5.905   6.994   0.726 -0.9966  2.8175  1.7639
11087SOL     OW34310   6.763   5.167   1.000 -0.7276 -0.0206 -0.4236
11087SOL    HW134311   6.679   5.131   1.029 -0.1449 -1.3708 -0.3386
11087SOL    HW234312   6.774   5.133   0.911  0.8104 -1.8763  0.4103
11088SOL     OW34313   6.067   3.813   0.352 -0.2925 -0.0682  0.3579
11088SOL    HW134314   6.005   3.828   0.280 -1.4789 -0.6214  1.2217
11088SOL    HW234315   6.153   3.818   0.311 -0.9356 -0.3921 -1.1083
11089SOL     OW34316   2.761   2.018   2.614  0.2729 -0.3048 -0.1762
11089SOL    HW134317   2.810   1.974   2.684  1.5415 -0.8243 -1.3227
11089SOL    HW234318   2.707   1.949   2.576 -0.8170  0.0972  0.6026
11090SOL     OW34319   0.590   3.026   1.824  0.1362 -0.1353 -0.5385
11090SOL    HW134320   0.665   2.975   1.793 -1.0973 -1.8837 -0.8125
11090SOL    HW234321   0.530   2.961   1.860 -1.5333  1.1353 -0.8967
11091SOL     OW34322   4.788   1.344   4.639  0.3334 -0.9382 -0.4742
11091SOL    HW134323   4.767   1.407   4.570 -1.2158 -0.5359  0.3021
11091SOL    HW234324   4.851   1.389   4.695 -0.6045 -0.1264 -0.0392
11092SOL     OW34325   1.001   1.345   0.151 -0.7448  0.2745  0.1060
11092SOL    HW134326   0.999   1.310   0.063  0.4158  1.8551 -0.6114
11092SOL    HW234327   0.974   1.273   0.207 -0.8781 -0.9491 -1.4790
11093SOL     OW34328   5.896   4.618   2.203  0.4998  0.0633  0.0590
11093SOL    HW134329   5.802   4.637   2.195  0.3671 -0.0710  1.1192
11093SOL    HW234330   5.907   4.594   2.295  1.4324 -0.7356 -0.2485
11094SOL     OW34331   5.650   4.690   4.724  0.1796 -0.0858 -0.1930
11094SOL    HW134332   5.713   4.729   4.664 -1.2585  0.3076 -1.5305
11094SOL    HW234333   5.676   4.598   4.730  2.5846  0.6080  1.6440
11095SOL     OW34334   3.958   6.822   6.717 -0.1939 -0.1419 -0.2733
11095SOL    HW134335   4.013   6.777   6.781 -1.2412 -1.6495 -0.3809
11095SOL    HW234336   3.983   6.785   6.633 -1.4584 -0.9678 -0.3058
11096SOL     OW34337   3.300   5.118   7.471 -0.0408 -0.3895 -0.4815
11096SOL    HW134338   3.352   5.115   7.551 -0.1397 -2.0121 -0.4426
11096SOL    HW234339   3.356   5.161   7.407  0.0502  0.9028  0.4428
11097SOL     OW34340   0.646   3.733   0.563 -0.0815 -0.9277  0.7339
11097SOL    HW134341   0.612   3.811   0.608  0.2570  0.3597 -1.1128
11097SOL    HW234342   0.568   3.682   0.543 -0.4489 -0.4285  0.8513
11098SOL     OW34343   0.648   1.456   5.236 -0.1603  0.0621  0.1543
11098SOL    HW134344   0.675   1.364   5.242  1.5511  0.4495 -0.8651
11098SOL    HW234345   0.678   1.496   5.317 -1.1400 -0.3101  0.7160
11099SOL     OW34346   2.782   3.026   0.969 -0.1122  0.6930 -0.6497
11099SOL    HW134347   2.825   3.088   0.909  1.5352  0.7731  0.5511
11099SOL    HW234348   2.833   2.945   0.960  0.2033  0.7306  0.6767
11100SOL     OW34349   3.000   4.655   3.564  0.8849 -0.0238 -0.1440
11100SOL    HW134350   2.992   4.603   3.644 -1.6730 -0.0457 -0.3510
11100SOL    HW234351   3.022   4.743   3.595  0.3068 -0.1194  0.5549
11101SOL     OW34352   5.470   7.640   7.126  0.0809 -0.0802 -0.1847
11101SOL    HW134353   5.563   7.628   7.149 -0.0908  2.7788  2.7272
11101SOL    HW234354   5.426   7.565   7.166  0.7029  1.1260  3.1280
11102SOL     OW34355   0.438   6.299   3.708  0.2573  0.1470  0.5829
11102SOL    HW134356   0.449   6.394   3.712 -2.3137  0.5672 -0.4471
11102SOL    HW234357   0.398   6.283   3.623 -0.9297 -1.6714  1.4236
11103SOL     OW34358   6.047   3.222   7.932  0.5552 -0.2227  0.1717
11103SOL    HW134359   6.021   3.235   7.840  0.3453  0.4984  0.3240
11103SOL    HW234360   5.966   3.196   7.976  0.4041  0.5353  0.3585
11104SOL     OW34361   5.688   4.417   4.744  0.5510  0.3899 -0.3320
11104SOL    HW134362   5.597   4.389   4.730 -0.0460  1.3326  1.2690
11104SOL    HW234363   5.718   4.363   4.818  1.0111  0.6706 -0.3119
11105SOL     OW34364   5.000   4.432   4.951 -0.4637 -0.4999 -0.2119
11105SOL    HW134365   5.060   4.466   4.884  0.4787  2.4199  1.9282
11105SOL    HW234366   4.920   4.413   4.904  1.7899 -4.1510 -3.1512
11106SOL     OW34367   5.301   1.505   7.001  0.5105 -0.2045  0.3167
11106SOL    HW134368   5.359   1.435   6.971  0.3332 -0.6981  1.1252
11106SOL    HW234369   5.320   1.515   7.094  1.9722  2.1903 -0.1531
11107SOL     OW34370   7.068   1.145   5.866  0.6634  0.0844 -0.1941
11107SOL    HW134371   6.987   1.122   5.821  0.5054 -1.7055  0.8994
11107SOL    HW234372   7.133   1.151   5.797  0.2865 -1.8844 -0.7805
11108SOL     OW34373   0.586   7.899   4.038  0.4610  0.2298 -0.6053
11108SOL    HW134374   0.525   7.972   4.024  0.3126  0.3214  0.4469
11108SOL    HW234375   0.659   7.938   4.087  0.8221 -0.1351 -0.8478
11109SOL     OW34376   3.219   2.774   4.885  0.3366  0.2718  0.5046
11109SOL    HW134377   3.234   2.781   4.791  0.9595 -0.2926  0.5532
11109SOL    HW234378   3.184   2.686   4.897 -0.4242  0.5991  0.7230
11110SOL     OW34379   2.675   0.667   8.004  0.0278  0.1311  0.2088
11110SOL    HW134380   2.751   0.714   8.039 -0.4948  1.8206 -0.8324
11110SOL    HW234381   2.684   0.673   7.909 -0.7974 -0.6866  0.0621
11111SOL     OW34382   4.834   7.362   6.371 -0.5895 -0.0096 -0.4772
11111SOL    HW134383   4.889   7.437   6.349 -0.1547 -0.2161 -0.1180
11111SOL    HW234384   4.858   7.295   6.308  0.8558 -0.6963  0.7267
11112SOL     OW34385   3.753   3.547   1.548  0.3779 -0.7045 -0.0000
11112SOL    HW134386   3.720   3.623   1.596 -0.6229 -0.3471 -1.2024
11112SOL    HW234387   3.829   3.517   1.599 -0.1385  0.1606  1.3164
11113SOL     OW34388   4.996   2.478   4.112 -0.0456  0.1283 -0.3573
11113SOL    HW134389   4.958   2.555   4.154  0.0970  0.1723 -0.3091
11113SOL    HW234390   4.982   2.407   4.175  0.3747  0.2417 -0.1358
11114SOL     OW34391   1.179   1.444   2.917 -0.4896  0.4078  0.5434
11114SOL    HW134392   1.243   1.471   2.851 -0.5089  0.5424  0.5807
11114SOL    HW234393   1.202   1.492   2.996 -1.0736  1.0131  0.3569
11115SOL     OW34394   6.424   4.790   4.587  0.1561  0.2172 -0.2328
11115SOL    HW134395   6.450   4.840   4.509 -1.8553 -1.0367 -1.8067
11115SOL    HW234396   6.417   4.855   4.656  0.1489  1.6882 -1.5599
11116SOL     OW34397   3.222   3.180   3.035  0.4657 -0.1830 -0.1673
11116SOL    HW134398   3.240   3.272   3.055  2.4293 -0.5974  0.1558
11116SOL    HW234399   3.249   3.132   3.114  0.0185 -1.1013 -0.5518
11117SOL     OW34400   6.003   2.767   0.097  0.8005 -0.0423 -0.8816
11117SOL    HW134401   6.040   2.679   0.097  1.7795  0.3577 -0.8746
11117SOL    HW234402   6.079   2.825   0.103  0.1354  0.7898 -0.2941
11118SOL     OW34403   1.855   3.185   1.830  0.0234  0.1410  0.2830
11118SOL    HW134404   1.852   3.212   1.922 -1.4377  1.6384 -0.1659
11118SOL    HW234405   1.858   3.266   1.781 -2.0796 -0.5176 -1.0639
11119SOL     OW34406   5.335   5.435   3.200 -0.0874 -0.2350 -0.0688
11119SOL    HW134407   5.370   5.520   3.176 -1.7481  0.4737 -0.0760
11119SOL    HW234408   5.386   5.409   3.277 -0.6946  1.6011  1.0363
11120SOL     OW34409   6.836   5.782   2.776 -0.0749 -0.0543  0.3369
11120SOL    HW134410   6.908   5.779   2.713 -0.6525  0.3631 -0.3481
11120SOL    HW234411   6.763   5.820   2.728 -0.6956 -0.2663  1.0931
11121SOL     OW34412   7.925   3.465   6.816 -0.8552  0.1645  0.4978
11121SOL    HW134413   7.987   3.460   6.742 -1.3205 -0.5037  0.1414
11121SOL    HW234414   7.925   3.376   6.852 -1.1184  0.3291  0.9025
11122SOL     OW34415   0.204   2.829   7.366  0.4116  0.1988 -0.1607
11122SOL    HW134416   0.259   2.871   7.432 -0.3846 -0.8343  1.2182
11122SOL    HW234417   0.213   2.736   7.382  1.1785 -0.1751 -2.3784
11123SOL     OW34418   7.748   1.813   8.043 -0.2022 -0.1619  0.4090
11123SOL    HW134419   7.665   1.796   8.088 -0.3071 -0.2553  0.1855
11123SOL    HW234420   7.776   1.899   8.074 -0.4269 -0.0928  0.4181
11124SOL     OW34421   6.743   4.425   4.137  0.5211 -0.5164 -0.2749
11124SOL    HW134422   6.729   4.434   4.043  1.2211  1.0161 -0.2675
11124SOL    HW234423   6.763   4.514   4.167  0.9853 -1.0824  1.2027
11125SOL     OW34424   0.439   6.254   6.172 -0.2630 -0.1693  0.1181
11125SOL    HW134425   0.404   6.257   6.261  0.5174  0.4922  0.4109
11125SOL    HW234426   0.382   6.193   6.126 -0.0230 -1.3785  1.3627
11126SOL     OW34427   6.646   4.496   7.045 -0.1014 -0.0070  0.1845
11126SOL    HW134428   6.700   4.570   7.016 -0.8009  0.8267  0.9195
11126SOL    HW234429   6.558   4.534   7.057 -0.7783 -1.2488 -0.6503
11127SOL     OW34430   0.846   4.415   3.449  0.1758  0.6152  0.1734
11127SOL    HW134431   0.939   4.400   3.432  0.2791  0.6501  0.6713
11127SOL    HW234432   0.845   4.496   3.501 -0.0385  0.0420  1.0953
11128SOL     OW34433   1.137   3.294   5.993  0.0537 -0.1474  0.4339
11128SOL    HW134434   1.091   3.221   5.951  2.4058 -1.4673  0.0151
11128SOL    HW234435   1.112   3.370   5.940 -3.1724 -0.3348  1.4222
11129SOL     OW34436   0.307   1.906   1.187  0.1156 -0.1487  0.6567
11129SOL    HW134437   0.376   1.906   1.254 -0.1602 -0.5533  0.9450
11129SOL    HW234438   0.231   1.868   1.231 -1.9289  4.6266  1.9405
11130SOL     OW34439   0.791   2.486   8.081  0.5817 -0.1283  0.3107
11130SOL    HW134440   0.756   2.399   8.067 -0.3965  0.0844  1.3348
11130SOL    HW234441   0.797   2.524   7.993 -2.5926  0.1334  0.1017
11131SOL     OW34442   4.969   2.100   4.824 -0.2520  0.1518 -0.4027
11131SOL    HW134443   5.023   2.068   4.897  0.8226 -1.6685 -1.8847
11131SOL    HW234444   4.891   2.044   4.826 -0.3306  0.2580 -0.5043
11132SOL     OW34445   3.085   6.014   3.933  0.2678 -0.2756  0.2284
11132SOL    HW134446   3.088   5.950   4.005  0.6440  0.5063  0.9223
11132SOL    HW234447   3.176   6.040   3.921  0.2605 -0.6811 -0.8131
11133SOL     OW34448   1.099   3.049   2.301 -0.4053  0.1394  0.5783
11133SOL    HW134449   1.104   3.143   2.320 -1.0674 -0.1968  2.7000
11133SOL    HW234450   1.041   3.043   2.225 -0.6482  1.4196  0.6327
11134SOL     OW34451   5.542   6.977   0.248 -0.1608 -0.1775 -0.0158
11134SOL    HW134452   5.586   7.055   0.280 -0.0781 -0.0666 -0.4090
11134SOL    HW234453   5.504   6.938   0.327 -0.7533  0.6039  0.0920
11135SOL     OW34454   3.885   7.971   4.680 -0.4440 -0.0212  0.4632
11135SOL    HW134455   3.859   7.924   4.601  0.9585 -2.7009  1.4986
11135SOL    HW234456   3.963   8.020   4.654 -0.2903 -0.4703  0.0718
11136SOL     OW34457   5.590   2.998   0.024  0.2888  0.2545  0.1883
11136SOL    HW134458   5.521   3.062   0.008 -1.1398 -1.3958 -0.6110
11136SOL    HW234459   5.672   3.045   0.007 -0.7102  1.8153 -0.4770
11137SOL     OW34460   0.613   8.217   0.696 -0.2923 -0.0100  0.0497
11137SOL    HW134461   0.623   8.309   0.722  0.0724  0.1071 -0.4848
11137SOL    HW234462   0.552   8.219   0.623  0.3505 -0.0922 -0.5044
11138SOL     OW34463   4.195   1.183   3.795  0.6777  0.2274 -0.0613
11138SOL    HW134464   4.284   1.218   3.793  0.4214  0.9491  0.5881
11138SOL    HW234465   4.143   1.248   3.749  0.1687  0.8161  1.3049
11139SOL     OW34466   7.711   2.426   6.170  0.5311 -0.3922  0.5304
11139SOL    HW134467   7.640   2.439   6.107 -0.2440 -0.2301  1.4245
11139SOL    HW234468   7.775   2.373   6.123  0.0766 -0.0779 -0.4774
11140SOL     OW34469   1.055   2.900   1.918  0.5239  0.7902  0.0338
11140SOL    HW134470   1.136   2.891   1.968  2.2974  1.8309 -2.4528
11140SOL    HW234471   0.992   2.935   1.981  1.7342 -0.7338  2.2370
11141SOL     OW34472   2.758   4.022   4.568 -0.1958  0.3076  0.1224
11141SOL    HW134473   2.848   4.028   4.535  0.6669 -1.8598  1.8903
11141SOL    HW234474   2.706   4.006   4.490  1.3190 -1.1556 -0.6516
11142SOL     OW34475   3.301   4.168   5.275  0.6695 -0.5650 -0.3215
11142SOL    HW134476   3.309   4.255   5.235  2.6126 -0.4108  0.2983
11142SOL    HW234477   3.244   4.120   5.216  0.8492  0.6530 -1.5401
11143SOL     OW34478   7.463   4.042   4.737  0.0333  0.1988  0.1739
11143SOL    HW134479   7.373   4.067   4.714 -0.9506 -1.7745  1.5575
11143SOL    HW234480   7.453   3.964   4.791  2.6283 -0.2757  0.1114
11144SOL     OW34481   6.623   2.079   2.214 -0.0409 -0.1684 -0.0317
11144SOL    HW134482   6.712   2.092   2.181  0.0109 -0.4964 -0.0294
11144SOL    HW234483   6.568   2.080   2.136 -0.0024 -0.2351 -0.0597
11145SOL     OW34484   7.477   6.554   1.343  0.0354  0.3120  0.0548
11145SOL    HW134485   7.437   6.640   1.358  1.1934  0.6724  1.2934
11145SOL    HW234486   7.422   6.494   1.393 -1.8039  0.0082 -2.1918
11146SOL     OW34487   6.698   8.113   5.784 -0.0607  0.3161 -0.2220
11146SOL    HW134488   6.645   8.070   5.852  0.7808 -1.4640 -0.6563
11146SOL    HW234489   6.772   8.151   5.832  0.7691 -1.3218 -0.1625
11147SOL     OW34490   0.977   2.004   5.227 -0.6757  0.1242  0.0581
11147SOL    HW134491   1.010   2.055   5.301 -0.8107 -0.8213  0.7921
11147SOL    HW234492   0.882   2.014   5.231 -0.7426 -0.5975  0.5352
11148SOL     OW34493   3.619   6.459   3.670 -0.1639  0.0826 -0.2150
11148SOL    HW134494   3.540   6.423   3.709  0.3971 -0.9268  0.0442
11148SOL    HW234495   3.612   6.439   3.577 -1.5007  2.4868 -0.7077
11149SOL     OW34496   0.090   8.186   0.834  0.2221  0.4523  0.0324
11149SOL    HW134497   0.058   8.254   0.893  0.0784  0.8046 -0.4432
11149SOL    HW234498   0.114   8.233   0.754  0.4805 -0.0091 -0.1659
11150SOL     OW34499   5.448   0.291   2.513  0.8348 -0.1506 -0.2203
11150SOL    HW134500   5.410   0.346   2.444  1.0864 -0.6331 -0.7504
11150SOL    HW234501   5.505   0.230   2.466  0.8347 -0.6339  0.3984
11151SOL     OW34502   6.927   4.370   1.447  0.0592  0.5729 -0.3990
11151SOL    HW134503   6.967   4.393   1.363  1.4594  0.6873  0.2782
11151SOL    HW234504   6.956   4.280   1.464 -1.2851  0.0723 -0.6380
11152SOL     OW34505   0.982   0.446   3.674 -0.3661  0.2452  0.0295
11152SOL    HW134506   0.900   0.456   3.626 -0.8934  0.4877  0.9443
11152SOL    HW234507   1.039   0.515   3.640 -0.4914  0.0011 -0.6938
11153SOL     OW34508   6.265   7.860   0.964 -0.1402  0.3516 -0.1099
11153SOL    HW134509   6.350   7.889   0.996  0.2961 -0.2387 -0.7060
11153SOL    HW234510   6.202   7.897   1.026  0.6139  0.0559  0.8624
11154SOL     OW34511   1.625   3.858   2.759 -0.3272 -0.0123  0.4942
11154SOL    HW134512   1.651   3.902   2.678  1.7999  0.3971  1.3048
11154SOL    HW234513   1.633   3.765   2.740  0.6664  0.0876  0.3356
11155SOL     OW34514   4.657   7.454   2.757  0.2429  0.1092  0.1849
11155SOL    HW134515   4.745   7.417   2.758 -0.5450 -1.9035 -0.0424
11155SOL    HW234516   4.606   7.392   2.704 -1.3106  1.2184  0.3301
11156SOL     OW34517   0.031   7.407   8.002  0.2130 -0.1675  0.4387
11156SOL    HW134518   0.066   7.478   7.949 -3.4820  0.8126 -1.0348
11156SOL    HW234519   0.054   7.327   7.955 -0.5699  0.5123 -1.1515
11157SOL     OW34520   3.856   3.366   4.285 -0.1634 -0.4074 -0.5039
11157SOL    HW134521   3.865   3.457   4.313  2.2268 -0.9903  0.8703
11157SOL    HW234522   3.769   3.362   4.246 -0.3631  2.4390 -0.5665
11158SOL     OW34523   6.945   1.557   7.917 -0.4425  0.2718  0.2760
11158SOL    HW134524   6.971   1.534   8.006  1.0765 -0.0333 -0.2212
11158SOL    HW234525   7.021   1.600   7.879 -2.0207  3.1082  0.0272
11159SOL     OW34526   3.655   6.251   0.470 -0.3411  0.4271 -0.0496
11159SOL    HW134527   3.704   6.227   0.392  0.5190 -1.1828  0.9287
11159SOL    HW234528   3.681   6.342   0.487  2.2360 -0.2907  0.3226
11160SOL     OW34529   7.194   4.671   4.981 -0.6587 -0.1689 -0.2017
11160SOL    HW134530   7.133   4.608   5.019  1.0664 -1.3961  0.7061
11160SOL    HW234531   7.254   4.617   4.928  2.8070  0.0043  3.0453
11161SOL     OW34532   3.329   8.243   6.048  0.0944 -0.7672  0.4200
11161SOL    HW134533   3.307   8.234   6.141  0.7088 -0.7522  0.5693
11161SOL    HW234534   3.401   8.182   6.035  0.4534 -0.2720  0.1047
11162SOL     OW34535   4.419   1.307   2.987  0.0240 -0.4850  0.2890
11162SOL    HW134536   4.433   1.236   2.924  1.1271 -0.5259  0.5475
11162SOL    HW234537   4.443   1.386   2.940 -0.8710 -0.3116  0.1100
11163SOL     OW34538   5.684   3.230   2.097 -0.8691 -0.3898  0.3756
11163SOL    HW134539   5.682   3.325   2.081  0.4704 -0.4335 -0.1549
11163SOL    HW234540   5.719   3.193   2.016  0.1057 -1.1896  1.1340
11164SOL     OW34541   5.752   7.901   6.823 -0.9503  0.2117 -0.2930
11164SOL    HW134542   5.827   7.843   6.808  0.2481  0.9076  2.3655
11164SOL    HW234543   5.784   7.989   6.803 -0.4898  0.6931  2.2270
11165SOL     OW34544   2.381   1.132   1.699 -0.1741 -0.0006 -0.4985
11165SOL    HW134545   2.311   1.182   1.740 -0.0994 -0.0064 -0.3625
11165SOL    HW234546   2.426   1.089   1.772  1.8825  2.3827 -0.2420
11166SOL     OW34547   3.744   3.124   5.718  0.4926 -0.0677  0.0556
11166SOL    HW134548   3.808   3.061   5.750  0.2172 -0.0148  0.7231
11166SOL    HW234549   3.743   3.112   5.623  0.9591 -0.5687  0.1139
11167SOL     OW34550   1.359   1.650   2.970  0.8008  0.4273 -0.3211
11167SOL    HW134551   1.348   1.673   3.062  2.0957 -1.5725  0.4121
11167SOL    HW234552   1.281   1.685   2.927  0.9655  2.9140  1.1869
11168SOL     OW34553   3.815   2.595   0.207 -0.2116  0.1636  0.7995
11168SOL    HW134554   3.908   2.616   0.196 -0.3251  0.4722  0.4072
11168SOL    HW234555   3.777   2.673   0.247 -0.5993  0.6761 -0.4941
11169SOL     OW34556   0.159   8.178   0.328 -0.3998  0.0069  0.3122
11169SOL    HW134557   0.191   8.254   0.279  1.0563 -1.0432 -0.4222
11169SOL    HW234558   0.081   8.150   0.281 -3.4715  3.3698  2.8379
11170SOL     OW34559   1.683   1.477   1.125 -0.3538 -0.3406  0.0807
11170SOL    HW134560   1.726   1.402   1.083 -0.0316 -1.0556  1.6294
11170SOL    HW234561   1.664   1.448   1.214 -3.2192  0.2855 -0.2320
11171SOL     OW34562   0.559   4.662   2.479 -0.1110  0.8180 -0.5594
11171SOL    HW134563   0.524   4.736   2.430  0.6273  0.2679 -2.0094
11171SOL    HW234564   0.591   4.602   2.411  1.6342  0.3357  0.6029
11172SOL     OW34565   4.329   3.335   1.281  0.1975 -0.1435 -0.3352
11172SOL    HW134566   4.327   3.253   1.331 -0.0859 -0.2866 -0.5814
11172SOL    HW234567   4.399   3.323   1.217 -1.1810 -0.9978 -1.7331
11173SOL     OW34568   6.877   7.701   7.968 -0.1588  0.0250  0.3715
11173SOL    HW134569   6.920   7.714   8.053  0.4258 -2.9891  0.6403
11173SOL    HW234570   6.949   7.682   7.908 -0.6836  0.8439 -0.5465
11174SOL     OW34571   5.333   0.026   5.478  0.9192  0.0174 -0.7912
11174SOL    HW134572   5.415   0.006   5.432  1.7895 -0.2002  0.7911
11174SOL    HW234573   5.287  -0.057   5.483  1.1744 -0.1142 -0.6080
11175SOL     OW34574   5.838   5.319   6.548  0.3900  0.1365 -0.4666
11175SOL    HW134575   5.863   5.257   6.480  3.1694 -0.7122  1.1645
11175SOL    HW234576   5.915   5.376   6.558 -0.3096  0.8619  1.2505
11176SOL     OW34577   4.966   7.180   3.265  0.0319 -0.1057 -0.2895
11176SOL    HW134578   5.060   7.194   3.274  0.5610 -0.4644 -3.9340
11176SOL    HW234579   4.958   7.093   3.225 -1.8472 -0.0090 -0.2136
11177SOL     OW34580   7.487   7.625   2.552  0.6859 -0.5166  0.5436
11177SOL    HW134581   7.395   7.627   2.580  0.9864 -1.6424  1.7399
11177SOL    HW234582   7.500   7.708   2.507 -0.2072  0.9445  2.7759
11178SOL     OW34583   3.387   1.986   5.482 -0.3824 -0.1883 -0.3099
11178SOL    HW134584   3.411   1.898   5.509 -1.7115 -0.2240  0.8966
11178SOL    HW234585   3.312   1.975   5.425 -1.7335  0.2057  1.3115
11179SOL     OW34586   0.976   8.280   6.834  0.4054 -0.0915 -0.2328
11179SOL    HW134587   0.929   8.224   6.895  1.1152  0.1740  0.5909
11179SOL    HW234588   1.068   8.257   6.847  0.8834  2.2256  1.2117
11180SOL     OW34589   4.676   7.443   5.266 -0.4707  0.0207  0.6727
11180SOL    HW134590   4.770   7.428   5.279 -0.5642 -0.7991  0.4199
11180SOL    HW234591   4.672   7.528   5.221  0.0864  0.6190  1.7069
11181SOL     OW34592   7.160   7.400   1.063  0.4931 -0.4483  0.4985
11181SOL    HW134593   7.140   7.339   0.992 -3.8432 -1.1629  2.0644
11181SOL    HW234594   7.146   7.349   1.143 -0.0605  1.7132  1.8550
11182SOL     OW34595   4.714   1.463   3.036  0.0256  0.5805 -0.2986
11182SOL    HW134596   4.745   1.391   2.982 -0.6954 -0.6204  0.8538
11182SOL    HW234597   4.641   1.500   2.986 -0.7119 -0.5934 -0.1296
11183SOL     OW34598   7.748   1.677   6.445  0.3784 -0.0103 -0.3523
11183SOL    HW134599   7.743   1.717   6.359 -2.2299 -0.2637 -0.3984
11183SOL    HW234600   7.753   1.583   6.428 -1.7075 -0.1736 -0.2925
11184SOL     OW34601   3.457   7.927   7.512 -0.4670 -0.3700 -0.2150
11184SOL    HW134602   3.436   7.917   7.605  1.2599 -1.9984  0.0624
11184SOL    HW234603   3.417   7.850   7.470  1.2023 -1.2289 -0.3123
11185SOL     OW34604   0.159   3.883   3.976 -0.9269  0.1067  0.4291
11185SOL    HW134605   0.125   3.885   3.887 -2.1119  1.4629  0.8718
11185SOL    HW234606   0.235   3.824   3.972 -0.5467  0.6701 -1.5951
11186SOL     OW34607   3.823   2.636   1.500  0.1610  0.2187  0.1331
11186SOL    HW134608   3.781   2.582   1.433  0.5764  1.1185 -0.8746
11186SOL    HW234609   3.916   2.615   1.494  0.2714  0.7248  0.0261
11187SOL     OW34610   5.415   5.131   6.371 -0.4106 -0.3395 -0.0170
11187SOL    HW134611   5.423   5.077   6.450 -0.8864 -0.4858 -0.0685
11187SOL    HW234612   5.350   5.197   6.394  1.4148  1.3252  0.6629
11188SOL     OW34613   4.717   2.368   3.805  0.1187 -0.6547 -0.4189
11188SOL    HW134614   4.763   2.289   3.834  0.5051 -1.1512 -2.2491
11188SOL    HW234615   4.643   2.335   3.754 -0.9824  0.1751  0.5923
11189SOL     OW34616   3.996   5.189   7.917  0.2346  0.0100 -0.2295
11189SOL    HW134617   3.945   5.242   7.856 -0.9212  0.0654  0.7407
11189SOL    HW234618   4.014   5.108   7.869 -1.5659 -0.3866 -0.3330
11190SOL     OW34619   7.597   2.720   3.761  0.2007  0.5136  0.0839
11190SOL    HW134620   7.656   2.649   3.789 -0.1185 -0.1762 -0.9294
11190SOL    HW234621   7.656   2.786   3.723  0.6198  1.3808  2.1184
11191SOL     OW34622   6.658   4.621   0.461  0.1251  0.0294  0.5804
11191SOL    HW134623   6.680   4.684   0.531  0.5605  0.2125  0.2847
11191SOL    HW234624   6.732   4.627   0.400 -1.3689  1.7070 -1.1849
11192SOL     OW34625   7.704   4.575   7.628 -0.2967 -0.1597 -0.0811
11192SOL    HW134626   7.757   4.546   7.702  0.1476  0.2084 -0.2472
11192SOL    HW234627   7.630   4.621   7.668  0.2472  0.5504  0.1335
11193SOL     OW34628   6.716   7.040   5.577  0.2447  0.8415 -0.2340
11193SOL    HW134629   6.680   7.054   5.664  1.6804  2.0266  0.1979
11193SOL    HW234630   6.642   7.055   5.517 -0.5883  0.6613  0.7294
11194SOL     OW34631   4.542   0.322   2.244  0.5303 -0.3340  0.1329
11194SOL    HW134632   4.473   0.258   2.227  0.8365 -0.9034  0.9539
11194SOL    HW234633   4.604   0.276   2.300  0.7482  0.6852  0.7594
11195SOL     OW34634   2.630   1.726   5.148 -0.3939  0.6202  0.1348
11195SOL    HW134635   2.565   1.776   5.196  0.2601  2.2827 -0.6253
11195SOL    HW234636   2.638   1.771   5.064  0.6027 -0.4704 -0.3915
11196SOL     OW34637   0.548   1.139   8.212  0.3833  0.4111 -0.1062
11196SOL    HW134638   0.567   1.099   8.127 -1.3523 -4.8021  1.5471
11196SOL    HW234639   0.453   1.126   8.224  0.5577  1.0418  2.5675
11197SOL     OW34640   1.589   7.921   4.739  0.7112 -0.3649 -0.5740
11197SOL    HW134641   1.619   8.012   4.747 -1.2917  0.4118 -1.3522
11197SOL    HW234642   1.618   7.879   4.820 -1.1639  1.8328  1.3633
11198SOL     OW34643   6.501   2.550   7.348  0.6997 -0.3797 -0.5046
11198SOL    HW134644   6.459   2.626   7.308 -0.0469 -1.2272 -1.3931
11198SOL    HW234645   6.593   2.575   7.358  0.4220  0.7071 -0.5761
11199SOL     OW34646   1.308   6.897   7.194  0.1919  0.2897  0.0623
11199SOL    HW134647   1.299   6.985   7.156 -2.1215 -0.6585 -1.8188
11199SOL    HW234648   1.280   6.908   7.285 -1.6436  1.2793 -0.5524
11200SOL     OW34649   0.504   3.396   1.764 -0.3156  0.1752  0.1993
11200SOL    HW134650   0.418   3.365   1.792 -0.0935  0.3176  1.0848
11200SOL    HW234651   0.501   3.394   1.668 -1.2784  0.1223  0.2230
11201SOL     OW34652   6.809   3.584   1.057  0.3805 -0.3707  0.3781
11201SOL    HW134653   6.719   3.564   1.084 -0.5155  2.3707 -0.3037
11201SOL    HW234654   6.803   3.599   0.963  1.4370  0.3671  0.4137
11202SOL     OW34655   1.433   3.399   0.212  0.4413 -0.5090  0.2240
11202SOL    HW134656   1.463   3.372   0.298  1.2204  0.7179  0.3796
11202SOL    HW234657   1.338   3.388   0.214  0.5390 -1.2689  0.9471
11203SOL     OW34658   1.088   1.130   1.173 -0.1438  0.0511  0.4927
11203SOL    HW134659   1.180   1.109   1.157 -0.2204 -1.0385  1.3619
11203SOL    HW234660   1.063   1.186   1.100  0.3292 -2.2400 -1.5266
11204SOL     OW34661   6.612   5.345   3.121 -0.2238  0.4930 -0.3376
11204SOL    HW134662   6.635   5.259   3.084  0.1857  0.2963  0.3489
11204SOL    HW234663   6.696   5.383   3.147 -0.4565  0.8597 -0.1114
11205SOL     OW34664   2.971   5.395   6.529  0.1561  0.2538 -0.0001
11205SOL    HW134665   2.972   5.475   6.477  0.0555 -0.1006 -0.5704
11205SOL    HW234666   2.920   5.417   6.607 -0.7114  0.4748 -0.6116
11206SOL     OW34667   3.392   4.092   5.723 -0.0352  0.0311 -0.0059
11206SOL    HW134668   3.320   4.105   5.785 -0.6732  1.9504 -1.0978
11206SOL    HW234669   3.407   4.177   5.683  2.4931 -0.4288 -0.2537
11207SOL     OW34670   2.247   4.083   0.167 -0.0519  0.0141  0.3505
11207SOL    HW134671   2.300   4.008   0.140 -0.9855 -1.1305  1.5689
11207SOL    HW234672   2.157   4.050   0.167 -0.3886  0.8560  1.8145
11208SOL     OW34673   6.410   4.455   3.630  0.0671  0.0525  0.0525
11208SOL    HW134674   6.371   4.525   3.681  0.4462 -0.5392  1.1904
11208SOL    HW234675   6.364   4.376   3.659  1.3150 -0.5017  0.6057
11209SOL     OW34676   5.802   0.675   2.361 -0.8795 -0.0747  0.4976
11209SOL    HW134677   5.819   0.721   2.279 -0.4554 -1.2226 -0.0911
11209SOL    HW234678   5.876   0.614   2.369 -0.4232  0.6760  2.2167
11210SOL     OW34679   4.738   3.392   7.991  0.1835  0.1007 -0.2621
11210SOL    HW134680   4.709   3.343   7.913 -2.5417  1.2671 -0.0706
11210SOL    HW234681   4.784   3.326   8.044  1.7859 -0.8213 -2.5935
11211SOL     OW34682   6.116   6.187   3.669 -0.4380 -0.3032  0.4556
11211SOL    HW134683   6.162   6.269   3.649 -2.1168  0.7899  0.8874
11211SOL    HW234684   6.120   6.137   3.587  0.2106  0.3874  0.0506
11212SOL     OW34685   7.759   4.775   8.155 -0.2449 -0.1375  0.5666
11212SOL    HW134686   7.841   4.823   8.141 -1.6665  3.0152  1.9573
11212SOL    HW234687   7.782   4.703   8.212  1.6609  0.3163  0.4339
11213SOL     OW34688   5.626   7.706   3.314  0.2264 -0.1253  0.0288
11213SOL    HW134689   5.614   7.618   3.279 -0.1508 -0.4870  1.0347
11213SOL    HW234690   5.633   7.694   3.408 -1.4809  1.0681  0.3568
11214SOL     OW34691   5.546   0.248   1.943 -0.3005  0.2472  0.4102
11214SOL    HW134692   5.451   0.250   1.940 -0.2972  0.4148 -1.7031
11214SOL    HW234693   5.571   0.322   1.998 -1.3769 -0.4431  1.8907
11215SOL     OW34694   3.257   0.343   0.561 -0.4468  0.1389 -0.9655
11215SOL    HW134695   3.265   0.279   0.632 -1.2986  0.2969 -0.7177
11215SOL    HW234696   3.258   0.290   0.481 -0.0700 -0.0916 -0.8090
11216SOL     OW34697   1.931   1.181   4.971  0.8195 -0.1322  0.1778
11216SOL    HW134698   1.886   1.110   4.926  0.9867  0.5542 -1.1244
11216SOL    HW234699   1.862   1.240   5.000  0.7790  0.1751 -0.5205
11217SOL     OW34700   5.129   1.843   2.243 -0.4645  0.2281  0.4560
11217SOL    HW134701   5.121   1.835   2.148 -0.6448 -0.0453  0.4941
11217SOL    HW234702   5.161   1.758   2.272  0.2668  0.5342  0.5690
11218SOL     OW34703   7.391   2.819   4.716  0.4026  0.0048  0.1802
11218SOL    HW134704   7.439   2.835   4.634 -0.2523 -0.6638 -0.3536
11218SOL    HW234705   7.426   2.736   4.748 -0.1290 -0.3153 -0.0359
11219SOL     OW34706   3.408   4.858   8.071 -0.6378  0.0721  0.0003
11219SOL    HW134707   3.413   4.773   8.028  0.1687 -0.7376  1.5821
11219SOL    HW234708   3.497   4.893   8.065  0.6287 -1.7893  4.1385
11220SOL     OW34709   0.943   3.315   6.180 -0.7549  0.7039  0.9512
11220SOL    HW134710   0.986   3.361   6.251 -0.3360  2.0120 -0.1182
11220SOL    HW234711   0.982   3.351   6.100 -2.0682  0.1443  0.0192
11221SOL     OW34712   8.132   0.292   2.802  0.5050  0.1680  0.3080
11221SOL    HW134713   8.162   0.312   2.714  1.1439  1.5369  0.8189
11221SOL    HW234714   8.149   0.371   2.853 -1.1481 -0.0958  1.3496
11222SOL     OW34715   1.645   1.289   4.323  0.2936  0.3108  0.5157
11222SOL    HW134716   1.596   1.371   4.327 -0.6958 -0.2451  0.1482
11222SOL    HW234717   1.685   1.290   4.236  0.3615  0.4391  0.5477
11223SOL     OW34718   0.901   1.613   2.692 -0.3283  0.1592 -0.0772
11223SOL    HW134719   0.850   1.688   2.725  0.4506 -0.0685  1.7710
11223SOL    HW234720   0.983   1.617   2.740 -0.6823 -2.4925  0.8855
11224SOL     OW34721   4.023   0.569   4.862 -0.3049 -0.0299 -0.0639
11224SOL    HW134722   3.927   0.575   4.852 -0.3677  0.8576  0.9017
11224SOL    HW234723   4.057   0.610   4.783 -0.6937 -1.3142 -0.9356
11225SOL     OW34724   2.027   3.822   4.116 -0.0529 -0.1779  0.1483
11225SOL    HW134725   2.057   3.855   4.031 -0.0080  1.1513  0.6614
11225SOL    HW234726   1.959   3.884   4.143  0.5098 -0.1167  1.4595
11226SOL     OW34727   4.869   0.560   7.710  0.0683  0.1394 -0.1552
11226SOL    HW134728   4.868   0.505   7.631  1.2050  0.6744 -0.5630
11226SOL    HW234729   4.945   0.617   7.698 -0.2850  0.8545  0.9091
11227SOL     OW34730   0.815   7.751   4.507 -0.5019  0.1214 -0.1091
11227SOL    HW134731   0.849   7.840   4.510 -1.8671  0.6528  0.4447
11227SOL    HW234732   0.724   7.759   4.535 -0.3252 -1.6114  1.1468
11228SOL     OW34733   0.491   1.080   4.095  0.1205 -0.5256  0.4594
11228SOL    HW134734   0.404   1.057   4.063 -0.7208 -1.6882  3.2531
11228SOL    HW234735   0.500   1.174   4.075 -0.6697 -0.9203 -2.0651
11229SOL     OW34736   6.427   2.780   1.404  0.2950  0.2971 -0.3953
11229SOL    HW134737   6.443   2.869   1.434  0.2683  0.0540  0.3663
11229SOL    HW234738   6.502   2.760   1.347  0.6478  0.5664 -0.0303
11230SOL     OW34739   3.749   5.472   0.991 -0.0852 -0.2971  0.1393
11230SOL    HW134740   3.755   5.535   1.063 -4.2690 -1.4151  1.8163
11230SOL    HW234741   3.730   5.525   0.914 -0.3147  0.6826  0.8507
11231SOL     OW34742   0.058   4.854   7.843  0.1131  0.2003 -0.7189
11231SOL    HW134743   0.152   4.874   7.841 -0.1710  1.8190  0.1494
11231SOL    HW234744   0.046   4.801   7.922  0.3105 -0.1034 -0.8914
11232SOL     OW34745   1.007   3.665   1.594 -0.0200  0.4787 -0.3494
11232SOL    HW134746   1.023   3.742   1.539  0.7870  0.7432  0.2443
11232SOL    HW234747   0.925   3.628   1.559  0.0684  1.0740 -1.2285
11233SOL     OW34748   2.336   0.386   6.443  0.2726  0.4265  0.6281
11233SOL    HW134749   2.384   0.310   6.478  1.4194  1.5604  1.6126
11233SOL    HW234750   2.266   0.402   6.506  2.6631  2.8069  2.9311
11234SOL     OW34751   6.344   2.774   7.223  0.6572  0.7345 -0.2469
11234SOL    HW134752   6.308   2.836   7.286  0.2083 -0.9377  1.2049
11234SOL    HW234753   6.275   2.764   7.157  0.4731  1.2656 -0.1376
11235SOL     OW34754   4.322   5.384   4.389 -0.7025 -0.3787 -0.5044
11235SOL    HW134755   4.328   5.343   4.475 -1.3178  1.1765  0.3267
11235SOL    HW234756   4.398   5.351   4.342  1.1713  0.7032  1.5510
11236SOL     OW34757   1.088   0.239   1.274  0.2568  0.3686 -0.1011
11236SOL    HW134758   1.110   0.312   1.332  0.7773  0.5010 -0.4645
11236SOL    HW234759   1.000   0.258   1.243 -0.6539 -0.4397  1.8033
11237SOL     OW34760   5.591   7.560   3.806 -0.2698  0.2334 -0.9860
11237SOL    HW134761   5.633   7.564   3.892  1.1899  0.2137 -1.6557
11237SOL    HW234762   5.498   7.570   3.824  0.0869  1.2570  0.5073
11238SOL     OW34763   0.483   0.233   0.384  0.0764 -0.5431 -0.2588
11238SOL    HW134764   0.563   0.194   0.350  0.0822 -0.3208 -0.4955
11238SOL    HW234765   0.497   0.327   0.378  0.2216 -0.4901  0.6757
11239SOL     OW34766   4.420   7.675   1.223  0.0182  0.1558 -0.2341
11239SOL    HW134767   4.465   7.759   1.211  0.0191  0.1031 -0.5957
11239SOL    HW234768   4.485   7.619   1.266 -0.3092  0.6452  0.9661
11240SOL     OW34769   1.448   4.505   3.004 -0.5222  0.3456 -0.2795
11240SOL    HW134770   1.410   4.470   2.924  1.1194 -0.9709 -0.5565
11240SOL    HW234771   1.393   4.580   3.027 -1.9251 -0.1716 -1.7815
11241SOL     OW34772   2.787   4.293   3.646 -0.0915 -0.0805 -0.1270
11241SOL    HW134773   2.784   4.209   3.691  0.2302  0.4738  0.9865
11241SOL    HW234774   2.881   4.309   3.632 -0.1657 -0.0243 -0.5659
11242SOL     OW34775   8.089   5.862   3.470  0.7346 -0.0038  0.0304
11242SOL    HW134776   8.023   5.805   3.432  1.6913 -0.1398 -1.5657
11242SOL    HW234777   8.135   5.899   3.394  2.6825 -0.1709  1.0460
11243SOL     OW34778   1.639   5.922   3.151 -0.2941 -0.1341  0.0233
11243SOL    HW134779   1.682   5.914   3.236  0.3912 -0.1611 -0.3187
11243SOL    HW234780   1.616   5.832   3.127 -1.2687 -0.0464  0.5605
11244SOL     OW34781   3.108   0.540   5.498 -0.0255  0.0886 -0.7510
11244SOL    HW134782   3.084   0.474   5.563  0.3453  3.3129  3.0130
11244SOL    HW234783   3.194   0.512   5.466 -0.7139 -2.1697 -0.8372
11245SOL     OW34784   6.561   1.897   1.193 -0.2763  0.4337 -0.2068
11245SOL    HW134785   6.566   1.966   1.127  1.8599  0.4397 -0.1001
11245SOL    HW234786   6.588   1.940   1.274  0.6155 -0.3842 -0.0535
11246SOL     OW34787   3.138   3.760   4.358  0.3528  0.2710  0.1348
11246SOL    HW134788   3.169   3.752   4.267 -1.0337 -0.5588 -0.3038
11246SOL    HW234789   3.187   3.693   4.406  2.0535  1.5793  0.3143
11247SOL     OW34790   4.346   3.134   5.431  0.1119  0.0909  0.3165
11247SOL    HW134791   4.366   3.227   5.425 -1.9987  0.5015 -1.8173
11247SOL    HW234792   4.253   3.128   5.412  0.5325 -2.5744 -1.4366
11248SOL     OW34793   5.478   3.231   4.321 -0.3108  0.3043  0.3288
11248SOL    HW134794   5.512   3.225   4.411 -1.9442 -1.0343  0.9114
11248SOL    HW234795   5.430   3.314   4.320  1.9337  1.6860 -0.1881
11249SOL     OW34796   0.823   7.733   7.843  0.1708  0.1163 -0.0645
11249SOL    HW134797   0.869   7.813   7.819  0.2628 -0.0480 -0.4518
11249SOL    HW234798   0.848   7.716   7.934  0.7660  0.1022 -0.2318
11250SOL     OW34799   1.131   7.232   3.625 -0.3024  0.0408  0.5964
11250SOL    HW134800   1.117   7.322   3.598  0.3090 -0.1767 -0.4788
11250SOL    HW234801   1.125   7.181   3.545  2.9396 -0.4597  0.5503
11251SOL     OW34802   2.401   3.579   1.192  0.6081 -0.2626 -0.0195
11251SOL    HW134803   2.439   3.586   1.104 -1.3634  1.1156 -0.8287
11251SOL    HW234804   2.344   3.503   1.187 -1.7322  1.4419 -0.9217
11252SOL     OW34805   3.525   7.465   5.706  0.1661 -0.5575  0.2285
11252SOL    HW134806   3.569   7.467   5.622  0.8767  1.1630  0.6101
11252SOL    HW234807   3.431   7.462   5.684  0.3546 -0.3703 -0.6144
11253SOL     OW34808   7.063   4.193   1.734 -0.9675 -0.0219  0.2209
11253SOL    HW134809   7.019   4.271   1.768 -2.0725 -0.2125 -0.7357
11253SOL    HW234810   7.147   4.225   1.701 -0.4483  0.3833  1.8423
11254SOL     OW34811   4.907   7.879   8.264  0.7042 -0.3564 -0.5592
11254SOL    HW134812   4.817   7.907   8.245  1.2795  0.1976 -2.7622
11254SOL    HW234813   4.927   7.815   8.195  1.3645 -2.0204  1.0791
11255SOL     OW34814   4.098   4.010   1.593 -0.8044 -0.6736  0.7669
11255SOL    HW134815   4.136   3.941   1.538 -1.1642 -0.6907  0.5349
11255SOL    HW234816   4.173   4.059   1.625 -0.5950 -0.4394 -0.0409
11256SOL     OW34817   1.769   7.486   0.628 -0.6104 -0.5452 -0.5031
11256SOL    HW134818   1.744   7.479   0.720 -0.0635  1.4485 -0.1674
11256SOL    HW234819   1.827   7.411   0.613 -0.3132 -0.6136  0.8917
11257SOL     OW34820   7.048   5.535   3.253 -0.1650 -0.6520  0.1020
11257SOL    HW134821   7.106   5.606   3.224 -2.4466  1.6468  0.7381
11257SOL    HW234822   7.017   5.564   3.339 -0.7289 -2.7672  0.6641
11258SOL     OW34823   1.512   4.494   5.011  0.1448 -0.1811 -0.5766
11258SOL    HW134824   1.434   4.452   5.049 -0.3929  0.2157 -1.2141
11258SOL    HW234825   1.574   4.498   5.083 -0.2258 -0.9990 -0.1937
11259SOL     OW34826   8.138   4.446   7.974 -0.7422 -0.2786  0.1138
11259SOL    HW134827   8.120   4.384   7.904  1.4883  0.3927 -1.1364
11259SOL    HW234828   8.213   4.408   8.020 -1.2482  0.0394  1.2369
11260SOL     OW34829   6.755   1.820   2.118  0.2224  0.5203  0.4750
11260SOL    HW134830   6.768   1.797   2.210  0.3010 -1.8782 -0.0591
11260SOL    HW234831   6.680   1.767   2.091  0.8664  0.3573 -1.1017
11261SOL     OW34832   3.536   2.762   3.122 -0.7122  0.3389 -0.3604
11261SOL    HW134833   3.473   2.821   3.164 -0.0348  0.1554  0.9851
11261SOL    HW234834   3.516   2.676   3.158 -0.6480  0.0233 -1.0708
11262SOL     OW34835   3.592   4.824   5.416  0.0739 -0.1112  0.1182
11262SOL    HW134836   3.554   4.757   5.359  2.1847 -0.8161 -0.5413
11262SOL    HW234837   3.661   4.864   5.364 -0.0142  1.4220  1.1186
11263SOL     OW34838   2.310   4.367   0.129  0.0436 -0.2325  0.1992
11263SOL    HW134839   2.396   4.355   0.170 -0.1259 -1.7100  0.1840
11263SOL    HW234840   2.262   4.287   0.150 -0.7681 -0.1414 -1.1660
11264SOL     OW34841   0.427   0.262   1.437 -0.3044  0.1886  0.7023
11264SOL    HW134842   0.445   0.204   1.363  0.3124  0.2140  0.8243
11264SOL    HW234843   0.503   0.321   1.440  0.3025 -0.6286  2.1426
11265SOL     OW34844   5.142   5.962   6.132 -0.1495 -0.1838  0.5170
11265SOL    HW134845   5.090   5.882   6.127 -0.0996 -0.4765  3.3660
11265SOL    HW234846   5.077   6.032   6.142 -0.0958 -0.3233  1.9713
11266SOL     OW34847   0.232   1.356   4.108  0.0742  0.4440 -0.3705
11266SOL    HW134848   0.323   1.381   4.123 -0.1588  1.3937 -0.4878
11266SOL    HW234849   0.214   1.381   4.017 -1.2251  3.2688  0.5627
11267SOL     OW34850   0.523   6.727   4.698 -0.0326  0.0780  0.2538
11267SOL    HW134851   0.478   6.810   4.713 -0.6028 -0.6460  3.2369
11267SOL    HW234852   0.614   6.744   4.722 -0.4344 -0.4295  2.3636
11268SOL     OW34853   6.066   6.012   2.059  0.0515 -0.1722 -0.3129
11268SOL    HW134854   6.123   5.947   2.017 -1.5415 -0.3303 -2.3398
11268SOL    HW234855   6.085   6.094   2.014 -1.3195 -0.2319 -1.0377
11269SOL     OW34856   2.470   3.945   2.724 -0.6189 -0.1384 -0.1553
11269SOL    HW134857   2.550   3.996   2.712 -0.0863 -1.0635 -0.6806
11269SOL    HW234858   2.400   4.010   2.732 -0.1137  0.6674 -1.9244
11270SOL     OW34859   4.921   5.283   4.474 -0.3009 -0.0932 -0.4127
11270SOL    HW134860   4.887   5.328   4.551  0.1126  2.6961 -1.7381
11270SOL    HW234861   5.014   5.271   4.492  0.2290  2.2978 -1.1063
11271SOL     OW34862   6.367   0.783   6.629  0.2576  0.4407  0.2804
11271SOL    HW134863   6.343   0.799   6.720  0.5146 -1.7546  0.7957
11271SOL    HW234864   6.340   0.693   6.613  2.2887  0.0249 -1.1154
11272SOL     OW34865   5.397   2.737   7.077  0.1772 -0.6603  0.2521
11272SOL    HW134866   5.406   2.712   6.985 -0.3870  0.7613 -0.2170
11272SOL    HW234867   5.341   2.670   7.115 -1.2755 -0.1633 -0.9434
11273SOL     OW34868   5.686   1.522   1.701 -0.5076  0.3238  0.4299
11273SOL    HW134869   5.659   1.613   1.703 -1.6183  0.0183  0.3884
11273SOL    HW234870   5.644   1.486   1.622  1.2225  0.1498 -0.4553
11274SOL     OW34871   6.412   3.246   2.856 -0.5759 -0.4142  0.7861
11274SOL    HW134872   6.415   3.152   2.840 -0.9163 -0.1620 -0.9190
11274SOL    HW234873   6.417   3.286   2.769 -1.2531  1.1237  1.4121
11275SOL     OW34874   4.036   1.670   0.786 -0.3070 -0.1620 -0.6310
11275SOL    HW134875   4.045   1.749   0.733 -0.3733 -0.0766 -0.5160
11275SOL    HW234876   4.083   1.690   0.867 -0.7910 -0.0316 -0.3737
11276SOL     OW34877   3.804   4.964   5.303 -0.0804 -0.5333 -0.3348
11276SOL    HW134878   3.838   5.034   5.359 -2.0592 -0.2714  0.6465
11276SOL    HW234879   3.870   4.953   5.235  2.6994 -1.2011  2.2686
11277SOL     OW34880   6.671   1.921   7.912  0.2031  0.3290 -0.3369
11277SOL    HW134881   6.710   1.863   7.978 -1.7376 -2.0311 -1.1438
11277SOL    HW234882   6.618   1.982   7.962 -1.2893 -1.4632  0.3843
11278SOL     OW34883   8.240   4.372   7.649 -0.6502  0.1427 -0.1564
11278SOL    HW134884   8.186   4.429   7.704  0.8302 -0.5648  2.1623
11278SOL    HW234885   8.278   4.431   7.584 -0.8310  1.4157  0.8483
11279SOL     OW34886   1.456   7.205   2.798 -0.1461  0.2462  0.3533
11279SOL    HW134887   1.493   7.185   2.712  0.5789  0.5068  0.5984
11279SOL    HW234888   1.374   7.250   2.779  0.3940  1.0122 -0.2111
11280SOL     OW34889   7.943   7.097   1.694 -0.6067 -1.0274  0.1076
11280SOL    HW134890   7.973   7.007   1.711  1.9524  0.0484  1.8684
11280SOL    HW234891   8.015   7.137   1.646 -1.3224  0.3485  0.1375
11281SOL     OW34892   2.444   6.528   5.156  0.1112 -0.5208 -0.0792
11281SOL    HW134893   2.462   6.556   5.245 -1.0971 -1.6047  0.5412
11281SOL    HW234894   2.524   6.548   5.108  0.7197  0.2414  1.2006
11282SOL     OW34895   2.535   6.214   0.012  0.6085 -0.6301  0.5478
11282SOL    HW134896   2.497   6.132  -0.021 -0.9492  0.0469  0.6203
11282SOL    HW234897   2.537   6.271  -0.064  0.3959 -0.2674  0.8157
11283SOL     OW34898   4.537   0.691   4.900 -0.3148  0.7209  0.6540
11283SOL    HW134899   4.596   0.767   4.901  1.4178 -0.5634  2.2428
11283SOL    HW234900   4.583   0.624   4.951 -1.4297 -1.6837 -1.2771
11284SOL     OW34901   6.506   2.134   2.575  1.0873  0.3113 -0.0804
11284SOL    HW134902   6.549   2.188   2.508  1.3161  0.4975  0.2123
11284SOL    HW234903   6.446   2.194   2.619 -0.8579 -0.3670 -1.6830
11285SOL     OW34904   1.430   0.247   0.583  0.3249 -0.3003 -0.0684
11285SOL    HW134905   1.348   0.214   0.545  0.7151 -0.6346 -0.6478
11285SOL    HW234906   1.403   0.292   0.663 -0.4409 -0.2622 -0.3359
11286SOL     OW34907   3.865   0.393   0.733  0.6314  0.3801 -0.1452
11286SOL    HW134908   3.866   0.316   0.790  3.0668 -1.0447 -1.9137
11286SOL    HW234909   3.932   0.451   0.769  0.1422  0.8269  0.0683
11287SOL     OW34910   5.149   0.654   4.786  0.3643 -0.4676 -0.1186
11287SOL    HW134911   5.123   0.665   4.877 -0.6857  0.9199 -0.5555
11287SOL    HW234912   5.233   0.608   4.790 -0.1359 -1.2873  1.4910
11288SOL     OW34913   1.809   1.590   5.020  0.2574  0.4997  0.2736
11288SOL    HW134914   1.852   1.607   4.936 -0.6955 -0.1123 -0.3534
11288SOL    HW234915   1.723   1.631   5.012 -0.5303 -1.1022  0.2556
11289SOL     OW34916   1.344   6.788   4.696 -0.2895 -0.3651  0.0968
11289SOL    HW134917   1.352   6.878   4.664 -1.6918 -0.5442 -0.8401
11289SOL    HW234918   1.417   6.742   4.656  0.2550  0.2870  0.3267
11290SOL     OW34919   6.205   8.200   6.328  0.1264 -0.0186 -0.3569
11290SOL    HW134920   6.236   8.113   6.352  1.4269  0.3006 -0.7837
11290SOL    HW234921   6.285   8.253   6.322 -0.6074  1.1198 -0.4477
11291SOL     OW34922   3.961   7.030   7.871 -0.8561  0.3309 -1.0669
11291SOL    HW134923   4.023   7.012   7.800  0.9967  0.2780  0.4578
11291SOL    HW234924   4.010   7.086   7.932 -1.7511 -0.9476  0.9438
11292SOL     OW34925   5.560   1.132   7.249  0.1597  0.5565 -0.4415
11292SOL    HW134926   5.620   1.207   7.246  0.2051  0.6488  1.6249
11292SOL    HW234927   5.600   1.068   7.189  2.4035  0.5966  0.8742
11293SOL     OW34928   1.579   0.196   1.310 -0.4738 -0.5410 -0.2059
11293SOL    HW134929   1.555   0.107   1.334 -0.6600 -0.4077  0.1180
11293SOL    HW234930   1.611   0.235   1.392 -1.6451  0.1035 -0.0252
11294SOL     OW34931   7.371   3.664   2.353 -0.0670 -0.2336  0.0992
11294SOL    HW134932   7.296   3.668   2.293 -0.6726 -1.2543  0.7596
11294SOL    HW234933   7.412   3.750   2.345 -1.7674  0.6560  0.3193
11295SOL     OW34934   7.360   3.539   4.498 -0.2219 -0.2619 -0.1215
11295SOL    HW134935   7.379   3.627   4.531  1.2829 -0.1532 -1.2049
11295SOL    HW234936   7.267   3.543   4.475 -0.7047  0.3915  1.7307
11296SOL     OW34937   6.439   3.030   8.221  0.1038 -0.2780 -0.0746
11296SOL    HW134938   6.423   3.066   8.309  0.2371 -0.9579  0.2350
11296SOL    HW234939   6.357   2.986   8.198  0.7915 -2.0819  0.6968
11297SOL     OW34940   3.422   3.093   8.207  0.0866 -0.4170  0.2309
11297SOL    HW134941   3.489   3.105   8.274  0.1695  0.6574 -0.0326
11297SOL    HW234942   3.464   3.120   8.125 -1.5049  3.2863  0.4556
11298SOL     OW34943   7.524   8.036   8.236 -0.0795 -0.6771 -0.0425
11298SOL    HW134944   7.559   7.947   8.244  1.5886  0.0397  1.0220
11298SOL    HW234945   7.472   8.049   8.315  0.6603 -0.3123  0.3971
11299SOL     OW34946   7.233   0.081   5.503  0.5009 -0.3481  0.3861
11299SOL    HW134947   7.141   0.057   5.516 -0.3734  2.1675 -0.7108
11299SOL    HW234948   7.260   0.117   5.588 -0.6314  2.0820 -0.2090
11300SOL     OW34949   2.241   6.522   2.556  0.5085  0.0035  0.4355
11300SOL    HW134950   2.225   6.535   2.463 -0.5430 -0.4074  0.5561
11300SOL    HW234951   2.159   6.489   2.591  0.3185  1.8133  1.8358
11301SOL     OW34952   5.033   1.377   4.422 -0.4099 -0.4732 -0.0284
11301SOL    HW134953   5.028   1.299   4.368 -1.3415 -0.7396  0.4130
11301SOL    HW234954   4.958   1.430   4.395  0.4016  0.4407 -0.5649
11302SOL     OW34955   2.232   6.722   3.378  0.2997 -0.3163 -0.8970
11302SOL    HW134956   2.308   6.760   3.336  0.9548  1.2034  1.4452
11302SOL    HW234957   2.162   6.785   3.363  0.3720 -0.0874 -0.3099
11303SOL     OW34958   5.448   4.694   5.456  0.3675  0.5764  0.3090
11303SOL    HW134959   5.516   4.751   5.492  0.7858 -0.7232  1.6895
11303SOL    HW234960   5.402   4.659   5.533  0.7316 -1.6520 -0.4006
11304SOL     OW34961   4.324   0.896   5.969  0.3981  0.2384  0.5054
11304SOL    HW134962   4.378   0.901   5.891 -2.7090 -0.5540 -1.8898
11304SOL    HW234963   4.264   0.823   5.953 -1.5319  1.1628  2.8215
11305SOL     OW34964   1.227   3.679   5.506  0.5900 -0.2266  0.1906
11305SOL    HW134965   1.150   3.736   5.514  1.4179  0.9893 -0.1751
11305SOL    HW234966   1.264   3.676   5.595  0.1333 -0.8108  0.3662
11306SOL     OW34967   2.693   2.417   1.674  0.2534  0.0467 -0.1571
11306SOL    HW134968   2.662   2.327   1.686 -0.6727  0.2226 -0.9926
11306SOL    HW234969   2.788   2.411   1.680  0.1868 -0.9338  0.1191
11307SOL     OW34970   3.264   0.593   2.157 -0.0115  0.3956 -0.4507
11307SOL    HW134971   3.219   0.510   2.170  0.1720 -0.0203 -2.1981
11307SOL    HW234972   3.351   0.569   2.125  0.0912  1.2538 -0.8661
11308SOL     OW34973   5.694   5.674   7.570 -0.8990  0.0304 -0.2791
11308SOL    HW134974   5.664   5.763   7.551  0.4295  0.3990 -0.8136
11308SOL    HW234975   5.618   5.630   7.609 -2.0111  0.9593 -1.3277
11309SOL     OW34976   0.769   5.624   5.060 -0.0540  0.4215 -0.1496
11309SOL    HW134977   0.824   5.545   5.065 -1.7208 -0.7120  1.4533
11309SOL    HW234978   0.689   5.594   5.016 -0.4160  1.4218 -0.1933
11310SOL     OW34979   1.477   1.132   0.861 -0.0470  0.1894 -0.3203
11310SOL    HW134980   1.545   1.098   0.918 -0.9432 -2.1501 -0.5546
11310SOL    HW234981   1.524   1.180   0.793  1.1330  1.4597  1.3166
11311SOL     OW34982   0.730   5.990   2.908  0.2270  0.2988 -0.0763
11311SOL    HW134983   0.784   5.911   2.919 -0.1687  0.1342  0.7883
11311SOL    HW234984   0.784   6.049   2.855  1.1424  0.0361  0.5441
11312SOL     OW34985   0.976   7.450   1.496  0.1428 -0.5724 -0.3237
11312SOL    HW134986   1.058   7.412   1.526  1.2758  1.3356 -0.8244
11312SOL    HW234987   0.984   7.543   1.515 -1.0974 -0.0405 -2.1441
11313SOL     OW34988   1.044   6.677   8.005  0.3593 -0.3358 -0.3348
11313SOL    HW134989   0.966   6.726   7.979  0.4560 -0.3697 -0.6988
11313SOL    HW234990   1.027   6.650   8.095 -0.0692 -0.3872 -0.4304
11314SOL     OW34991   1.793   5.513   2.080 -0.4519  0.3424  0.1381
11314SOL    HW134992   1.743   5.593   2.095 -0.2288  0.2158  1.7330
11314SOL    HW234993   1.865   5.518   2.143  0.1776 -0.6144 -0.4844
11315SOL     OW34994   4.582   4.822   7.950 -0.4043 -0.1164 -0.3830
11315SOL    HW134995   4.514   4.886   7.973 -0.2016  0.4874 -1.4089
11315SOL    HW234996   4.533   4.743   7.927 -0.6670 -0.2714  0.6560
11316SOL     OW34997   0.751   2.235   6.107  0.1199  0.5381  0.1575
11316SOL    HW134998   0.705   2.170   6.160 -0.5103 -0.5015 -1.5709
11316SOL    HW234999   0.842   2.207   6.106 -0.3401 -1.0973 -1.5556
11317SOL     OW35000   5.718   2.968   2.451 -0.0607  0.4920 -0.2152
11317SOL    HW135001   5.684   2.986   2.539 -0.8143  0.5139 -0.5089
11317SOL    HW235002   5.658   2.903   2.415 -1.1487  2.1822 -1.6005
11318SOL     OW35003   3.377   4.581   4.096  0.2332  0.5029 -0.0467
11318SOL    HW135004   3.432   4.644   4.050  0.8037  0.7538  0.9428
11318SOL    HW235005   3.418   4.572   4.182 -1.3603  0.7963  0.7764
11319SOL     OW35006   2.145   2.937   7.612  0.2457  0.1381  0.1046
11319SOL    HW135007   2.212   2.876   7.582 -1.5000 -1.8058 -0.0281
11319SOL    HW235008   2.120   2.905   7.698  0.1546  1.4338  0.5831
11320SOL     OW35009   2.348   0.756   0.095 -0.3229 -0.4677  0.5754
11320SOL    HW135010   2.406   0.698   0.145 -2.0459 -2.0424  0.8684
11320SOL    HW235011   2.271   0.702   0.077 -0.5638  0.6286 -2.1940
11321SOL     OW35012   4.592   5.253   4.934  0.0204 -0.1597 -0.4115
11321SOL    HW135013   4.683   5.262   4.964 -0.1495 -1.9690  0.7816
11321SOL    HW235014   4.558   5.178   4.984 -1.3674 -1.1040 -2.6508
11322SOL     OW35015   8.059   3.807   4.636  0.0487  0.1176  0.1459
11322SOL    HW135016   8.065   3.871   4.707 -0.6289 -1.1471  1.3967
11322SOL    HW235017   8.128   3.743   4.657 -1.6296 -1.4981  1.0172
11323SOL     OW35018   4.854   1.838   3.287 -0.9089  0.0459 -0.5470
11323SOL    HW135019   4.904   1.892   3.226 -2.8679 -0.5512 -2.8725
11323SOL    HW235020   4.892   1.750   3.279  0.0931  0.3497  0.6448
11324SOL     OW35021   4.477   4.475   4.157  0.7129 -0.5391  0.3041
11324SOL    HW135022   4.461   4.531   4.233 -1.4528  0.6106 -0.8865
11324SOL    HW235023   4.569   4.488   4.136  0.2109  3.1984 -0.2729
11325SOL     OW35024   0.589   1.109   6.147 -0.1925  0.1737  0.2205
11325SOL    HW135025   0.656   1.171   6.176  1.2680 -0.6806 -1.1223
11325SOL    HW235026   0.577   1.129   6.054  0.6899 -1.7841 -0.3857
11326SOL     OW35027   7.047   4.015   0.300 -0.3635 -0.1262  0.0461
11326SOL    HW135028   7.128   4.059   0.327 -0.4522  0.3671 -0.4973
11326SOL    HW235029   6.984   4.085   0.286 -0.4567 -0.4009 -0.9829
11327SOL     OW35030   6.404   1.389   3.532 -0.9046 -0.0876 -0.2149
11327SOL    HW135031   6.451   1.389   3.449  4.2315  3.4532  2.1682
11327SOL    HW235032   6.359   1.473   3.535  1.9099  1.4947  1.7249
11328SOL     OW35033   8.108   6.335   4.240 -0.5527  0.0715 -0.0355
11328SOL    HW135034   8.149   6.254   4.209 -1.6354 -0.5433  0.0684
11328SOL    HW235035   8.163   6.364   4.312 -0.7779 -1.2259  0.6948
11329SOL     OW35036   5.560   0.051   3.712 -0.1833  0.2555  0.3696
11329SOL    HW135037   5.504   0.102   3.652  1.8715  0.6352 -1.3520
11329SOL    HW235038   5.561   0.102   3.793 -1.1191  1.0130 -0.0734
11330SOL     OW35039   2.275   0.625   7.333  0.2650  0.0252 -0.0064
11330SOL    HW135040   2.352   0.609   7.388  0.8346  0.5659 -0.6258
11330SOL    HW235041   2.249   0.538   7.303  1.1726 -0.0997 -0.4883
11331SOL     OW35042   6.696   8.115   1.798 -0.6552 -0.6748  0.3189
11331SOL    HW135043   6.676   8.207   1.815  0.7108 -0.4849  1.0531
11331SOL    HW235044   6.652   8.068   1.868 -1.1497 -0.5681  0.0861
11332SOL     OW35045   2.999   6.706   1.861  0.6402 -0.9434 -0.0045
11332SOL    HW135046   2.949   6.687   1.782  1.6860  0.0854 -0.9582
11332SOL    HW235047   3.017   6.800   1.857 -2.1038 -0.0887  3.1956
11333SOL     OW35048   1.150   4.606   7.720  0.0700 -0.1875 -0.0577
11333SOL    HW135049   1.227   4.657   7.745  0.9940 -1.2432 -0.6035
11333SOL    HW235050   1.186   4.521   7.693 -1.1671 -0.2713 -1.5799
11334SOL     OW35051   3.864   0.921   6.555 -0.3232  0.3812  0.5314
11334SOL    HW135052   3.958   0.902   6.558 -0.5488 -0.9687 -0.0143
11334SOL    HW235053   3.824   0.838   6.530 -1.7239  0.7673  1.3740
11335SOL     OW35054   4.540   2.153   2.332 -0.3982 -0.0433 -0.2004
11335SOL    HW135055   4.623   2.107   2.343  0.4543  1.1208 -1.4772
11335SOL    HW235056   4.516   2.179   2.421  0.3065 -0.8570  0.2507
11336SOL     OW35057   6.424   2.071   4.081  0.1251  0.0674 -0.3665
11336SOL    HW135058   6.412   2.166   4.075  2.0285  0.6518  2.9697
11336SOL    HW235059   6.506   2.054   4.035  0.1874  0.1652 -0.2919
11337SOL     OW35060   4.187   7.282   5.483  0.2588 -0.0150  0.2109
11337SOL    HW135061   4.130   7.355   5.509  0.8508 -0.0501  1.7229
11337SOL    HW235062   4.239   7.316   5.411  0.0488  0.8319  0.4498
11338SOL     OW35063   3.311   2.926   4.021  0.6513  0.3493  0.2085
11338SOL    HW135064   3.218   2.915   4.001  1.3381 -0.9000 -2.9347
11338SOL    HW235065   3.330   2.858   4.085 -0.3098 -0.5052 -0.3766
11339SOL     OW35066   3.838   2.146   1.895  0.1540  0.3801 -0.2688
11339SOL    HW135067   3.798   2.233   1.905 -0.0250  0.4231 -1.2171
11339SOL    HW235068   3.912   2.147   1.955 -1.3166  0.2526  1.6256
11340SOL     OW35069   2.524   8.263   7.601 -0.3461 -0.1888 -0.5622
11340SOL    HW135070   2.535   8.315   7.521  1.0439 -0.5064 -0.5997
11340SOL    HW235071   2.602   8.208   7.604 -0.3092 -0.0784  1.0865
11341SOL     OW35072   0.293   5.849   0.666 -0.0761 -0.2172  0.1234
11341SOL    HW135073   0.320   5.860   0.575 -0.8293  1.2086  0.0490
11341SOL    HW235074   0.315   5.932   0.708  1.4162 -1.2841  1.5776
11342SOL     OW35075   4.516   7.007   6.621 -0.0004  0.0803 -0.3994
11342SOL    HW135076   4.511   6.968   6.534 -0.2411  0.0175 -0.3575
11342SOL    HW235077   4.459   7.084   6.616 -0.7324 -0.4247 -0.0352
11343SOL     OW35078   2.338   1.992   2.532 -0.1041  0.3207 -0.2713
11343SOL    HW135079   2.245   2.014   2.537 -0.6868 -2.1145  1.8502
11343SOL    HW235080   2.340   1.904   2.495  1.3676  0.2836 -0.1722
11344SOL     OW35081   1.062   6.378   3.886  0.0700  0.2997  0.1964
11344SOL    HW135082   1.144   6.425   3.895  0.0136  0.2417  1.1591
11344SOL    HW235083   1.085   6.295   3.844  0.5088  0.2764  0.4824
11345SOL     OW35084   2.498   7.887   6.939 -0.0282  0.5455  0.1596
11345SOL    HW135085   2.436   7.848   6.878 -0.3059  0.8378  0.2545
11345SOL    HW235086   2.463   7.975   6.956 -0.6140  0.0521  1.6642
11346SOL     OW35087   6.394   7.015   0.059 -0.0953  0.1871 -0.0168
11346SOL    HW135088   6.487   7.002   0.081 -0.3065 -0.3422  0.6140
11346SOL    HW235089   6.392   7.012  -0.036  0.4463 -0.5305 -0.0216
11347SOL     OW35090   5.123   6.703   0.099 -0.1997  0.6248  0.0874
11347SOL    HW135091   5.132   6.626   0.043 -1.3469  0.4282  0.1588
11347SOL    HW235092   5.034   6.734   0.084 -0.4718  0.6795  1.6548
11348SOL     OW35093   4.519   6.889   3.018  0.2729 -0.3538  0.3566
11348SOL    HW135094   4.543   6.799   2.997 -0.6203 -0.4802 -0.1940
11348SOL    HW235095   4.436   6.903   2.973 -0.1139  0.4199  1.2684
11349SOL     OW35096   3.031   6.006   2.211 -0.0485  0.4463 -0.3881
11349SOL    HW135097   2.983   6.047   2.138  0.3944  1.3599 -0.1835
11349SOL    HW235098   2.983   6.035   2.289  0.5056  0.9211 -0.2174
11350SOL     OW35099   5.441   2.610   0.765 -1.1446  0.0582 -0.2853
11350SOL    HW135100   5.347   2.627   0.774 -0.8235  2.0786 -0.0656
11350SOL    HW235101   5.480   2.659   0.838  0.0799 -0.7174 -0.4094
11351SOL     OW35102   1.311   7.845   7.807 -0.1082 -0.2730  0.7950
11351SOL    HW135103   1.339   7.786   7.876  3.0444  1.0656  0.7974
11351SOL    HW235104   1.353   7.812   7.727 -0.0357  0.7266  0.3990
11352SOL     OW35105   0.350   5.162   7.055 -0.1109 -0.1753 -0.4909
11352SOL    HW135106   0.401   5.081   7.057  0.2890  0.0948  0.6496
11352SOL    HW235107   0.323   5.176   7.145 -0.5928  0.7098 -0.7603
11353SOL     OW35108   3.254   4.971   6.347 -0.0164  0.1855  0.0448
11353SOL    HW135109   3.291   5.057   6.328  0.6364 -0.4275 -1.6829
11353SOL    HW235110   3.171   4.990   6.391  0.2389  1.6781 -0.0508
11354SOL     OW35111   5.298   2.807   2.620 -0.3942 -0.2183 -0.3163
11354SOL    HW135112   5.248   2.754   2.682  0.5673 -0.4207  0.3192
11354SOL    HW235113   5.262   2.785   2.535 -2.1241  0.4692  0.1985
11355SOL     OW35114   7.576   0.417   3.352 -0.4576 -0.1397  0.3326
11355SOL    HW135115   7.590   0.508   3.377 -1.4587 -0.0255  0.5437
11355SOL    HW235116   7.486   0.398   3.380 -0.1846 -1.2661  0.5155
11356SOL     OW35117   0.553   5.861   1.855  0.0152  0.1829  0.4186
11356SOL    HW135118   0.458   5.863   1.864 -0.0404  1.0738 -0.2357
11356SOL    HW235119   0.586   5.863   1.945 -0.5786 -2.0491  0.7442
11357SOL     OW35120   7.136   3.473   4.045 -0.3595 -0.1283  0.0013
11357SOL    HW135121   7.084   3.461   3.966 -1.1239 -1.5379  0.6689
11357SOL    HW235122   7.164   3.384   4.069  2.3012  0.5486 -0.2587
11358SOL     OW35123   3.800   0.802   6.871 -0.5496 -0.3193  0.3927
11358SOL    HW135124   3.753   0.844   6.799 -0.1656  0.2096  0.4360
11358SOL    HW235125   3.888   0.841   6.866  0.1743 -1.9604 -0.2644
11359SOL     OW35126   2.928   6.317   7.658 -0.3982 -0.3247  0.4095
11359SOL    HW135127   2.945   6.375   7.733  1.1769  0.8726 -0.8050
11359SOL    HW235128   2.876   6.370   7.598 -0.4182 -0.7733  0.0233
11360SOL     OW35129   2.486   7.834   6.508  0.9242 -0.4960  0.2830
11360SOL    HW135130   2.512   7.927   6.508  0.8921 -0.4414 -1.5340
11360SOL    HW235131   2.568   7.787   6.524  1.2449 -0.1733 -0.3275
11361SOL     OW35132   6.475   1.671   0.602  0.6667  0.2069  0.1787
11361SOL    HW135133   6.422   1.703   0.675 -0.1002 -1.1387  0.2420
11361SOL    HW235134   6.448   1.723   0.527  0.0396  0.2727  0.4477
11362SOL     OW35135   4.320   2.313   6.735  0.0662  0.5973 -0.3947
11362SOL    HW135136   4.404   2.268   6.742 -0.1229  0.3385  0.4023
11362SOL    HW235137   4.261   2.248   6.698 -0.3113 -0.0022  1.1559
11363SOL     OW35138   5.351   4.251   5.649 -0.4780  0.1298 -0.3570
11363SOL    HW135139   5.438   4.266   5.611  0.6754 -0.5013  1.8256
11363SOL    HW235140   5.316   4.338   5.664 -0.3193  0.3937 -1.4077
11364SOL     OW35141   4.068   1.848   5.685 -0.0063  0.4911  0.0010
11364SOL    HW135142   4.061   1.921   5.624  2.7054 -1.1779 -2.5842
11364SOL    HW235143   4.002   1.785   5.655  1.4890 -0.4337 -1.5431
11365SOL     OW35144   0.487   2.492   6.127 -0.1895  0.1253 -0.5089
11365SOL    HW135145   0.401   2.454   6.109  0.3968 -0.4995 -2.2622
11365SOL    HW235146   0.544   2.453   6.060  2.3669 -2.5057  2.8600
11366SOL     OW35147   5.529   0.391   6.649 -0.5220 -0.1171 -0.2816
11366SOL    HW135148   5.595   0.447   6.609 -2.0945 -0.1592 -3.1719
11366SOL    HW235149   5.565   0.303   6.645 -1.2189 -0.3738 -3.2799
11367SOL     OW35150   4.126   3.841   4.885 -0.9098  0.4432  0.4969
11367SOL    HW135151   4.152   3.791   4.807 -0.7110 -1.2260  1.5709
11367SOL    HW235152   4.113   3.930   4.854  0.2286  0.0472 -1.2353
11368SOL     OW35153   4.064   3.003   0.725 -0.2357  0.2453  0.4424
11368SOL    HW135154   4.106   3.071   0.779 -1.1185  0.7399  0.5134
11368SOL    HW235155   4.132   2.977   0.663  0.1447  1.1318  0.4723
11369SOL     OW35156   6.939   0.429   2.260 -0.2367 -0.4228 -0.3790
11369SOL    HW135157   6.982   0.395   2.338 -0.3703 -0.2131 -0.2137
11369SOL    HW235158   6.886   0.356   2.228 -0.7596 -0.2809  0.1463
11370SOL     OW35159   4.050   1.728   7.524 -0.3137 -0.0536  0.4480
11370SOL    HW135160   3.988   1.799   7.541 -0.7213  0.3240 -2.2117
11370SOL    HW235161   4.130   1.756   7.568 -0.8605  1.4164  0.5704
11371SOL     OW35162   7.663   7.233   7.422 -0.0739  0.1405 -0.5765
11371SOL    HW135163   7.622   7.314   7.453  0.2213 -0.7462  2.4129
11371SOL    HW235164   7.699   7.192   7.501  0.2943 -2.6437 -2.0615
11372SOL     OW35165   4.991   2.334   5.742 -0.3288  0.2791  0.1142
11372SOL    HW135166   4.971   2.240   5.735  1.1939 -0.0529 -0.0193
11372SOL    HW235167   5.015   2.346   5.834 -1.2285  0.7060  0.3062
11373SOL     OW35168   3.766   5.150   3.398  0.1157  0.1980 -0.1517
11373SOL    HW135169   3.835   5.198   3.444  1.1783 -0.3606 -1.1165
11373SOL    HW235170   3.705   5.124   3.467  1.1079  0.2918  0.7887
11374SOL     OW35171   8.162   4.639   7.736 -0.2036  0.1927  0.0139
11374SOL    HW135172   8.175   4.581   7.812 -2.3172  0.0531  0.3329
11374SOL    HW235173   8.244   4.686   7.728  0.9326 -1.5275  0.9006
11375SOL     OW35174   4.559   8.152   3.399 -0.2732 -0.8514 -0.0142
11375SOL    HW135175   4.634   8.114   3.444 -0.1773  0.0900  0.6511
11375SOL    HW235176   4.597   8.213   3.336 -0.4629 -0.3354  0.3582
11376SOL     OW35177   0.941   6.660   1.740  0.1503 -0.1608  0.3166
11376SOL    HW135178   0.886   6.585   1.763  0.6787 -0.6998 -0.1176
11376SOL    HW235179   1.026   6.621   1.716  0.5542  0.6071  0.4586
11377SOL     OW35180   3.517   3.774   7.103 -0.1851  0.2170  0.0513
11377SOL    HW135181   3.454   3.777   7.031  0.2063  0.7589 -0.2726
11377SOL    HW235182   3.548   3.684   7.104 -1.6182 -0.3119  0.7932
11378SOL     OW35183   5.995   1.476   2.277 -0.4314 -0.0877 -0.2693
11378SOL    HW135184   5.924   1.414   2.261 -0.8470  0.5291 -0.8382
11378SOL    HW235185   5.982   1.545   2.212  0.0148  0.6098  0.3726
11379SOL     OW35186   8.152   4.373   5.473  0.2794 -0.1070  0.0326
11379SOL    HW135187   8.240   4.360   5.509 -0.3876  0.6028  2.0281
11379SOL    HW235188   8.130   4.463   5.496 -1.5673 -0.7608  0.9637
11380SOL     OW35189   0.025   7.891   7.948 -0.4698 -0.2970  0.2048
11380SOL    HW135190   0.009   7.819   8.009  3.3830 -0.4994  1.2466
11380SOL    HW235191   0.032   7.848   7.862 -0.5367 -0.8293  0.4580
11381SOL     OW35192   7.353   2.005   8.125 -0.0694  0.5816  0.2574
11381SOL    HW135193   7.392   1.996   8.038  0.0193 -1.1163  0.4359
11381SOL    HW235194   7.330   2.097   8.131  0.6911  0.9111 -1.2349
11382SOL     OW35195   4.347   6.910   1.863  0.2530 -0.0513 -0.3666
11382SOL    HW135196   4.328   6.839   1.802  0.7004  0.9194 -1.6843
11382SOL    HW235197   4.424   6.953   1.826  0.2676  0.8259  0.6543
11383SOL     OW35198   1.244   6.609   0.577 -0.5956 -0.3093 -0.1280
11383SOL    HW135199   1.330   6.640   0.605  0.7621 -1.4520 -2.6993
11383SOL    HW235200   1.198   6.688   0.549  0.9806  0.0160 -2.0033
11384SOL     OW35201   2.431   4.471   6.671 -0.1951  0.3368  0.1690
11384SOL    HW135202   2.370   4.474   6.745 -0.7898  0.1779 -0.3107
11384SOL    HW235203   2.381   4.506   6.597 -0.3359 -1.5502 -0.6735
11385SOL     OW35204   2.190   7.037   2.223 -0.5348  0.5241 -0.8177
11385SOL    HW135205   2.207   6.975   2.294 -1.1622  1.4194  0.1599
11385SOL    HW235206   2.253   7.015   2.155  0.1177 -0.3399  0.0444
11386SOL     OW35207   4.226   0.990   8.096  0.5559  0.0812  0.3837
11386SOL    HW135208   4.202   1.075   8.060 -0.5891  0.0836  1.0932
11386SOL    HW235209   4.217   1.001   8.191  0.6521 -0.7539  0.4967
11387SOL     OW35210   7.784   4.066   1.398 -0.1764 -0.1020  0.0762
11387SOL    HW135211   7.852   4.059   1.331 -0.5066  0.8898 -0.3917
11387SOL    HW235212   7.731   3.987   1.387 -0.2800  0.0905 -0.9177
11388SOL     OW35213   2.492   5.629   3.638  0.3051 -0.0524  0.2786
11388SOL    HW135214   2.510   5.664   3.725  1.4782  1.2491 -0.4472
11388SOL    HW235215   2.398   5.613   3.638  0.4197 -0.9372  2.0684
11389SOL     OW35216   3.693   6.058   7.299  0.2483 -0.2800 -0.1513
11389SOL    HW135217   3.686   6.042   7.393  1.3396 -0.5510 -0.1033
11389SOL    HW235218   3.716   5.972   7.262  1.2914  0.1200 -0.4720
11390SOL     OW35219   4.752   1.555   1.635 -0.3030 -0.1630 -0.0245
11390SOL    HW135220   4.678   1.614   1.645 -1.5079 -1.6140 -0.0664
11390SOL    HW235221   4.808   1.574   1.711 -1.6647 -0.3475  1.0737
11391SOL     OW35222   1.969   0.953   5.228  0.2438 -0.3794 -0.7958
11391SOL    HW135223   1.908   0.943   5.155 -0.7598 -0.7262  0.0512
11391SOL    HW235224   1.990   1.047   5.229 -1.1596 -0.0339 -0.4564
11392SOL     OW35225   5.961   0.556   3.148  0.0729 -0.7402  0.2498
11392SOL    HW135226   5.900   0.515   3.086 -0.2415  2.0211 -1.4388
11392SOL    HW235227   5.911   0.626   3.189  0.9401 -1.1210  2.0679
11393SOL     OW35228   6.296   0.710   5.132  0.5055 -0.3594  0.2679
11393SOL    HW135229   6.216   0.676   5.092  0.3737 -0.8137  0.9052
11393SOL    HW235230   6.320   0.785   5.078  1.5454 -2.1965 -2.0255
11394SOL     OW35231   1.813   5.329   3.769  0.4077 -0.0966 -0.6174
11394SOL    HW135232   1.778   5.240   3.763  0.0863 -0.2447  2.0992
11394SOL    HW235233   1.884   5.322   3.833  0.9149  1.4570 -0.9655
11395SOL     OW35234   4.701   4.581   1.860  0.3590  0.3193 -0.2341
11395SOL    HW135235   4.795   4.563   1.864  0.0464 -1.2384  1.0471
11395SOL    HW235236   4.662   4.498   1.835 -0.7021  0.8751 -0.4591
11396SOL     OW35237   5.074   3.398   5.670 -0.4424 -0.1221 -0.0291
11396SOL    HW135238   5.166   3.406   5.694 -0.6250 -0.1783  0.7468
11396SOL    HW235239   5.065   3.310   5.634 -0.3964 -0.5334  0.9201
11397SOL     OW35240   0.674   1.876   7.885 -0.1162  0.0949  0.5976
11397SOL    HW135241   0.699   1.823   7.961  3.5193 -0.8284 -1.0047
11397SOL    HW235242   0.619   1.818   7.833  0.4440 -0.6504  0.8126
11398SOL     OW35243   1.361   0.369   7.685 -0.1624  0.2330 -0.3986
11398SOL    HW135244   1.317   0.400   7.606  0.0881  1.7983  0.0504
11398SOL    HW235245   1.295   0.314   7.728 -2.0587  3.0884  0.6122
11399SOL     OW35246   4.869   4.630   2.564  0.0885 -0.0490 -0.7075
11399SOL    HW135247   4.900   4.706   2.613  0.7209 -1.1967  0.7566
11399SOL    HW235248   4.947   4.596   2.521  0.2344 -0.9824  0.2459
11400SOL     OW35249   7.695   3.977   4.605  0.0653 -0.0330  0.5335
11400SOL    HW135250   7.766   4.040   4.615  1.0483 -1.0503  0.1495
11400SOL    HW235251   7.620   4.018   4.648  1.0346  0.8016  1.4744
11401SOL     OW35252   6.174   2.367   6.634 -0.1154  0.0648 -0.4637
11401SOL    HW135253   6.158   2.415   6.716 -0.1022 -0.7386  0.0175
11401SOL    HW235254   6.242   2.304   6.656  0.3512  0.2665 -1.2712
11402SOL     OW35255   4.786   6.981   2.939  0.4309  0.2469 -0.0294
11402SOL    HW135256   4.694   6.958   2.943  0.4322  0.0505 -1.0486
11402SOL    HW235257   4.789   7.072   2.970  0.0482 -0.0996  1.0597
11403SOL     OW35258   4.352   3.955   3.177  0.3937  0.4924 -0.5478
11403SOL    HW135259   4.264   3.989   3.160  0.5910  0.5668 -1.4457
11403SOL    HW235260   4.338   3.881   3.235 -0.2105  0.8623 -0.2080
11404SOL     OW35261   5.393   5.453   2.618  0.1744 -0.2446  0.5312
11404SOL    HW135262   5.482   5.447   2.654  0.7833  0.0888 -0.8523
11404SOL    HW235263   5.343   5.500   2.685  0.6664 -1.6638  1.9552
11405SOL     OW35264   2.434   3.227   3.174  0.1235  0.0990  0.0411
11405SOL    HW135265   2.341   3.251   3.173  0.1068  0.0269 -0.2377
11405SOL    HW235266   2.474   3.289   3.235 -0.0423  0.3683 -0.1250
11406SOL     OW35267   7.201   7.626   1.773  0.4786 -0.2754  0.2259
11406SOL    HW135268   7.129   7.567   1.795  1.4220 -1.5264  0.0832
11406SOL    HW235269   7.180   7.659   1.685 -0.0521 -0.3901  0.3078
11407SOL     OW35270   2.016   5.583   5.481 -0.1735 -0.7863  0.5912
11407SOL    HW135271   1.972   5.498   5.484 -1.8676  0.0649  1.2890
11407SOL    HW235272   1.969   5.636   5.545 -1.2412  1.6282 -1.9906
11408SOL     OW35273   7.316   4.599   4.333 -0.0551  0.1398 -0.0866
11408SOL    HW135274   7.311   4.573   4.241  0.0195 -0.1353 -0.0139
11408SOL    HW235275   7.409   4.608   4.351 -0.0676  0.1513 -0.0260
11409SOL     OW35276   1.158   0.182   7.813  0.0744 -0.1314 -0.1035
11409SOL    HW135277   1.185   0.223   7.895 -1.3848  1.0200 -0.1589
11409SOL    HW235278   1.126   0.095   7.840  1.2331 -0.4497  0.2936
11410SOL     OW35279   6.980   7.247   2.899 -0.3228 -0.1074 -0.2801
11410SOL    HW135280   6.909   7.245   2.834 -1.2828 -2.1604  0.7503
11410SOL    HW235281   7.011   7.157   2.904  0.6441  0.2766  1.1432
11411SOL     OW35282   7.016   7.479   2.008 -0.1994  0.3736  0.3275
11411SOL    HW135283   6.967   7.528   2.075  0.1447 -0.5270  1.2662
11411SOL    HW235284   7.099   7.458   2.050  0.2044  0.1712 -0.5551
11412SOL     OW35285   2.091   0.604   1.580  0.4564 -0.1631  0.6436
11412SOL    HW135286   2.103   0.574   1.490  3.2232 -0.8167  1.1555
11412SOL    HW235287   2.027   0.543   1.618  1.2815 -1.5408 -0.1334
11413SOL     OW35288   5.085   5.162   6.280 -0.3406  0.1552 -0.0288
11413SOL    HW135289   5.093   5.243   6.229 -2.1433  0.7219  0.5153
11413SOL    HW235290   5.065   5.095   6.215  1.4704  0.0445 -0.5219
11414SOL     OW35291   6.305   1.958   3.631  0.0429 -0.1663 -0.1738
11414SOL    HW135292   6.219   1.960   3.673 -0.6966  0.9173 -1.6390
11414SOL    HW235293   6.343   2.043   3.652 -0.4100  0.4662 -1.7537
11415SOL     OW35294   0.877   3.736   5.771  0.0845 -0.3302  0.0677
11415SOL    HW135295   0.925   3.805   5.724  0.8314 -0.8294  0.0989
11415SOL    HW235296   0.786   3.767   5.770  0.6583  1.6009  1.7463
11416SOL     OW35297   6.165   2.251   4.931 -0.1468  0.3097 -1.0191
11416SOL    HW135298   6.251   2.219   4.903 -0.0566 -1.0577  0.6306
11416SOL    HW235299   6.104   2.208   4.871  0.1693 -0.8345 -0.5546
11417SOL     OW35300   7.716   1.907   7.438 -0.0160 -0.0385 -0.5662
11417SOL    HW135301   7.804   1.871   7.444  0.4775  1.2953  1.0131
11417SOL    HW235302   7.718   1.964   7.361  0.7328  0.5410 -0.1281
11418SOL     OW35303   5.214   7.264   3.332  0.0236  0.1185 -0.0136
11418SOL    HW135304   5.271   7.252   3.408  0.5943  2.0775 -0.0764
11418SOL    HW235305   5.237   7.351   3.298 -1.1525 -0.1553 -1.6381
11419SOL     OW35306   3.898   1.058   7.988 -0.2267  0.1464  0.4285
11419SOL    HW135307   3.979   1.105   7.968 -1.0187  1.6598  0.6530
11419SOL    HW235308   3.916   0.968   7.963  0.1954  1.1257 -3.4360
11420SOL     OW35309   2.216   6.545   5.006  0.1564 -0.3474  0.4738
11420SOL    HW135310   2.303   6.544   5.046  1.0663 -1.7486 -1.3890
11420SOL    HW235311   2.199   6.638   4.989  1.3928 -0.0731  0.6334
11421SOL     OW35312   5.803   0.495   2.891  0.3383 -0.3866  0.4948
11421SOL    HW135313   5.753   0.576   2.898  0.6186 -0.1557 -0.1796
11421SOL    HW235314   5.868   0.511   2.823  0.4767 -1.1317  0.4348
11422SOL     OW35315   2.794   5.376   6.177  0.3341  0.3622  0.1725
11422SOL    HW135316   2.779   5.290   6.139  0.6999  0.3858 -0.0322
11422SOL    HW235317   2.854   5.360   6.250  0.3607  0.4366  0.1672
11423SOL     OW35318   6.278   1.319   4.125 -0.1742  0.7662 -0.3664
11423SOL    HW135319   6.308   1.297   4.213 -1.7877 -0.7291 -0.1487
11423SOL    HW235320   6.270   1.414   4.126  0.3306  0.8155  0.9269
11424SOL     OW35321   4.359   5.397   2.308  0.3445 -0.4296 -0.1861
11424SOL    HW135322   4.400   5.482   2.300 -0.5291 -0.1426 -2.4045
11424SOL    HW235323   4.418   5.347   2.365  1.8980  1.0205 -0.4364
11425SOL     OW35324   0.209   2.216   2.941 -0.0375  0.2746 -0.4891
11425SOL    HW135325   0.300   2.240   2.953 -0.1768  1.1138 -1.0507
11425SOL    HW235326   0.191   2.154   3.012  1.4662 -1.3695 -1.4691
11426SOL     OW35327   5.875   6.076   3.977  0.0230  0.5316  0.3451
11426SOL    HW135328   5.954   6.129   3.971 -0.6921  1.5501 -0.5367
11426SOL    HW235329   5.804   6.140   3.984 -0.8165 -0.3345 -0.0514
11427SOL     OW35330   2.757   3.242   3.904  0.0671  0.3169 -0.3706
11427SOL    HW135331   2.765   3.209   3.815  1.5474  0.2371 -0.2382
11427SOL    HW235332   2.744   3.336   3.894 -0.4008  0.2174 -0.6811
11428SOL     OW35333   7.755   0.230   3.433  0.0046 -0.5081 -0.2231
11428SOL    HW135334   7.809   0.295   3.478 -1.7372 -0.0267  1.2892
11428SOL    HW235335   7.689   0.281   3.386 -0.4497 -1.1252 -0.2777
11429SOL     OW35336   8.021   2.242   0.557  0.4770 -0.0411 -0.0807
11429SOL    HW135337   8.022   2.272   0.466 -0.4776 -0.0824 -0.1244
11429SOL    HW235338   8.112   2.227   0.579  0.8991  1.7997 -0.4173
11430SOL     OW35339   4.750   4.975   3.308 -0.4953 -0.0497 -0.5685
11430SOL    HW135340   4.700   4.898   3.335 -1.2643  0.7220  0.2881
11430SOL    HW235341   4.693   5.049   3.329  0.4594  0.7877 -0.8511
11431SOL     OW35342   3.146   2.800   3.182  0.0050 -0.3699 -0.2522
11431SOL    HW135343   3.215   2.833   3.239 -0.5379  1.5799 -0.6368
11431SOL    HW235344   3.187   2.791   3.097  0.2011 -0.8619 -0.1061
11432SOL     OW35345   4.630   6.622   2.873 -0.0094 -0.2360 -0.1481
11432SOL    HW135346   4.554   6.586   2.918 -0.5150  1.2292  0.2400
11432SOL    HW235347   4.703   6.605   2.932 -0.2808 -0.3717  0.1537
11433SOL     OW35348   5.398   4.345   7.376  0.0303  0.7297 -0.2918
11433SOL    HW135349   5.404   4.376   7.286 -0.2367  1.1341 -0.1774
11433SOL    HW235350   5.362   4.420   7.424 -1.2098  0.0614 -0.1161
11434SOL     OW35351   5.344   5.126   2.949  0.1920 -0.5828  0.6135
11434SOL    HW135352   5.297   5.052   2.912  0.9064  0.1159 -1.9483
11434SOL    HW235353   5.282   5.168   3.008 -2.0236 -0.4161 -1.6666
11435SOL     OW35354   3.170   0.222   7.171  0.0928 -0.4477 -0.1802
11435SOL    HW135355   3.094   0.190   7.122  1.1686 -2.5608 -0.6068
11435SOL    HW235356   3.133   0.260   7.250 -1.5481  1.0503 -1.5938
11436SOL     OW35357   7.800   7.237   2.670  0.5805 -0.0282 -0.3526
11436SOL    HW135358   7.757   7.316   2.636 -0.1571 -0.7020 -1.0268
11436SOL    HW235359   7.876   7.270   2.718  0.6756  1.0490 -1.2110
11437SOL     OW35360   3.972   3.931   3.573 -0.1204 -0.4513  0.4250
11437SOL    HW135361   3.970   3.942   3.478 -0.2661 -1.2542  0.3261
11437SOL    HW235362   3.885   3.898   3.596  0.0940 -0.7911  0.7639
11438SOL     OW35363   1.675   3.009   8.159 -0.4000  0.0685 -0.3152
11438SOL    HW135364   1.618   3.055   8.222  0.0749 -0.9342  0.8739
11438SOL    HW235365   1.657   2.916   8.174  1.6755 -0.2826  0.2250
11439SOL     OW35366   2.551   2.332   3.945  0.4993  0.3166  0.0143
11439SOL    HW135367   2.548   2.379   3.862  1.5782 -0.2044 -0.3313
11439SOL    HW235368   2.461   2.336   3.978 -0.1849 -0.3158 -1.6679
11440SOL     OW35369   7.733   6.075   7.207 -0.2221 -0.3344 -0.0689
11440SOL    HW135370   7.793   6.149   7.196  0.9406 -1.4571 -1.6106
11440SOL    HW235371   7.712   6.047   7.118 -0.5583 -1.9299  0.4763
11441SOL     OW35372   4.459   5.542   1.411 -0.6231 -0.0839 -0.5342
11441SOL    HW135373   4.475   5.526   1.318  0.3188 -2.5627 -0.0184
11441SOL    HW235374   4.372   5.507   1.427  0.1584 -1.9492 -0.0620
11442SOL     OW35375   2.563   4.478   4.778  0.3361  1.1993  0.2404
11442SOL    HW135376   2.622   4.467   4.853 -0.5083 -0.4017  0.7184
11442SOL    HW235377   2.605   4.429   4.707 -0.1573  0.4557  0.4485
11443SOL     OW35378   6.456   5.758   4.175 -0.2817 -0.2549  0.1733
11443SOL    HW135379   6.384   5.695   4.177  0.1936 -0.7903  1.6747
11443SOL    HW235380   6.534   5.707   4.196  0.0476  0.8810  1.9462
11444SOL     OW35381   0.654   3.680   6.150  0.5705  0.0847 -0.3621
11444SOL    HW135382   0.729   3.736   6.170 -0.7966  1.5991  0.8074
11444SOL    HW235383   0.639   3.632   6.232 -2.2965  2.9917  1.0306
11445SOL     OW35384   7.127   1.620   5.911 -0.0115  0.6109  0.4602
11445SOL    HW135385   7.195   1.633   5.845 -0.9002 -1.0498 -0.8794
11445SOL    HW235386   7.048   1.601   5.860 -1.7515  3.2935  1.9320
11446SOL     OW35387   3.768   0.355   7.776 -0.3561  0.1496  0.5642
11446SOL    HW135388   3.688   0.407   7.779  0.0059  0.8895 -1.1742
11446SOL    HW235389   3.839   0.420   7.785  0.0651 -0.2404  0.1160
11447SOL     OW35390   0.455   5.504   5.805  0.1901 -0.1066  0.4008
11447SOL    HW135391   0.371   5.462   5.824  0.8355 -0.4464  2.7863
11447SOL    HW235392   0.431   5.588   5.765 -1.2658 -0.4038  0.6009
11448SOL     OW35393   1.681   6.083   6.420 -0.0265  0.3973 -0.5924
11448SOL    HW135394   1.604   6.026   6.413  0.0257  0.2873 -0.3050
11448SOL    HW235395   1.694   6.094   6.515  1.7216 -1.5299 -0.5399
11449SOL     OW35396   0.952   1.209   8.199 -0.3713 -0.2844 -0.1316
11449SOL    HW135397   0.895   1.206   8.122  0.0662  0.5914 -0.5076
11449SOL    HW235398   0.927   1.133   8.251 -0.7693 -0.8030 -1.0711
11450SOL     OW35399   0.857   5.298   4.449 -0.1290  0.1118 -0.6374
11450SOL    HW135400   0.803   5.227   4.413  1.9305 -1.9018 -0.0511
11450SOL    HW235401   0.933   5.301   4.390 -0.6274  2.6043 -1.2400
11451SOL     OW35402   1.624   0.155   5.309 -0.5379  0.2201  0.4607
11451SOL    HW135403   1.691   0.210   5.350  0.0215 -0.5412  0.5928
11451SOL    HW235404   1.668   0.072   5.291 -1.4290 -0.2891  0.5175
11452SOL     OW35405   7.294   6.628   5.690 -0.6666 -0.0088 -0.8303
11452SOL    HW135406   7.340   6.710   5.675 -0.5768  0.4620  1.5697
11452SOL    HW235407   7.231   6.648   5.760 -0.5105 -2.0050 -0.0475
11453SOL     OW35408   3.579   3.140   7.954 -0.1720 -0.8053  0.3312
11453SOL    HW135409   3.570   3.234   7.968 -2.2343 -0.9498  0.2285
11453SOL    HW235410   3.583   3.130   7.859 -0.1789 -0.8445  0.3350
11454SOL     OW35411   5.106   7.519   4.919  0.2892  0.5596 -0.6992
11454SOL    HW135412   5.158   7.439   4.917  2.2174  1.7547 -0.4146
11454SOL    HW235413   5.051   7.514   4.841  1.8881 -0.0879 -1.8452
11455SOL     OW35414   5.564   0.883   8.245 -0.6074  0.0584  0.2631
11455SOL    HW135415   5.618   0.922   8.313 -2.1643 -0.3216  1.7961
11455SOL    HW235416   5.537   0.957   8.190 -0.2693  0.5460  0.7511
11456SOL     OW35417   2.058   7.599   7.119  0.1535  0.1567 -0.3933
11456SOL    HW135418   2.018   7.642   7.195  0.0591 -2.0493  0.8815
11456SOL    HW235419   2.144   7.570   7.149  0.4882  0.0358 -1.4201
11457SOL     OW35420   2.143   7.268   3.853  0.3861  0.6871  0.1154
11457SOL    HW135421   2.096   7.189   3.881  0.5040 -0.6191 -2.9822
11457SOL    HW235422   2.205   7.285   3.924 -0.9740 -0.8221  1.7672
11458SOL     OW35423   5.095   6.356   6.655 -0.4874 -0.2654  0.2660
11458SOL    HW135424   5.111   6.450   6.649  1.9714 -0.6854 -1.8435
11458SOL    HW235425   5.117   6.334   6.745  1.3797  0.8906  0.1586
11459SOL     OW35426   7.231   3.809   4.604 -0.4391 -0.2890 -0.5654
11459SOL    HW135427   7.217   3.730   4.552 -1.0667  0.9785 -2.4392
11459SOL    HW235428   7.253   3.877   4.539  0.2814  1.0467  0.9866
11460SOL     OW35429   7.958   1.282   6.598  0.1514  0.5245  0.4605
11460SOL    HW135430   7.895   1.285   6.669 -1.0672 -1.5907 -0.4464
11460SOL    HW235431   8.043   1.296   6.640 -0.6942  1.2569  2.0141
11461SOL     OW35432   7.360   0.173   6.947  0.3090 -0.3514  0.1532
11461SOL    HW135433   7.319   0.103   6.999  0.4893 -0.3215  0.3370
11461SOL    HW235434   7.287   0.227   6.918  0.0987 -0.9777 -0.5323
11462SOL     OW35435   8.004   2.614   2.034 -0.3515  0.1127 -0.6144
11462SOL    HW135436   7.987   2.534   1.985 -0.9186  1.2275 -2.3402
11462SOL    HW235437   7.918   2.653   2.047 -0.2056 -0.1396  1.3015
11463SOL     OW35438   2.248   2.327   8.023 -0.2638 -0.0276  0.3711
11463SOL    HW135439   2.269   2.420   8.028  2.0804 -0.5355  2.3995
11463SOL    HW235440   2.201   2.317   7.941 -0.6436  2.9298  0.1106
11464SOL     OW35441   2.478   2.904   4.328  0.1035 -0.0532 -0.1728
11464SOL    HW135442   2.434   2.884   4.411  0.7699  1.6830  0.6471
11464SOL    HW235443   2.569   2.922   4.352  0.0502  1.6595 -1.0805
11465SOL     OW35444   0.039   8.255   2.689 -0.2503 -0.1527 -0.1205
11465SOL    HW135445   0.013   8.312   2.617  2.0307  2.0843  0.6806
11465SOL    HW235446   0.088   8.312   2.748  0.6751 -2.6003  1.6239
11466SOL     OW35447   4.621   4.949   3.818 -0.2226 -0.7090  0.5259
11466SOL    HW135448   4.615   4.865   3.772  0.3395 -0.4203 -0.0943
11466SOL    HW235449   4.538   4.992   3.799 -0.6020 -1.1957  1.0166
11467SOL     OW35450   6.204   2.539   4.058 -0.6378  0.0250  0.2971
11467SOL    HW135451   6.241   2.532   4.146  0.2419  0.2250 -0.0459
11467SOL    HW235452   6.156   2.622   4.059  0.5766  0.7574  0.1722
11468SOL     OW35453   2.427   6.926   3.345  0.3761  0.2610 -0.0402
11468SOL    HW135454   2.450   6.980   3.268 -0.4855  0.6700 -0.0183
11468SOL    HW235455   2.507   6.927   3.398  0.4584  1.3619 -0.1410
11469SOL     OW35456   2.732   0.019   2.893 -0.3797  0.1703 -0.3064
11469SOL    HW135457   2.720  -0.012   2.983  1.6926 -0.6302 -0.2557
11469SOL    HW235458   2.750  -0.060   2.842  1.5743  0.8980 -0.8245
11470SOL     OW35459   2.540   8.056   2.058  0.1056  0.0963 -0.0175
11470SOL    HW135460   2.569   8.029   1.970  0.6992 -1.3571  0.5985
11470SOL    HW235461   2.505   7.976   2.097 -2.8755  1.3245  0.0548
11471SOL     OW35462   4.740   2.276   2.184 -0.0634 -0.5452 -0.5943
11471SOL    HW135463   4.729   2.314   2.097 -0.7045  1.8080  0.4517
11471SOL    HW235464   4.653   2.244   2.208 -0.5737  1.3726  0.2679
11472SOL     OW35465   5.662   2.498   0.156  0.2131  0.5702  0.5186
11472SOL    HW135466   5.674   2.592   0.166 -0.3658  0.7124 -0.0510
11472SOL    HW235467   5.574   2.481   0.188  0.5860  0.0939  1.3352
11473SOL     OW35468   2.823   3.746   2.456  0.3223 -0.3290 -0.4502
11473SOL    HW135469   2.854   3.678   2.515  0.6928  0.3222  0.1171
11473SOL    HW235470   2.832   3.828   2.506  0.0521  0.1586 -1.1782
11474SOL     OW35471   1.362   2.015   6.055 -0.4384 -0.1853  0.2591
11474SOL    HW135472   1.415   2.037   5.978 -0.2342 -0.7337  0.2412
11474SOL    HW235473   1.417   1.957   6.107 -0.7731 -0.2297  0.5688
11475SOL     OW35474   7.323   5.664   0.334 -0.2200  0.3927 -0.2324
11475SOL    HW135475   7.247   5.712   0.366 -0.3818  0.7518 -1.1322
11475SOL    HW235476   7.360   5.623   0.413 -0.7895  0.9776  0.3568
11476SOL     OW35477   4.739   6.789   5.351 -0.2394 -0.3944 -0.1834
11476SOL    HW135478   4.688   6.838   5.414 -0.5640 -1.3920  0.3598
11476SOL    HW235479   4.739   6.843   5.272  2.0553  1.9471  1.2802
11477SOL     OW35480   5.403   2.393   2.531 -0.3718 -0.0362  0.2839
11477SOL    HW135481   5.451   2.410   2.449  0.0388  2.2824  0.9322
11477SOL    HW235482   5.313   2.419   2.512 -0.1154  1.3011  0.7411
11478SOL     OW35483   6.535   7.852   1.810  0.1373  0.1045  0.3064
11478SOL    HW135484   6.564   7.777   1.862 -0.7018 -1.1423 -0.9545
11478SOL    HW235485   6.577   7.840   1.725 -1.9827 -0.3571 -0.7274
11479SOL     OW35486   0.711   0.271   4.331 -0.0192 -0.1162  0.2446
11479SOL    HW135487   0.684   0.354   4.292  1.0927  1.1236  1.9499
11479SOL    HW235488   0.658   0.264   4.410  1.8115  0.4242  1.5901
11480SOL     OW35489   2.585   0.647   1.924 -0.1462 -0.3253 -0.7551
11480SOL    HW135490   2.528   0.656   1.848 -1.2016 -0.7089 -0.0366
11480SOL    HW235491   2.533   0.598   1.988  1.5280 -2.0600 -0.6087
11481SOL     OW35492   7.236   8.179   7.399  0.4201  0.2379 -0.8432
11481SOL    HW135493   7.141   8.178   7.402  0.4339  0.7943  0.4878
11481SOL    HW235494   7.264   8.111   7.460  0.8433  1.7539  0.7408
11482SOL     OW35495   4.560   0.778   7.221  0.1687  0.3066  0.0648
11482SOL    HW135496   4.487   0.764   7.281  1.1193 -0.4182  1.1226
11482SOL    HW235497   4.638   0.758   7.274  1.0107 -1.3252 -1.6707
11483SOL     OW35498   7.045   3.889   4.032 -0.2390 -0.0427  0.0920
11483SOL    HW135499   7.112   3.951   4.062 -0.9938 -0.5793  3.2401
11483SOL    HW235500   6.964   3.939   4.031 -0.2392 -0.0208 -1.3353
11484SOL     OW35501   6.310   3.084   2.126  0.3481  0.0806 -0.0411
11484SOL    HW135502   6.381   3.144   2.105  1.2217 -1.2311 -1.0058
11484SOL    HW235503   6.353   3.007   2.163 -0.7757  0.1547  1.4994
11485SOL     OW35504   6.098   8.041   5.952 -0.1151  0.1141 -0.3331
11485SOL    HW135505   6.180   8.049   6.000 -0.2131 -1.2133  0.0846
11485SOL    HW235506   6.030   8.037   6.019 -0.5087  0.8989 -0.6646
11486SOL     OW35507   2.711   2.933   6.086 -0.4037  0.2261 -0.3581
11486SOL    HW135508   2.714   3.026   6.063  1.5829  0.0474 -1.0916
11486SOL    HW235509   2.803   2.906   6.085 -0.8620 -1.5354  0.7859
11487SOL     OW35510   7.514   1.983   6.849 -0.2355 -0.1896 -0.4903
11487SOL    HW135511   7.468   2.066   6.850  0.3133  0.1171  0.1494
11487SOL    HW235512   7.469   1.930   6.916  0.8486  0.4138  0.7660
11488SOL     OW35513   4.912   6.921   2.712 -0.1733  0.2356 -0.0558
11488SOL    HW135514   4.853   6.917   2.787 -0.8019 -0.2515 -0.5566
11488SOL    HW235515   4.860   6.963   2.643  0.4889  0.9309 -0.1370
11489SOL     OW35516   0.131   0.995   0.880 -0.5493  0.4261 -0.2547
11489SOL    HW135517   0.065   1.048   0.836  0.1124  0.7310 -0.8920
11489SOL    HW235518   0.213   1.042   0.866 -0.2989  0.4644  1.2008
11490SOL     OW35519   0.072   1.732   2.692 -0.1913 -0.7864  0.0862
11490SOL    HW135520   0.126   1.653   2.685 -0.0594 -0.7265  0.3863
11490SOL    HW235521   0.131   1.797   2.732 -0.2022 -0.4443 -0.4485
11491SOL     OW35522   6.138   0.920   0.924  0.3083 -0.2015 -0.2403
11491SOL    HW135523   6.218   0.933   0.975  0.1278  0.9081 -0.2060
11491SOL    HW235524   6.074   0.980   0.963 -0.2802 -0.4300 -0.8207
11492SOL     OW35525   2.019   4.984   1.407 -0.3825 -0.2171 -0.1419
11492SOL    HW135526   1.927   4.960   1.413 -0.3728  0.0107  1.2228
11492SOL    HW235527   2.062   4.906   1.373 -0.8812 -0.8524  0.6358
11493SOL     OW35528   1.726   6.183   6.712 -0.6056  0.5393  0.5459
11493SOL    HW135529   1.687   6.184   6.800 -0.6743  2.6070  0.5524
11493SOL    HW235530   1.745   6.275   6.694  4.3429 -0.2132  0.5494
11494SOL     OW35531   0.136   2.458   0.651  0.0224  0.4279 -0.5687
11494SOL    HW135532   0.125   2.427   0.561 -1.5540  2.6607 -1.2342
11494SOL    HW235533   0.055   2.434   0.695  1.0221 -1.1625  0.4684
11495SOL     OW35534   5.230   3.613   6.502  0.5155  0.2275 -0.4022
11495SOL    HW135535   5.216   3.523   6.475 -0.0768  0.2437 -0.1501
11495SOL    HW235536   5.245   3.608   6.597 -0.7992  0.5149 -0.1620
11496SOL     OW35537   4.951   5.253   7.211  0.0019  0.1779  0.5974
11496SOL    HW135538   5.000   5.268   7.130 -0.2832 -3.1154 -0.3077
11496SOL    HW235539   4.870   5.302   7.198  0.7332  1.2304 -0.2471
11497SOL     OW35540   4.702   6.348   1.093 -0.5569 -0.2454  0.4248
11497SOL    HW135541   4.750   6.420   1.133  0.4597 -0.4017 -0.4654
11497SOL    HW235542   4.661   6.386   1.016 -0.5187 -0.4792  0.2876
11498SOL     OW35543   5.130   4.838   0.092  0.3727  0.0649  0.1046
11498SOL    HW135544   5.111   4.932   0.094  0.9808  0.1932  1.8627
11498SOL    HW235545   5.218   4.833   0.054  0.9631  0.3730  1.3590
11499SOL     OW35546   1.579   4.748   6.935  0.4304 -0.2855  0.3114
11499SOL    HW135547   1.519   4.823   6.934 -0.0468 -0.6195 -1.8874
11499SOL    HW235548   1.650   4.773   6.877  1.7669 -0.4430  1.8297
11500SOL     OW35549   5.171   2.484   5.596  0.4187 -0.5486 -0.4919
11500SOL    HW135550   5.144   2.418   5.661 -0.0010 -1.1242 -1.2308
11500SOL    HW235551   5.103   2.479   5.528  2.3158 -2.0522 -2.4290
11501SOL     OW35552   5.775   1.534   4.502  0.6265  0.2553  0.4442
11501SOL    HW135553   5.817   1.518   4.417 -0.6597  1.9371 -0.5772
11501SOL    HW235554   5.693   1.484   4.498  0.9084 -0.2666  1.0262
11502SOL     OW35555   5.572   4.117   4.526  0.3300 -0.2058 -0.1808
11502SOL    HW135556   5.517   4.169   4.585  0.3754 -0.4589  0.0883
11502SOL    HW235557   5.561   4.158   4.440 -0.4552 -0.3836 -0.1736
11503SOL     OW35558   4.915   4.194   1.062  0.3292  0.3227  0.4680
11503SOL    HW135559   4.923   4.289   1.070  0.6046  0.2579  0.9895
11503SOL    HW235560   5.001   4.165   1.032  0.3342  0.2033  0.6002
11504SOL     OW35561   5.998   3.072   1.536  0.6233  0.4016  0.2770
11504SOL    HW135562   6.071   3.104   1.483  0.0171  0.0178 -0.8087
11504SOL    HW235563   6.007   2.977   1.536  0.4389  0.3801  0.6058
11505SOL     OW35564   3.336   5.796   1.680 -0.1155  0.9238  0.5371
11505SOL    HW135565   3.277   5.864   1.712 -1.2357  0.4873 -0.5311
11505SOL    HW235566   3.375   5.833   1.600  0.4065  0.8702  0.7589
11506SOL     OW35567   5.758   1.133   5.027  0.1445  0.6822 -0.4956
11506SOL    HW135568   5.701   1.056   5.023  1.1296 -0.1100  0.1761
11506SOL    HW235569   5.808   1.130   4.946  0.7314  0.1592 -0.1230
11507SOL     OW35570   4.580   7.535   7.286  0.1672 -0.0433  0.1878
11507SOL    HW135571   4.581   7.448   7.326  0.8679 -0.1155  0.0213
11507SOL    HW235572   4.629   7.524   7.204  2.5113  1.0743  1.3600
11508SOL     OW35573   1.953   0.486   3.174  0.3886  0.1611  0.4672
11508SOL    HW135574   2.008   0.536   3.235  0.2279 -0.5620  1.2072
11508SOL    HW235575   1.904   0.553   3.126  1.1071  0.7678  0.5647
11509SOL     OW35576   1.463   5.288   2.363 -0.1509 -0.9948 -0.5855
11509SOL    HW135577   1.420   5.207   2.392  0.0912 -0.7888  0.3651
11509SOL    HW235578   1.548   5.259   2.328  0.7671 -1.0058  1.5027
11510SOL     OW35579   5.898   2.671   5.388 -0.5362 -0.4105  0.2180
11510SOL    HW135580   5.830   2.685   5.322 -0.4775 -0.7029  0.0955
11510SOL    HW235581   5.917   2.759   5.421 -1.1628 -0.3594  0.4487
11511SOL     OW35582   6.512   5.459   1.801  0.1407 -0.5896  0.4718
11511SOL    HW135583   6.571   5.393   1.767  0.8941 -0.6799  1.8736
11511SOL    HW235584   6.451   5.477   1.729  0.7725 -1.7868 -0.3898
11512SOL     OW35585   5.132   5.211   5.020 -0.2670 -0.2491 -0.0008
11512SOL    HW135586   5.188   5.158   4.963  0.0117  0.1936 -0.1459
11512SOL    HW235587   5.112   5.153   5.094  2.0758  0.1942  1.0792
11513SOL     OW35588   5.457   7.687   2.320  0.3869 -0.0824  0.6089
11513SOL    HW135589   5.426   7.776   2.336 -0.5819 -0.2237 -0.3875
11513SOL    HW235590   5.383   7.631   2.345  0.2851 -0.4968 -0.5836
11514SOL     OW35591   6.581   7.175   1.049  0.5692  0.1669  0.3730
11514SOL    HW135592   6.530   7.245   1.007  0.5143  0.7481  1.3920
11514SOL    HW235593   6.654   7.220   1.092  0.9767 -0.4855  0.3831
11515SOL     OW35594   8.232   5.123   1.880  0.7114  0.2338 -0.2463
11515SOL    HW135595   8.156   5.181   1.870  1.9628  2.0176 -0.0276
11515SOL    HW235596   8.231   5.099   1.972  0.1601 -0.1239 -0.3431
11516SOL     OW35597   7.082   3.575   1.719  0.1960  0.2110  0.0480
11516SOL    HW135598   7.172   3.606   1.732 -0.6698  1.8328  3.4291
11516SOL    HW235599   7.088   3.480   1.728  1.5399  0.3129  0.5177
11517SOL     OW35600   7.129   1.857   5.268 -0.7025  0.0471 -0.2569
11517SOL    HW135601   7.150   1.936   5.318 -2.3692  1.0056 -1.0084
11517SOL    HW235602   7.034   1.858   5.260 -1.0641 -3.2104  1.5842
11518SOL     OW35603   3.315   5.033   3.547 -0.2196 -0.0797  0.1010
11518SOL    HW135604   3.325   5.098   3.616 -1.5655 -1.0562  1.2837
11518SOL    HW235605   3.273   5.080   3.475 -1.6554  0.2676  1.1366
11519SOL     OW35606   4.819   5.036   3.982  0.3112  0.1688  0.1922
11519SOL    HW135607   4.859   4.949   3.974 -0.8577 -0.3795  0.0786
11519SOL    HW235608   4.745   5.034   3.922 -0.7822  0.6159  1.4707
11520SOL     OW35609   3.652   7.401   8.172  0.0447  0.1635 -0.0619
11520SOL    HW135610   3.667   7.331   8.108 -0.1370 -1.5255  1.6230
11520SOL    HW235611   3.557   7.411   8.175  0.1381  1.8009 -1.5838
11521SOL     OW35612   4.720   1.555   0.570  0.1355  0.6530 -0.1876
11521SOL    HW135613   4.729   1.532   0.662 -0.7714 -1.2536 -0.4999
11521SOL    HW235614   4.767   1.637   0.560  0.3688  0.8292  1.9351
11522SOL     OW35615   7.665   5.542   7.683 -0.2123  0.5221  0.2337
11522SOL    HW135616   7.738   5.537   7.744 -0.4139 -1.8198  0.3751
11522SOL    HW235617   7.600   5.481   7.719 -0.5293 -0.5632 -2.0259
11523SOL     OW35618   5.123   0.296   4.014 -0.1673 -0.4595 -0.3040
11523SOL    HW135619   5.141   0.311   4.107  2.4912  0.5020 -0.8591
11523SOL    HW235620   5.134   0.202   4.002  0.5558 -0.4568  0.2088
11524SOL     OW35621   1.852   1.873   6.724  0.3042  0.0089 -0.3142
11524SOL    HW135622   1.805   1.805   6.773 -1.0055  1.7868  1.0419
11524SOL    HW235623   1.841   1.952   6.777  3.2823  0.9377 -0.9229
11525SOL     OW35624   7.343   6.720   4.322 -0.3577  0.2425  0.0786
11525SOL    HW135625   7.389   6.654   4.270 -1.8141  1.1811 -2.6425
11525SOL    HW235626   7.405   6.746   4.389  0.8082 -2.7681  0.3411
11526SOL     OW35627   4.655   7.865   4.793 -0.2472  0.2071 -0.1896
11526SOL    HW135628   4.673   7.825   4.708  2.1370 -1.6069  1.0293
11526SOL    HW235629   4.594   7.805   4.836  2.4547 -1.7897  1.1981
11527SOL     OW35630   4.092   7.532   7.940  0.7231 -0.5260  0.2122
11527SOL    HW135631   4.132   7.509   8.024  1.6831  1.4058  0.3403
11527SOL    HW235632   4.043   7.612   7.958  0.5312 -0.3607 -0.9772
11528SOL     OW35633   6.240   6.644   7.192  0.2435  0.0822  0.3073
11528SOL    HW135634   6.335   6.644   7.203  0.3373  1.1039 -0.3466
11528SOL    HW235635   6.225   6.698   7.114 -0.8534 -0.3499  0.2022
11529SOL     OW35636   1.190   7.150   7.053 -0.0787  0.8515  1.0868
11529SOL    HW135637   1.255   7.134   6.985 -0.3393 -0.5117  1.1225
11529SOL    HW235638   1.115   7.187   7.007  0.0445  0.6960  0.7581
11530SOL     OW35639   4.146   0.463   1.982  0.6439 -0.4940  0.2923
11530SOL    HW135640   4.131   0.538   2.039  1.4710 -0.2147  0.1556
11530SOL    HW235641   4.241   0.449   1.985  0.5910 -1.0374 -0.3092
11531SOL     OW35642   3.057   7.457   2.200  0.4198 -0.2224  0.1189
11531SOL    HW135643   3.100   7.407   2.131  0.3364 -0.2776  0.1066
11531SOL    HW235644   2.987   7.505   2.155 -0.7612 -1.5980  0.4297
11532SOL     OW35645   1.573   5.125   5.320 -0.1134  0.3066  0.5229
11532SOL    HW135646   1.480   5.137   5.340 -0.3559  1.2494 -1.0341
11532SOL    HW235647   1.574   5.053   5.256  0.3182 -0.2401  1.1320
11533SOL     OW35648   3.785   0.221   2.058  0.5144 -0.1490  0.5276
11533SOL    HW135649   3.742   0.137   2.069 -1.4902  1.0497  2.9588
11533SOL    HW235650   3.804   0.250   2.148  0.2953  2.3786 -0.1746
11534SOL     OW35651   5.748   3.048   7.750  0.1599 -0.3018 -0.0641
11534SOL    HW135652   5.836   3.014   7.733 -0.5944 -2.4849  0.0584
11534SOL    HW235653   5.744   3.058   7.845  0.1485 -0.5842 -0.0342
11535SOL     OW35654   0.782   4.998   0.254 -0.1844 -0.1620  0.5324
11535SOL    HW135655   0.747   4.947   0.181 -2.6455  2.0191  0.0337
11535SOL    HW235656   0.727   4.974   0.328 -0.2400  0.4937  0.7073
11536SOL     OW35657   7.050   7.314   1.797  0.3254 -0.2189 -1.0139
11536SOL    HW135658   7.042   7.229   1.839 -0.6982  0.0058 -0.7264
11536SOL    HW235659   7.039   7.377   1.868  0.0434  0.1539 -1.3810
11537SOL     OW35660   5.525   0.597   0.931 -0.0415 -0.1818  0.3107
11537SOL    HW135661   5.524   0.515   0.881  0.1420  0.6934 -1.1901
11537SOL    HW235662   5.614   0.603   0.965  1.1878  1.1456 -2.7372
11538SOL     OW35663   0.553   1.830   4.287 -0.2081 -0.2909 -0.8179
11538SOL    HW135664   0.569   1.900   4.350  1.4814  0.6858 -2.2607
11538SOL    HW235665   0.457   1.828   4.277 -0.5628 -0.6244  1.8547
11539SOL     OW35666   2.408   8.083   0.497  0.3820 -0.4061  0.2197
11539SOL    HW135667   2.313   8.079   0.481  0.2346 -0.2903  1.0145
11539SOL    HW235668   2.419   8.045   0.585  0.9947  0.1942  0.4147
11540SOL     OW35669   4.957   6.813   6.996 -0.3497  0.1723  0.6578
11540SOL    HW135670   4.925   6.727   7.025  1.7522 -0.6217  0.8238
11540SOL    HW235671   4.910   6.876   7.050 -1.8776 -0.8695  0.5941
11541SOL     OW35672   0.454   3.559   2.319 -0.1676 -1.0861 -0.2800
11541SOL    HW135673   0.385   3.610   2.361  1.4571 -0.0302  1.2206
11541SOL    HW235674   0.434   3.565   2.225 -2.5965 -1.5997  0.1482
11542SOL     OW35675   0.573   4.260   4.396 -0.1635 -0.6350  0.2172
11542SOL    HW135676   0.604   4.245   4.485  1.6584  0.8165 -0.0969
11542SOL    HW235677   0.627   4.333   4.364 -1.3957 -0.5145 -1.7554
11543SOL     OW35678   5.838   3.437   7.334 -0.2549 -0.3284 -0.1285
11543SOL    HW135679   5.791   3.508   7.289  1.3716  0.6735 -0.3322
11543SOL    HW235680   5.847   3.467   7.424 -1.8229 -1.4734  0.4404
11544SOL     OW35681   2.497   6.623   5.400  0.4222 -0.1491  0.0338
11544SOL    HW135682   2.491   6.677   5.478 -2.8136  1.3731 -1.0819
11544SOL    HW235683   2.494   6.533   5.433  3.0331  0.3049  1.7686
11545SOL     OW35684   6.407   2.922   3.653 -0.6112  0.7769 -0.3363
11545SOL    HW135685   6.417   2.902   3.746  0.9288  0.9311 -0.4326
11545SOL    HW235686   6.317   2.896   3.632 -0.1362 -1.9846  0.5333
11546SOL     OW35687   8.039   4.511   6.840 -0.0666 -0.2083 -0.2852
11546SOL    HW135688   8.131   4.492   6.826 -0.1681 -0.8718 -0.0772
11546SOL    HW235689   7.996   4.488   6.757 -0.1620 -0.6965 -0.1007
11547SOL     OW35690   4.572   4.160   6.240  0.0002  0.2761 -0.1369
11547SOL    HW135691   4.581   4.065   6.247 -0.3184  0.1472 -1.3887
11547SOL    HW235692   4.622   4.194   6.315  1.3483 -0.8289 -0.4881
11548SOL     OW35693   5.755   1.091   0.782 -0.3508  0.0079  0.3343
11548SOL    HW135694   5.751   1.130   0.694  0.1111  0.4038  0.4813
11548SOL    HW235695   5.750   0.997   0.767  0.9343  0.0020 -0.2213
11549SOL     OW35696   1.002   4.098   7.739  0.4557 -0.5309  0.3379
11549SOL    HW135697   1.009   4.041   7.815  0.2262 -0.0213  0.7463
11549SOL    HW235698   1.080   4.078   7.687  0.8626 -0.5427  0.9386
11550SOL     OW35699   1.824   2.026   7.828  0.4203 -0.2426 -1.0533
11550SOL    HW135700   1.815   1.985   7.914  1.0282 -0.6236 -1.1655
11550SOL    HW235701   1.906   1.991   7.794  0.6169  0.5688 -1.4288
11551SOL     OW35702   5.372   2.854   1.600  0.0507 -0.0973  0.2941
11551SOL    HW135703   5.405   2.900   1.523  0.1423  1.5204  1.2735
11551SOL    HW235704   5.384   2.761   1.579  1.7320  0.3513 -0.8992
11552SOL     OW35705   2.596   2.353   4.581  0.1683  0.0284 -0.8433
11552SOL    HW135706   2.516   2.339   4.631  0.1942 -0.2492 -0.8806
11552SOL    HW235707   2.665   2.310   4.632  0.5598  1.5255 -0.0432
11553SOL     OW35708   1.228   6.992   7.426 -0.2038 -0.3118  0.2231
11553SOL    HW135709   1.255   7.081   7.445  0.7047 -0.6699  0.6807
11553SOL    HW235710   1.145   6.981   7.474  0.3517 -0.1284  1.2582
11554SOL     OW35711   7.057   1.165   1.880  0.1712  0.6500 -0.0515
11554SOL    HW135712   6.984   1.124   1.833 -0.4117 -0.3478  1.6256
11554SOL    HW235713   7.024   1.250   1.907 -0.2709  0.3356  0.4122
11555SOL     OW35714   5.293   2.357   6.693 -0.4302 -0.1450  0.4362
11555SOL    HW135715   5.350   2.346   6.769 -2.9323 -1.0926  2.3338
11555SOL    HW235716   5.207   2.376   6.730 -1.4023  1.2770 -2.2638
11556SOL     OW35717   1.996   5.428   1.658 -0.1060 -0.0899  0.0394
11556SOL    HW135718   1.983   5.338   1.628 -0.8580  0.2217 -0.6051
11556SOL    HW235719   1.916   5.449   1.706 -0.5053  0.6686 -0.9275
11557SOL     OW35720   4.813   2.895   5.050 -0.6309 -0.2095 -0.5469
11557SOL    HW135721   4.767   2.830   5.103 -1.8803  0.3986 -0.8423
11557SOL    HW235722   4.851   2.845   4.978 -1.9526 -0.5780 -1.0189
11558SOL     OW35723   6.997   0.154   3.700 -0.8952  0.4174  0.2148
11558SOL    HW135724   7.064   0.216   3.672 -1.7773  0.7482 -1.3072
11558SOL    HW235725   6.915   0.191   3.668 -1.5325 -1.1365 -0.0395
11559SOL     OW35726   2.082   2.248   3.497  0.1996  0.1254 -0.2987
11559SOL    HW135727   2.137   2.240   3.419 -1.2368 -0.1537 -1.3097
11559SOL    HW235728   2.116   2.326   3.542  2.2158 -0.7352 -0.2132
11560SOL     OW35729   6.833   1.445   6.205  0.1386 -0.3417  0.3751
11560SOL    HW135730   6.827   1.539   6.185  1.9003  0.1790  1.9053
11560SOL    HW235731   6.883   1.408   6.132 -1.9657 -0.4496 -1.0637
11561SOL     OW35732   2.178   3.287   7.284  0.3158  0.0377 -0.3395
11561SOL    HW135733   2.228   3.288   7.203  1.8314 -2.4194  0.4359
11561SOL    HW235734   2.120   3.211   7.277 -0.6030  0.6503  0.3010
11562SOL     OW35735   4.030   7.122   6.674  0.3202  0.4778  0.1401
11562SOL    HW135736   4.047   7.043   6.725  0.7525  0.5621  0.1253
11562SOL    HW235737   4.036   7.193   6.737 -0.2979  0.4857  0.2000
11563SOL     OW35738   7.037   3.713   1.126 -0.1166  0.1137 -0.4068
11563SOL    HW135739   6.948   3.680   1.113 -0.0234 -0.1729 -0.3073
11563SOL    HW235740   7.078   3.651   1.185  0.2154  0.1384 -0.6075
11564SOL     OW35741   3.453   7.606   7.825 -0.2591  0.0550  0.0260
11564SOL    HW135742   3.530   7.554   7.849 -0.9143 -0.6475  0.6790
11564SOL    HW235743   3.379   7.547   7.841 -0.8603  0.1132 -2.1818
11565SOL     OW35744   4.458   3.536   5.079 -0.2922  0.4590  0.1762
11565SOL    HW135745   4.539   3.586   5.077  1.4646 -2.1006  1.3327
11565SOL    HW235746   4.391   3.598   5.108  0.9045  2.9788 -2.0302
11566SOL     OW35747   1.775   6.932   1.767  0.2580 -0.0622 -0.2079
11566SOL    HW135748   1.717   6.988   1.715  2.4609  1.5176 -1.1544
11566SOL    HW235749   1.741   6.937   1.856 -0.5433  1.5160 -0.5670
11567SOL     OW35750   0.153   0.147   0.632 -0.5599  0.0493 -0.0445
11567SOL    HW135751   0.094   0.077   0.604 -1.6525  0.8577  0.2054
11567SOL    HW235752   0.096   0.216   0.665  0.5553  0.5143  1.0105
11568SOL     OW35753   2.115   2.192   1.789 -0.2234  0.2173 -0.3413
11568SOL    HW135754   2.034   2.243   1.789  0.2432  0.9881 -1.2936
11568SOL    HW235755   2.089   2.106   1.822 -1.7713 -0.0584 -2.1205
11569SOL     OW35756   4.316   6.758   4.538  0.2612  0.8264  0.1223
11569SOL    HW135757   4.299   6.684   4.480  0.0441  2.1180 -1.5225
11569SOL    HW235758   4.321   6.719   4.626 -1.9388 -0.8391 -0.4179
11570SOL     OW35759   5.280   4.651   1.546 -1.0989 -0.1341  0.0010
11570SOL    HW135760   5.311   4.703   1.620  1.4108  0.0681 -1.1013
11570SOL    HW235761   5.189   4.678   1.534 -1.0224  1.1220  1.8636
11571SOL     OW35762   0.281   5.862   5.012 -0.3891 -0.6862  0.0548
11571SOL    HW135763   0.200   5.892   4.969 -0.1464  0.2487  0.2319
11571SOL    HW235764   0.310   5.937   5.062  1.7120 -0.2954 -1.6103
11572SOL     OW35765   5.985   3.306   3.756 -0.5360 -0.0985 -0.2778
11572SOL    HW135766   6.052   3.285   3.691 -2.1354 -2.5876 -1.3139
11572SOL    HW235767   5.904   3.314   3.705 -1.3133  1.1705  1.0821
11573SOL     OW35768   0.046   5.449   2.874  0.2166  0.0411  0.1375
11573SOL    HW135769   0.044   5.508   2.949 -1.9756 -0.1975  0.3282
11573SOL    HW235770   0.132   5.407   2.878  1.4257  2.4323  0.5783
11574SOL     OW35771   4.734   3.967   4.910 -0.2907  0.2035  0.1311
11574SOL    HW135772   4.820   3.965   4.951 -0.5425  0.0044  0.6678
11574SOL    HW235773   4.752   3.975   4.816  0.3311 -0.5863  0.1701
11575SOL     OW35774   2.224   6.553   5.760  0.2040  0.0178 -0.2342
11575SOL    HW135775   2.306   6.523   5.799  1.1528  0.0740 -2.0971
11575SOL    HW235776   2.170   6.474   5.756  1.3200 -0.7305 -1.7134
11576SOL     OW35777   5.989   5.668   0.450  0.4303 -0.1315 -0.1644
11576SOL    HW135778   6.009   5.590   0.501 -0.9898 -0.8325 -0.6178
11576SOL    HW235779   5.934   5.721   0.509 -0.0539 -0.2955 -0.4642
11577SOL     OW35780   3.449   3.084   7.362 -0.3945 -0.2657 -0.2186
11577SOL    HW135781   3.513   3.038   7.417  1.6524  1.1101 -1.2874
11577SOL    HW235782   3.381   3.020   7.345  0.5918 -1.7626  1.1672
11578SOL     OW35783   4.025   0.644   5.986 -0.2457 -0.4379 -0.1804
11578SOL    HW135784   4.094   0.654   6.053 -1.5791  0.5454  1.1153
11578SOL    HW235785   3.943   0.660   6.034 -1.2105  1.2967 -2.2429
11579SOL     OW35786   4.664   5.673   3.760 -0.2542  0.0235 -0.4906
11579SOL    HW135787   4.693   5.753   3.803  1.1065 -0.1314 -1.0353
11579SOL    HW235788   4.617   5.624   3.827 -1.6233  1.5209 -0.3209
11580SOL     OW35789   0.157   3.122   3.236 -0.1797 -0.3099 -0.2063
11580SOL    HW135790   0.232   3.099   3.291 -0.6998 -0.3646  0.5049
11580SOL    HW235791   0.104   3.042   3.233 -1.3534  0.3443  1.2265
11581SOL     OW35792   6.790   5.744   4.534 -0.3710  0.3312  0.8514
11581SOL    HW135793   6.785   5.839   4.524  0.7541  0.7018  3.1229
11581SOL    HW235794   6.701   5.718   4.557 -0.7232  0.7876  0.0625
11582SOL     OW35795   2.702   3.863   5.111  0.3552  0.1210  0.2007
11582SOL    HW135796   2.641   3.806   5.064 -0.7828 -0.1635  1.9358
11582SOL    HW235797   2.782   3.859   5.060 -0.5277 -0.9227 -1.1788
11583SOL     OW35798   6.007   5.638   1.796  0.0682  0.0462 -0.1319
11583SOL    HW135799   6.053   5.637   1.712  1.1423  0.7041  0.4091
11583SOL    HW235800   6.012   5.730   1.824  1.0628 -0.4065  1.3185
11584SOL     OW35801   5.884   5.153   6.349  0.5801  0.0496 -0.1704
11584SOL    HW135802   5.953   5.087   6.343  1.6513  0.9579  1.4701
11584SOL    HW235803   5.820   5.127   6.283  1.5029 -1.9827 -0.3247
11585SOL     OW35804   1.639   8.018   3.387 -0.0756  0.5330 -0.2412
11585SOL    HW135805   1.660   8.109   3.370  1.3646  0.4137  0.7598
11585SOL    HW235806   1.693   7.969   3.325 -0.6148  0.3289 -0.5627
11586SOL     OW35807   8.269   6.836   2.264  0.3791  0.7480 -0.5239
11586SOL    HW135808   8.331   6.877   2.203 -0.0350 -0.1372 -1.5818
11586SOL    HW235809   8.184   6.843   2.220  0.1340 -0.2520 -0.2353
11587SOL     OW35810   5.037   2.648   2.780 -0.4435 -0.0416 -0.2999
11587SOL    HW135811   4.964   2.627   2.722 -0.1625  1.1278 -1.1093
11587SOL    HW235812   5.006   2.722   2.833 -0.0764  0.0576 -0.2138
11588SOL     OW35813   4.600   4.427   7.827 -0.1914 -0.0959 -0.0777
11588SOL    HW135814   4.694   4.434   7.841 -0.2455 -1.2373  1.0043
11588SOL    HW235815   4.576   4.343   7.867 -2.2126  1.6484  2.6908
11589SOL     OW35816   1.036   7.843   5.892 -0.5082 -0.3225  0.2977
11589SOL    HW135817   0.962   7.898   5.868 -0.2048 -0.4168 -0.8690
11589SOL    HW235818   1.107   7.868   5.833 -0.4342 -2.1034 -0.4401
11590SOL     OW35819   2.980   4.246   3.059  0.3092 -0.4113  0.5345
11590SOL    HW135820   2.902   4.254   3.006  0.6794 -1.0289 -0.1310
11590SOL    HW235821   2.948   4.220   3.145 -0.1394 -2.7529 -0.2607
11591SOL     OW35822   5.771   0.145   2.067  0.4649  0.0610  0.2410
11591SOL    HW135823   5.691   0.170   2.021  0.2784 -1.7644 -0.5267
11591SOL    HW235824   5.802   0.226   2.107 -0.2565  1.4019 -1.7390
11592SOL     OW35825   2.549   7.543   0.006  0.1484 -0.2421  0.1843
11592SOL    HW135826   2.531   7.485   0.080 -0.3447 -0.3077  0.0214
11592SOL    HW235827   2.632   7.585   0.028 -0.4907  0.5053  1.2594
11593SOL     OW35828   4.237   7.951   7.719 -0.1709 -0.3057 -0.0156
11593SOL    HW135829   4.245   7.974   7.626  2.1185  0.3035  0.2758
11593SOL    HW235830   4.188   7.868   7.719  0.5095 -0.7599 -1.8293
11594SOL     OW35831   1.331   5.204   5.377 -0.1495 -0.3254  0.1849
11594SOL    HW135832   1.279   5.128   5.349 -0.7874  0.1689 -0.0030
11594SOL    HW235833   1.325   5.204   5.472  0.6323 -1.0402  0.2532
11595SOL     OW35834   1.639   5.489   3.639 -0.0542 -0.0371  0.8317
11595SOL    HW135835   1.699   5.420   3.663 -1.1252 -1.7582 -1.0866
11595SOL    HW235836   1.552   5.453   3.656 -0.6177  1.7072  1.8852
11596SOL     OW35837   2.045   0.532   1.289 -0.1946 -0.1772 -0.5119
11596SOL    HW135838   2.006   0.524   1.202 -0.7928 -1.3632 -0.1658
11596SOL    HW235839   2.139   0.519   1.275 -0.4130 -1.5790 -0.8657
11597SOL     OW35840   1.118   5.820   7.016 -0.0936  0.1934 -0.9413
11597SOL    HW135841   1.041   5.835   6.961  0.0553 -0.2338 -1.2721
11597SOL    HW235842   1.136   5.905   7.055 -0.6503  0.3315 -0.9709
11598SOL     OW35843   4.095   2.571   1.080 -0.2293  0.2544  0.3326
11598SOL    HW135844   4.015   2.554   1.129  0.5119 -0.7776  1.2434
11598SOL    HW235845   4.117   2.662   1.100 -1.6559  0.8681 -0.6984
11599SOL     OW35846   3.734   7.500   4.353  0.4183  0.1809 -0.1780
11599SOL    HW135847   3.740   7.590   4.384 -0.6728  0.2950 -0.2514
11599SOL    HW235848   3.711   7.449   4.431 -0.4242  0.1878 -0.4129
11600SOL     OW35849   6.334   4.216   5.012 -1.1788  0.1924 -0.1996
11600SOL    HW135850   6.366   4.209   4.922  0.4580  0.4187  0.3258
11600SOL    HW235851   6.356   4.132   5.052 -4.2051 -0.9403 -0.6274
11601SOL     OW35852   3.147   6.438   2.167 -0.2599 -0.1935 -0.4240
11601SOL    HW135853   3.188   6.518   2.202 -0.2762 -0.8088  1.0906
11601SOL    HW235854   3.189   6.367   2.216  0.1103 -1.1660 -2.1030
11602SOL     OW35855   7.513   7.420   2.068  0.1200  0.0842 -0.2579
11602SOL    HW135856   7.584   7.466   2.113 -0.5501  0.0395  0.8745
11602SOL    HW235857   7.510   7.460   1.981 -0.2026  1.9218  0.5623
11603SOL     OW35858   6.334   3.299   4.723  0.3739  0.2836  0.0510
11603SOL    HW135859   6.286   3.217   4.740  1.0989 -0.5098 -1.4772
11603SOL    HW235860   6.366   3.326   4.809 -1.2539 -0.1259  0.8402
11604SOL     OW35861   6.454   4.405   4.310  0.2483 -0.1103 -0.3146
11604SOL    HW135862   6.410   4.490   4.301 -1.3707 -0.9891 -1.2953
11604SOL    HW235863   6.515   4.402   4.236  0.0302  0.0469 -0.5020
11605SOL     OW35864   0.021   7.143   0.461 -0.3069 -0.5179 -0.1698
11605SOL    HW135865  -0.073   7.159   0.473 -0.6059  0.1888 -2.7703
11605SOL    HW235866   0.063   7.227   0.478 -0.0541 -0.8992  1.2685
11606SOL     OW35867   0.696   2.099   6.839  0.0301 -0.5061 -0.0287
11606SOL    HW135868   0.718   2.020   6.790 -1.5181 -0.3331 -1.0788
11606SOL    HW235869   0.738   2.170   6.790  1.4226 -0.6465  0.9157
11607SOL     OW35870   4.052   2.242   3.216  0.2192 -0.4773 -0.6520
11607SOL    HW135871   3.959   2.257   3.201  0.2393 -0.7507 -1.0912
11607SOL    HW235872   4.059   2.147   3.226  0.5550 -0.5545 -1.4820
11608SOL     OW35873   3.739   0.751   0.476  0.8073  0.2551  0.1731
11608SOL    HW135874   3.758   0.772   0.567  1.4179  1.6260 -0.2359
11608SOL    HW235875   3.645   0.766   0.467  0.4695 -1.2665  0.8971
11609SOL     OW35876   3.220   7.732   4.688  0.0715 -0.1393 -0.4088
11609SOL    HW135877   3.176   7.767   4.611  0.4860 -0.9498 -1.0292
11609SOL    HW235878   3.302   7.695   4.654  0.4633 -0.1144  0.4825
11610SOL     OW35879   4.625   0.663   6.515 -0.6503 -0.0389  1.1811
11610SOL    HW135880   4.660   0.611   6.588  0.3487  0.7710  1.3096
11610SOL    HW235881   4.633   0.606   6.439 -0.0306 -0.2686  1.4091
11611SOL     OW35882   0.288   7.828   8.018  0.1224 -0.7357 -0.0424
11611SOL    HW135883   0.359   7.881   7.981  1.2677 -2.2878 -0.2020
11611SOL    HW235884   0.209   7.858   7.974  0.6613  1.0020  0.0862
11612SOL     OW35885   2.189   5.455   1.411 -0.5777  0.0216 -0.1421
11612SOL    HW135886   2.243   5.380   1.435 -0.3640 -0.1094 -0.9997
11612SOL    HW235887   2.128   5.466   1.484 -1.0760 -1.4152 -0.3224
11613SOL     OW35888   1.566   8.192   5.934 -0.1576  0.0861  0.1798
11613SOL    HW135889   1.617   8.133   5.878  1.3566  0.7104  0.8273
11613SOL    HW235890   1.548   8.267   5.879 -0.4626 -0.1755 -0.0806
11614SOL     OW35891   5.705   7.629   3.556 -0.2277  0.0983 -0.9315
11614SOL    HW135892   5.672   7.599   3.641 -0.7723  1.0109 -0.8146
11614SOL    HW235893   5.726   7.548   3.509  0.3639 -0.4166  0.1778
11615SOL     OW35894   7.636   1.565   3.049 -0.4559 -0.2715  0.8542
11615SOL    HW135895   7.666   1.486   3.095  1.9118  0.3456  0.5247
11615SOL    HW235896   7.628   1.631   3.118 -0.3492 -0.2598  0.8563
11616SOL     OW35897   1.420   1.102   3.785 -0.1340  0.2314 -0.9433
11616SOL    HW135898   1.416   1.024   3.841  1.6239 -0.0968 -1.2221
11616SOL    HW235899   1.438   1.068   3.697 -0.2065  0.9012 -1.2211
11617SOL     OW35900   4.041   4.817   7.579 -0.1463  0.5935  0.3820
11617SOL    HW135901   4.040   4.759   7.502  0.7936 -0.1840  0.9243
11617SOL    HW235902   3.954   4.856   7.582 -0.5066 -0.1215 -0.5162
11618SOL     OW35903   7.931   7.820   1.934  0.2474 -0.0855 -0.5971
11618SOL    HW135904   7.985   7.818   1.855 -0.2389 -1.7803 -0.9314
11618SOL    HW235905   7.994   7.812   2.006  0.6882  1.4045 -0.7961
11619SOL     OW35906   4.377   6.155   4.639  0.0878  0.0703 -0.1700
11619SOL    HW135907   4.390   6.239   4.683  2.8542  0.0663 -0.7573
11619SOL    HW235908   4.364   6.178   4.547  1.5290 -0.1177 -0.4423
11620SOL     OW35909   7.674   5.421   8.275  0.1644 -0.1701  0.1947
11620SOL    HW135910   7.595   5.437   8.224 -0.0558  2.3589  1.1778
11620SOL    HW235911   7.646   5.362   8.345  0.0187 -2.0418 -1.3422
11621SOL     OW35912   2.905   7.643   0.911  0.3372  0.0510 -0.0967
11621SOL    HW135913   2.921   7.701   0.986  1.1410 -1.3376  0.8605
11621SOL    HW235914   2.872   7.701   0.843  0.0984  1.4620  1.1487
11622SOL     OW35915   0.428   6.394   7.412 -0.4292 -0.0955 -0.1378
11622SOL    HW135916   0.516   6.422   7.436 -0.4438 -1.0104  1.0281
11622SOL    HW235917   0.440   6.308   7.373 -0.7805 -0.0596 -0.3300
11623SOL     OW35918   1.662   7.451   6.297 -0.1832  0.0753  0.2806
11623SOL    HW135919   1.654   7.453   6.393  0.0071 -1.0065  0.3248
11623SOL    HW235920   1.692   7.539   6.274  0.9107 -0.0043  1.3214
11624SOL     OW35921   1.544   7.524   5.474  0.3293 -0.7902  0.2964
11624SOL    HW135922   1.461   7.481   5.492 -0.0756  1.0361  3.7755
11624SOL    HW235923   1.582   7.476   5.401 -2.2555 -3.7817  0.7407
11625SOL     OW35924   4.736   5.889   4.523  0.1954 -1.0657 -0.1969
11625SOL    HW135925   4.798   5.920   4.456 -2.3729 -0.9317 -2.7289
11625SOL    HW235926   4.721   5.797   4.501 -0.7140 -1.0152  0.1706
11626SOL     OW35927   1.283   0.966   1.076 -0.2648 -0.2423  0.1819
11626SOL    HW135928   1.316   0.947   1.164 -0.7481 -0.1470  0.3863
11626SOL    HW235929   1.190   0.944   1.080 -0.9077  2.2878  0.4794
11627SOL     OW35930   3.999   4.576   2.831  0.5001  0.3000  0.0882
11627SOL    HW135931   3.991   4.668   2.857  0.8234  0.2955  0.2086
11627SOL    HW235932   4.020   4.530   2.912  1.8846  0.3372 -0.2249
11628SOL     OW35933   0.309   6.661   6.986  0.2169  0.6545  0.4521
11628SOL    HW135934   0.372   6.646   6.915  0.2351  0.8426  0.4281
11628SOL    HW235935   0.247   6.588   6.978  0.3307  0.5657  0.3660
11629SOL     OW35936   6.898   0.942   4.621 -0.4141  0.1078 -0.2115
11629SOL    HW135937   6.957   0.913   4.552 -0.8847  1.2479 -1.1160
11629SOL    HW235938   6.810   0.927   4.586 -0.6546  0.7771  0.0938
11630SOL     OW35939   5.138   6.475   2.200 -0.2500  0.8731  0.1607
11630SOL    HW135940   5.219   6.431   2.226 -0.6667  1.5580  2.8546
11630SOL    HW235941   5.164   6.566   2.187 -0.6484  1.2089  1.5869
11631SOL     OW35942   2.851   2.252   6.926  0.0443 -0.6722  0.0773
11631SOL    HW135943   2.895   2.246   6.842 -0.9562  3.4804 -0.9436
11631SOL    HW235944   2.761   2.224   6.908 -0.0614 -0.1984 -0.1362
11632SOL     OW35945   7.734   1.873   4.604 -0.3676 -0.0784  0.1290
11632SOL    HW135946   7.794   1.832   4.542  0.1227  0.9447 -0.0978
11632SOL    HW235947   7.726   1.810   4.675 -2.2353 -2.0403 -1.6721
11633SOL     OW35948   1.404   5.368   6.731 -0.2495 -0.8037 -0.2798
11633SOL    HW135949   1.391   5.288   6.680  1.0420 -0.4602 -1.1958
11633SOL    HW235950   1.498   5.382   6.731 -0.2992 -0.2876  1.4743
11634SOL     OW35951   3.317   0.151   1.512 -0.0819 -0.3734  0.0343
11634SOL    HW135952   3.348   0.239   1.493 -0.1596 -0.6300 -1.3603
11634SOL    HW235953   3.396   0.096   1.508 -0.4101 -0.7690 -1.8607
11635SOL     OW35954   5.010   8.164   1.113 -0.1535 -0.1518 -0.3851
11635SOL    HW135955   5.036   8.145   1.203  0.2549 -1.0287 -0.6746
11635SOL    HW235956   4.937   8.104   1.097  1.3508 -1.8319 -1.4174
11636SOL     OW35957   2.983   4.643   5.360 -0.1327 -0.0544  0.0879
11636SOL    HW135958   3.033   4.724   5.364 -0.4094  0.1044  0.4055
11636SOL    HW235959   2.898   4.665   5.398  0.0054 -0.6492  0.7725
11637SOL     OW35960   0.065   4.555   1.989  0.1116 -0.2308 -0.0906
11637SOL    HW135961   0.062   4.463   2.015  0.2291  0.2580  1.7799
11637SOL    HW235962   0.007   4.599   2.051 -0.6570  0.8544 -1.5191
11638SOL     OW35963   5.675   4.843   1.143  0.4683  0.8510 -0.0288
11638SOL    HW135964   5.769   4.855   1.135  0.3099  0.9665 -2.2095
11638SOL    HW235965   5.654   4.878   1.230  2.3935  0.9679  0.4340
11639SOL     OW35966   5.238   5.739   5.713 -0.6048 -0.5875  0.5318
11639SOL    HW135967   5.231   5.727   5.808  1.9031  0.7375  0.9485
11639SOL    HW235968   5.308   5.679   5.686 -1.6686 -1.3704 -0.6173
11640SOL     OW35969   1.858   3.098   5.221 -0.5082  0.3083  0.2608
11640SOL    HW135970   1.922   3.168   5.235  0.5298 -0.5516 -0.0799
11640SOL    HW235971   1.884   3.029   5.282 -1.5572  0.2268  0.6348
11641SOL     OW35972   2.887   7.121   8.064  0.1679  0.0775  0.3585
11641SOL    HW135973   2.884   7.027   8.078 -2.6142  0.0748  0.3539
11641SOL    HW235974   2.913   7.131   7.973  0.5738 -0.6810  0.3834
11642SOL     OW35975   4.307   1.410   6.487 -0.3505  0.0731 -0.0652
11642SOL    HW135976   4.336   1.325   6.519  2.3443  0.3528 -1.4846
11642SOL    HW235977   4.367   1.473   6.527 -0.5221  0.9821 -1.1853
11643SOL     OW35978   1.035   3.191   0.186  0.3204 -0.6811  0.5866
11643SOL    HW135979   1.033   3.140   0.267 -1.0135 -2.0324 -0.2433
11643SOL    HW235980   1.108   3.156   0.136 -0.1574 -1.3325  0.3247
11644SOL     OW35981   8.067   3.790   3.530  0.4502  0.5561 -0.1513
11644SOL    HW135982   8.117   3.716   3.494 -1.5647 -1.7615  1.4582
11644SOL    HW235983   8.092   3.793   3.622 -0.4293  1.0764  0.0833
11645SOL     OW35984   1.050   6.382   3.541 -0.0888 -0.1007  0.3221
11645SOL    HW135985   1.093   6.464   3.565  0.8465  0.1250 -1.8781
11645SOL    HW235986   0.957   6.397   3.560  0.3900  0.3669  2.6243
11646SOL     OW35987   2.918   3.833   3.944 -0.2949 -0.1669 -0.1529
11646SOL    HW135988   2.897   3.800   4.031 -1.4644 -0.6218 -0.5751
11646SOL    HW235989   2.951   3.921   3.958  0.4764 -0.6004  0.8202
11647SOL     OW35990   3.680   5.323   5.451 -0.5390  0.2618  0.0170
11647SOL    HW135991   3.716   5.363   5.530 -0.6407 -0.5061  0.4655
11647SOL    HW235992   3.720   5.236   5.448 -2.3902 -0.6764  0.5955
11648SOL     OW35993   6.964   8.163   7.382  0.0896 -0.4746  0.3612
11648SOL    HW135994   6.953   8.113   7.301  0.9392  0.7531 -0.5707
11648SOL    HW235995   6.885   8.217   7.388  0.9330  1.0070 -0.8775
11649SOL     OW35996   6.068   6.258   3.939  0.5739 -0.0052  0.0138
11649SOL    HW135997   6.056   6.265   3.845 -1.4065  2.3555  0.3467
11649SOL    HW235998   6.110   6.341   3.964 -1.4797  0.6757  1.4742
11650SOL     OW35999   3.324   6.153   4.632  0.3964 -0.2003 -0.0739
11650SOL    HW136000   3.263   6.196   4.573  0.9759  0.2158 -0.3808
11650SOL    HW236001   3.409   6.189   4.609  0.9809 -1.8747 -0.6803
11651SOL     OW36002   6.543   1.640   5.707  0.1217 -0.0260 -0.0885
11651SOL    HW136003   6.607   1.605   5.645 -0.8664 -0.4557 -0.8984
11651SOL    HW236004   6.504   1.563   5.747  0.2879  0.2391  0.6046
11652SOL     OW36005   5.768   5.413   7.518  0.4680  0.2314 -0.2323
11652SOL    HW136006   5.803   5.389   7.604  1.0202  0.0267 -0.5095
11652SOL    HW236007   5.722   5.495   7.533  2.1132  1.1731 -0.0825
11653SOL     OW36008   3.241   6.623   7.962 -0.0602 -0.0361  0.2209
11653SOL    HW136009   3.278   6.535   7.970 -1.1901 -0.4963  0.5105
11653SOL    HW236010   3.288   6.674   8.029  1.5444 -0.0474 -0.8256
11654SOL     OW36011   4.951   3.067   0.229  0.5951  0.6513  0.0642
11654SOL    HW136012   4.882   3.097   0.170  1.0915  0.4155 -0.6552
11654SOL    HW236013   4.987   2.989   0.186  1.4054  0.8621  0.3447
11655SOL     OW36014   7.196   1.330   3.769 -0.0040 -0.0102 -0.1549
11655SOL    HW136015   7.220   1.246   3.808  2.1040  0.5064 -0.2012
11655SOL    HW236016   7.119   1.310   3.715 -0.0703 -1.7136  0.4989
11656SOL     OW36017   2.400   0.193   3.045 -0.0170  0.2629  0.2441
11656SOL    HW136018   2.472   0.216   3.103 -0.5342  0.8254  0.6792
11656SOL    HW236019   2.392   0.266   2.985 -0.8215  0.6480  0.7987
11657SOL     OW36020   1.023   5.469   2.558  0.2771  0.4772  0.0049
11657SOL    HW136021   0.968   5.459   2.480 -0.4718  1.4324  0.3806
11657SOL    HW236022   1.111   5.447   2.529 -0.4756 -2.5001 -0.2812
11658SOL     OW36023   1.821   2.712   5.967 -0.5213  0.5205  0.1394
11658SOL    HW136024   1.732   2.749   5.961 -0.7674 -0.2012 -1.0217
11658SOL    HW236025   1.821   2.665   6.050 -2.2369 -1.9084 -1.1121
11659SOL     OW36026   6.647   5.852   6.679 -0.2966 -0.2957 -0.2332
11659SOL    HW136027   6.574   5.911   6.700 -0.9911 -0.8012 -1.1285
11659SOL    HW236028   6.652   5.792   6.753 -1.5804 -0.9916 -0.6780
11660SOL     OW36029   1.080   6.726   4.638 -0.4205 -0.4600  0.5360
11660SOL    HW136030   1.032   6.805   4.613  1.8003  0.4487 -1.1266
11660SOL    HW236031   1.157   6.758   4.684  0.8420 -1.5925 -0.7083
11661SOL     OW36032   6.784   3.029   5.532 -0.3516 -0.2718 -0.7601
11661SOL    HW136033   6.834   3.032   5.614  0.8677  0.5673 -1.4986
11661SOL    HW236034   6.795   2.939   5.500 -1.2086 -0.7318  0.2067
11662SOL     OW36035   3.556   3.691   7.564  0.3164 -0.0704 -0.3772
11662SOL    HW136036   3.469   3.723   7.584 -0.5168 -1.3984 -1.6972
11662SOL    HW236037   3.603   3.766   7.527 -1.1390  0.0044 -2.1689
11663SOL     OW36038   7.869   6.104   5.270 -0.2933  0.2974  0.4789
11663SOL    HW136039   7.929   6.153   5.214  0.1126 -2.5068 -1.7583
11663SOL    HW236040   7.797   6.078   5.212 -0.0572 -2.3862  1.2478
11664SOL     OW36041   8.226   0.807   1.313 -0.1879 -0.0341  0.4388
11664SOL    HW136042   8.146   0.819   1.262 -0.6232  0.3590  1.2096
11664SOL    HW236043   8.295   0.844   1.258 -0.8788  1.9528  0.8366
11665SOL     OW36044   3.746   3.894   7.182  0.2426 -0.2347 -0.0857
11665SOL    HW136045   3.805   3.830   7.142 -0.6180 -0.9897 -0.1724
11665SOL    HW236046   3.658   3.867   7.154 -0.1447  1.0134 -0.1736
11666SOL     OW36047   0.474   1.667   3.918 -0.1366 -0.3859  0.3438
11666SOL    HW136048   0.424   1.596   3.877 -1.4066  0.8601 -0.3786
11666SOL    HW236049   0.407   1.728   3.949  0.9302  0.7784  0.4371
11667SOL     OW36050   5.499   5.164   0.331  0.1425  0.2355  0.6058
11667SOL    HW136051   5.477   5.153   0.424  1.9135 -1.2923  0.9010
11667SOL    HW236052   5.594   5.168   0.329  0.1232  0.7015 -1.1279
11668SOL     OW36053   0.399   3.998   5.975  0.1961 -0.3118 -0.2401
11668SOL    HW136054   0.357   4.080   6.001  0.6056  0.0269 -0.6110
11668SOL    HW236055   0.374   3.935   6.042  0.5064  0.3125  0.4711
11669SOL     OW36056   6.804   4.114   6.986  0.0272 -0.0455 -0.8038
11669SOL    HW136057   6.822   4.029   6.946 -1.4241 -0.7813  0.0052
11669SOL    HW236058   6.719   4.140   6.950  0.4674  1.0943 -1.0647
11670SOL     OW36059   3.812   7.649   4.863  0.3445  0.2139 -0.4806
11670SOL    HW136060   3.890   7.639   4.808 -0.5816  1.4344 -2.1100
11670SOL    HW236061   3.742   7.670   4.801 -1.1786 -0.3085  0.9936
11671SOL     OW36062   7.693   5.206   0.661 -0.1864 -0.2580  0.1362
11671SOL    HW136063   7.634   5.273   0.694  0.9018  0.2223  1.2018
11671SOL    HW236064   7.667   5.193   0.570  1.4911  3.8644 -1.1747
11672SOL     OW36065   7.662   4.543   0.551  0.1818 -0.0443 -0.2518
11672SOL    HW136066   7.709   4.479   0.498  0.3015  1.2192 -1.7315
11672SOL    HW236067   7.703   4.537   0.638  0.4780 -1.6311 -0.4636
11673SOL     OW36068   4.229   6.701   0.519 -0.0574  0.0215 -0.0727
11673SOL    HW136069   4.136   6.715   0.536  0.1920  1.3793  0.3070
11673SOL    HW236070   4.265   6.674   0.604 -0.1380 -0.7580 -0.2788
11674SOL     OW36071   3.062   5.862   4.398  0.7395 -0.6473  0.2812
11674SOL    HW136072   3.098   5.894   4.480 -1.2695 -0.5397  1.1731
11674SOL    HW236073   2.974   5.832   4.420 -0.6060  1.1058 -2.1296
11675SOL     OW36074   1.553   1.988   3.125  0.2127 -0.2693 -0.5122
11675SOL    HW136075   1.647   1.970   3.132  0.4113  0.5732 -0.8731
11675SOL    HW236076   1.544   2.035   3.042 -0.5930 -0.7160 -0.6919
11676SOL     OW36077   7.157   3.344   2.073 -0.5146  0.0065 -0.6163
11676SOL    HW136078   7.123   3.425   2.110 -0.3853 -0.0879 -0.2843
11676SOL    HW236079   7.081   3.301   2.033 -0.5699  0.3170 -0.8412
11677SOL     OW36080   5.083   4.143   5.864 -0.0098 -0.0468 -0.5156
11677SOL    HW136081   5.067   4.173   5.775  2.3262  1.5403 -0.4715
11677SOL    HW236082   5.177   4.127   5.868  0.6102  3.2698  2.5392
11678SOL     OW36083   4.709   3.586   2.115  0.4218 -0.1357  0.1520
11678SOL    HW136084   4.725   3.551   2.028  0.7206  0.0842  0.1179
11678SOL    HW236085   4.770   3.660   2.124  1.6808 -1.2477  1.2137
11679SOL     OW36086   0.543   5.401   3.065  0.1371 -0.4563 -0.3242
11679SOL    HW136087   0.580   5.480   3.025 -1.4447 -0.5455 -2.1302
11679SOL    HW236088   0.546   5.336   2.995  1.1360 -1.9516  1.0520
11680SOL     OW36089   7.905   4.593   1.463 -0.3378 -0.6272 -0.6301
11680SOL    HW136090   7.867   4.655   1.401  0.6666  1.5956  0.8300
11680SOL    HW236091   7.863   4.613   1.547  1.2713 -0.6800  0.2375
11681SOL     OW36092   3.639   0.499   6.442 -0.2873  0.6623  0.4373
11681SOL    HW136093   3.575   0.555   6.398 -0.9378 -0.3419  0.0786
11681SOL    HW236094   3.653   0.426   6.382 -0.0353  0.0380  1.2395
11682SOL     OW36095   5.142   1.641   5.349  0.5583  0.4594  0.0185
11682SOL    HW136096   5.101   1.716   5.392  0.2698  0.6048 -0.4919
11682SOL    HW236097   5.156   1.578   5.418 -3.2081 -0.8068 -0.1582
11683SOL     OW36098   0.639   4.731   6.285  0.3366  0.1026 -0.1078
11683SOL    HW136099   0.666   4.783   6.361  0.2708 -1.8802  1.3418
11683SOL    HW236100   0.586   4.792   6.233 -1.8952  0.8563  2.7811
11684SOL     OW36101   4.121   3.929   1.914 -0.4720 -1.1089 -0.1599
11684SOL    HW136102   4.214   3.909   1.912 -0.3611 -0.5721 -2.1825
11684SOL    HW236103   4.095   3.934   1.822 -2.1251  0.3984  0.3200
11685SOL     OW36104   5.254   1.726   0.180 -0.1243 -0.5017  0.3054
11685SOL    HW136105   5.320   1.791   0.206 -1.3195  0.7463  0.3229
11685SOL    HW236106   5.174   1.777   0.169 -1.3056 -2.1116  1.1548
11686SOL     OW36107   0.417   1.307   3.453 -0.0661 -0.0926 -0.1282
11686SOL    HW136108   0.361   1.379   3.424 -0.5856 -0.7819 -0.8959
11686SOL    HW236109   0.356   1.236   3.472  0.4087 -0.2060  1.0292
11687SOL     OW36110   7.890   6.830   5.625 -0.6675 -0.4150 -0.1582
11687SOL    HW136111   7.964   6.777   5.597  0.0393 -0.2158  1.2833
11687SOL    HW236112   7.822   6.766   5.647 -0.4174 -0.6535 -0.0728
11688SOL     OW36113   2.661   4.752   6.958  0.4063 -0.1515 -0.2770
11688SOL    HW136114   2.648   4.720   6.869  1.2352 -0.3862 -0.3203
11688SOL    HW236115   2.667   4.847   6.949 -2.1136  0.0872 -0.1453
11689SOL     OW36116   1.085   2.336   3.029 -0.0436 -0.4563  0.6294
11689SOL    HW136117   1.108   2.262   2.973  2.3579 -0.6227  1.7335
11689SOL    HW236118   1.070   2.297   3.115  1.0532  0.2683  1.1723
11690SOL     OW36119   5.614   5.345   6.362  0.1511 -0.0019  0.0553
11690SOL    HW136120   5.682   5.347   6.429  2.8682  0.3436 -2.5203
11690SOL    HW236121   5.585   5.254   6.359  0.0485 -0.0437  1.5365
11691SOL     OW36122   7.737   1.088   8.068  0.0752 -0.6079  0.1512
11691SOL    HW136123   7.738   1.085   7.972  0.7593  0.3540  0.1138
11691SOL    HW236124   7.647   1.112   8.090  0.1756  0.1876 -0.2899
11692SOL     OW36125   0.236   1.518   2.691 -0.4220 -0.2263 -0.5211
11692SOL    HW136126   0.256   1.436   2.645  1.6983  0.0397 -0.1961
11692SOL    HW236127   0.321   1.550   2.720 -1.4564  0.8582  1.5045
11693SOL     OW36128   5.739   4.230   3.355  0.1137 -0.5356  0.1109
11693SOL    HW136129   5.751   4.161   3.420  3.7923  0.9286  1.2898
11693SOL    HW236130   5.815   4.222   3.297 -0.1721  1.5327 -0.6516
11694SOL     OW36131   4.509   2.981   3.637 -0.1385  0.2667  0.2910
11694SOL    HW136132   4.512   2.950   3.727 -0.7449  0.6396  0.4480
11694SOL    HW236133   4.430   2.940   3.600  0.7915 -0.8961 -0.4625
11695SOL     OW36134   6.156   7.684   1.489  0.0855 -0.5127 -0.5843
11695SOL    HW136135   6.107   7.751   1.536  0.1000 -1.4548  0.8234
11695SOL    HW236136   6.090   7.631   1.444 -0.0650 -0.7137 -0.1265
11696SOL     OW36137   7.155   3.292   3.195  0.0266 -0.2332  0.0692
11696SOL    HW136138   7.220   3.282   3.265  0.5510  3.8119  0.3798
11696SOL    HW236139   7.202   3.267   3.116  1.3970  0.7758  0.5180
11697SOL     OW36140   4.323   1.592   6.242  0.4532  0.7175  0.1446
11697SOL    HW136141   4.416   1.570   6.234  0.7415  1.3567  1.4154
11697SOL    HW236142   4.287   1.524   6.298 -0.8294 -1.9085 -3.5098
11698SOL     OW36143   2.791   2.444   3.134 -0.0440  0.1190  0.4234
11698SOL    HW136144   2.816   2.526   3.091  0.9284 -0.5600 -0.3409
11698SOL    HW236145   2.874   2.399   3.150 -0.5788 -0.8093  0.6476
11699SOL     OW36146   5.500   2.310   6.509 -0.4048 -0.3588 -0.4128
11699SOL    HW136147   5.489   2.217   6.489 -1.9153  0.2782 -3.1287
11699SOL    HW236148   5.415   2.336   6.546 -0.3783  0.1618 -0.7165
11700SOL     OW36149   7.668   5.816   6.556  0.0863  0.2031  0.5035
11700SOL    HW136150   7.592   5.766   6.585  0.1049  0.5271  1.1070
11700SOL    HW236151   7.738   5.790   6.616  0.6478 -0.6102 -0.4548
11701SOL     OW36152   1.513   8.212   1.337 -0.6150  0.3905 -0.2923
11701SOL    HW136153   1.535   8.132   1.290  0.9060  1.2271 -1.0805
11701SOL    HW236154   1.421   8.229   1.315 -0.4054 -0.1225 -1.6528
11702SOL     OW36155   0.670   1.945   4.058 -0.2269  0.4025  0.4540
11702SOL    HW136156   0.644   1.894   4.134 -0.0784  0.9203  0.8651
11702SOL    HW236157   0.706   1.881   3.996 -1.0388 -0.1149  0.5114
11703SOL     OW36158   4.122   4.908   4.002 -0.4788 -0.0714  0.4992
11703SOL    HW136159   4.068   4.888   4.078 -0.9773 -0.2105  0.1114
11703SOL    HW236160   4.060   4.928   3.932 -0.0966 -1.4931 -0.3031
11704SOL     OW36161   3.220   5.024   1.350 -0.9978  0.7103 -0.1316
11704SOL    HW136162   3.147   5.085   1.364 -0.9414  0.3293  2.3105
11704SOL    HW236163   3.298   5.075   1.370 -0.6960  0.6600 -1.1253
11705SOL     OW36164   5.879   4.954   7.212 -0.3937  0.0646  0.0085
11705SOL    HW136165   5.968   4.968   7.244 -0.6751  0.1189  0.7739
11705SOL    HW236166   5.838   5.040   7.215 -0.4471  0.0605 -0.4453
11706SOL     OW36167   0.446   4.508   7.528  0.2022  0.4941 -0.0513
11706SOL    HW136168   0.535   4.485   7.499 -0.3475 -0.3208 -1.1667
11706SOL    HW236169   0.393   4.499   7.449 -1.1715 -0.6284  0.9680
11707SOL     OW36170   4.630   0.012   1.445  0.3692 -0.3318 -0.0223
11707SOL    HW136171   4.600   0.073   1.512  1.5911  1.2637 -0.8590
11707SOL    HW236172   4.716   0.045   1.419 -0.0909 -0.8430 -2.4189
11708SOL     OW36173   7.773   2.968   4.847 -0.9775 -0.5304 -0.7792
11708SOL    HW136174   7.766   2.873   4.853  0.7987 -0.7612 -1.7172
11708SOL    HW236175   7.862   2.988   4.877 -1.1884  0.8074 -0.9478
11709SOL     OW36176   1.143   4.094   3.547  0.2030  0.4715 -0.3431
11709SOL    HW136177   1.067   4.118   3.600  0.7880  1.6496  0.0069
11709SOL    HW236178   1.145   4.160   3.477 -0.7002 -1.1956 -2.0379
11710SOL     OW36179   3.060   6.862   3.267  0.3837 -0.0238  0.0867
11710SOL    HW136180   3.035   6.943   3.312 -1.3232 -0.0582 -0.6892
11710SOL    HW236181   3.056   6.794   3.334 -1.1256  0.0875  0.1454
11711SOL     OW36182   5.848   1.473   3.333 -0.6067  0.6471 -0.3681
11711SOL    HW136183   5.836   1.524   3.413 -1.7615 -0.3531  0.1228
11711SOL    HW236184   5.762   1.436   3.315 -0.4156  0.9956 -2.1929
11712SOL     OW36185   2.633   0.227   7.962 -0.1025  0.5823  0.1147
11712SOL    HW136186   2.678   0.152   7.923 -1.0890  0.4851 -0.9000
11712SOL    HW236187   2.699   0.296   7.968 -0.1081  0.9224 -2.6688
11713SOL     OW36188   3.117   3.065   0.111  0.4198  0.0073  0.0631
11713SOL    HW136189   3.122   3.054   0.016  1.9787  0.9743  0.0038
11713SOL    HW236190   3.135   2.978   0.146 -1.3598 -0.6340 -0.5105
11714SOL     OW36191   0.746   4.469   7.510 -0.1067 -0.0475  0.7743
11714SOL    HW136192   0.806   4.408   7.553  1.6216  0.7870 -0.3175
11714SOL    HW236193   0.749   4.548   7.564  1.9604  0.9529 -0.6620
11715SOL     OW36194   2.489   6.150   6.701 -0.0371 -0.1066  0.0433
11715SOL    HW136195   2.395   6.158   6.683  0.3572  1.0877 -1.8204
11715SOL    HW236196   2.528   6.128   6.616  1.4868  0.6166  0.5106
11716SOL     OW36197   7.545   1.536   3.335 -0.0902 -0.2517  0.4634
11716SOL    HW136198   7.477   1.535   3.401 -0.5546 -1.9427  0.0108
11716SOL    HW236199   7.621   1.574   3.379 -0.8223  0.0433  1.4971
11717SOL     OW36200   2.589   2.790   7.559  0.4961 -0.0023  0.4108
11717SOL    HW136201   2.641   2.762   7.635  0.5129 -0.0322  0.3882
11717SOL    HW236202   2.613   2.728   7.490  0.0806 -0.2987  0.5340
11718SOL     OW36203   6.333   3.103   3.361 -0.4076  0.0416 -0.4360
11718SOL    HW136204   6.242   3.110   3.392  0.2525  0.2471  1.6063
11718SOL    HW236205   6.347   3.184   3.312 -1.3035  0.0476 -0.6993
11719SOL     OW36206   2.009   1.800   6.973  0.1261 -0.3207 -0.0326
11719SOL    HW136207   2.013   1.733   6.905  2.6994 -0.7068  0.3809
11719SOL    HW236208   1.990   1.751   7.053 -1.0958 -0.1069 -0.1770
11720SOL     OW36209   5.032   1.375   0.747 -0.5891  0.1722  0.3875
11720SOL    HW136210   5.060   1.293   0.788 -1.5018  0.0065  0.6957
11720SOL    HW236211   4.939   1.363   0.731 -0.4618  0.6332 -0.8078
11721SOL     OW36212   1.612   8.012   1.823  1.0815 -0.2272  0.2164
11721SOL    HW136213   1.591   8.020   1.916  1.6030  2.5146  0.1915
11721SOL    HW236214   1.586   8.096   1.785 -0.2506 -1.6941 -2.4031
11722SOL     OW36215   2.647   5.367   0.836  0.3368 -0.3809 -0.4912
11722SOL    HW136216   2.735   5.367   0.796  0.9206 -0.2445  0.7556
11722SOL    HW236217   2.605   5.445   0.800  1.6436  0.9953  0.7855
11723SOL     OW36218   3.204   5.821   5.538  0.6275  0.0351 -0.0239
11723SOL    HW136219   3.212   5.766   5.617 -1.4998 -0.9083 -0.3900
11723SOL    HW236220   3.131   5.783   5.490 -0.5755  2.8421 -0.6184
11724SOL     OW36221   2.063   5.443   3.216  0.1717 -0.1150 -0.0817
11724SOL    HW136222   2.079   5.502   3.142 -1.1693 -0.4042 -0.6377
11724SOL    HW236223   2.071   5.498   3.293 -2.0116  1.0695 -0.6311
11725SOL     OW36224   2.174   3.341   7.549  0.0052 -0.2807  0.3353
11725SOL    HW136225   2.196   3.317   7.459  0.3053  3.4467 -0.7531
11725SOL    HW236226   2.079   3.351   7.550 -0.0414 -0.7228  0.5597
11726SOL     OW36227   6.456   4.871   3.093 -0.1865  0.0264  0.3072
11726SOL    HW136228   6.364   4.876   3.067 -0.1820 -1.3688 -0.1104
11726SOL    HW236229   6.461   4.792   3.147  0.8944 -0.3772 -0.3398
11727SOL     OW36230   7.477   4.672   7.683 -0.6089  0.5261  0.5424
11727SOL    HW136231   7.493   4.750   7.630 -0.9785  0.0165 -0.3567
11727SOL    HW236232   7.382   4.668   7.690 -0.6346 -0.2879 -0.1334
11728SOL     OW36233   4.717   5.155   5.229 -0.4967 -0.1838 -0.7463
11728SOL    HW136234   4.663   5.108   5.166 -0.9892  0.1495 -0.5830
11728SOL    HW236235   4.657   5.217   5.271 -0.3315 -0.8198  0.4911
11729SOL     OW36236   0.754   0.573   7.122  0.1633 -0.3848 -0.4418
11729SOL    HW136237   0.686   0.531   7.175 -0.8335  0.8926 -0.6595
11729SOL    HW236238   0.771   0.511   7.051 -0.1042 -1.1276  0.1335
11730SOL     OW36239   5.532   3.707   0.635  0.1085  0.0444  0.3602
11730SOL    HW136240   5.572   3.622   0.613  1.0899  0.9368 -1.5536
11730SOL    HW236241   5.440   3.696   0.613 -0.2630 -1.1973  2.2900
11731SOL     OW36242   2.383   0.967   5.856 -0.3874 -0.1254  0.0338
11731SOL    HW136243   2.420   0.884   5.827  1.0562  0.3009  0.5699
11731SOL    HW236244   2.342   0.946   5.940 -0.6449 -0.4321 -0.1643
11732SOL     OW36245   2.037   8.235   6.523  0.4774 -0.6602  0.5134
11732SOL    HW136246   2.101   8.213   6.455 -0.3324 -0.0979 -0.4497
11732SOL    HW236247   1.963   8.176   6.507 -0.6009  0.8961 -0.4308
11733SOL     OW36248   1.415   2.755   4.696  0.3470 -0.3613  0.7047
11733SOL    HW136249   1.453   2.724   4.614 -0.5788  0.3338 -0.0248
11733SOL    HW236250   1.320   2.754   4.680  0.2243  1.5122  1.0962
11734SOL     OW36251   8.014   6.779   1.379 -0.4718 -0.3926  0.0682
11734SOL    HW136252   8.035   6.755   1.289 -3.1105  0.5734 -0.8853
11734SOL    HW236253   7.925   6.747   1.393 -1.2395  2.0044  1.3088
11735SOL     OW36254   8.083   2.111   6.200  0.4633 -0.3873  0.0819
11735SOL    HW136255   8.056   2.029   6.160 -1.8979 -0.6498  1.9582
11735SOL    HW236256   8.073   2.096   6.294 -1.7174  2.4804  0.4661
11736SOL     OW36257   6.086   6.242   1.316  0.8768  0.7738 -0.0171
11736SOL    HW136258   6.133   6.191   1.382 -0.2484 -0.7268 -0.3036
11736SOL    HW236259   6.038   6.308   1.367  0.5952  0.1021  0.6091
11737SOL     OW36260   7.349   0.392   3.542  0.6427 -0.2289  0.8574
11737SOL    HW136261   7.258   0.406   3.517  1.1631 -1.5028 -2.2015
11737SOL    HW236262   7.345   0.370   3.635 -2.5303 -2.8304  0.2900
11738SOL     OW36263   1.645   6.564   5.420  0.0021 -0.1563 -0.0672
11738SOL    HW136264   1.626   6.482   5.373  0.4205 -1.5785  2.0961
11738SOL    HW236265   1.561   6.588   5.460  0.1187 -0.1125  0.1508
11739SOL     OW36266   1.106   0.945   0.380  0.1970  0.2402  0.1833
11739SOL    HW136267   1.188   0.926   0.335  1.1797 -0.7290  2.2347
11739SOL    HW236268   1.113   0.898   0.463 -2.6323 -0.2307  0.2588
11740SOL     OW36269   2.937   0.360   2.513  0.2531  0.4366  0.2184
11740SOL    HW136270   2.912   0.422   2.582  2.7392 -0.8697  2.4718
11740SOL    HW236271   2.976   0.415   2.445 -0.8171  1.6263  0.5174
11741SOL     OW36272   7.649   7.391   7.639 -0.0380 -0.1140  0.2616
11741SOL    HW136273   7.690   7.475   7.619 -0.2284 -0.3802 -1.3935
11741SOL    HW236274   7.699   7.357   7.713  0.3678  1.2099  0.6253
11742SOL     OW36275   1.178   0.437   4.023 -0.0713  0.1983  0.0364
11742SOL    HW136276   1.223   0.353   4.034  0.6285  0.9157  4.5126
11742SOL    HW236277   1.103   0.431   4.083 -0.1863  2.6458  0.2051
11743SOL     OW36278   3.022   8.004   3.652  0.0368  0.2176  0.4809
11743SOL    HW136279   3.056   7.945   3.719  0.0824  0.0937  0.3491
11743SOL    HW236280   3.093   8.066   3.636  0.0626  0.1859  0.4744
11744SOL     OW36281   2.598   6.457   7.691 -0.6668  0.1727  0.2939
11744SOL    HW136282   2.570   6.366   7.703 -0.9090  0.1213 -0.6143
11744SOL    HW236283   2.628   6.461   7.601  0.5689  0.6832  0.7055
11745SOL     OW36284   1.572   1.174   6.952  0.2638  0.0641 -0.2122
11745SOL    HW136285   1.526   1.250   6.989  1.3241  1.2391 -1.1763
11745SOL    HW236286   1.645   1.159   7.011 -0.1495 -0.4551  0.1754
11746SOL     OW36287   5.307   7.501   8.217  0.0113 -0.1068 -0.5226
11746SOL    HW136288   5.374   7.433   8.219 -0.1831 -0.4204 -2.6925
11746SOL    HW236289   5.307   7.532   8.126 -0.4376  2.2723  0.2216
11747SOL     OW36290   1.622   4.533   5.515  0.3565 -0.2250 -0.0628
11747SOL    HW136291   1.667   4.488   5.586  0.6171  0.4525  0.2107
11747SOL    HW236292   1.533   4.544   5.546  0.7611  1.1457  0.6866
11748SOL     OW36293   7.197   2.676   7.404  0.6976 -0.1847 -0.2145
11748SOL    HW136294   7.224   2.686   7.312  0.1858  0.2988 -0.3180
11748SOL    HW236295   7.200   2.582   7.419 -3.1404 -0.7776 -1.9942
11749SOL     OW36296   7.965   4.671   7.548 -0.2686 -0.4961  0.9242
11749SOL    HW136297   8.033   4.660   7.615 -0.4361  0.4788  1.2623
11749SOL    HW236298   8.000   4.735   7.488  0.4568 -2.3330 -0.7267
11750SOL     OW36299   0.347   8.002   6.631 -0.4854  0.0152 -0.3325
11750SOL    HW136300   0.382   8.012   6.719  0.2693 -3.5008 -0.0832
11750SOL    HW236301   0.418   8.033   6.573  0.1325 -0.2447  0.2734
11751SOL     OW36302   5.775   4.192   8.067  0.0653 -0.0689 -0.8329
11751SOL    HW136303   5.815   4.107   8.053 -0.3019  0.0284 -2.6239
11751SOL    HW236304   5.706   4.176   8.132 -0.3134 -1.2193 -1.5057
11752SOL     OW36305   3.521   6.121   5.868  0.0600  0.3522 -0.0233
11752SOL    HW136306   3.499   6.087   5.781 -0.7351 -1.4957  0.8514
11752SOL    HW236307   3.494   6.052   5.928  1.1451  1.3442  1.6699
11753SOL     OW36308   8.117   2.227   5.375 -0.1174 -0.2155  0.2512
11753SOL    HW136309   8.158   2.207   5.291  0.3959 -0.6984  0.6113
11753SOL    HW236310   8.030   2.260   5.352  0.2895  0.3432 -0.4959
11754SOL     OW36311   1.325   6.245   3.017  0.1408  0.6295 -0.0770
11754SOL    HW136312   1.266   6.273   2.947  0.1568 -1.2514 -0.9275
11754SOL    HW236313   1.278   6.174   3.061  1.3452 -0.2712 -0.1745
11755SOL     OW36314   4.595   6.291   4.355 -0.2219  0.9961  0.3484
11755SOL    HW136315   4.638   6.315   4.437  1.4490 -0.4623 -0.0381
11755SOL    HW236316   4.502   6.286   4.377  0.1097  1.3913  1.9498
11756SOL     OW36317   2.223   1.594   0.809 -0.3322  0.1960  0.3517
11756SOL    HW136318   2.284   1.609   0.881  0.5366  0.8565 -0.4925
11756SOL    HW236319   2.136   1.608   0.847  0.1570  1.4095  1.0636
11757SOL     OW36320   2.451   3.310   1.046 -0.0390 -0.4080 -0.1881
11757SOL    HW136321   2.533   3.353   1.070 -0.3038  0.3514 -0.5808
11757SOL    HW236322   2.476   3.222   1.019  0.3495 -1.1107  2.1781
11758SOL     OW36323   6.975   3.474   6.075  0.8529 -0.5880  0.3116
11758SOL    HW136324   6.977   3.489   6.170  0.0972  0.4635  0.1864
11758SOL    HW236325   6.887   3.441   6.058  1.0286 -0.8931 -0.0089
11759SOL     OW36326   4.886   6.937   3.173  0.5512 -0.0091  0.2027
11759SOL    HW136327   4.864   6.959   3.083 -1.0866 -0.7304  0.3897
11759SOL    HW236328   4.805   6.899   3.209  1.1664  0.2551  1.9688
11760SOL     OW36329   0.946   0.808   1.092  0.4921  0.4934 -0.1554
11760SOL    HW136330   0.857   0.829   1.122  0.7105  1.6054 -0.2195
11760SOL    HW236331   0.973   0.734   1.145 -0.9696 -0.7563 -1.0620
11761SOL     OW36332   6.170   0.366   1.306 -0.4732 -0.0291  0.0106
11761SOL    HW136333   6.146   0.437   1.366 -2.4692 -2.2475  2.0266
11761SOL    HW236334   6.107   0.374   1.234  1.3007  2.0292 -1.4513
11762SOL     OW36335   6.246   7.808   3.769  0.1017 -0.6161  0.0990
11762SOL    HW136336   6.219   7.802   3.678 -0.5723 -1.7777  0.3597
11762SOL    HW236337   6.286   7.895   3.777  1.3672 -1.0043 -1.5963
11763SOL     OW36338   5.824   5.875   1.656  0.7886  0.0118 -0.1818
11763SOL    HW136339   5.901   5.905   1.608  0.2334  0.9700 -0.5113
11763SOL    HW236340   5.825   5.925   1.737  0.8570 -0.4438  0.1015
11764SOL     OW36341   4.302   7.512   4.026  0.2164 -0.2569  0.0495
11764SOL    HW136342   4.311   7.543   3.936  0.2519  0.4376  0.2824
11764SOL    HW236343   4.375   7.450   4.038 -0.4165 -1.1633 -0.7191
11765SOL     OW36344   1.040   7.919   7.797 -0.1278  0.0705  0.3618
11765SOL    HW136345   1.136   7.909   7.799 -0.0753  0.1849 -0.7843
11765SOL    HW236346   1.026   8.012   7.816 -0.0194  0.0233  0.6767
11766SOL     OW36347   6.030   0.396   8.034 -0.6767 -0.0607 -0.6110
11766SOL    HW136348   5.991   0.336   8.097  2.6427  0.3329  2.0661
11766SOL    HW236349   6.096   0.343   7.988 -1.3883  0.2890 -2.1202
11767SOL     OW36350   2.275   7.589   7.979  0.2825  0.2149  0.4680
11767SOL    HW136351   2.288   7.494   7.970  0.1293  0.1746  0.6797
11767SOL    HW236352   2.216   7.612   7.907  0.2983  0.1464  0.4327
11768SOL     OW36353   3.912   7.225   7.504 -0.2991 -0.3971 -0.2772
11768SOL    HW136354   4.005   7.203   7.499 -0.1532  0.4234 -2.3980
11768SOL    HW236355   3.902   7.268   7.589  1.2307 -0.5860  0.0282
11769SOL     OW36356   1.769   7.324   3.065  0.0208 -0.4404 -0.0811
11769SOL    HW136357   1.745   7.402   3.115  0.0508 -1.6705  2.0294
11769SOL    HW236358   1.807   7.356   2.984 -1.2266  1.6898  0.1148
11770SOL     OW36359   4.156   5.423   7.925  0.8556 -0.0213 -0.0413
11770SOL    HW136360   4.111   5.338   7.920  0.3627  0.2719 -0.7952
11770SOL    HW236361   4.104   5.481   7.870  1.3614  0.7002  0.2241
11771SOL     OW36362   0.267   6.999   3.920 -0.2702 -0.6934 -0.1113
11771SOL    HW136363   0.183   7.043   3.930  0.5836  1.1945 -0.7836
11771SOL    HW236364   0.245   6.913   3.885 -1.9557 -0.4684  0.3301
11772SOL     OW36365   8.225   4.201   3.429  0.0659  0.0394  0.3004
11772SOL    HW136366   8.251   4.265   3.495 -0.4428  0.1500  0.4018
11772SOL    HW236367   8.284   4.127   3.443  0.3671  0.3115  0.4734
11773SOL     OW36368   6.739   5.501   3.522 -0.1338  0.4888 -0.2169
11773SOL    HW136369   6.735   5.499   3.427  0.4281  1.2207 -0.2713
11773SOL    HW236370   6.693   5.423   3.551 -0.8816  0.6099 -1.0721
11774SOL     OW36371   7.361   6.827   5.290  0.5707  0.4069  0.1073
11774SOL    HW136372   7.378   6.880   5.212 -1.2107  1.3196  0.2736
11774SOL    HW236373   7.335   6.891   5.357  2.2224 -0.3381  1.5226
11775SOL     OW36374   4.487   3.376   1.810  0.2605 -0.2893  0.7936
11775SOL    HW136375   4.522   3.291   1.835  0.9724 -0.8767 -1.9265
11775SOL    HW236376   4.436   3.360   1.731 -1.0819  1.5573  1.2021
11776SOL     OW36377   6.455   7.698   5.164 -0.9200 -0.2112 -0.6932
11776SOL    HW136378   6.375   7.698   5.217 -0.6485 -2.2739 -0.2204
11776SOL    HW236379   6.524   7.674   5.225 -0.1056  0.4197 -1.3489
11777SOL     OW36380   0.948   5.396   0.877 -0.2404  0.3626 -0.0003
11777SOL    HW136381   1.000   5.324   0.841  1.4698  1.8897 -0.7074
11777SOL    HW236382   0.999   5.428   0.951 -1.6131  0.0740  1.1147
11778SOL     OW36383   1.564   1.668   6.643  0.4640  0.5205  0.3461
11778SOL    HW136384   1.626   1.689   6.573  1.6603  0.9269  1.4967
11778SOL    HW236385   1.612   1.683   6.724 -0.6445 -0.7013  1.2779
11779SOL     OW36386   5.436   0.994   0.335  0.0219  0.2111 -0.2857
11779SOL    HW136387   5.460   0.950   0.253  0.7669  1.3778 -0.7270
11779SOL    HW236388   5.463   1.085   0.321 -1.0272  0.7032  0.7773
11780SOL     OW36389   7.525   1.018   5.225 -1.0031 -0.1681 -0.3026
11780SOL    HW136390   7.557   0.941   5.271 -1.7683 -0.8318 -0.8718
11780SOL    HW236391   7.602   1.075   5.219  0.4524 -2.2127 -2.6937
11781SOL     OW36392   4.462   0.294   8.136 -0.0537 -0.2531 -0.2277
11781SOL    HW136393   4.393   0.318   8.197  0.2492 -1.3601  0.5684
11781SOL    HW236394   4.421   0.302   8.049  0.1954  3.7621 -0.1807
11782SOL     OW36395   3.588   0.516   3.086 -0.3877 -0.1906  0.6657
11782SOL    HW136396   3.602   0.550   2.997 -2.0367 -0.9409  0.0735
11782SOL    HW236397   3.669   0.536   3.132  0.6666 -0.1204 -1.1112
11783SOL     OW36398   4.794   7.819   7.324  0.1270  0.4374  0.2884
11783SOL    HW136399   4.718   7.798   7.379  0.9711  1.0724  1.7797
11783SOL    HW236400   4.812   7.912   7.343  1.2508  0.3054 -0.0483
11784SOL     OW36401   1.365   5.223   0.847 -0.0491 -0.4746 -0.3959
11784SOL    HW136402   1.399   5.262   0.767  1.2127 -1.2418 -0.2617
11784SOL    HW236403   1.388   5.130   0.841  0.3701 -0.4926  0.9929
11785SOL     OW36404   1.649   3.420   6.313 -0.4997  0.4399  0.1051
11785SOL    HW136405   1.695   3.365   6.376 -1.0201  0.4060  0.4585
11785SOL    HW236406   1.559   3.388   6.314  0.0660 -1.7284 -2.9676
11786SOL     OW36407   6.003   4.962   6.123 -0.4390 -0.2158 -0.6335
11786SOL    HW136408   6.004   4.944   6.217  1.0304  1.7880 -0.1974
11786SOL    HW236409   6.008   4.875   6.082 -0.1373 -1.0962  1.1506
11787SOL     OW36410   7.492   0.582   1.540  0.5029  0.1523  0.1556
11787SOL    HW136411   7.431   0.656   1.530  0.4798  0.1881  0.5303
11787SOL    HW236412   7.518   0.585   1.632 -0.3070 -0.9293  0.4429
11788SOL     OW36413   7.341   6.647   7.346 -0.0282  0.5244 -0.6229
11788SOL    HW136414   7.336   6.552   7.350  0.9593  0.2960 -3.2823
11788SOL    HW236415   7.344   6.668   7.253 -1.1311  3.2361 -0.1464
11789SOL     OW36416   4.343   6.747   0.058  0.4667  0.0796  0.2111
11789SOL    HW136417   4.364   6.832   0.018 -1.0960  0.3084 -0.1912
11789SOL    HW236418   4.342   6.765   0.152  1.1969  0.2416  0.1970
11790SOL     OW36419   3.962   5.173   2.653  0.4680  0.1388 -0.8800
11790SOL    HW136420   4.012   5.253   2.670  1.4593 -1.0022  2.2707
11790SOL    HW236421   4.024   5.102   2.670 -1.0020 -1.3125 -1.3562
11791SOL     OW36422   5.629   6.097   1.952  0.7254 -0.2081 -0.3230
11791SOL    HW136423   5.660   6.184   1.977 -2.3109  0.3282  2.2819
11791SOL    HW236424   5.554   6.081   2.010  0.5876 -4.2040 -1.3239
11792SOL     OW36425   0.686   1.623   3.413  0.0384 -0.6831  0.6612
11792SOL    HW136426   0.630   1.566   3.360 -0.3088  0.6027 -0.3959
11792SOL    HW236427   0.626   1.662   3.477 -0.0954 -0.0430  0.1488
11793SOL     OW36428   4.122   7.952   5.723  0.7326 -0.4318  0.0289
11793SOL    HW136429   4.141   7.860   5.705  1.7172 -0.1648 -0.3476
11793SOL    HW236430   4.026   7.956   5.726  0.6865 -1.6677  1.1841
11794SOL     OW36431   6.398   8.115   0.468 -0.1707  0.4184  0.2247
11794SOL    HW136432   6.480   8.129   0.422  0.3289 -2.3135  0.1431
11794SOL    HW236433   6.353   8.047   0.418 -1.2609 -0.0369  1.7402
11795SOL     OW36434   3.828   4.174   5.282  0.3279 -0.4794 -0.1386
11795SOL    HW136435   3.826   4.116   5.205 -0.4709 -0.9860  0.2405
11795SOL    HW236436   3.735   4.186   5.304  0.4660  1.1410 -0.3343
11796SOL     OW36437   3.969   7.116   5.407  0.6323  0.4508 -0.2407
11796SOL    HW136438   3.941   7.125   5.316  0.7750  0.1831 -0.3123
11796SOL    HW236439   4.043   7.177   5.416  0.5024  0.6098 -0.2540
11797SOL     OW36440   7.789   6.350   7.447 -0.2370 -0.4904 -0.1635
11797SOL    HW136441   7.825   6.329   7.534 -0.3726 -1.4414 -0.3318
11797SOL    HW236442   7.866   6.360   7.391 -0.1340  0.4867  0.1362
11798SOL     OW36443   1.980   4.320   2.903 -0.2288  0.1354  0.1817
11798SOL    HW136444   1.924   4.244   2.890  0.3240 -0.1880 -0.3431
11798SOL    HW236445   1.975   4.369   2.821 -1.8725  1.5590  1.0699
11799SOL     OW36446   2.447   1.599   7.492 -0.5124  0.2221 -0.1482
11799SOL    HW136447   2.521   1.648   7.526  0.0879  0.1256 -1.2900
11799SOL    HW236448   2.377   1.615   7.555  0.8990 -0.9747  1.8227
11800SOL     OW36449   6.119   6.959   3.151 -0.2796  0.0228 -0.1867
11800SOL    HW136450   6.048   6.903   3.121 -0.6521  0.6532 -0.5155
11800SOL    HW236451   6.137   7.018   3.078 -0.7377  1.1287  0.5509
11801SOL     OW36452   1.549   4.779   1.201 -0.4650 -0.5844  0.2671
11801SOL    HW136453   1.484   4.847   1.218  0.5505  0.0787  1.7476
11801SOL    HW236454   1.542   4.761   1.107 -1.7428  0.5264  0.1267
11802SOL     OW36455   0.600   2.682   7.838  0.3347 -0.6173  0.5964
11802SOL    HW136456   0.639   2.597   7.815 -1.8440 -2.2220  2.4345
11802SOL    HW236457   0.672   2.730   7.880  2.0552 -0.8247 -1.8925
11803SOL     OW36458   4.415   6.381   2.801 -0.0681  0.3729 -0.2861
11803SOL    HW136459   4.329   6.422   2.799 -0.4731 -0.4520 -0.5062
11803SOL    HW236460   4.438   6.378   2.894 -0.3261  0.4954 -0.2181
11804SOL     OW36461   7.322   4.330   6.212  0.5184 -0.1962  0.0813
11804SOL    HW136462   7.276   4.372   6.285 -0.3409 -1.5379  0.3405
11804SOL    HW236463   7.256   4.324   6.142 -0.0593 -2.9212  0.7481
11805SOL     OW36464   7.970   4.958   7.820  0.1704 -0.5031 -0.6432
11805SOL    HW136465   8.050   4.997   7.783 -0.6680  1.9745 -0.0485
11805SOL    HW236466   7.903   4.973   7.754 -0.8689  2.0814  0.8310
11806SOL     OW36467   6.965   4.991   6.934  0.2801 -0.0687 -0.1949
11806SOL    HW136468   6.992   5.065   6.879  0.4936  0.9355  1.1947
11806SOL    HW236469   7.045   4.967   6.981 -0.5409  1.1005  1.9002
11807SOL     OW36470   0.236   6.232   0.545  0.1173  0.4666 -0.1996
11807SOL    HW136471   0.322   6.205   0.577 -0.5698 -0.0668  1.2645
11807SOL    HW236472   0.251   6.256   0.453  1.5399 -1.1147 -0.4268
11808SOL     OW36473   3.653   4.448   4.366  0.3440 -0.0019  0.3611
11808SOL    HW136474   3.617   4.359   4.365 -2.1896  0.9614 -0.1022
11808SOL    HW236475   3.578   4.505   4.380  1.5723  2.2138 -1.3234
11809SOL     OW36476   1.669   5.724   5.049 -0.1874  0.7597  0.3477
11809SOL    HW136477   1.611   5.686   4.983  1.1079 -1.2130  0.2591
11809SOL    HW236478   1.722   5.788   5.000  0.7208 -0.6359 -0.5446
11810SOL     OW36479   8.054   0.878   5.293 -0.3354  0.2774  0.0631
11810SOL    HW136480   8.021   0.932   5.221  0.2579 -2.0559 -2.1270
11810SOL    HW236481   8.104   0.808   5.249  1.1728 -0.5397  2.8376
11811SOL     OW36482   6.253   4.642   2.001  0.1397  0.7187 -0.7448
11811SOL    HW136483   6.231   4.732   2.024 -1.1531  0.3623 -0.5275
11811SOL    HW236484   6.169   4.601   1.982  0.7264 -0.4157 -0.9502
11812SOL     OW36485   5.113   2.425   2.902  0.4977 -0.1433  0.0444
11812SOL    HW136486   5.181   2.386   2.847  2.3029  0.9759  1.3657
11812SOL    HW236487   5.106   2.515   2.871 -0.2042 -0.1745  0.1021
11813SOL     OW36488   6.911   7.898   1.433 -0.4566  0.2205  0.5866
11813SOL    HW136489   6.903   7.920   1.526  0.5322  0.8824  0.5235
11813SOL    HW236490   6.894   7.980   1.387  0.5045  0.2361  0.2437
11814SOL     OW36491   3.080   3.112   2.609 -0.2485  0.2382  0.4112
11814SOL    HW136492   3.108   3.171   2.678  3.4845 -0.8368  0.0335
11814SOL    HW236493   3.097   3.024   2.644 -0.8053 -0.4258 -0.9056
11815SOL     OW36494   7.791   6.235   4.996 -0.3498  0.4286  0.6357
11815SOL    HW136495   7.839   6.179   4.935 -2.2779  0.9253 -1.4857
11815SOL    HW236496   7.859   6.277   5.049  1.3607 -0.8795 -0.4210
11816SOL     OW36497   3.933   0.932   2.587 -0.1264 -0.5434  0.4338
11816SOL    HW136498   3.977   1.016   2.598  1.5223 -1.5148  1.7295
11816SOL    HW236499   4.001   0.867   2.600 -1.5476 -2.1090  0.4263
11817SOL     OW36500   3.125   0.259   0.991  0.1806  0.0753 -0.3705
11817SOL    HW136501   3.178   0.272   1.069 -1.4798 -0.5841  0.9323
11817SOL    HW236502   3.175   0.197   0.938  1.6526  1.0576 -0.2085
11818SOL     OW36503   1.712   4.832   4.089  0.2084 -0.1548  0.1197
11818SOL    HW136504   1.787   4.886   4.064 -1.1826  1.6155 -0.4902
11818SOL    HW236505   1.698   4.774   4.015 -0.1266  0.8086 -0.5967
11819SOL     OW36506   5.707   6.134   8.067  0.2654  0.2017  0.4992
11819SOL    HW136507   5.723   6.125   7.973  2.4378  0.1741  0.8089
11819SOL    HW236508   5.675   6.224   8.077  1.0752  0.5876 -0.1867
11820SOL     OW36509   3.359   0.518   7.654 -0.0351  0.1543 -0.0810
11820SOL    HW136510   3.420   0.568   7.710  0.9381 -1.2578  0.1771
11820SOL    HW236511   3.395   0.527   7.566 -0.5487  0.8933 -0.2211
11821SOL     OW36512   0.679   0.832   4.352 -0.1339  0.2525  0.2078
11821SOL    HW136513   0.729   0.905   4.389 -1.6912  2.0320 -1.0131
11821SOL    HW236514   0.689   0.840   4.258 -0.6857 -0.8685  0.0314
11822SOL     OW36515   3.292   6.039   2.283  0.4187  0.1474 -0.1011
11822SOL    HW136516   3.310   6.131   2.266  1.0461  0.4023  1.7367
11822SOL    HW236517   3.199   6.028   2.262  0.5971  0.9050 -1.4038
11823SOL     OW36518   1.742   0.103   6.222  0.9126 -0.3798  0.1865
11823SOL    HW136519   1.657   0.130   6.187  0.2221 -1.3125  1.0918
11823SOL    HW236520   1.795   0.182   6.219 -0.0568  0.2769 -0.1955
11824SOL     OW36521   1.326   6.537   6.199  0.0258 -0.0452  0.2150
11824SOL    HW136522   1.410   6.512   6.161  0.4878 -1.1051  1.8117
11824SOL    HW236523   1.348   6.574   6.285 -1.1694 -3.6200  2.3122
11825SOL     OW36524   5.801   1.153   8.059 -0.9040  0.2134 -0.5700
11825SOL    HW136525   5.850   1.234   8.067  1.2435 -0.8141 -2.3973
11825SOL    HW236526   5.852   1.099   7.999 -1.1356 -3.3404  2.1084
11826SOL     OW36527   7.757   6.680   1.935 -0.6348 -0.5497  0.5291
11826SOL    HW136528   7.840   6.653   1.973 -1.1964 -0.4432  1.8805
11826SOL    HW236529   7.739   6.766   1.974 -0.2242  0.5658 -1.6015
11827SOL     OW36530   1.552   8.068   6.904 -0.4300  0.6566 -0.2832
11827SOL    HW136531   1.647   8.070   6.891 -0.3786  0.8158  0.0843
11827SOL    HW236532   1.533   7.978   6.930 -0.2973  0.7636  0.2010
11828SOL     OW36533   3.145   0.553   8.092  0.7397  0.1292 -0.0519
11828SOL    HW136534   3.185   0.640   8.091  0.2377  0.3566 -1.1651
11828SOL    HW236535   3.062   0.563   8.046 -0.3567 -0.4784  1.6640
11829SOL     OW36536   1.126   6.064   3.543  0.3231 -0.3068 -0.3804
11829SOL    HW136537   1.079   6.007   3.483  1.1559 -0.6847 -0.6949
11829SOL    HW236538   1.111   6.153   3.509 -0.8821 -0.3402  0.0480
11830SOL     OW36539   1.620   3.915   4.431  0.1037 -0.2135  0.8240
11830SOL    HW136540   1.550   3.934   4.494  0.1695 -0.6165  1.0243
11830SOL    HW236541   1.642   3.823   4.447  0.4406 -0.1873  0.5254
11831SOL     OW36542   3.590   7.011   0.053  0.5089 -0.3529  0.1309
11831SOL    HW136543   3.599   7.006  -0.042 -0.3901  0.4187 -0.0098
11831SOL    HW236544   3.586   7.105   0.071 -0.2860 -0.5118  0.8303
11832SOL     OW36545   4.707   0.884   3.468 -0.6170 -0.1435  0.4754
11832SOL    HW136546   4.744   0.796   3.455 -1.2818 -0.2936 -0.4447
11832SOL    HW236547   4.633   0.869   3.527 -0.1740 -0.0628  1.0602
11833SOL     OW36548   2.761   2.052   7.648 -0.0829 -0.0176  0.2416
11833SOL    HW136549   2.834   2.048   7.587  0.4718 -2.2258  0.9487
11833SOL    HW236550   2.709   2.127   7.619  2.8843  2.2396  0.2327
11834SOL     OW36551   1.152   0.887   4.199 -0.7372  0.7986  0.1490
11834SOL    HW136552   1.103   0.849   4.126 -1.1402 -0.7084  1.1688
11834SOL    HW236553   1.242   0.896   4.166  0.4792 -4.9066  0.9873
11835SOL     OW36554   5.641   2.069   1.558 -0.1692  0.0794  0.1375
11835SOL    HW136555   5.675   2.124   1.487 -0.7207  0.4281  0.1406
11835SOL    HW236556   5.582   2.126   1.607 -1.8202 -0.8501 -0.6594
11836SOL     OW36557   7.349   5.130   2.970  0.8274 -0.5418  0.3621
11836SOL    HW136558   7.302   5.173   2.899  1.5877 -0.2822  0.0016
11836SOL    HW236559   7.292   5.140   3.047  1.4239  2.0695  0.5618
11837SOL     OW36560   3.205   7.908   3.802 -0.3713 -0.0379 -0.1681
11837SOL    HW136561   3.208   7.854   3.881  1.4718  0.5463  0.2029
11837SOL    HW236562   3.204   7.998   3.834  1.4163  0.2338 -0.7617
11838SOL     OW36563   6.806   1.048   2.487 -0.2495  0.6877  0.5853
11838SOL    HW136564   6.861   1.038   2.565  0.0731  1.4688  0.4712
11838SOL    HW236565   6.733   1.102   2.516 -0.8277 -0.1196  0.6660
11839SOL     OW36566   2.329   2.280   0.844  0.3961  0.5124  0.6545
11839SOL    HW136567   2.329   2.213   0.776 -1.3747 -0.7044  1.7752
11839SOL    HW236568   2.287   2.355   0.803 -0.0630  0.0192  0.2039
11840SOL     OW36569   5.530   4.406   5.533 -0.3985 -0.7291  0.8842
11840SOL    HW136570   5.626   4.412   5.542 -0.3844 -1.0980  1.0102
11840SOL    HW236571   5.517   4.381   5.442 -0.2993 -2.1518  1.2316
11841SOL     OW36572   6.008   2.207   2.827 -0.0221 -0.0166 -0.0241
11841SOL    HW136573   5.917   2.187   2.806 -0.1734  1.9959 -1.6256
11841SOL    HW236574   6.010   2.302   2.838  2.0717  0.1634 -1.2930
11842SOL     OW36575   1.621   3.591   2.667 -0.0235  0.1468 -0.1339
11842SOL    HW136576   1.681   3.528   2.706 -0.5226 -0.7617 -0.8011
11842SOL    HW236577   1.539   3.543   2.656 -0.5900  1.0910 -0.1102
11843SOL     OW36578   6.940   2.467   5.192  0.1558  0.4803  0.1772
11843SOL    HW136579   6.963   2.477   5.284 -0.9197 -3.3567  1.0712
11843SOL    HW236580   6.844   2.472   5.190  0.2061  1.7347 -1.0084
11844SOL     OW36581   7.771   2.091   4.762 -0.0739  0.1125 -0.2096
11844SOL    HW136582   7.786   2.044   4.680  0.9229 -0.0280  0.0399
11844SOL    HW236583   7.684   2.063   4.790 -0.1909 -0.2729 -0.9338
11845SOL     OW36584   1.359   1.314   3.923 -0.3262  0.1642 -0.2770
11845SOL    HW136585   1.362   1.238   3.865  0.8234  0.0871 -0.1535
11845SOL    HW236586   1.451   1.341   3.931 -0.3249 -0.3178  2.1584
11846SOL     OW36587   0.343   2.944   6.283 -0.0467 -0.7438  0.3178
11846SOL    HW136588   0.281   2.888   6.331 -1.2729 -0.2123 -0.5796
11846SOL    HW236589   0.386   2.885   6.221 -1.8171 -0.6555 -1.0990
11847SOL     OW36590   2.631   6.435   3.478  0.5383  0.1219 -0.0141
11847SOL    HW136591   2.674   6.351   3.464  0.5080  0.1015  0.0113
11847SOL    HW236592   2.611   6.437   3.572  0.1502 -0.0307 -0.0907
11848SOL     OW36593   0.504   1.808   5.451  0.0294 -0.3491  0.6839
11848SOL    HW136594   0.484   1.885   5.504 -0.0685 -1.3579  2.1664
11848SOL    HW236595   0.438   1.810   5.381 -0.8908  0.1163  1.5383
11849SOL     OW36596   1.980   6.619   0.749  0.8336  0.3522  0.4781
11849SOL    HW136597   1.904   6.631   0.807  0.5814  2.4115 -0.2080
11849SOL    HW236598   2.028   6.702   0.756  2.5568 -0.5931  0.2166
11850SOL     OW36599   0.639   7.736   7.239 -0.5124 -0.0997 -0.3880
11850SOL    HW136600   0.551   7.766   7.264  0.5102  1.3712  1.7685
11850SOL    HW236601   0.682   7.718   7.323  1.5070  0.0147 -1.3635
11851SOL     OW36602   6.341   7.575   3.011 -0.4651 -0.2282  0.0664
11851SOL    HW136603   6.417   7.632   3.029  1.1837 -0.4792 -4.7097
11851SOL    HW236604   6.273   7.636   2.983 -0.5772 -0.2723  0.2448
11852SOL     OW36605   2.773   2.795   1.813  0.4361 -0.4815 -0.6681
11852SOL    HW136606   2.783   2.744   1.894  0.8121 -0.4034 -0.6624
11852SOL    HW236607   2.862   2.824   1.792  0.2446  0.0329 -0.7652
11853SOL     OW36608   3.017   0.244   4.800 -0.4312  0.1082 -0.1846
11853SOL    HW136609   3.004   0.288   4.716 -0.1337  0.8155  0.1376
11853SOL    HW236610   3.107   0.264   4.825  0.0184 -1.4265 -0.4555
11854SOL     OW36611   2.570   3.774   2.900  0.9484  0.3035  0.2225
11854SOL    HW136612   2.506   3.801   2.834  1.6889  0.1431 -0.5833
11854SOL    HW236613   2.543   3.687   2.927  1.2237 -0.0653 -0.6526
11855SOL     OW36614   2.297   2.149   3.694 -0.4466  0.6240  0.3005
11855SOL    HW136615   2.224   2.130   3.636 -1.3810 -0.4288  1.7349
11855SOL    HW236616   2.261   2.206   3.762  0.0994  0.3228  0.8660
11856SOL     OW36617   1.668   0.505   7.072 -0.1258  0.1313  0.1859
11856SOL    HW136618   1.677   0.580   7.012 -2.3769 -0.2645 -0.7577
11856SOL    HW236619   1.592   0.457   7.039 -1.0286 -0.5233  2.9442
11857SOL     OW36620   1.884   4.563   6.761  0.1646  0.1041  0.0851
11857SOL    HW136621   1.841   4.646   6.743 -1.2078 -0.4634  0.6367
11857SOL    HW236622   1.844   4.501   6.699 -0.1668 -0.5324  0.9123
11858SOL     OW36623   5.481   7.797   6.195 -0.4924 -0.1606  0.5596
11858SOL    HW136624   5.576   7.790   6.198 -0.5068 -0.1005  1.2048
11858SOL    HW236625   5.464   7.862   6.127 -0.0669 -0.0137  0.5934
11859SOL     OW36626   2.917   2.207   3.389 -0.2191 -0.2588 -0.0260
11859SOL    HW136627   2.886   2.283   3.437  0.2023 -0.5586  0.7327
11859SOL    HW236628   3.008   2.228   3.367 -0.0719 -0.5826  0.2687
11860SOL     OW36629   6.820   0.934   6.611  0.4622 -0.4071 -0.5411
11860SOL    HW136630   6.824   0.849   6.566 -1.5991 -1.4017  0.9831
11860SOL    HW236631   6.862   0.918   6.695 -1.2568 -0.4032  0.3630
11861SOL     OW36632   1.331   0.899   0.209  0.0244  0.0305  0.4264
11861SOL    HW136633   1.350   0.826   0.269  1.0874  1.1155  1.4647
11861SOL    HW236634   1.337   0.860   0.122  1.6880 -0.8939  0.9094
11862SOL     OW36635   7.309   6.367   7.334  0.3495  0.5510  0.0717
11862SOL    HW136636   7.404   6.365   7.326  0.3148  0.5348 -0.3638
11862SOL    HW236637   7.278   6.313   7.261  0.0553 -0.8759  1.1986
11863SOL     OW36638   6.021   8.155   1.529  0.1158  0.4720 -0.5762
11863SOL    HW136639   6.027   8.250   1.538  0.0631  0.3309  1.6477
11863SOL    HW236640   6.098   8.130   1.478  0.0778  1.6944 -1.2637
11864SOL     OW36641   2.772   0.416   3.311  0.1744  0.1139 -0.1818
11864SOL    HW136642   2.751   0.403   3.404  0.2192 -0.8734 -0.2962
11864SOL    HW236643   2.852   0.468   3.311  1.0852 -1.2250  0.3877
11865SOL     OW36644   1.741   1.813   0.093 -0.2276  0.4744 -0.2461
11865SOL    HW136645   1.661   1.782   0.136  1.2016 -0.8326  1.6134
11865SOL    HW236646   1.783   1.734   0.060  0.6718  1.0634 -0.5433
11866SOL     OW36647   6.842   5.401   0.881  0.1530 -0.3790  0.1494
11866SOL    HW136648   6.833   5.384   0.787  1.3519 -0.4063  0.0298
11866SOL    HW236649   6.820   5.318   0.923  1.9785 -1.0956 -0.2354
11867SOL     OW36650   7.145   3.586   8.129 -0.3024  0.3452 -0.7353
11867SOL    HW136651   7.140   3.594   8.033  1.5984  1.0893 -0.8154
11867SOL    HW236652   7.161   3.493   8.145  2.7029  0.6633 -1.3924
11868SOL     OW36653   2.835   5.680   7.510 -0.7941 -0.1256 -0.5889
11868SOL    HW136654   2.872   5.717   7.590 -1.8790 -0.2162 -0.0333
11868SOL    HW236655   2.876   5.730   7.439 -0.1342  0.2314  0.0379
11869SOL     OW36656   3.989   6.488   1.068  0.3433 -0.2047 -0.3584
11869SOL    HW136657   4.083   6.507   1.064  0.2691  0.8348  1.6343
11869SOL    HW236658   3.974   6.459   1.158 -1.4910  1.2988 -0.1114
11870SOL     OW36659   6.447   5.620   5.553 -0.1445  0.5616  0.3119
11870SOL    HW136660   6.384   5.569   5.604 -0.4486  0.2548 -0.3636
11870SOL    HW236661   6.530   5.574   5.565 -0.4761 -0.2921 -0.5532
11871SOL     OW36662   2.574   3.502   4.829 -0.8262  0.5061  0.0739
11871SOL    HW136663   2.648   3.477   4.885 -1.8801  1.3405  1.9305
11871SOL    HW236664   2.536   3.419   4.800 -0.6785  0.0250  1.2116
11872SOL     OW36665   6.456   6.261   3.516 -0.4052  0.3006  0.0649
11872SOL    HW136666   6.545   6.230   3.502 -0.0397  0.5468  1.7074
11872SOL    HW236667   6.459   6.354   3.495 -0.8725 -0.1289 -2.1992
11873SOL     OW36668   5.806   3.946   3.025  0.3806 -0.5573  0.2927
11873SOL    HW136669   5.758   3.865   3.008  1.8401 -1.4067  0.0359
11873SOL    HW236670   5.852   3.929   3.107  1.3780 -0.3332 -0.2078
11874SOL     OW36671   5.619   1.957   0.750 -0.8026  0.7913  0.1913
11874SOL    HW136672   5.555   1.965   0.680  0.1928  1.0377 -0.7064
11874SOL    HW236673   5.650   2.046   0.765 -2.2664  1.0364  2.1915
11875SOL     OW36674   2.810   3.447   7.470  0.8633  0.1620 -0.2175
11875SOL    HW136675   2.819   3.385   7.398  2.1681 -0.5406  0.5061
11875SOL    HW236676   2.764   3.397   7.538  0.9209  0.3471 -0.0438
11876SOL     OW36677   3.405   7.715   1.847  0.5944  0.4579 -0.4729
11876SOL    HW136678   3.462   7.643   1.875  0.0524 -0.1880 -0.9914
11876SOL    HW236679   3.367   7.748   1.928 -0.4174 -0.9206 -0.3431
11877SOL     OW36680   0.534   2.394   5.882  0.3675 -0.2626  0.3392
11877SOL    HW136681   0.550   2.381   5.788 -0.5084 -0.8638  0.2691
11877SOL    HW236682   0.465   2.332   5.904 -1.4781  1.8143  0.7596
11878SOL     OW36683   5.657   4.167   1.541 -0.1899  0.5402 -0.0026
11878SOL    HW136684   5.627   4.257   1.551  2.3283  1.4577 -0.0294
11878SOL    HW236685   5.631   4.123   1.622 -1.3438  1.3047  0.0582
11879SOL     OW36686   8.072   0.855   4.384 -0.0926 -0.2107  0.0584
11879SOL    HW136687   8.073   0.943   4.423  3.1331 -0.1543  0.0687
11879SOL    HW236688   8.082   0.871   4.290  0.5341 -0.5488  0.0634
11880SOL     OW36689   6.862   6.084   3.250 -0.4499  0.3005 -0.2512
11880SOL    HW136690   6.847   6.125   3.335  0.3394  1.6235 -0.7174
11880SOL    HW236691   6.860   6.157   3.188  1.5003 -0.2873 -1.0635
11881SOL     OW36692   4.083   1.376   0.200  0.3180 -0.4064  0.6653
11881SOL    HW136693   4.127   1.438   0.258  0.2288  1.4538 -1.1371
11881SOL    HW236694   3.990   1.392   0.214  0.2172  2.2616 -1.9818
11882SOL     OW36695   2.226   0.196   3.622 -0.0011  0.2098 -0.1486
11882SOL    HW136696   2.256   0.284   3.644 -0.2896  0.1557  0.4770
11882SOL    HW236697   2.161   0.174   3.689  0.5944 -0.7685  0.1341
11883SOL     OW36698   2.524   1.026   1.902 -0.5994 -0.3773  0.0048
11883SOL    HW136699   2.604   0.988   1.938 -0.5095 -1.1827 -0.9848
11883SOL    HW236700   2.459   1.019   1.972 -0.0568 -0.5813  0.4887
11884SOL     OW36701   3.182   6.936   3.039  0.0311  0.2344 -0.2293
11884SOL    HW136702   3.130   6.935   3.120 -3.2254 -2.0675 -2.1118
11884SOL    HW236703   3.170   7.023   3.003  1.0068  1.0817  1.3771
11885SOL     OW36704   1.164   2.342   5.168 -0.0327 -0.0246 -0.0862
11885SOL    HW136705   1.094   2.279   5.151  1.1197 -1.5891  0.7069
11885SOL    HW236706   1.125   2.408   5.225 -1.0688 -0.4156 -0.3355
11886SOL     OW36707   1.304   2.961   1.284 -0.5323  0.3525  0.1358
11886SOL    HW136708   1.335   2.886   1.234 -1.1486  0.3687 -0.2835
11886SOL    HW236709   1.307   3.034   1.222  2.6049  1.3287  1.2301
11887SOL     OW36710   7.689   4.792   2.712 -0.1814  0.3198 -0.0315
11887SOL    HW136711   7.729   4.832   2.789 -0.0510 -0.5213  0.3554
11887SOL    HW236712   7.749   4.722   2.688 -1.4800 -1.1057  0.6897
11888SOL     OW36713   6.198   0.848   3.180 -0.2179 -0.1403 -0.6811
11888SOL    HW136714   6.168   0.911   3.246 -0.5221  0.0142 -0.9626
11888SOL    HW236715   6.261   0.793   3.227  1.2659  1.3543 -0.8337
11889SOL     OW36716   3.387   8.165   3.744 -0.0267 -0.1740  0.0577
11889SOL    HW136717   3.313   8.194   3.691  0.4040 -0.3594 -0.6640
11889SOL    HW236718   3.424   8.247   3.779 -0.0355 -0.0144 -0.3066
11890SOL     OW36719   5.306   3.250   1.732  0.2120 -0.3403 -0.6794
11890SOL    HW136720   5.280   3.182   1.795  1.9302 -0.3341  0.1104
11890SOL    HW236721   5.401   3.239   1.724  0.6240  2.2711 -0.1493
11891SOL     OW36722   2.246   0.968   5.556  0.0883 -0.5457 -0.0648
11891SOL    HW136723   2.219   1.059   5.557 -0.3960 -0.6385  2.2317
11891SOL    HW236724   2.167   0.919   5.536  0.4208 -0.4738 -1.6355
11892SOL     OW36725   2.868   3.880   5.971 -0.3363 -0.1255 -0.6612
11892SOL    HW136726   2.900   3.969   5.957  0.2088  0.0248  1.3045
11892SOL    HW236727   2.789   3.875   5.917 -0.3572  1.5380 -0.8460
11893SOL     OW36728   7.296   3.687   1.527  0.5639 -0.0868 -0.5600
11893SOL    HW136729   7.221   3.734   1.493  0.2460 -0.8066 -0.8781
11893SOL    HW236730   7.305   3.611   1.469  0.4378 -0.9623  0.5252
11894SOL     OW36731   2.950   3.008   4.303 -0.3037  0.3701 -0.8113
11894SOL    HW136732   2.996   3.078   4.257  0.0451  0.3753 -0.4673
11894SOL    HW236733   2.972   3.022   4.395 -1.2986  0.5871 -0.5996
11895SOL     OW36734   5.786   4.903   3.120  0.2513 -0.2643  0.0475
11895SOL    HW136735   5.807   4.996   3.116  0.8101 -0.3763  0.2612
11895SOL    HW236736   5.871   4.859   3.122 -0.0060 -0.8183 -0.8039
11896SOL     OW36737   5.020   1.547   7.034  0.1626 -0.3421 -0.0436
11896SOL    HW136738   4.980   1.461   7.021 -0.5849  0.0205 -0.1932
11896SOL    HW236739   5.111   1.535   7.007 -0.3168 -0.6925 -1.5796
11897SOL     OW36740   3.546   7.684   7.214 -0.2778  0.2871 -0.0465
11897SOL    HW136741   3.537   7.595   7.249 -0.4767 -0.0941 -1.0584
11897SOL    HW236742   3.598   7.674   7.135  1.1396  1.2990  0.7186
11898SOL     OW36743   0.109   1.399   2.906 -0.8248  0.4836 -0.1224
11898SOL    HW136744   0.090   1.320   2.855 -1.8414  0.9448 -0.4836
11898SOL    HW236745   0.166   1.451   2.849 -0.1740  0.0367  0.1066
11899SOL     OW36746   2.081   3.997   3.641 -0.0452 -0.3376  0.3975
11899SOL    HW136747   2.099   4.088   3.617  0.1953 -0.3910  0.3747
11899SOL    HW236748   2.018   3.967   3.575  0.8403 -0.5790 -0.3548
11900SOL     OW36749   2.046   3.894   4.918  0.4919  0.2539  0.3274
11900SOL    HW136750   2.135   3.910   4.888  0.9826  0.5764  1.8705
11900SOL    HW236751   2.022   3.809   4.880  1.9131 -0.4155  0.8847
11901SOL     OW36752   7.680   7.493   3.869  0.2435 -0.4910 -0.3219
11901SOL    HW136753   7.629   7.445   3.803  0.6041  0.3716 -1.2468
11901SOL    HW236754   7.621   7.560   3.901  0.5018 -0.0516 -0.7545
11902SOL     OW36755   5.069   3.317   1.142  0.1553  0.0280  0.1668
11902SOL    HW136756   5.094   3.226   1.159 -3.0138 -0.7565  1.4194
11902SOL    HW236757   5.073   3.359   1.228  0.4964  0.7869 -0.2103
11903SOL     OW36758   3.516   2.088   5.695 -0.2266  0.3533 -0.3552
11903SOL    HW136759   3.465   2.074   5.615 -0.1438  2.2632 -0.7938
11903SOL    HW236760   3.506   2.181   5.713 -1.3556 -0.2521  2.6539
11904SOL     OW36761   7.126   6.434   3.583  0.2453  0.5468  0.5330
11904SOL    HW136762   7.147   6.524   3.607  0.7718  0.6509 -0.2721
11904SOL    HW236763   7.161   6.382   3.655  0.1371  0.9722  0.9003
11905SOL     OW36764   7.898   1.397   0.700 -0.0574 -0.2376  0.2417
11905SOL    HW136765   7.921   1.306   0.682  0.1101 -0.2968  0.7455
11905SOL    HW236766   7.878   1.434   0.614 -3.0046 -1.5252  0.2728
11906SOL     OW36767   4.318   4.132   1.702 -0.2935 -0.5098  0.3589
11906SOL    HW136768   4.412   4.130   1.684 -0.3201 -0.1452  0.1752
11906SOL    HW236769   4.303   4.216   1.744 -0.6720 -0.1949 -0.3888
11907SOL     OW36770   4.178   1.827   7.082 -0.4794  0.2161 -0.4252
11907SOL    HW136771   4.087   1.853   7.098  0.2621  1.4506  2.5782
11907SOL    HW236772   4.211   1.891   7.018 -2.1614 -1.5174 -3.2350
11908SOL     OW36773   0.747   0.456   4.611 -0.5652  0.2235 -0.2372
11908SOL    HW136774   0.739   0.425   4.701  0.5854  0.5326 -0.0173
11908SOL    HW236775   0.783   0.544   4.619  0.9501 -0.2920 -1.0454
11909SOL     OW36776   2.564   7.957   2.586  0.0259  0.0358 -0.5897
11909SOL    HW136777   2.603   8.045   2.590  0.0009  0.0098  0.6286
11909SOL    HW236778   2.622   7.908   2.526 -1.1641  1.4198 -3.0102
11910SOL     OW36779   6.440   3.476   7.783  0.2181  0.1473  0.3334
11910SOL    HW136780   6.514   3.536   7.771  0.0735  0.3492  0.4518
11910SOL    HW236781   6.416   3.486   7.875 -0.6843  0.9255  0.0253
11911SOL     OW36782   6.950   0.788   4.294 -0.4345 -0.8912 -0.2009
11911SOL    HW136783   7.017   0.840   4.337 -0.1032 -0.2233 -1.4546
11911SOL    HW236784   6.900   0.852   4.243  0.0082 -1.7817 -1.8221
11912SOL     OW36785   1.057   6.086   7.203  0.6821  0.2934 -0.1267
11912SOL    HW136786   1.003   6.012   7.231  0.8090 -0.7412 -2.3427
11912SOL    HW236787   0.997   6.161   7.200  0.6098  0.4197  2.4192
11913SOL     OW36788   4.516   1.539   2.837 -0.3338  0.2027  0.3231
11913SOL    HW136789   4.589   1.595   2.811  1.6543 -2.0549  0.6815
11913SOL    HW236790   4.471   1.518   2.755 -0.2804  1.1937  0.0300
11914SOL     OW36791   7.223   3.711   0.924  0.0211  0.1505  0.4345
11914SOL    HW136792   7.254   3.625   0.951 -1.8622 -1.3283 -1.7423
11914SOL    HW236793   7.160   3.736   0.991  0.0442 -0.4979  0.7025
11915SOL     OW36794   0.859   0.704   0.790 -0.3577 -0.0222 -0.1126
11915SOL    HW136795   0.904   0.789   0.782 -0.8071  0.3372  0.9081
11915SOL    HW236796   0.924   0.647   0.832 -0.3242  0.0578 -0.0534
11916SOL     OW36797   4.137   1.984   3.240  0.5082  0.0535  0.4145
11916SOL    HW136798   4.201   1.914   3.254 -1.4964 -1.6051  2.0471
11916SOL    HW236799   4.078   1.951   3.173  0.6235  1.0358 -0.1965
11917SOL     OW36800   3.076   8.104   0.549 -0.1720 -0.1631  0.4610
11917SOL    HW136801   3.046   8.170   0.486  0.8242 -0.1774 -0.0431
11917SOL    HW236802   3.170   8.120   0.558 -0.0023 -1.2185  0.6978
11918SOL     OW36803   3.491   7.737   5.847  0.3075 -0.0933 -0.2568
11918SOL    HW136804   3.456   7.700   5.767 -0.3167  0.5567 -0.2899
11918SOL    HW236805   3.577   7.695   5.857  0.0759 -0.7279 -0.8598
11919SOL     OW36806   2.962   0.672   3.624 -0.2944  0.0070  0.0440
11919SOL    HW136807   2.875   0.640   3.648  0.2822 -1.8503 -0.2140
11919SOL    HW236808   3.017   0.650   3.700  0.8847 -3.0946 -1.5408
11920SOL     OW36809   7.685   5.347   3.506  0.1697  0.7414  0.1102
11920SOL    HW136810   7.638   5.430   3.522 -0.8732 -0.0199  1.2303
11920SOL    HW236811   7.623   5.279   3.533  0.8163 -0.4443 -1.2680
11921SOL     OW36812   6.790   7.631   2.666 -0.4126  0.2762  0.0488
11921SOL    HW136813   6.746   7.712   2.691 -2.0760 -0.3220 -0.8375
11921SOL    HW236814   6.783   7.574   2.742  0.3629  0.7803  0.5106
11922SOL     OW36815   2.652   7.581   4.182  0.4528 -0.1171 -0.6939
11922SOL    HW136816   2.566   7.599   4.145  0.6128 -2.0644 -2.1769
11922SOL    HW236817   2.661   7.486   4.178  1.5159 -0.2268  2.1833
11923SOL     OW36818   2.961   5.314   7.824  0.4955  0.2453 -0.1649
11923SOL    HW136819   2.936   5.398   7.862  2.1422  0.2668  0.9936
11923SOL    HW236820   3.057   5.312   7.831  0.8708 -0.1028 -3.6814
11924SOL     OW36821   2.097   6.657   7.247 -0.1419 -0.1555  0.0429
11924SOL    HW136822   2.036   6.665   7.173 -0.0688 -0.7026 -0.0841
11924SOL    HW236823   2.098   6.564   7.266 -0.5296  0.0387  1.0643
11925SOL     OW36824   2.952   1.552   1.338 -0.4187 -0.9268  0.1545
11925SOL    HW136825   2.995   1.575   1.420  0.4579  1.0952 -0.7887
11925SOL    HW236826   3.015   1.497   1.292  0.9168  1.2778 -0.8288
11926SOL     OW36827   3.108   7.407   4.616  0.2748  0.3417  0.2459
11926SOL    HW136828   3.022   7.449   4.616  0.5931  1.0095  0.0218
11926SOL    HW236829   3.104   7.343   4.687 -0.3869  0.4058  0.2700
11927SOL     OW36830   5.606   6.524   4.113  0.0154  0.7875 -0.1356
11927SOL    HW136831   5.552   6.509   4.035  2.4604 -1.0354 -1.6126
11927SOL    HW236832   5.602   6.618   4.127 -0.0097  1.2783 -2.8803
11928SOL     OW36833   4.762   3.449   4.031  0.2700  0.2089  0.1456
11928SOL    HW136834   4.675   3.459   4.071  0.0114  1.0720 -0.6069
11928SOL    HW236835   4.744   3.419   3.942  0.7253  0.7047 -0.1147
11929SOL     OW36836   5.765   5.906   0.195  0.4121 -0.0071 -0.3244
11929SOL    HW136837   5.845   5.858   0.174  0.3450 -0.1097 -0.3441
11929SOL    HW236838   5.737   5.942   0.111  0.8719  0.6991 -0.1903
11930SOL     OW36839   2.934   1.429   2.349 -0.5079  0.3327  0.5017
11930SOL    HW136840   2.950   1.465   2.436  0.4076  1.1592  0.0101
11930SOL    HW236841   3.011   1.374   2.331 -0.5815  0.3504  0.1207
11931SOL     OW36842   4.964   4.755   4.768 -0.2049  0.0161  0.4479
11931SOL    HW136843   4.942   4.742   4.861 -1.8827  0.5027  0.1587
11931SOL    HW236844   5.017   4.679   4.745 -0.3102 -0.4443  1.6445
11932SOL     OW36845   2.819   4.182   3.985 -0.0003 -0.1669 -0.2889
11932SOL    HW136846   2.767   4.123   3.930  0.5003  0.4946 -1.5103
11932SOL    HW236847   2.775   4.267   3.976  0.8071  0.2167 -0.6769
11933SOL     OW36848   6.872   3.355   8.011  0.2251 -0.1324 -0.4710
11933SOL    HW136849   6.890   3.395   7.926  0.6338  0.0217 -0.3148
11933SOL    HW236850   6.809   3.416   8.052  1.3267  0.7119  0.0217
11934SOL     OW36851   7.638   4.461   4.609  0.2041  0.2250  0.2736
11934SOL    HW136852   7.609   4.417   4.688 -1.7478  1.3260  0.2491
11934SOL    HW236853   7.693   4.397   4.564 -1.9390 -1.9322  0.5469
11935SOL     OW36854   2.063   7.900   6.871 -0.1263 -0.1580 -0.3187
11935SOL    HW136855   1.967   7.906   6.875 -0.0827  0.1282  0.3361
11935SOL    HW236856   2.090   7.986   6.839  0.0194  0.4823  1.4166
11936SOL     OW36857   7.276   7.923   7.971 -0.0004  0.4915  0.3494
11936SOL    HW136858   7.344   7.990   7.970  0.4695  0.0004 -0.9456
11936SOL    HW236859   7.280   7.882   7.885  0.1478 -1.6506  1.3149
11937SOL     OW36860   1.975   8.039   4.156  0.0839 -0.1030 -0.0251
11937SOL    HW136861   2.013   8.012   4.240 -2.3186  1.5317  1.7344
11937SOL    HW236862   1.985   8.134   4.154 -3.9238  0.5298  0.7630
11938SOL     OW36863   2.556   0.861   6.177  0.0394 -0.3552 -0.3334
11938SOL    HW136864   2.598   0.787   6.221  2.3655  1.5362  0.8675
11938SOL    HW236865   2.626   0.903   6.127 -0.9049  1.6252 -0.1098
11939SOL     OW36866   1.435   5.563   7.073 -0.1448  0.2020  0.1549
11939SOL    HW136867   1.498   5.506   7.116 -1.7158 -1.4532  0.3844
11939SOL    HW236868   1.468   5.573   6.984 -1.2213 -3.5326 -0.8292
11940SOL     OW36869   7.246   6.523   3.140  0.0406 -0.1109  0.4691
11940SOL    HW136870   7.286   6.537   3.226  0.7367 -0.5122  0.2225
11940SOL    HW236871   7.221   6.431   3.140  1.6158 -0.5930 -0.3646
11941SOL     OW36872   3.836   1.843   6.167  0.2673  0.0124 -0.1673
11941SOL    HW136873   3.876   1.879   6.088 -0.6331 -0.3543 -0.8115
11941SOL    HW236874   3.865   1.752   6.170 -2.2846 -0.9865 -1.9585
11942SOL     OW36875   5.461   2.315   4.254 -0.3819  0.1809  0.1975
11942SOL    HW136876   5.421   2.402   4.259  0.1619  0.3738  1.8549
11942SOL    HW236877   5.464   2.285   4.345  0.3507 -1.1591 -0.2439
11943SOL     OW36878   5.935   1.968   3.715  0.1561 -0.0802  0.4425
11943SOL    HW136879   5.983   1.928   3.643  0.9309 -0.5893  1.2189
11943SOL    HW236880   5.997   2.030   3.754  0.1887 -0.7072  1.4228
11944SOL     OW36881   2.303   4.253   3.077 -0.1220 -0.1370 -0.0468
11944SOL    HW136882   2.208   4.251   3.080 -0.0989 -1.3834  0.3962
11944SOL    HW236883   2.329   4.161   3.081  1.1661  0.2483  2.6041
11945SOL     OW36884   7.568   5.100   4.313 -0.2168 -0.2344 -0.0399
11945SOL    HW136885   7.602   5.025   4.263 -0.9041  0.8842 -2.2903
11945SOL    HW236886   7.519   5.060   4.385  0.7687 -1.9060 -0.2297
11946SOL     OW36887   6.737   0.832   0.310  0.2172  0.0741 -0.5389
11946SOL    HW136888   6.803   0.788   0.363  0.6304 -0.7282 -1.6765
11946SOL    HW236889   6.693   0.892   0.371 -0.6321 -2.1387  1.1986
11947SOL     OW36890   2.703   7.350   1.778  0.0422 -0.2711  0.0151
11947SOL    HW136891   2.729   7.285   1.712  0.6377 -0.7912  0.7341
11947SOL    HW236892   2.766   7.422   1.766  0.4202 -0.5513  0.2862
11948SOL     OW36893   6.060   0.729   7.685 -0.9586  0.5124  0.2444
11948SOL    HW136894   5.978   0.751   7.640 -1.3211  2.2829  1.6467
11948SOL    HW236895   6.046   0.639   7.717 -2.7001  1.0275  1.0928
11949SOL     OW36896   7.487   7.758   2.109 -0.4170  0.2947  0.0181
11949SOL    HW136897   7.549   7.831   2.112  0.9821 -0.8071 -0.7489
11949SOL    HW236898   7.463   7.743   2.201  0.6809  0.5749  0.3704
11950SOL     OW36899   0.449   4.299   3.182  0.2883  0.2587  0.2396
11950SOL    HW136900   0.477   4.366   3.119  0.2262  1.6293  1.6022
11950SOL    HW236901   0.496   4.321   3.262  0.5494 -1.5903  0.6380
11951SOL     OW36902   4.522   3.357   2.461  0.0785 -0.0981 -0.2798
11951SOL    HW136903   4.447   3.318   2.506 -0.4491  0.1539 -0.9293
11951SOL    HW236904   4.564   3.412   2.527 -1.5332  1.4332 -0.4414
11952SOL     OW36905   7.777   3.978   7.690 -0.0657  0.9257 -0.6023
11952SOL    HW136906   7.864   4.017   7.701 -0.1021  0.8012  0.2647
11952SOL    HW236907   7.753   3.997   7.600  0.8628  0.9670 -0.8538
11953SOL     OW36908   0.664   4.815   1.207 -0.5046  0.1511  0.1250
11953SOL    HW136909   0.731   4.746   1.205 -1.4176 -0.7513 -0.1372
11953SOL    HW236910   0.587   4.773   1.245 -0.7622  1.3365  0.9725
11954SOL     OW36911   1.968   4.602   0.240 -0.0633  0.2006 -0.2595
11954SOL    HW136912   1.983   4.652   0.319  1.4565 -0.4834 -0.0749
11954SOL    HW236913   2.047   4.614   0.188  0.0523 -1.4085 -0.5251
11955SOL     OW36914   5.661   5.701   5.955  0.0544  0.7164  0.0305
11955SOL    HW136915   5.721   5.750   6.011 -1.4634  0.1144  2.3140
11955SOL    HW236916   5.583   5.688   6.008 -1.4354 -0.1002 -2.1820
11956SOL     OW36917   4.528   6.488   1.657 -0.1098  0.3751 -0.4217
11956SOL    HW136918   4.542   6.441   1.575  0.3553 -1.0126  0.4116
11956SOL    HW236919   4.616   6.505   1.690 -0.2893  1.1559 -0.3248
11957SOL     OW36920   6.960   2.677   6.698 -0.3370  0.6404  0.1125
11957SOL    HW136921   6.976   2.594   6.744 -0.3187  0.1130 -0.8196
11957SOL    HW236922   6.874   2.666   6.658  0.0791  0.6770 -0.8229
11958SOL     OW36923   2.969   7.877   2.875 -0.6171 -0.1315 -0.1540
11958SOL    HW136924   2.955   7.799   2.821  1.8962 -1.6898  1.2371
11958SOL    HW236925   2.907   7.866   2.947 -0.2649 -0.9015  0.0484
11959SOL     OW36926   5.110   6.303   6.905 -0.1103  0.0123 -0.0607
11959SOL    HW136927   5.033   6.353   6.929  0.3679  0.5550  0.3547
11959SOL    HW236928   5.094   6.216   6.941  0.3360  0.6432  1.7653
11960SOL     OW36929   3.253   0.544   2.691  0.1742 -0.1521  0.1172
11960SOL    HW136930   3.346   0.557   2.713  0.6863 -2.7977 -0.1864
11960SOL    HW236931   3.206   0.581   2.765  1.6175 -1.9058  2.0126
11961SOL     OW36932   3.474   2.723   5.569 -0.3293  0.1819 -0.2734
11961SOL    HW136933   3.425   2.641   5.563 -0.1287 -0.0884  1.3424
11961SOL    HW236934   3.546   2.713   5.507 -1.1459 -0.2463 -1.1750
11962SOL     OW36935   6.288   4.705   2.808 -0.0302 -0.0354  0.0352
11962SOL    HW136936   6.272   4.783   2.861 -0.8709  1.0012 -1.6593
11962SOL    HW236937   6.355   4.732   2.746  0.6512 -1.1000  0.2933
11963SOL     OW36938   3.927   5.878   1.901 -0.0989  0.6884  0.1905
11963SOL    HW136939   4.009   5.858   1.857 -0.7730 -0.8773 -0.4182
11963SOL    HW236940   3.859   5.842   1.844 -1.1019  0.2968  1.5731
11964SOL     OW36941   7.571   7.533   0.308 -0.1096  0.2043 -0.1052
11964SOL    HW136942   7.564   7.604   0.371  1.2932  0.8296 -0.6021
11964SOL    HW236943   7.565   7.453   0.361 -0.9487  0.6908  0.5492
11965SOL     OW36944   5.994   7.756   8.035  0.5482  0.4655  0.3477
11965SOL    HW136945   6.001   7.836   8.087  0.1973  1.6403 -1.3392
11965SOL    HW236946   6.019   7.782   7.947  1.4858 -1.5564 -0.0367
11966SOL     OW36947   5.731   7.410   3.332 -0.2278 -0.0914 -0.2285
11966SOL    HW136948   5.779   7.466   3.271  0.7270 -0.7821 -0.1348
11966SOL    HW236949   5.651   7.387   3.286  0.1220  0.0455 -0.9146
11967SOL     OW36950   6.746   0.683   0.087  0.3852  0.3726 -0.2914
11967SOL    HW136951   6.659   0.649   0.068  0.4462 -0.7731  1.3428
11967SOL    HW236952   6.734   0.741   0.162  0.9597  0.6426 -0.3976
11968SOL     OW36953   0.463   3.297   0.361  0.1256 -0.8283  0.4789
11968SOL    HW136954   0.496   3.207   0.352  0.8214 -0.4782 -0.8733
11968SOL    HW236955   0.374   3.294   0.328  0.7334 -0.7169 -1.2818
11969SOL     OW36956   2.476   6.587   7.372 -0.0029  0.0870 -0.0429
11969SOL    HW136957   2.380   6.594   7.376 -0.0922 -0.8365 -0.3749
11969SOL    HW236958   2.497   6.601   7.280  0.0948 -0.6444 -0.1360
11970SOL     OW36959   5.969   0.479   2.665 -0.2906  0.8147 -0.0060
11970SOL    HW136960   6.019   0.398   2.681 -0.2646  0.7348 -0.4851
11970SOL    HW236961   6.032   0.538   2.623 -0.7426  0.5125 -1.1433
11971SOL     OW36962   2.026   1.143   3.269 -0.0331 -0.1572 -0.2877
11971SOL    HW136963   2.036   1.076   3.336  1.7945  0.7505  0.4172
11971SOL    HW236964   2.081   1.113   3.196 -2.4744 -1.4427 -1.7107
11972SOL     OW36965   2.195   7.013   3.477 -0.0205 -0.7917 -0.5038
11972SOL    HW136966   2.263   6.979   3.419 -0.8237  1.8743 -3.2996
11972SOL    HW236967   2.234   7.011   3.564  2.5086 -2.0270 -1.5718
11973SOL     OW36968   0.488   0.135   3.836 -0.6636  0.1159  0.1972
11973SOL    HW136969   0.518   0.184   3.759 -2.4959  1.8449  0.4949
11973SOL    HW236970   0.438   0.063   3.800  1.0144 -0.9021 -0.2285
11974SOL     OW36971   1.828   8.117   0.678  0.1998  0.1002 -0.1658
11974SOL    HW136972   1.862   8.206   0.673  0.2771  0.1385  0.7475
11974SOL    HW236973   1.890   8.072   0.735  0.0973 -0.5081 -0.5337
11975SOL     OW36974   2.952   1.840   3.261  0.2743 -1.1151  0.2650
11975SOL    HW136975   2.876   1.782   3.252 -0.6470 -0.0145  0.6981
11975SOL    HW236976   2.926   1.902   3.330  0.6435  0.6917 -1.1705
11976SOL     OW36977   3.968   0.807   7.883 -0.3342  0.1761  0.0547
11976SOL    HW136978   4.021   0.747   7.936  1.0871  0.6445 -0.7828
11976SOL    HW236979   3.979   0.777   7.793 -0.3794  1.1059 -0.2795
11977SOL     OW36980   1.648   2.199   5.209  0.0205 -0.5634 -0.4424
11977SOL    HW136981   1.554   2.190   5.222  0.2412 -2.8532  0.0913
11977SOL    HW236982   1.658   2.205   5.114 -0.6701 -0.0830 -0.4927
11978SOL     OW36983   5.014   7.402   5.996 -0.5691  0.4939  0.3727
11978SOL    HW136984   4.926   7.405   5.960 -0.6540 -0.9772  0.3829
11978SOL    HW236985   5.071   7.426   5.923 -0.9279  0.5437  0.1088
11979SOL     OW36986   6.761   1.411   2.799 -0.4045  0.2616 -0.3758
11979SOL    HW136987   6.832   1.472   2.778  0.9480 -0.8255  0.7775
11979SOL    HW236988   6.687   1.468   2.820  0.6035  1.5106 -0.0028
11980SOL     OW36989   5.996   8.146   0.230 -0.2992 -0.4830  0.8126
11980SOL    HW136990   6.079   8.191   0.213  0.1176 -1.2191  0.8966
11980SOL    HW236991   5.929   8.209   0.202  0.3178 -0.6068 -1.0958
11981SOL     OW36992   3.258   1.416   6.927 -0.3193 -0.0851 -0.4861
11981SOL    HW136993   3.243   1.509   6.911  0.4264  0.5794  2.1427
11981SOL    HW236994   3.348   1.411   6.960 -0.7713 -1.5364  0.6419
11982SOL     OW36995   1.968   6.180   0.959 -0.0387 -0.0865 -0.1477
11982SOL    HW136996   1.957   6.162   0.865  0.3975  3.4753 -1.0325
11982SOL    HW236997   1.879   6.185   0.993 -0.2597 -5.0856  0.6673
11983SOL     OW36998   3.389   7.456   0.182  0.5659 -0.2802 -0.2542
11983SOL    HW136999   3.353   7.537   0.219  0.0513 -0.8129  0.4420
11983SOL    HW237000   3.420   7.407   0.258 -0.5734 -1.4327 -0.4990
11984SOL     OW37001   4.102   5.685   3.224  0.2898  0.4754 -0.3704
11984SOL    HW137002   4.037   5.716   3.161 -1.1681 -0.5721  0.5580
11984SOL    HW237003   4.136   5.765   3.265 -2.0415  0.9990  0.6885
11985SOL     OW37004   7.932   1.760   7.842  0.3142  0.4317  0.0461
11985SOL    HW137005   7.879   1.762   7.922  0.8009 -0.7832  0.4107
11985SOL    HW237006   8.017   1.795   7.868  0.6332 -0.4419  0.1871
11986SOL     OW37007   2.840   2.000   7.905 -0.2908  0.1218 -0.2967
11986SOL    HW137008   2.826   2.023   7.814 -2.5747  1.9917  0.4184
11986SOL    HW237009   2.757   1.959   7.932 -0.3426  1.1950  1.3283
11987SOL     OW37010   5.261   2.833   5.440 -0.3813 -0.0028  0.0410
11987SOL    HW137011   5.239   2.925   5.425 -2.8353 -0.5399 -0.1855
11987SOL    HW237012   5.220   2.812   5.523  2.8757 -0.1744  1.7648
11988SOL     OW37013   0.974   5.593   6.635  0.3604 -0.2245  0.1325
11988SOL    HW137014   0.929   5.676   6.648 -1.9558 -1.3943  0.1217
11988SOL    HW237015   1.001   5.595   6.543  0.2242  0.4795  0.1017
11989SOL     OW37016   4.246   6.299   3.821 -0.3853 -0.6611 -0.1619
11989SOL    HW137017   4.206   6.338   3.743 -1.4692 -0.3357  0.5328
11989SOL    HW237018   4.237   6.205   3.808  0.7800 -0.6709 -1.0944
11990SOL     OW37019   4.780   8.089   6.125  0.4656  0.1431 -0.8620
11990SOL    HW137020   4.836   8.016   6.151  1.4809 -0.1438 -3.5500
11990SOL    HW237021   4.841   8.157   6.095 -0.4963  1.8726  0.8383
11991SOL     OW37022   1.741   0.627   3.869  0.3477 -1.0134  0.1287
11991SOL    HW137023   1.708   0.589   3.788  1.4367 -1.8477  0.0521
11991SOL    HW237024   1.706   0.572   3.938 -0.5869 -0.2974  0.2361
11992SOL     OW37025   6.685   7.371   1.722  1.0406  0.2501  0.1505
11992SOL    HW137026   6.751   7.439   1.729  1.0296  0.2952 -0.1855
11992SOL    HW237027   6.724   7.303   1.667  0.3343  0.8592 -1.1381
11993SOL     OW37028   7.202   6.714   6.698 -0.0806 -0.4304 -0.0690
11993SOL    HW137029   7.162   6.660   6.630  0.7439 -0.5117 -0.4960
11993SOL    HW237030   7.178   6.671   6.780  1.8839 -2.3862 -0.4488
11994SOL     OW37031   0.975   6.736   3.614  0.2553 -0.5569  0.6307
11994SOL    HW137032   1.057   6.719   3.662  0.8048  0.3009  0.0296
11994SOL    HW237033   0.909   6.745   3.682  0.5245 -1.8972  1.1042
11995SOL     OW37034   5.652   2.663   7.973 -0.2719 -0.0830 -0.1638
11995SOL    HW137035   5.644   2.664   7.877 -3.7942  0.2651  0.0098
11995SOL    HW237036   5.692   2.578   7.992 -1.3336 -1.0491 -1.9076
11996SOL     OW37037   7.596   1.375   6.667  0.1108  0.1272 -0.1526
11996SOL    HW137038   7.597   1.322   6.587 -1.4950  0.1540 -0.2267
11996SOL    HW237039   7.650   1.326   6.729  0.5853 -0.3868 -0.9566
11997SOL     OW37040   6.954   1.185   2.308  0.5626  0.2860 -0.1802
11997SOL    HW137041   6.912   1.117   2.361 -0.4477 -2.2502 -3.9008
11997SOL    HW237042   6.907   1.265   2.330 -1.7785 -1.2044  0.5745
11998SOL     OW37043   7.291   2.416   5.172 -0.2600 -0.4772  0.0051
11998SOL    HW137044   7.354   2.485   5.154  1.3504 -0.8830  3.4490
11998SOL    HW237045   7.206   2.461   5.171  0.5763  1.1981  0.4584
11999SOL     OW37046   6.151   5.696   1.558 -0.4055 -0.5844  0.0370
11999SOL    HW137047   6.082   5.693   1.492  0.6273 -0.5464 -1.0690
11999SOL    HW237048   6.208   5.622   1.536 -0.4927 -1.0800  1.4026
12000SOL     OW37049   1.781   7.950   6.578  0.4417  0.0738  0.0036
12000SOL    HW137050   1.721   8.005   6.529  0.5474  0.5094  0.3647
12000SOL    HW237051   1.861   7.949   6.525  0.2597 -0.1690 -0.2685
12001SOL     OW37052   6.728   0.217   6.382 -0.0194 -0.8704 -1.1674
12001SOL    HW137053   6.680   0.146   6.424 -0.4825 -0.2274 -0.5940
12001SOL    HW237054   6.709   0.294   6.434  0.6070 -0.3437 -1.6878
12002SOL     OW37055   4.280   5.407   6.656  0.0128  0.3041  0.5325
12002SOL    HW137056   4.315   5.327   6.695  1.3472  0.7381  0.2743
12002SOL    HW237057   4.304   5.476   6.717 -0.7979  0.5689  0.5646
12003SOL     OW37058   0.810   0.927   6.441  0.1677 -0.2836 -0.1150
12003SOL    HW137059   0.889   0.938   6.495  0.7231  2.6665 -1.3446
12003SOL    HW237060   0.834   0.860   6.377  1.4186  0.0072  0.0260
12004SOL     OW37061   5.722   6.444   7.701  0.0557 -0.1820 -0.2723
12004SOL    HW137062   5.779   6.479   7.633  1.1316 -1.3209  0.0180
12004SOL    HW237063   5.711   6.517   7.762  0.7038  0.2394 -0.6503
12005SOL     OW37064   7.489   8.067   7.892 -0.1617  0.1774  0.1013
12005SOL    HW137065   7.522   8.152   7.921 -0.5480  0.2665  0.2745
12005SOL    HW237066   7.563   8.007   7.905 -0.5442  0.0639  1.9585
12006SOL     OW37067   2.702   5.948   0.946  0.3828  0.7503  0.0680
12006SOL    HW137068   2.706   5.875   1.009  1.3194  0.2903 -0.4999
12006SOL    HW237069   2.738   6.023   0.993  1.0708  0.4097  0.0933
12007SOL     OW37070   3.573   2.914   5.275  0.4516 -0.0987 -0.1384
12007SOL    HW137071   3.507   2.904   5.207 -0.4942  1.2720  0.5321
12007SOL    HW237072   3.582   2.826   5.313 -0.4087 -0.4714 -0.7591
12008SOL     OW37073   8.076   4.409   0.440 -0.0432  0.0347 -0.1469
12008SOL    HW137074   8.130   4.427   0.517  0.3609  0.6478 -0.5643
12008SOL    HW237075   8.127   4.347   0.388 -0.7751 -1.1945  0.5664
12009SOL     OW37076   0.271   7.558   1.710 -0.5061  0.3552 -0.5619
12009SOL    HW137077   0.293   7.572   1.618 -1.0609  0.5885 -0.6676
12009SOL    HW237078   0.306   7.635   1.754  1.2412 -0.5464 -0.3092
12010SOL     OW37079   6.930   1.796   2.861  0.6813  0.5907 -0.1314
12010SOL    HW137080   6.898   1.857   2.795  0.2354 -0.6224 -1.0762
12010SOL    HW237081   6.957   1.719   2.812 -0.3597 -0.6466  1.1290
12011SOL     OW37082   5.346   0.275   0.447  0.0512 -0.4040  0.2287
12011SOL    HW137083   5.363   0.223   0.369  2.2467  1.6225 -0.7375
12011SOL    HW237084   5.310   0.357   0.415 -0.3738 -0.0670  1.4797
12012SOL     OW37085   7.801   6.566   8.133 -0.5096  0.1771 -0.3367
12012SOL    HW137086   7.846   6.650   8.128  0.7121 -0.4757 -0.6728
12012SOL    HW237087   7.834   6.516   8.058  0.2554 -1.2860  0.9073
12013SOL     OW37088   2.322   4.444   3.563 -0.1072 -0.5253  0.0976
12013SOL    HW137089   2.413   4.434   3.590  0.2764 -0.2729 -1.0507
12013SOL    HW237090   2.325   4.447   3.468 -1.4528 -1.8173 -0.0318
12014SOL     OW37091   3.808   8.252   4.941  0.0021  0.2047 -0.3060
12014SOL    HW137092   3.793   8.347   4.939  0.1257  0.2096 -1.6072
12014SOL    HW237093   3.903   8.243   4.940 -0.0130  0.0654 -0.5449
12015SOL     OW37094   7.795   1.739   3.690 -0.4149 -0.3013  0.5488
12015SOL    HW137095   7.855   1.809   3.662  1.2623 -1.7232  0.4496
12015SOL    HW237096   7.758   1.705   3.609  0.4966 -1.0030  0.4167
12016SOL     OW37097   2.473   0.138   6.574  0.9578  0.0925 -0.5386
12016SOL    HW137098   2.554   0.149   6.624  1.3084  3.0343 -1.5404
12016SOL    HW237099   2.412   0.097   6.635  1.8684  1.9705  1.8075
12017SOL     OW37100   4.975   4.994   5.784 -0.2694 -0.0285  0.1236
12017SOL    HW137101   4.958   4.900   5.788  1.5002 -0.4663 -1.3048
12017SOL    HW237102   4.942   5.028   5.868 -0.3681 -2.0076  0.9411
12018SOL     OW37103   6.888   1.389   0.334 -0.2162  0.7105 -0.3053
12018SOL    HW137104   6.866   1.297   0.316  2.7072  0.0250 -0.9535
12018SOL    HW237105   6.808   1.426   0.370 -1.7624 -1.8708 -0.7959
12019SOL     OW37106   5.573   7.905   7.346 -0.0905 -0.3413 -0.0369
12019SOL    HW137107   5.592   7.925   7.255 -0.2737  2.9253  0.5132
12019SOL    HW237108   5.648   7.855   7.377  1.4232  1.1160 -1.2237
12020SOL     OW37109   5.847   3.969   1.510 -0.5356  0.0535  0.3737
12020SOL    HW137110   5.920   4.027   1.488  1.1537 -1.9018  0.4880
12020SOL    HW237111   5.776   4.028   1.535  1.3574  2.0617  1.3944
12021SOL     OW37112   1.413   1.464   2.716 -0.5504  0.4127  0.0697
12021SOL    HW137113   1.371   1.433   2.635 -0.7156 -0.3136  0.4296
12021SOL    HW237114   1.441   1.553   2.695 -0.3240  0.1291 -0.8940
12022SOL     OW37115   0.662   1.424   7.304  0.1554  0.1392 -0.4341
12022SOL    HW137116   0.583   1.466   7.271 -0.6104 -0.3730  0.6621
12022SOL    HW237117   0.688   1.477   7.380  1.0243  0.4448 -0.9217
12023SOL     OW37118   6.629   0.926   7.460 -0.3448  0.1124 -0.3234
12023SOL    HW137119   6.696   0.958   7.520 -1.0192  1.7309 -0.3956
12023SOL    HW237120   6.607   0.839   7.493  1.0701 -0.0276  0.2865
12024SOL     OW37121   2.237   1.240   0.625 -0.7270  0.0424  0.0936
12024SOL    HW137122   2.256   1.224   0.533  0.0201  0.5359  0.1530
12024SOL    HW237123   2.293   1.313   0.649 -0.1493 -0.7338  1.2079
12025SOL     OW37124   5.618   0.838   4.459  0.2814 -0.1194  0.3108
12025SOL    HW137125   5.583   0.843   4.370 -2.0998  1.7005  1.2505
12025SOL    HW237126   5.703   0.882   4.455 -1.6339  3.9953 -0.3510
12026SOL     OW37127   3.649   5.509   5.019 -1.0122  0.2294  0.2520
12026SOL    HW137128   3.644   5.452   5.096 -0.6459  1.3232  1.1088
12026SOL    HW237129   3.635   5.597   5.054  0.5589  0.8968 -0.7038
12027SOL     OW37130   7.037   1.463   3.983  0.1034 -0.2436 -0.0598
12027SOL    HW137131   7.000   1.534   3.931  0.9922  0.1835 -0.1101
12027SOL    HW237132   7.108   1.428   3.930  1.0628  0.2429  0.8836
12028SOL     OW37133   3.020   3.894   1.669 -0.0926 -0.0551 -0.4689
12028SOL    HW137134   2.964   3.888   1.747  0.6262  0.6354  0.1145
12028SOL    HW237135   3.070   3.974   1.682  1.0458 -0.6715 -0.9738
12029SOL     OW37136   6.560   4.823   1.865 -0.5797  0.7412  0.0145
12029SOL    HW137137   6.478   4.870   1.881  0.4261  1.8995  2.1519
12029SOL    HW237138   6.576   4.836   1.771 -1.8359  2.1904 -0.0556
12030SOL     OW37139   7.891   1.100   5.918 -0.4489 -0.5423 -0.4055
12030SOL    HW137140   7.798   1.083   5.908 -0.9849  1.5820  0.4367
12030SOL    HW237141   7.913   1.159   5.846  0.1472 -0.7559 -0.4016
12031SOL     OW37142   5.321   6.604   7.785 -0.0967  0.0675  0.0322
12031SOL    HW137143   5.273   6.631   7.707  2.2062 -0.5473 -1.7181
12031SOL    HW237144   5.288   6.517   7.805  0.0255 -0.2099 -0.9357
12032SOL     OW37145   2.453   2.009   7.543  0.1560 -0.0605 -0.4766
12032SOL    HW137146   2.498   1.985   7.462  3.1104 -0.6469  1.1563
12032SOL    HW237147   2.520   2.055   7.594 -2.1097  1.8423  0.9719
12033SOL     OW37148   6.743   2.404   8.262 -0.3401 -0.2489  0.1216
12033SOL    HW137149   6.660   2.391   8.216 -0.6625 -0.6910  0.8195
12033SOL    HW237150   6.799   2.449   8.198 -0.5528 -1.4494 -0.9474
12034SOL     OW37151   6.800   4.859   5.475 -0.5270 -0.2247  0.4178
12034SOL    HW137152   6.776   4.817   5.557  1.3941 -1.5774  0.3672
12034SOL    HW237153   6.825   4.787   5.417  0.4967  0.8278 -0.5216
12035SOL     OW37154   8.090   7.989   1.428  0.1669  0.5428 -0.1986
12035SOL    HW137155   8.183   8.010   1.417 -0.0787  0.7818 -2.1062
12035SOL    HW237156   8.056   8.061   1.481  0.8834  0.9609 -0.2858
12036SOL     OW37157   5.906   4.522   4.165  0.0478  0.9001 -0.8163
12036SOL    HW137158   5.989   4.567   4.147 -0.2557  1.3187 -1.1784
12036SOL    HW237159   5.895   4.530   4.260  0.5787  0.5640 -0.7215
12037SOL     OW37160   3.179   4.165   6.535 -0.1842 -0.3679 -0.3721
12037SOL    HW137161   3.159   4.256   6.556 -0.4126 -0.1747 -1.4031
12037SOL    HW237162   3.254   4.170   6.475  0.6127 -0.9238  0.5448
12038SOL     OW37163   8.196   0.408   0.289  0.2123  0.2747 -0.1843
12038SOL    HW137164   8.186   0.318   0.258 -1.0849  0.0305  0.8234
12038SOL    HW237165   8.149   0.461   0.224  0.0856  0.1014 -0.2351
12039SOL     OW37166   6.743   0.518   7.653  0.2455 -0.0380 -0.0158
12039SOL    HW137167   6.790   0.440   7.622  0.4281  0.4928 -1.1216
12039SOL    HW237168   6.768   0.526   7.745  1.6204 -0.2815 -0.3469
12040SOL     OW37169   3.234   3.219   4.536  0.3551 -0.3430 -0.2066
12040SOL    HW137170   3.219   3.216   4.631  2.3479 -0.6153  0.1622
12040SOL    HW237171   3.259   3.129   4.514  0.6923 -0.1029 -0.8170
12041SOL     OW37172   7.616   5.885   0.503 -0.1362 -0.5813 -0.0753
12041SOL    HW137173   7.679   5.910   0.436  0.6205 -1.4212  0.3092
12041SOL    HW237174   7.632   5.946   0.575 -1.0457  0.4147 -0.6788
12042SOL     OW37175   4.242   2.418   7.807  0.2369  0.2127 -0.0438
12042SOL    HW137176   4.271   2.414   7.898  1.5919  1.7745 -0.3531
12042SOL    HW237177   4.159   2.465   7.810 -0.1475 -0.4865  0.4522
12043SOL     OW37178   6.215   2.204   3.247  0.6541 -0.2509 -0.0882
12043SOL    HW137179   6.120   2.202   3.255  0.6257  0.1758 -0.2785
12043SOL    HW237180   6.241   2.290   3.280  0.9442 -0.2456 -0.3148
12044SOL     OW37181   7.779   7.131   3.167 -0.5804 -0.0591 -0.3386
12044SOL    HW137182   7.821   7.112   3.251 -2.0970 -2.3803 -0.0274
12044SOL    HW237183   7.845   7.181   3.119  0.2573  1.5784  2.2703
12045SOL     OW37184   5.022   7.193   6.200 -0.0783  0.3292  0.2289
12045SOL    HW137185   5.016   7.104   6.167 -0.5112  0.6215 -0.5194
12045SOL    HW237186   5.051   7.245   6.125 -1.4728  1.0717  0.1608
12046SOL     OW37187   2.642   4.161   5.812 -0.6343 -0.0318  0.1472
12046SOL    HW137188   2.583   4.129   5.879 -0.5050  0.0612  0.3058
12046SOL    HW237189   2.592   4.156   5.730 -0.3038 -1.5462  0.0142
12047SOL     OW37190   8.081   2.171   7.112  0.3399 -0.1781 -0.1221
12047SOL    HW137191   8.002   2.214   7.145 -0.5898 -1.5815 -0.4154
12047SOL    HW237192   8.052   2.125   7.033  1.0565 -2.0398  0.6363
12048SOL     OW37193   0.829   2.092   7.794 -0.1008  0.2936 -0.4929
12048SOL    HW137194   0.814   1.998   7.810  2.1996  0.2783  2.5074
12048SOL    HW237195   0.781   2.110   7.714 -1.3824 -3.2495 -0.7259
12049SOL     OW37196   4.427   7.447   3.741 -0.6768  0.1945  0.5148
12049SOL    HW137197   4.511   7.487   3.717 -1.3286  1.8584  0.8869
12049SOL    HW237198   4.373   7.457   3.663 -0.9884  0.4920  0.7636
12050SOL     OW37199   6.519   2.068   6.990 -0.3398 -0.8909 -0.2502
12050SOL    HW137200   6.429   2.064   6.956 -0.2939 -0.6073 -0.4077
12050SOL    HW237201   6.556   2.146   6.950 -0.0437 -0.9676 -0.1271
12051SOL     OW37202   7.551   3.222   3.907  0.4523  0.1169 -0.7536
12051SOL    HW137203   7.505   3.293   3.952 -0.0068 -0.6531  0.0113
12051SOL    HW237204   7.482   3.174   3.861  0.5380 -0.7864  0.0425
12052SOL     OW37205   4.471   4.978   0.004 -0.1883 -0.3869  0.0238
12052SOL    HW137206   4.516   5.033  -0.059 -0.7335  1.4598  1.1586
12052SOL    HW237207   4.503   5.007   0.090 -0.2935 -2.0414  0.6651
12053SOL     OW37208   4.654   3.101   0.796 -0.4117  0.4408 -0.0608
12053SOL    HW137209   4.602   3.181   0.789  0.9511  1.2545 -2.2444
12053SOL    HW237210   4.741   3.132   0.823 -0.2465 -0.5006  0.5264
12054SOL     OW37211   7.121   1.910   7.587 -0.2964 -0.2479  0.1362
12054SOL    HW137212   7.129   1.924   7.493  0.7728 -0.6887  0.1531
12054SOL    HW237213   7.136   1.997   7.625 -0.2834 -0.1582 -0.0713
12055SOL     OW37214   7.876   2.939   4.103  0.1098 -0.2210 -0.2774
12055SOL    HW137215   7.949   2.943   4.164  1.6214  1.6312 -2.0709
12055SOL    HW237216   7.880   2.851   4.066  0.5855 -0.5796  0.6099
12056SOL     OW37217   3.888   6.900   7.288  0.6662  0.0442 -0.2046
12056SOL    HW137218   3.868   6.959   7.216 -1.2129  3.8533  3.0378
12056SOL    HW237219   3.803   6.861   7.311  0.0455  2.6804  2.7146
12057SOL     OW37220   4.693   1.290   0.038 -0.0912  0.0140 -0.2600
12057SOL    HW137221   4.655   1.348  -0.028 -0.4763 -0.0848 -0.1311
12057SOL    HW237222   4.761   1.343   0.080 -0.6634  0.4935  0.0787
12058SOL     OW37223   4.043   7.529   5.497 -0.0337  0.1536 -0.0635
12058SOL    HW137224   4.079   7.597   5.553  0.0756 -0.2288  0.3405
12058SOL    HW237225   4.043   7.567   5.409 -0.2965  0.7960  0.2090
12059SOL     OW37226   5.637   1.452   4.013 -0.1839 -0.1699  0.5258
12059SOL    HW137227   5.553   1.413   3.987 -0.1189  0.2412 -0.3485
12059SOL    HW237228   5.626   1.546   3.998  0.4282 -0.1122  0.3872
12060SOL     OW37229   3.824   1.769   4.615 -0.3695 -0.7906 -0.3615
12060SOL    HW137230   3.802   1.676   4.619  1.6991 -1.2854  1.0196
12060SOL    HW237231   3.866   1.781   4.530  1.1817 -1.6002  0.2630
12061SOL     OW37232   2.311   6.923   6.099 -0.2575  0.4872 -0.0619
12061SOL    HW137233   2.252   6.981   6.146  0.6719  1.7001 -0.3685
12061SOL    HW237234   2.290   6.938   6.006 -0.7094 -0.4290 -0.1222
12062SOL     OW37235   3.322   3.794   7.682  0.9855  0.1196 -0.0480
12062SOL    HW137236   3.297   3.877   7.640  3.8957  1.2168  0.1745
12062SOL    HW237237   3.331   3.815   7.775 -0.7495 -1.1451  0.4635
12063SOL     OW37238   5.916   3.988   1.835 -0.2672 -0.3116  0.1021
12063SOL    HW137239   5.915   4.069   1.887 -2.4564  0.0471 -0.3587
12063SOL    HW237240   5.935   3.919   1.898 -1.4512  0.2670  1.1544
12064SOL     OW37241   2.846   2.302   7.228 -0.2001  0.2718  0.5820
12064SOL    HW137242   2.766   2.251   7.213 -0.2922  0.2417  1.1398
12064SOL    HW237243   2.813   2.387   7.259 -0.0002 -0.1728  2.0922
12065SOL     OW37244   0.524   7.994   3.704 -0.1388  0.4515 -0.1435
12065SOL    HW137245   0.604   7.953   3.738  0.0557  0.1168 -0.9863
12065SOL    HW237246   0.535   7.995   3.609 -0.9352  0.8264 -0.2446
12066SOL     OW37247   2.542   7.952   4.812 -0.2505 -0.0985  0.1209
12066SOL    HW137248   2.531   7.933   4.719 -2.8146  0.9375  0.1281
12066SOL    HW237249   2.489   8.030   4.826  3.7224  2.6558  1.5578
12067SOL     OW37250   0.926   0.789   0.252 -0.6555  0.5287  0.1308
12067SOL    HW137251   0.960   0.701   0.265 -0.8188  0.6245  1.2891
12067SOL    HW237252   0.987   0.846   0.300 -1.1511  0.9353  0.2844
12068SOL     OW37253   6.355   0.606   3.146  0.1605  0.1456  0.1170
12068SOL    HW137254   6.440   0.576   3.112  0.4445 -0.1506  1.0645
12068SOL    HW237255   6.291   0.553   3.098  0.5649 -0.4679  0.2386
12069SOL     OW37256   3.249   0.538   4.329  0.3809 -0.6368  0.6191
12069SOL    HW137257   3.273   0.524   4.421  0.7375  1.4045  0.8913
12069SOL    HW237258   3.155   0.524   4.327  0.4878 -1.4817  1.1276
12070SOL     OW37259   5.217   5.036   3.843  0.0057  0.2035  0.0600
12070SOL    HW137260   5.313   5.041   3.844 -0.0511  2.0370 -0.4094
12070SOL    HW237261   5.198   4.943   3.852  1.8155 -0.1144  1.1431
12071SOL     OW37262   5.110   3.978   2.724 -0.2409  0.0593 -0.3691
12071SOL    HW137263   5.026   3.989   2.768 -1.0967 -0.5644 -1.8170
12071SOL    HW237264   5.133   4.066   2.693  1.4179  1.0166  2.9694
12072SOL     OW37265   0.339   6.719   7.989  0.4725 -0.3019 -0.1325
12072SOL    HW137266   0.272   6.684   8.048  0.3673 -2.0909 -1.2596
12072SOL    HW237267   0.305   6.805   7.963 -0.1335 -0.0737  1.2785
12073SOL     OW37268   1.373   5.157   8.274 -0.0579 -0.1605 -0.2034
12073SOL    HW137269   1.409   5.141   8.187  1.1881 -2.0643  0.6048
12073SOL    HW237270   1.289   5.111   8.273 -0.2721  0.2296 -0.5423
12074SOL     OW37271   3.457   7.371   6.117  0.1778  0.2198 -0.1431
12074SOL    HW137272   3.438   7.295   6.061 -1.8840 -0.1606  0.9731
12074SOL    HW237273   3.373   7.415   6.128  1.1552  2.1501  0.0335
12075SOL     OW37274   6.604   3.458   6.688  0.0797  0.4319 -0.1349
12075SOL    HW137275   6.550   3.434   6.764 -0.0242  2.5652  0.5371
12075SOL    HW237276   6.673   3.392   6.687 -0.1991  0.0509  1.5323
12076SOL     OW37277   6.548   5.687   0.864  0.3654  0.0498  0.1782
12076SOL    HW137278   6.555   5.696   0.959  0.8406 -1.3190  0.2862
12076SOL    HW237279   6.626   5.730   0.829 -0.3417  1.5252  0.3113
12077SOL     OW37280   2.566   2.206   0.670 -0.0501 -0.1945 -0.2080
12077SOL    HW137281   2.604   2.126   0.634 -0.0095 -0.4500  0.3980
12077SOL    HW237282   2.583   2.201   0.764  0.0148  0.5589 -0.1737
12078SOL     OW37283   7.472   1.135   8.185  0.0160  0.1675  0.0017
12078SOL    HW137284   7.456   1.226   8.211  0.7987 -0.0506  1.3247
12078SOL    HW237285   7.385   1.100   8.165 -0.2642  1.2899 -0.8528
12079SOL     OW37286   4.546   6.907   7.707 -0.4242  0.2336 -0.1817
12079SOL    HW137287   4.596   6.826   7.723 -0.2320  0.5466  0.8631
12079SOL    HW237288   4.479   6.907   7.775 -2.0544 -0.3016 -1.7017
12080SOL     OW37289   6.758   7.008   8.202 -0.3901  0.1386 -0.0708
12080SOL    HW137290   6.807   7.088   8.222 -0.0418 -0.6114  2.3295
12080SOL    HW237291   6.824   6.940   8.195 -0.8834 -0.4429  0.7542
12081SOL     OW37292   6.499   1.417   5.038 -0.0157  0.2437 -0.6214
12081SOL    HW137293   6.556   1.493   5.049 -0.5615  0.5235  0.3460
12081SOL    HW237294   6.411   1.454   5.031 -0.1690 -0.2294 -1.4447
12082SOL     OW37295   4.919   1.706   4.640 -0.0128  0.4468  0.6481
12082SOL    HW137296   5.012   1.729   4.639  0.4992 -1.2763 -1.9180
12082SOL    HW237297   4.884   1.746   4.560 -0.7534 -1.3360  0.0358
12083SOL     OW37298   1.666   5.125   3.856 -0.4763  0.6395  0.0123
12083SOL    HW137299   1.625   5.136   3.942 -1.1928 -0.2927 -0.1952
12083SOL    HW237300   1.599   5.080   3.803  0.4793 -0.0985 -0.6013
12084SOL     OW37301   5.032   7.838   2.217  0.3327 -0.0825 -0.0814
12084SOL    HW137302   4.964   7.850   2.283  0.6995 -2.2414  0.7818
12084SOL    HW237303   4.984   7.811   2.138 -0.1005  2.4505 -0.7940
12085SOL     OW37304   7.623   7.408   1.695 -0.2889 -0.4558 -0.1602
12085SOL    HW137305   7.672   7.488   1.713  1.7197 -1.1279 -2.1552
12085SOL    HW237306   7.653   7.345   1.760  0.8299 -0.5774 -0.7746
12086SOL     OW37307   3.446   1.480   1.771  0.3373 -0.1057  0.2705
12086SOL    HW137308   3.360   1.515   1.749  0.6607  0.2227 -0.5307
12086SOL    HW237309   3.477   1.535   1.843  0.7134  1.1044 -0.7772
12087SOL     OW37310   4.020   4.872   2.896 -0.1496 -0.8686  0.5266
12087SOL    HW137311   3.927   4.854   2.906 -0.4756  0.4354  0.0608
12087SOL    HW237312   4.045   4.917   2.977 -0.3199  0.2259 -0.0105
12088SOL     OW37313   6.996   3.667   5.873 -0.4473  0.4706 -0.0147
12088SOL    HW137314   6.934   3.726   5.917 -1.7679 -0.3600 -0.6863
12088SOL    HW237315   6.990   3.585   5.923 -1.3922 -0.2363 -1.2262
12089SOL     OW37316   4.289   6.299   6.209  0.3032  0.0822  0.6467
12089SOL    HW137317   4.203   6.258   6.201  0.3968 -0.0645  0.3430
12089SOL    HW237318   4.313   6.321   6.118  0.8453 -0.4270  0.6605
12090SOL     OW37319   4.824   2.645   2.505  0.3533  0.6566 -0.0614
12090SOL    HW137320   4.757   2.577   2.514  0.6679  0.3790  0.2221
12090SOL    HW237321   4.884   2.610   2.439  0.2853  0.8474 -0.2232
12091SOL     OW37322   4.486   1.713   0.960  0.0781 -0.4273  0.3068
12091SOL    HW137323   4.455   1.803   0.970 -0.3416 -0.4364 -0.8279
12091SOL    HW237324   4.463   1.689   0.870  0.2329 -1.6550  0.5796
12092SOL     OW37325   4.526   2.780   1.568 -0.1782 -0.4208 -0.4784
12092SOL    HW137326   4.541   2.735   1.651  1.6432 -0.1176 -0.6045
12092SOL    HW237327   4.566   2.723   1.502  1.5147  0.9716 -0.7226
12093SOL     OW37328   6.270   5.736   2.737 -0.6079 -0.1601 -0.6111
12093SOL    HW137329   6.335   5.795   2.776 -3.0932  2.2570  0.2206
12093SOL    HW237330   6.247   5.778   2.654 -1.9591 -0.2300 -0.3058
12094SOL     OW37331   0.822   4.165   7.400 -0.0468 -0.2167 -0.1773
12094SOL    HW137332   0.791   4.160   7.491  1.0759 -1.5348  0.1708
12094SOL    HW237333   0.757   4.117   7.349  0.7048 -1.8421  0.3501
12095SOL     OW37334   5.768   4.147   1.067 -0.1640 -0.3775  0.0993
12095SOL    HW137335   5.799   4.237   1.078  0.5414 -0.6000 -0.0168
12095SOL    HW237336   5.844   4.092   1.086 -0.4599 -0.9395 -0.2837
12096SOL     OW37337   6.330   2.985   6.906  0.7527  0.2978  0.1483
12096SOL    HW137338   6.341   3.018   6.817 -1.4948  0.8629  0.0278
12096SOL    HW237339   6.240   2.954   6.909  0.4680  1.1744  2.5072
12097SOL     OW37340   4.943   6.578   7.157 -0.1346 -0.1553  0.2400
12097SOL    HW137341   5.031   6.594   7.123  0.0255  0.4399  0.9264
12097SOL    HW237342   4.908   6.510   7.100 -0.0571  1.1511 -1.4567
12098SOL     OW37343   2.746   6.882   4.975 -0.0483  0.7730 -0.1261
12098SOL    HW137344   2.688   6.875   4.900 -1.4270  0.9825  0.8743
12098SOL    HW237345   2.811   6.947   4.950  0.1002  0.1403 -1.4807
12099SOL     OW37346   3.303   0.048   1.165  0.1309  0.2731 -0.0396
12099SOL    HW137347   3.368   0.082   1.226  0.1186  0.6486 -0.2350
12099SOL    HW237348   3.316  -0.047   1.167  0.8429  0.3593 -0.2444
12100SOL     OW37349   1.948   5.296   2.646 -0.0730 -0.4307 -0.1750
12100SOL    HW137350   1.971   5.375   2.694  0.2812  0.4282 -1.6986
12100SOL    HW237351   2.003   5.227   2.685  1.0486  0.4733 -0.0966
12101SOL     OW37352   0.241   2.922   1.944 -0.0658 -0.2861  0.3038
12101SOL    HW137353   0.249   2.888   2.033 -0.1752  1.5351  1.0539
12101SOL    HW237354   0.161   2.974   1.946 -0.1908 -0.4140 -0.9307
12102SOL     OW37355   6.372   2.223   3.746 -0.7281 -0.0576  0.4087
12102SOL    HW137356   6.419   2.289   3.695  2.7715 -2.9841 -0.6208
12102SOL    HW237357   6.407   2.231   3.834 -0.2886 -0.4542  0.2797
12103SOL     OW37358   1.226   4.006   0.373  0.4336 -0.5081  0.1691
12103SOL    HW137359   1.196   4.082   0.423  2.1866  0.4125 -0.1044
12103SOL    HW237360   1.174   3.933   0.407 -0.8303  0.6760  0.8938
12104SOL     OW37361   7.119   6.297   6.526 -0.2137 -0.7568 -0.4073
12104SOL    HW137362   7.099   6.204   6.538 -0.4342 -0.7510 -0.7092
12104SOL    HW237363   7.166   6.322   6.605  0.9113 -1.4168 -0.8398
12105SOL     OW37364   0.255   2.729   5.940 -0.0995 -0.7115  0.3410
12105SOL    HW137365   0.326   2.754   6.000  0.0215  0.5000 -0.2645
12105SOL    HW237366   0.175   2.745   5.990  0.0187 -0.3102  0.4080
12106SOL     OW37367   7.895   2.029   6.944  0.5546  0.2105 -0.3411
12106SOL    HW137368   7.868   1.937   6.937  1.0485 -0.0151  0.6026
12106SOL    HW237369   7.814   2.076   6.962  0.3785 -0.1036 -0.2997
12107SOL     OW37370   8.137   5.344   5.618  0.3449  0.0053 -0.0393
12107SOL    HW137371   8.191   5.269   5.592  0.3238  0.0264 -0.1437
12107SOL    HW237372   8.060   5.304   5.658 -0.8634 -0.1302 -2.3323
12108SOL     OW37373   8.183   0.261   1.859 -0.1207 -0.2922 -0.6668
12108SOL    HW137374   8.221   0.279   1.945  0.5395 -1.6455 -0.6484
12108SOL    HW237375   8.219   0.328   1.802 -1.1178  1.0612  0.2367
12109SOL     OW37376   1.809   4.986   1.072 -0.3892 -0.2145  0.1153
12109SOL    HW137377   1.874   4.939   1.124  0.6354  0.0539 -0.8720
12109SOL    HW237378   1.748   5.022   1.136 -0.6920 -2.0898  0.9560
12110SOL     OW37379   4.799   2.760   3.011 -0.6098  0.3736 -0.0523
12110SOL    HW137380   4.747   2.696   2.963  2.6749 -2.0152 -0.7542
12110SOL    HW237381   4.841   2.812   2.942 -0.9870  1.3870  0.4637
12111SOL     OW37382   3.496   3.088   4.812  0.1466  0.2227 -0.1073
12111SOL    HW137383   3.454   3.095   4.898 -0.6590  1.5251 -0.5910
12111SOL    HW237384   3.553   3.165   4.807 -1.0925  1.0930 -1.4032
12112SOL     OW37385   8.126   6.298   2.026  0.2577  0.0634 -0.1688
12112SOL    HW137386   8.169   6.341   1.952  2.0417 -1.3123 -0.0047
12112SOL    HW237387   8.074   6.229   1.986  0.9491 -0.4581 -0.1906
12113SOL     OW37388   1.993   1.867   6.081  0.0179 -0.4815  0.0502
12113SOL    HW137389   2.057   1.819   6.133 -1.2141 -0.7262  1.4105
12113SOL    HW237390   1.935   1.800   6.045  1.0414 -0.3537 -2.0150
12114SOL     OW37391   4.917   1.601   3.138  0.1349  0.1458 -0.3048
12114SOL    HW137392   4.941   1.673   3.081 -1.3927 -0.1571 -1.3966
12114SOL    HW237393   4.833   1.571   3.104  0.4422 -1.7525  0.4983
12115SOL     OW37394   4.306   6.796   1.273 -0.0725 -0.0373  0.0658
12115SOL    HW137395   4.243   6.840   1.330  0.4098  0.4544  0.2420
12115SOL    HW237396   4.344   6.867   1.221 -0.9801 -0.5649 -1.3525
12116SOL     OW37397   1.888   5.895   7.533  0.3852 -0.1008 -0.1560
12116SOL    HW137398   1.827   5.827   7.559  1.2249 -0.5519  0.7187
12116SOL    HW237399   1.833   5.971   7.512 -0.5332 -0.9257 -0.8053
12117SOL     OW37400   1.568   6.406   2.991  0.4385 -0.1769  0.3552
12117SOL    HW137401   1.475   6.385   2.995  0.2159  0.6883 -0.0077
12117SOL    HW237402   1.612   6.331   3.031 -0.4330 -0.4496  0.8159
12118SOL     OW37403   5.859   3.026   8.007 -0.2114 -0.1766  0.6345
12118SOL    HW137404   5.855   2.932   8.023 -0.6758 -0.4487 -0.9411
12118SOL    HW237405   5.822   3.066   8.086  1.0327 -1.2452  1.8101
12119SOL     OW37406   1.537   2.882   4.084 -0.2181  0.3646 -0.8746
12119SOL    HW137407   1.488   2.801   4.074 -1.6946  1.2914 -1.4020
12119SOL    HW237408   1.471   2.947   4.110  0.4197  2.0059 -3.1136
12120SOL     OW37409   0.170   5.248   1.661  0.0122  0.0108 -0.3606
12120SOL    HW137410   0.234   5.297   1.610  2.2649 -2.2640  0.0752
12120SOL    HW237411   0.162   5.295   1.744  0.6832  0.6502 -0.6565
12121SOL     OW37412   3.862   5.864   6.249 -0.0581 -0.5029 -0.1783
12121SOL    HW137413   3.805   5.941   6.248 -0.2637 -0.6599 -0.5520
12121SOL    HW237414   3.876   5.843   6.157  1.3689  0.0934 -0.1312
12122SOL     OW37415   1.232   7.667   2.953 -0.1803 -0.3188  0.4083
12122SOL    HW137416   1.227   7.759   2.976 -1.7244 -0.4716  0.7949
12122SOL    HW237417   1.324   7.652   2.933  0.0561  1.3391  0.1509
12123SOL     OW37418   5.003   7.038   4.240  0.7248  0.4804  0.1016
12123SOL    HW137419   5.084   7.068   4.198  1.9324 -2.5764  0.0051
12123SOL    HW237420   4.994   6.947   4.213 -1.4266 -0.0083  2.1294
12124SOL     OW37421   1.761   6.329   3.931 -0.2919 -0.8444  0.4124
12124SOL    HW137422   1.740   6.410   3.977  0.6174  0.4914 -1.3929
12124SOL    HW237423   1.710   6.262   3.977  0.0825  0.4592  2.9073
12125SOL     OW37424   2.517   1.931   6.897  0.0668  0.2646 -0.3347
12125SOL    HW137425   2.511   1.971   6.810  0.7692 -0.4694 -0.7419
12125SOL    HW237426   2.431   1.944   6.936 -0.6255 -0.3702 -1.5803
12126SOL     OW37427   0.199   7.232   2.631  0.5145  0.5473 -0.3427
12126SOL    HW137428   0.141   7.286   2.579 -1.0865 -1.6837 -1.0499
12126SOL    HW237429   0.252   7.185   2.567  1.9729  1.3374  0.2508
12127SOL     OW37430   4.414   1.566   7.690 -0.3348 -0.7525 -0.2338
12127SOL    HW137431   4.371   1.618   7.759 -0.7115 -1.2167 -0.1174
12127SOL    HW237432   4.405   1.620   7.611 -1.0684 -0.8022 -0.1964
12128SOL     OW37433   1.020   3.599   3.615 -0.3556  0.2232  0.4235
12128SOL    HW137434   0.968   3.557   3.547  0.7096  0.1590 -0.3743
12128SOL    HW237435   0.957   3.654   3.662 -1.4202 -0.9256  0.3969
12129SOL     OW37436   1.727   3.496   5.274  0.1607  0.4342 -0.5435
12129SOL    HW137437   1.741   3.481   5.367  0.3413 -4.4970 -1.1003
12129SOL    HW237438   1.808   3.468   5.232 -1.3362 -1.6503 -2.3134
12130SOL     OW37439   3.597   2.095   2.128  0.0867  0.9588 -0.1623
12130SOL    HW137440   3.542   2.169   2.157 -1.3142  1.0896 -2.8317
12130SOL    HW237441   3.654   2.132   2.060 -1.0217 -0.4329 -1.9521
12131SOL     OW37442   2.869   2.680   5.494 -0.0087 -0.0174  0.2060
12131SOL    HW137443   2.936   2.724   5.546 -0.5030 -1.1207  1.8685
12131SOL    HW237444   2.787   2.696   5.541 -0.9016  0.9690 -1.5725
12132SOL     OW37445   6.688   4.622   2.500 -0.6318  0.3744  0.0111
12132SOL    HW137446   6.774   4.641   2.538 -0.5496 -1.5456  0.9228
12132SOL    HW237447   6.706   4.607   2.407 -0.1892  1.1681 -0.0446
12133SOL     OW37448   0.605   6.433   2.471 -0.2720 -0.2510 -0.1873
12133SOL    HW137449   0.560   6.410   2.390  2.3025  0.2009 -1.8351
12133SOL    HW237450   0.668   6.500   2.446 -0.1252  0.7183  2.4364
12134SOL     OW37451   4.775   4.139   5.852  0.2378  0.1057  0.8687
12134SOL    HW137452   4.849   4.136   5.912 -0.9704  0.5489  2.4462
12134SOL    HW237453   4.710   4.194   5.896  0.0022  2.0505 -1.6886
12135SOL     OW37454   3.469   7.497   4.836  0.6525  0.0080  0.9144
12135SOL    HW137455   3.527   7.563   4.797 -0.2822  0.2654 -0.0873
12135SOL    HW237456   3.423   7.543   4.906 -0.9349  0.8256 -0.5983
12136SOL     OW37457   4.993   4.488   5.261 -0.4343  0.0358  0.1632
12136SOL    HW137458   5.076   4.490   5.308 -0.2659  1.4275 -0.1680
12136SOL    HW237459   4.929   4.465   5.328  0.0490  0.1761  0.6792
12137SOL     OW37460   7.151   2.481   1.078  0.0792  0.0652  0.0010
12137SOL    HW137461   7.163   2.570   1.044 -0.2945  0.4126  0.7526
12137SOL    HW237462   7.239   2.451   1.099  0.1897  0.3280 -0.0855
12138SOL     OW37463   6.062   5.479   7.771 -0.1552 -0.5793  0.0209
12138SOL    HW137464   6.127   5.487   7.840 -1.4585 -0.4928  1.2933
12138SOL    HW237465   5.987   5.437   7.814 -0.4343 -1.9968 -1.7318
12139SOL     OW37466   0.533   3.066   7.844  0.4950  0.3119 -0.5662
12139SOL    HW137467   0.625   3.086   7.826  0.0514  1.9844 -1.1988
12139SOL    HW237468   0.493   3.057   7.758 -0.3272  1.7119 -0.3646
12140SOL     OW37469   5.715   7.224   0.045 -0.0162 -0.1510  0.0319
12140SOL    HW137470   5.696   7.194   0.134  1.3601  1.7003  1.0245
12140SOL    HW237471   5.786   7.287   0.056 -0.2674  0.6302 -2.3211
12141SOL     OW37472   7.819   3.476   4.183 -0.6341 -0.0117  0.0737
12141SOL    HW137473   7.811   3.543   4.251 -0.8266 -0.5411  0.5897
12141SOL    HW237474   7.817   3.524   4.101  3.7248  1.1373  0.4176
12142SOL     OW37475   1.540   2.840   3.637  0.5570  0.2655 -0.1392
12142SOL    HW137476   1.579   2.792   3.710  0.7795 -1.4674 -1.3414
12142SOL    HW237477   1.552   2.783   3.561 -0.3642  1.6628 -1.3976
12143SOL     OW37478   3.740   3.808   3.607 -0.0320  0.3740 -0.0429
12143SOL    HW137479   3.788   3.732   3.640 -0.4676  0.1560  0.0857
12143SOL    HW237480   3.710   3.853   3.685  0.3816  0.7830 -0.1158
12144SOL     OW37481   0.725   5.038   6.880  0.3308  0.4306 -0.0317
12144SOL    HW137482   0.732   5.105   6.948  1.2455 -0.0730  0.3954
12144SOL    HW237483   0.735   5.086   6.798  0.3893  0.8932  0.2424
12145SOL     OW37484   0.920   1.026   2.236 -0.6405 -0.4922 -0.1905
12145SOL    HW137485   0.840   0.978   2.256 -0.4516 -1.3430 -1.3829
12145SOL    HW237486   0.988   0.959   2.237 -0.2097 -0.0670 -0.8630
12146SOL     OW37487   2.453   4.201   6.049 -0.6135  0.2454  0.4281
12146SOL    HW137488   2.379   4.178   5.992 -0.8387  1.1218  0.3644
12146SOL    HW237489   2.422   4.180   6.137 -0.2852 -1.0622  0.2630
12147SOL     OW37490   2.656   2.864   7.266  0.0171 -0.2164  0.2186
12147SOL    HW137491   2.578   2.880   7.215  0.7283 -0.6142 -1.0300
12147SOL    HW237492   2.659   2.768   7.277  0.1434 -0.1766  0.5555
12148SOL     OW37493   6.221   3.816   5.676  0.1781 -0.0075  0.4248
12148SOL    HW137494   6.266   3.760   5.612  2.9236  0.5336  1.7225
12148SOL    HW237495   6.137   3.772   5.691  0.9693 -2.1266 -0.8350
12149SOL     OW37496   7.530   3.321   4.692  0.4446  0.4112  0.1515
12149SOL    HW137497   7.469   3.384   4.653  0.0198 -0.8638 -1.3230
12149SOL    HW237498   7.616   3.362   4.680  0.0921  1.1722  0.1355
12150SOL     OW37499   0.054   2.275   7.513  0.7917  0.3070 -0.1486
12150SOL    HW137500   0.051   2.202   7.450  1.1925 -0.4688  0.7133
12150SOL    HW237501   0.008   2.346   7.468 -0.8418 -0.8867 -0.4830
12151SOL     OW37502   6.280   3.764   4.824 -0.7757 -0.1176  0.0955
12151SOL    HW137503   6.286   3.857   4.801 -2.0316  0.2726  1.2379
12151SOL    HW237504   6.255   3.721   4.742 -0.3970  0.5717 -0.3975
12152SOL     OW37505   6.801   1.404   2.393 -0.0519 -0.4536  0.1379
12152SOL    HW137506   6.716   1.448   2.383  0.2943 -0.0952 -1.6084
12152SOL    HW237507   6.807   1.384   2.486 -1.3654  0.9101  0.5572
12153SOL     OW37508   2.583   3.633   7.722 -0.2560  0.2068  0.1161
12153SOL    HW137509   2.612   3.569   7.787 -0.6724 -0.8126 -0.6765
12153SOL    HW237510   2.497   3.601   7.694 -0.0162  0.5387 -1.0525
12154SOL     OW37511   6.458   5.305   2.423 -1.1855  0.3721  0.1632
12154SOL    HW137512   6.408   5.368   2.371 -0.4203  2.1073  1.4194
12154SOL    HW237513   6.474   5.350   2.506  0.7914 -0.8652  0.5181
12155SOL     OW37514   4.210   2.121   7.561 -0.4014  0.3081  0.2329
12155SOL    HW137515   4.228   2.030   7.583 -1.9510 -0.8093 -2.5377
12155SOL    HW237516   4.288   2.150   7.513  0.5584  0.8641  2.0587
12156SOL     OW37517   1.150   2.849   4.771 -0.2834 -0.8443 -0.1212
12156SOL    HW137518   1.096   2.879   4.698  0.4290  1.2039  0.1264
12156SOL    HW237519   1.187   2.929   4.808  0.5694 -1.9499  1.5637
12157SOL     OW37520   4.650   6.649   6.873 -0.2111  0.0118  0.0285
12157SOL    HW137521   4.602   6.732   6.877 -0.3613 -0.0944  0.4484
12157SOL    HW237522   4.626   6.604   6.953  0.3327 -0.1880  0.0804
12158SOL     OW37523   0.896   7.603   3.890 -0.4444 -0.0608  0.6986
12158SOL    HW137524   0.843   7.629   3.965  0.1875 -1.0299  1.5105
12158SOL    HW237525   0.832   7.578   3.823 -1.0582 -1.3906  1.7263
12159SOL     OW37526   7.390   7.420   7.524 -0.5428  0.0240  0.4905
12159SOL    HW137527   7.371   7.338   7.479 -1.8295 -0.1915  1.3775
12159SOL    HW237528   7.478   7.408   7.560  1.7370  1.1502 -3.9745
12160SOL     OW37529   4.101   8.152   4.586  0.1991  0.0903  0.1510
12160SOL    HW137530   4.165   8.098   4.541 -0.3585 -0.2416 -0.2559
12160SOL    HW237531   4.152   8.223   4.624  0.7414  0.1451 -0.6481
12161SOL     OW37532   2.011   4.206   2.436  0.4747 -0.6226 -0.0239
12161SOL    HW137533   1.972   4.265   2.371  1.7703  0.1356 -0.1740
12161SOL    HW237534   2.035   4.128   2.386  0.7079 -0.3781 -0.3081
12162SOL     OW37535   0.183   4.134   7.359  0.0307 -0.5297  0.1473
12162SOL    HW137536   0.135   4.106   7.281  0.0896 -0.1569 -0.0242
12162SOL    HW237537   0.118   4.132   7.430 -0.6957  1.6496 -0.4085
12163SOL     OW37538   7.606   6.120   0.632  0.0675  0.1261  0.0754
12163SOL    HW137539   7.622   6.193   0.692 -0.6761  1.0003 -0.7526
12163SOL    HW237540   7.511   6.107   0.634  0.3129 -2.1228  1.6462
12164SOL     OW37541   2.719   3.359   1.081 -0.1897 -0.5062 -0.1410
12164SOL    HW137542   2.807   3.395   1.070 -0.2475 -0.6744 -1.3796
12164SOL    HW237543   2.722   3.311   1.163  0.8903 -0.5642 -0.2020
12165SOL     OW37544   7.926   4.780   2.272 -0.2912 -0.2010 -0.0332
12165SOL    HW137545   7.845   4.801   2.226  0.0365 -1.0853 -1.0707
12165SOL    HW237546   7.908   4.698   2.318 -0.0961 -0.2284 -0.0014
12166SOL     OW37547   5.136   5.936   4.365  0.0769 -0.4143  0.0949
12166SOL    HW137548   5.197   6.010   4.360 -1.5462  0.9077 -0.7109
12166SOL    HW237549   5.192   5.859   4.352  1.4607  0.7907 -1.5434
12167SOL     OW37550   1.115   4.628   2.114 -0.0593 -0.0895  0.2475
12167SOL    HW137551   1.184   4.582   2.066 -0.1711 -1.7759  1.6084
12167SOL    HW237552   1.100   4.708   2.063  0.0045 -1.6330 -2.3580
12168SOL     OW37553   6.046   5.437   2.746 -0.4584 -0.3517  0.0834
12168SOL    HW137554   6.069   5.344   2.750 -0.6579 -0.4358 -0.5843
12168SOL    HW237555   5.950   5.438   2.740 -0.4101 -0.1421 -0.7927
12169SOL     OW37556   0.902   3.265   5.368 -1.1811 -0.2149  0.1407
12169SOL    HW137557   0.852   3.296   5.293  3.4345 -2.2936 -4.4126
12169SOL    HW237558   0.952   3.341   5.397 -0.0733 -0.1416 -1.7589
12170SOL     OW37559   3.931   6.401   5.177 -0.0213 -0.4479 -0.5417
12170SOL    HW137560   3.985   6.370   5.105  0.0537 -1.4076 -0.0942
12170SOL    HW237561   3.891   6.482   5.145  1.1369 -0.0916 -1.1268
12171SOL     OW37562   6.306   4.942   8.064 -0.0399  0.3453  0.3933
12171SOL    HW137563   6.218   4.978   8.072 -0.3169 -0.2342  0.0555
12171SOL    HW237564   6.296   4.866   8.007  0.5446 -0.2037  1.0007
12172SOL     OW37565   6.535   0.925   2.044 -0.3730 -0.0761 -0.6569
12172SOL    HW137566   6.558   0.849   2.098 -0.6176  0.0514 -0.3639
12172SOL    HW237567   6.440   0.919   2.035 -0.6555  1.1923  0.9325
12173SOL     OW37568   4.004   2.342   1.480 -0.1183  0.1757 -0.2021
12173SOL    HW137569   3.967   2.277   1.539  1.6093 -0.8232 -0.1545
12173SOL    HW237570   4.021   2.418   1.535  0.2659 -0.2815  0.3179
12174SOL     OW37571   3.286   0.094   8.127  0.3532  0.6047  0.0824
12174SOL    HW137572   3.351   0.140   8.075 -0.0818  1.9552  0.6761
12174SOL    HW237573   3.268   0.014   8.079  1.7445  0.6665 -0.5688
12175SOL     OW37574   1.188   0.606   4.649 -0.4119 -0.0088  0.2857
12175SOL    HW137575   1.150   0.650   4.574 -1.3568  1.6258  1.6519
12175SOL    HW237576   1.131   0.531   4.665 -1.4821  0.8664  0.6571
12176SOL     OW37577   0.441   4.207   1.405 -0.0192 -0.5564 -0.1092
12176SOL    HW137578   0.441   4.131   1.462 -2.7904 -0.5083  0.0945
12176SOL    HW237579   0.408   4.174   1.321 -0.4116  0.2291 -0.2791
12177SOL     OW37580   2.896   2.679   3.046 -0.8034  0.5446  0.4976
12177SOL    HW137581   2.857   2.766   3.042 -0.7390  0.5865  0.7867
12177SOL    HW237582   2.982   2.693   3.086 -0.1398  0.5791 -0.8773
12178SOL     OW37583   0.041   1.147   2.715 -0.4319 -0.8759  0.5650
12178SOL    HW137584   0.132   1.119   2.714  0.1029  0.7860 -0.1207
12178SOL    HW237585  -0.004   1.082   2.771  1.4576 -0.7805  2.3019
12179SOL     OW37586   7.638   2.665   3.093 -0.4218  0.2235  0.3850
12179SOL    HW137587   7.546   2.677   3.070 -0.3689 -1.1597 -0.6740
12179SOL    HW237588   7.641   2.583   3.141  0.4598 -0.6644 -1.0992
12180SOL     OW37589   4.814   3.831   1.655  0.0505  0.5901 -0.1250
12180SOL    HW137590   4.858   3.897   1.709  1.5403 -0.5695  0.1474
12180SOL    HW237591   4.721   3.854   1.660  0.3365  1.5550  1.4953
12181SOL     OW37592   2.822   4.914   2.026 -0.2924  0.2799 -0.4729
12181SOL    HW137593   2.841   4.916   2.120 -1.8028 -0.6718 -0.1106
12181SOL    HW237594   2.897   4.958   1.986  1.9246 -1.9184  0.9298
12182SOL     OW37595   2.531   3.173   6.224  0.3139 -0.4006  0.0191
12182SOL    HW137596   2.493   3.167   6.137 -1.4381 -0.5225  0.7331
12182SOL    HW237597   2.516   3.263   6.251  1.2980 -0.2276  0.0112
12183SOL     OW37598   2.444   3.858   5.954 -0.1438 -0.0287  0.4567
12183SOL    HW137599   2.376   3.925   5.961  0.4649  0.4388  2.6970
12183SOL    HW237600   2.407   3.781   5.997  0.8313  0.3609  2.0841
12184SOL     OW37601   3.725   0.142   6.294 -0.0171 -0.1175  0.3151
12184SOL    HW137602   3.658   0.210   6.288  0.7229  0.7288  1.2767
12184SOL    HW237603   3.794   0.171   6.235 -0.2447 -0.7006 -0.2471
12185SOL     OW37604   3.606   3.060   6.050  0.7964  0.3758  0.0967
12185SOL    HW137605   3.582   3.126   5.986 -1.4851 -0.2694  0.2150
12185SOL    HW237606   3.685   3.095   6.092  0.8685  1.9877 -1.2769
12186SOL     OW37607   8.030   3.778   4.069  0.1868 -0.0088 -0.0129
12186SOL    HW137608   7.945   3.746   4.038  0.6946 -1.7158  0.2734
12186SOL    HW237609   8.086   3.700   4.071  1.4026  0.8535  1.0196
12187SOL     OW37610   5.005   5.576   8.257 -0.2544  0.3387 -0.3159
12187SOL    HW137611   5.094   5.552   8.231 -0.4971 -0.3768 -0.5130
12187SOL    HW237612   5.016   5.653   8.313  0.3863  1.0150 -1.3456
12188SOL     OW37613   3.762   2.265   6.390 -0.1344  0.0548 -0.0292
12188SOL    HW137614   3.730   2.330   6.327 -1.2203  0.9094  1.3349
12188SOL    HW237615   3.795   2.318   6.463  0.4041 -0.9136  0.4418
12189SOL     OW37616   5.261   3.687   0.604 -0.5022 -0.2755  0.1356
12189SOL    HW137617   5.217   3.610   0.568 -1.6230 -0.4164  1.6697
12189SOL    HW237618   5.205   3.761   0.579  0.7954  0.1414 -1.6971
12190SOL     OW37619   0.172   4.309   3.216  0.4559  0.2673  0.0547
12190SOL    HW137620   0.263   4.316   3.185  0.8100 -0.8527  0.7895
12190SOL    HW237621   0.147   4.219   3.197 -1.1478  1.0369 -1.7547
12191SOL     OW37622   4.119   6.457   5.362 -0.4412 -0.1677 -0.1347
12191SOL    HW137623   4.064   6.424   5.291  0.1373  0.1272 -0.7358
12191SOL    HW237624   4.094   6.548   5.373  0.3245  0.1377 -0.8205
12192SOL     OW37625   0.926   0.642   6.712 -0.1194 -0.1328  0.2191
12192SOL    HW137626   0.939   0.716   6.771 -0.6888  0.9128 -0.9366
12192SOL    HW237627   0.882   0.577   6.766  1.0690  0.0428  1.4633
12193SOL     OW37628   1.088   4.352   3.355  0.1961  0.0625 -0.2235
12193SOL    HW137629   1.111   4.444   3.337  1.2468 -0.3474 -1.1171
12193SOL    HW237630   1.112   4.306   3.275 -2.3157 -0.7020 -0.6168
12194SOL     OW37631   2.613   7.763   7.148 -0.4636 -0.1479 -0.3897
12194SOL    HW137632   2.565   7.817   7.086  1.3918  0.2245 -1.5869
12194SOL    HW237633   2.701   7.800   7.149 -0.2939 -0.4766  2.1077
12195SOL     OW37634   7.126   0.684   4.671  0.0349 -0.2487 -0.2828
12195SOL    HW137635   7.150   0.764   4.718 -0.8366 -0.7572  1.0983
12195SOL    HW237636   7.040   0.661   4.706  0.4349 -2.0014 -0.3666
12196SOL     OW37637   1.075   4.235   1.178 -0.0252  0.3673 -0.1854
12196SOL    HW137638   1.010   4.251   1.109 -1.6983 -1.1223  0.9315
12196SOL    HW237639   1.120   4.155   1.150 -1.1434 -0.6079  0.6665
12197SOL     OW37640   3.092   2.649   0.843 -0.0614  0.1045 -0.0171
12197SOL    HW137641   3.072   2.568   0.797 -2.2279 -0.5077  1.7811
12197SOL    HW237642   3.171   2.630   0.893 -0.8610 -1.1485  0.8266
12198SOL     OW37643   6.432   6.069   1.105  0.4253  0.3242 -0.0739
12198SOL    HW137644   6.502   6.019   1.062  0.3044  0.1765 -0.1012
12198SOL    HW237645   6.469   6.156   1.118  0.0955  0.6884 -1.4315
12199SOL     OW37646   5.105   1.341   1.745 -0.0834  0.3082  0.1740
12199SOL    HW137647   5.025   1.289   1.751  1.2758 -2.0518 -0.6206
12199SOL    HW237648   5.175   1.281   1.773  1.4741  2.0971  0.3260
12200SOL     OW37649   7.713   1.899   3.077  0.3188  0.1185 -0.4364
12200SOL    HW137650   7.740   1.956   3.150  0.6896  2.3914 -2.2171
12200SOL    HW237651   7.631   1.859   3.106 -0.2710  2.0405  0.7095
12201SOL     OW37652   4.767   6.531   4.367  0.1889  0.4691 -0.4582
12201SOL    HW137653   4.698   6.506   4.306  1.3382 -0.5070 -1.4157
12201SOL    HW237654   4.757   6.473   4.442  0.1853  0.0830 -0.7575
12202SOL     OW37655   6.003   5.054   4.387 -0.3294 -0.1007  0.1902
12202SOL    HW137656   5.997   5.133   4.333  2.4396  0.0557 -0.0328
12202SOL    HW237657   6.004   4.982   4.324  0.3228 -0.0949  0.1934
12203SOL     OW37658   0.407   3.840   3.367 -0.3702  0.3275 -0.4746
12203SOL    HW137659   0.458   3.765   3.340  0.2686  0.6577 -0.2179
12203SOL    HW237660   0.470   3.913   3.369 -0.9618  0.8592 -0.6811
12204SOL     OW37661   7.233   6.883   5.533  0.4278 -0.2669 -0.3363
12204SOL    HW137662   7.188   6.811   5.489  1.6573 -1.3767  0.1826
12204SOL    HW237663   7.164   6.928   5.582 -0.5604 -0.3490 -1.6102
12205SOL     OW37664   7.394   2.790   2.197 -0.2647  0.2368 -0.6489
12205SOL    HW137665   7.461   2.837   2.147  0.5957  0.4415  0.6730
12205SOL    HW237666   7.443   2.734   2.256 -1.1933  1.5678  1.4873
12206SOL     OW37667   0.079   6.060   6.407  0.5787  0.1712  0.9134
12206SOL    HW137668   0.064   6.120   6.333  1.8061 -0.0903  0.4334
12206SOL    HW237669   0.032   5.980   6.382 -1.3253  0.9831  1.6946
12207SOL     OW37670   1.354   8.147   6.145  0.1612 -0.3392 -0.3403
12207SOL    HW137671   1.416   8.150   6.072  0.2224 -0.6356 -0.3033
12207SOL    HW237672   1.276   8.104   6.109  1.3151 -3.4946  0.5579
12208SOL     OW37673   3.518   3.493   6.637  0.3794 -0.0850  0.0590
12208SOL    HW137674   3.578   3.518   6.708 -1.4081 -0.0148  1.6349
12208SOL    HW237675   3.567   3.511   6.557  1.6569  2.0442  1.2243
12209SOL     OW37676   8.165   0.734   5.036 -0.2134  1.0515 -0.3974
12209SOL    HW137677   8.237   0.693   4.988 -1.3143  0.7450 -1.8986
12209SOL    HW237678   8.193   0.824   5.050  1.8619  0.1336  2.1212
12210SOL     OW37679   7.076   6.062   2.319 -0.3313 -0.4066 -0.2974
12210SOL    HW137680   7.102   6.144   2.361 -1.1742  0.3188 -1.1566
12210SOL    HW237681   7.131   5.995   2.361  1.1815  0.7389 -0.3709
12211SOL     OW37682   4.919   6.387   0.088 -0.0309 -0.1665 -0.4559
12211SOL    HW137683   4.877   6.374   0.003 -1.7621 -0.7117  0.4242
12211SOL    HW237684   4.868   6.458   0.129  0.4097 -0.3034  0.3498
12212SOL     OW37685   2.975   6.457   7.190  0.6299 -0.0296  0.2835
12212SOL    HW137686   3.018   6.543   7.181  0.4808  0.3144  2.3221
12212SOL    HW237687   2.907   6.457   7.123  0.3231  1.6537  0.5577
12213SOL     OW37688   0.392   1.256   1.184  0.7890 -0.0138  0.4931
12213SOL    HW137689   0.396   1.351   1.196 -2.9498  0.2426  0.8474
12213SOL    HW237690   0.422   1.242   1.094  2.1181  1.3694  0.6722
12214SOL     OW37691   6.493   0.458   2.564  0.1574  0.0893 -0.2212
12214SOL    HW137692   6.476   0.369   2.533 -0.2547  0.1951 -0.3056
12214SOL    HW237693   6.477   0.513   2.488  0.9457  0.1944 -0.3210
12215SOL     OW37694   7.895   3.520   7.226 -0.1414  0.3485 -0.7320
12215SOL    HW137695   7.890   3.515   7.322 -0.4544 -0.6317 -0.7887
12215SOL    HW237696   7.807   3.548   7.200  0.3272  1.9560 -0.6710
12216SOL     OW37697   8.132   3.915   7.333 -0.1932  0.9498 -0.4304
12216SOL    HW137698   8.114   3.821   7.325  0.5580  0.8749 -1.4296
12216SOL    HW237699   8.172   3.923   7.420  1.0038  0.1020 -0.8634
12217SOL     OW37700   5.597   0.784   3.291  0.9698  0.5426  0.0149
12217SOL    HW137701   5.518   0.812   3.338  0.6706 -1.7891  0.9944
12217SOL    HW237702   5.644   0.728   3.352  2.0597 -0.2461 -1.4649
12218SOL     OW37703   5.835   3.022   7.110 -0.1506 -0.6721 -0.5090
12218SOL    HW137704   5.744   3.023   7.137  0.2919 -0.4728  1.0608
12218SOL    HW237705   5.874   2.950   7.160  0.5727 -0.7194 -1.1178
12219SOL     OW37706   7.380   7.294   3.073 -0.0338  0.0761  0.0328
12219SOL    HW137707   7.421   7.207   3.064 -0.1018  0.2036 -2.0690
12219SOL    HW237708   7.325   7.302   2.995 -2.0148  1.0086  1.4589
12220SOL     OW37709   0.806   6.666   3.173  0.1800 -0.6483 -0.3349
12220SOL    HW137710   0.787   6.678   3.266  1.3852  1.1181 -0.2646
12220SOL    HW237711   0.819   6.755   3.139 -1.6184 -1.1226 -2.5352
12221SOL     OW37712   2.463   7.993   8.233 -0.1978  0.1413  0.2602
12221SOL    HW137713   2.431   7.906   8.207 -0.6972  0.7819 -1.4082
12221SOL    HW237714   2.444   7.999   8.326 -0.0914 -1.5629  0.4235
12222SOL     OW37715   3.818   0.961   7.215  0.3797  0.5683  0.1680
12222SOL    HW137716   3.800   1.020   7.142 -0.5470 -1.2671 -1.1637
12222SOL    HW237717   3.910   0.936   7.203 -0.1201 -0.7822 -1.2624
12223SOL     OW37718   7.584   2.063   3.836  0.6284 -0.0999  0.5475
12223SOL    HW137719   7.644   2.036   3.767 -0.8274  1.9220 -1.7100
12223SOL    HW237720   7.515   1.997   3.834  0.8913 -0.3728  0.4534
12224SOL     OW37721   2.020   4.263   4.526  0.4697 -0.0183  0.0815
12224SOL    HW137722   1.929   4.235   4.533 -0.0293  1.4799 -0.2431
12224SOL    HW237723   2.041   4.296   4.614  0.9157 -0.9313  0.3335
12225SOL     OW37724   1.942   5.514   6.581  0.2931 -0.6111  0.0825
12225SOL    HW137725   2.019   5.568   6.565  0.1217 -0.3336  0.1843
12225SOL    HW237726   1.956   5.436   6.527  0.0807 -0.0275 -0.8346
12226SOL     OW37727   5.428   6.673   5.153  0.2276  0.0186  0.1099
12226SOL    HW137728   5.395   6.710   5.235  1.9061  1.5106  0.1881
12226SOL    HW237729   5.359   6.691   5.089 -0.6743 -0.2702  0.9669
12227SOL     OW37730   3.265   1.566   4.620 -0.1206 -0.1556  0.3037
12227SOL    HW137731   3.202   1.501   4.650 -0.7114  0.3006  0.0494
12227SOL    HW237732   3.269   1.629   4.692  0.8169 -0.7086  0.7649
12228SOL     OW37733   1.549   0.043   3.570 -0.0312 -0.2867 -0.1767
12228SOL    HW137734   1.616   0.107   3.547 -1.0295  1.2683  1.0465
12228SOL    HW237735   1.478   0.059   3.508  1.0217 -2.6482 -2.1849
12229SOL     OW37736   1.757   5.033   8.037  0.1609 -0.1534 -0.3456
12229SOL    HW137737   1.723   5.091   7.969  0.4617 -0.2317 -0.5626
12229SOL    HW237738   1.837   5.075   8.067  0.5732 -0.6388 -0.7569
12230SOL     OW37739   7.723   6.581   3.032 -0.1898  0.7404  0.7596
12230SOL    HW137740   7.676   6.664   3.027  1.5933  1.7396 -1.1194
12230SOL    HW237741   7.811   6.602   3.001  0.6757 -1.6265  1.4178
12231SOL     OW37742   0.541   0.080   2.713  0.1349  0.8485 -0.1112
12231SOL    HW137743   0.568   0.092   2.804 -0.4873  1.7469 -0.0318
12231SOL    HW237744   0.615   0.112   2.661  0.3191  0.7369  0.0824
12232SOL     OW37745   5.820   2.858   3.926 -0.3758  0.1890 -0.1893
12232SOL    HW137746   5.901   2.882   3.881  1.0093 -1.6284  1.1639
12232SOL    HW237747   5.752   2.869   3.860  1.5499 -2.5732 -2.9602
12233SOL     OW37748   1.894   5.700   2.359  0.3933 -0.0746 -0.0171
12233SOL    HW137749   1.932   5.770   2.305  2.3151 -0.3913  0.8550
12233SOL    HW237750   1.802   5.725   2.369  0.9999  2.3225  0.2387
12234SOL     OW37751   0.728   1.007   2.435  0.3121  0.0400  0.0378
12234SOL    HW137752   0.699   0.946   2.368  0.2830  0.5764 -0.4464
12234SOL    HW237753   0.779   0.954   2.496  0.4398 -0.4318 -0.4777
12235SOL     OW37754   7.127   5.137   1.881  0.6048  0.0762  0.3558
12235SOL    HW137755   7.105   5.178   1.797  1.5020  2.9880  1.4186
12235SOL    HW237756   7.085   5.193   1.946  0.6281 -1.6429  1.9016
12236SOL     OW37757   7.358   1.709   7.963 -0.2772 -0.0702 -0.2492
12236SOL    HW137758   7.387   1.775   7.901  0.2552 -1.2645 -1.3211
12236SOL    HW237759   7.408   1.727   8.043 -0.8079  1.3470 -0.2163
12237SOL     OW37760   3.230   0.449   4.786 -0.0414 -0.4927  0.2158
12237SOL    HW137761   3.280   0.529   4.769  1.4552 -1.8505 -2.5565
12237SOL    HW237762   3.292   0.391   4.831  1.1610 -2.1704 -3.2058
12238SOL     OW37763   3.989   0.948   0.217 -0.6539 -0.2007  0.0576
12238SOL    HW137764   3.965   0.868   0.172 -0.1118 -0.1217 -0.3904
12238SOL    HW237765   3.935   1.016   0.177 -1.9404 -0.5047  1.2187
12239SOL     OW37766   6.402   1.541   7.560 -0.5350 -0.2340 -0.4494
12239SOL    HW137767   6.421   1.591   7.481  1.0688 -0.5532 -0.2943
12239SOL    HW237768   6.326   1.487   7.537 -0.1556 -0.2485 -1.7195
12240SOL     OW37769   1.223   2.696   0.401 -0.0873 -0.1328 -0.2564
12240SOL    HW137770   1.133   2.667   0.409 -0.0463 -0.1123  0.3247
12240SOL    HW237771   1.275   2.621   0.428  0.0323  0.2640  0.6832
12241SOL     OW37772   4.673   6.152   0.567  0.0863 -0.8353 -0.0725
12241SOL    HW137773   4.713   6.109   0.642 -0.3753 -1.0133  0.0740
12241SOL    HW237774   4.593   6.103   0.550 -0.0683 -0.4901 -0.3689
12242SOL     OW37775   4.316   2.426   0.228 -0.0900  0.3157 -0.6850
12242SOL    HW137776   4.391   2.366   0.234 -0.4443 -0.1091 -0.4308
12242SOL    HW237777   4.241   2.369   0.213 -0.6503  0.5377  0.9873
12243SOL     OW37778   0.630   0.699   5.274 -0.5269  0.2419  0.1064
12243SOL    HW137779   0.595   0.778   5.234 -0.5613  0.9867  1.5348
12243SOL    HW237780   0.557   0.664   5.326 -0.6038 -0.9090 -0.7365
12244SOL     OW37781   7.066   2.675   0.280  0.8320  0.6796  0.0743
12244SOL    HW137782   7.094   2.661   0.190  4.0382  0.5699  0.9495
12244SOL    HW237783   7.083   2.767   0.297 -1.1096  1.0493  0.2041
12245SOL     OW37784   6.132   3.549   2.247  0.1532 -0.7732  0.2519
12245SOL    HW137785   6.221   3.555   2.283  0.1733  3.1479 -0.0184
12245SOL    HW237786   6.142   3.574   2.155 -1.0766 -1.5642 -0.1118
12246SOL     OW37787   2.931   3.611   1.376 -1.2081 -0.4863  0.2800
12246SOL    HW137788   2.938   3.682   1.313  1.9253  0.5062  1.5782
12246SOL    HW237789   2.871   3.644   1.443 -1.5455 -0.0101 -0.2463
12247SOL     OW37790   7.212   2.888   5.142 -0.5702  0.3659  0.5627
12247SOL    HW137791   7.276   2.959   5.140  0.7048 -0.7217  1.4223
12247SOL    HW237792   7.229   2.838   5.062 -0.1983 -0.0488  0.9005
12248SOL     OW37793   5.393   7.488   5.223  0.3836  0.1380 -0.2097
12248SOL    HW137794   5.343   7.556   5.176 -1.1466 -1.3347 -0.8001
12248SOL    HW237795   5.443   7.537   5.288  0.3916  1.9740 -1.5140
12249SOL     OW37796   4.133   7.741   3.290  0.1368 -0.0367  0.3693
12249SOL    HW137797   4.098   7.657   3.262 -0.0727  0.0287  0.4305
12249SOL    HW237798   4.168   7.725   3.377  0.5730 -0.1845  0.1696
12250SOL     OW37799   3.913   1.160   0.982  0.2834  0.1506 -0.1204
12250SOL    HW137800   3.880   1.093   0.921 -0.4257  0.6956 -0.3540
12250SOL    HW237801   3.892   1.243   0.940  3.2727  0.5674 -0.9488
12251SOL     OW37802   2.684   6.351   1.904  0.8189  0.0988  0.3153
12251SOL    HW137803   2.746   6.360   1.976 -0.1789  0.8253  1.1091
12251SOL    HW237804   2.654   6.440   1.886  1.3217 -0.0160 -1.2614
12252SOL     OW37805   4.126   0.256   5.364  0.6993  0.2379  0.1274
12252SOL    HW137806   4.126   0.310   5.443  1.8597  0.6869 -0.1669
12252SOL    HW237807   4.110   0.167   5.396 -1.0073  0.6807  0.6383
12253SOL     OW37808   7.593   6.325   5.209  0.1219 -0.0885 -0.1906
12253SOL    HW137809   7.513   6.282   5.239  0.1594  0.9430  1.4731
12253SOL    HW237810   7.629   6.264   5.144  0.0147 -2.4395  1.8009
12254SOL     OW37811   3.242   0.800   1.950 -0.4078  0.3254 -0.1369
12254SOL    HW137812   3.215   0.728   1.893 -0.5863 -1.0138  1.5516
12254SOL    HW237813   3.336   0.808   1.934  0.4717 -2.9238  2.2918
12255SOL     OW37814   3.507   5.977   4.808 -0.3456  0.0587 -0.5093
12255SOL    HW137815   3.499   5.937   4.722 -0.2737 -0.2695 -0.3682
12255SOL    HW237816   3.510   5.902   4.868  1.4597  0.2064 -0.3625
12256SOL     OW37817   2.020   0.110   0.851 -0.3343  0.0895  0.1972
12256SOL    HW137818   1.979   0.090   0.767 -0.7171  1.7748 -0.0668
12256SOL    HW237819   2.092   0.169   0.829  2.1528 -2.5419  0.6912
12257SOL     OW37820   7.726   1.555   0.804  0.1420  0.2962 -0.0609
12257SOL    HW137821   7.641   1.527   0.771  0.0726  1.1399 -0.6302
12257SOL    HW237822   7.788   1.495   0.764 -0.2010 -0.5278  0.6085
12258SOL     OW37823   1.676   4.068   3.132  0.3845  0.3427  0.5403
12258SOL    HW137824   1.608   4.135   3.140  0.6605  0.5864  0.8426
12258SOL    HW237825   1.675   4.022   3.216 -0.7942 -0.9907 -0.1538
12259SOL     OW37826   4.603   7.195   2.258 -0.3418  0.1151  0.4295
12259SOL    HW137827   4.684   7.236   2.289  0.3802 -1.3506  0.5297
12259SOL    HW237828   4.589   7.233   2.172  0.4993  0.3303  0.3745
12260SOL     OW37829   0.915   3.672   5.221  0.2367  0.1709 -0.2913
12260SOL    HW137830   0.962   3.617   5.284 -1.8844 -0.2581  1.0243
12260SOL    HW237831   0.960   3.756   5.225 -0.5628  0.5911  2.8685
12261SOL     OW37832   3.817   4.469   8.124  0.1647 -0.3886  0.0626
12261SOL    HW137833   3.739   4.476   8.179  0.2948 -2.5134  0.5864
12261SOL    HW237834   3.811   4.383   8.083  1.4533  0.0458 -1.1370
12262SOL     OW37835   3.999   7.076   4.132 -0.0553 -0.5788  0.2415
12262SOL    HW137836   3.928   7.066   4.067 -0.4939 -1.0615  0.7851
12262SOL    HW237837   4.011   7.170   4.140  0.5388 -0.5137 -1.1138
12263SOL     OW37838   2.367   8.051   5.436  0.5862  0.6113 -0.2185
12263SOL    HW137839   2.315   8.036   5.357  1.3161  0.3135 -0.6562
12263SOL    HW237840   2.417   8.131   5.417  1.3834  0.0797 -0.3971
12264SOL     OW37841   6.356   4.837   3.483  0.2771  0.0605 -0.0244
12264SOL    HW137842   6.402   4.910   3.441 -0.0032  1.0400  1.3102
12264SOL    HW237843   6.288   4.813   3.421  1.1775  0.0640 -1.0506
12265SOL     OW37844   1.988   0.574   6.144 -0.2793 -1.1469 -0.0745
12265SOL    HW137845   1.950   0.544   6.227  1.1225 -0.5681  0.8129
12265SOL    HW237846   2.057   0.634   6.170  0.1896 -0.9546 -1.6820
12266SOL     OW37847   1.729   8.122   8.091  0.4397  0.1519 -0.0447
12266SOL    HW137848   1.792   8.192   8.071  0.3431  0.5854  1.0648
12266SOL    HW237849   1.718   8.075   8.009  0.5448  1.4204 -0.8166
12267SOL     OW37850   5.310   2.182   8.028  0.4421  0.0335 -0.2679
12267SOL    HW137851   5.335   2.257   8.083  0.0171  0.5056 -0.7036
12267SOL    HW237852   5.221   2.203   7.999  0.5510 -0.3524 -0.8994
12268SOL     OW37853   2.625   0.489   7.691 -0.8062  0.2012  0.8828
12268SOL    HW137854   2.701   0.447   7.733 -1.3095 -1.1335  0.4977
12268SOL    HW237855   2.570   0.517   7.764  0.0853  1.2570  1.1689
12269SOL     OW37856   4.076   4.036   3.067  0.0808 -0.3870  0.0311
12269SOL    HW137857   4.073   4.101   2.997  0.9536 -0.6740 -0.2868
12269SOL    HW237858   4.073   3.952   3.021 -1.8782 -0.6196  0.4655
12270SOL     OW37859   2.669   2.086   1.933 -0.4924  0.5772  0.1214
12270SOL    HW137860   2.664   2.143   2.010 -1.2850  1.2913 -0.4433
12270SOL    HW237861   2.597   2.115   1.877  1.4445  1.6895 -1.9902
12271SOL     OW37862   7.215   2.281   1.580  0.6134  0.1837 -0.6209
12271SOL    HW137863   7.258   2.324   1.654  0.2459  0.3457 -0.4995
12271SOL    HW237864   7.236   2.188   1.590 -0.3412  0.0513  0.3138
12272SOL     OW37865   0.021   7.389   2.466  0.6966 -0.1090  0.2042
12272SOL    HW137866  -0.069   7.357   2.476  1.1032 -0.7684  2.1321
12272SOL    HW237867   0.014   7.484   2.476 -0.1185  0.2053 -2.5541
12273SOL     OW37868   0.834   4.168   2.846 -0.4963  0.7793  0.2365
12273SOL    HW137869   0.816   4.217   2.926 -0.1390 -2.3958  2.4386
12273SOL    HW237870   0.929   4.170   2.837 -0.5012  0.7243  0.1672
12274SOL     OW37871   2.220   2.136   1.546  0.0381  0.2866  0.1447
12274SOL    HW137872   2.144   2.084   1.519 -0.7930  1.7055 -0.3387
12274SOL    HW237873   2.210   2.145   1.641 -0.9651  1.2742 -0.0275
12275SOL     OW37874   4.139   3.797   7.807  0.1731 -0.3771 -0.1316
12275SOL    HW137875   4.107   3.761   7.724 -0.4428 -0.9710  0.3520
12275SOL    HW237876   4.183   3.878   7.782 -0.8741 -0.0212 -0.9369
12276SOL     OW37877   7.531   6.546   2.238  0.2547 -0.1446  0.2533
12276SOL    HW137878   7.471   6.598   2.292  1.4143  1.4885  0.0147
12276SOL    HW237879   7.614   6.548   2.286  0.5481 -1.1074 -0.1814
12277SOL     OW37880   1.100   0.283   7.200 -0.2823  0.3925  0.1153
12277SOL    HW137881   1.056   0.200   7.215 -1.8389  0.8968 -1.3760
12277SOL    HW237882   1.174   0.262   7.142 -0.6503  0.0468 -0.2280
12278SOL     OW37883   5.113   3.402   3.455  0.3519 -0.0437  0.0832
12278SOL    HW137884   5.127   3.496   3.469  1.1381 -0.1784  0.3001
12278SOL    HW237885   5.186   3.360   3.502  0.3648 -0.7352 -0.5349
12279SOL     OW37886   7.014   7.196   4.747 -0.3146 -0.4584 -0.0281
12279SOL    HW137887   6.961   7.145   4.685 -0.9902  0.9503 -0.6358
12279SOL    HW237888   6.962   7.274   4.765  0.6080 -0.0687  1.0641
12280SOL     OW37889   3.494   6.386   2.560 -0.0108 -0.3790  0.4159
12280SOL    HW137890   3.501   6.353   2.649  0.4361 -0.9586  0.1733
12280SOL    HW237891   3.435   6.461   2.567  1.5967  0.8424  1.5364
12281SOL     OW37892   5.887   7.971   3.572 -0.2090  0.2480 -0.6256
12281SOL    HW137893   5.956   8.029   3.541 -0.4899  0.2245 -1.3328
12281SOL    HW237894   5.835   8.025   3.632  0.4090  0.2659 -0.0999
12282SOL     OW37895   3.298   5.418   1.007  0.4098  0.2158 -0.2484
12282SOL    HW137896   3.314   5.323   1.009  1.9473  0.4137 -1.4144
12282SOL    HW237897   3.304   5.445   1.099  1.3622 -0.6236 -0.0357
12283SOL     OW37898   8.260   2.595   1.014  0.2019  0.2675  0.1094
12283SOL    HW137899   8.304   2.560   1.092 -0.5942  0.8291  0.8394
12283SOL    HW237900   8.277   2.531   0.946  0.6131 -0.4279  0.8465
12284SOL     OW37901   0.907   2.841   2.345  0.4928  0.0177  0.4668
12284SOL    HW137902   0.864   2.917   2.383 -0.9482 -0.7016  0.3105
12284SOL    HW237903   0.838   2.776   2.335  1.5277 -1.0216 -0.1941
12285SOL     OW37904   5.357   3.740   5.968  0.1913 -0.4206  0.0351
12285SOL    HW137905   5.449   3.725   5.991 -0.2550 -1.3568  1.3265
12285SOL    HW237906   5.312   3.749   6.052 -1.4756 -3.5856 -0.3698
12286SOL     OW37907   7.589   5.950   5.140 -0.1858 -0.3413  0.0769
12286SOL    HW137908   7.552   5.963   5.052  0.4167  3.4525  0.2130
12286SOL    HW237909   7.521   5.902   5.187 -1.3401 -0.8090 -1.9321
12287SOL     OW37910   2.198   4.814   6.081 -0.3495 -0.3845 -0.5669
12287SOL    HW137911   2.194   4.820   5.986 -0.3955 -0.9947 -0.6125
12287SOL    HW237912   2.110   4.840   6.110 -0.0839  0.6241 -0.6306
12288SOL     OW37913   1.448   0.725   6.117 -0.2898 -0.2294  0.2053
12288SOL    HW137914   1.441   0.785   6.042 -1.0374  0.0066  0.4488
12288SOL    HW237915   1.449   0.638   6.078  0.0477 -0.0860 -0.1138
12289SOL     OW37916   5.263   5.929   0.915 -0.1783  0.1916 -0.6427
12289SOL    HW137917   5.319   5.870   0.964 -1.7278 -1.9336 -1.2895
12289SOL    HW237918   5.231   5.992   0.980  0.7333 -0.2610  0.2707
12290SOL     OW37919   6.894   6.841   5.009  0.1386  0.5148 -0.1349
12290SOL    HW137920   6.982   6.845   5.047 -0.1871  1.3251  0.5646
12290SOL    HW237921   6.842   6.903   5.060 -0.8792 -0.0353 -0.4593
12291SOL     OW37922   8.228   2.169   0.933 -0.1763 -0.5965  0.3312
12291SOL    HW137923   8.271   2.097   0.978 -0.2569 -1.3074 -0.6845
12291SOL    HW237924   8.296   2.207   0.878  0.2897  1.1445  2.0083
12292SOL     OW37925   7.468   1.540   0.717 -0.0707 -0.2657  0.0686
12292SOL    HW137926   7.428   1.486   0.785  1.6373 -1.6972  0.0375
12292SOL    HW237927   7.396   1.591   0.681 -1.3733 -0.9267  1.6060
12293SOL     OW37928   5.434   1.326   5.857 -0.4908  0.7043 -0.3003
12293SOL    HW137929   5.414   1.288   5.771 -2.2735 -0.4772  0.5719
12293SOL    HW237930   5.482   1.406   5.837  2.2325 -1.2321 -2.2876
12294SOL     OW37931   4.282   4.660   3.971 -0.0686  0.5684  0.2372
12294SOL    HW137932   4.363   4.695   3.935  0.8149 -0.4309  1.1973
12294SOL    HW237933   4.229   4.737   3.992  0.7333  1.2339 -0.1563
12295SOL     OW37934   0.135   0.697   4.616  0.1445  0.2829  0.1626
12295SOL    HW137935   0.212   0.704   4.560  1.0391 -2.2149  0.9816
12295SOL    HW237936   0.064   0.677   4.555  0.3569  1.3167 -0.4504
12296SOL     OW37937   0.230   1.108   6.195 -0.0254 -0.3145 -0.2774
12296SOL    HW137938   0.304   1.153   6.153  0.5280  0.1090  1.1154
12296SOL    HW237939   0.157   1.170   6.187  0.2863  0.1089  0.0832
12297SOL     OW37940   7.598   1.462   7.919 -0.0145  0.2948  0.0139
12297SOL    HW137941   7.654   1.535   7.892  0.0325  0.6574  1.0716
12297SOL    HW237942   7.579   1.478   8.011 -0.3375 -0.8192  0.1565
12298SOL     OW37943   6.062   3.867   6.682  0.2147 -0.3431  0.1078
12298SOL    HW137944   6.121   3.924   6.733 -0.0921 -0.3819  0.5175
12298SOL    HW237945   6.061   3.785   6.731  1.6307 -1.1559 -1.1455
12299SOL     OW37946   5.589   0.950   1.993 -0.3857  0.3504 -0.2782
12299SOL    HW137947   5.581   1.031   1.943  0.3054 -0.3986 -1.6643
12299SOL    HW237948   5.503   0.907   1.985 -0.0713 -0.1016 -1.4784
12300SOL     OW37949   6.525   3.978   7.209  0.6567  0.5858  0.5373
12300SOL    HW137950   6.501   4.069   7.193  4.0727  1.2606 -1.9939
12300SOL    HW237951   6.528   3.938   7.121  0.2418 -1.6886  1.4842
12301SOL     OW37952   5.526   6.331   7.496  0.0638 -0.3481 -0.0008
12301SOL    HW137953   5.573   6.257   7.457 -0.5364  0.2413 -2.0055
12301SOL    HW237954   5.555   6.334   7.587  0.4027 -2.7801  0.0247
12302SOL     OW37955   1.982   8.240   3.056 -0.1618  0.0792  0.1723
12302SOL    HW137956   2.045   8.191   3.109  1.4914  0.3457 -1.4547
12302SOL    HW237957   1.988   8.330   3.088  1.9984  0.5645 -1.3930
12303SOL     OW37958   3.789   1.697   2.229  0.2344  0.1546  0.3475
12303SOL    HW137959   3.842   1.634   2.279  0.8692  0.4387  0.0435
12303SOL    HW237960   3.708   1.650   2.210  0.7843 -0.6567 -0.0553
12304SOL     OW37961   3.672   6.508   0.593 -0.0724 -0.0361  0.2445
12304SOL    HW137962   3.589   6.541   0.625 -0.9967 -1.4667 -0.5619
12304SOL    HW237963   3.731   6.512   0.669 -0.4744  2.1505  0.4997
12305SOL     OW37964   7.636   5.211   6.181  0.1171 -0.1987  0.2959
12305SOL    HW137965   7.621   5.167   6.264  2.2264  1.3563  1.6147
12305SOL    HW237966   7.600   5.299   6.193  2.4472  0.8135  0.5100
12306SOL     OW37967   3.532   4.725   1.119  0.2900  0.3910 -0.0134
12306SOL    HW137968   3.596   4.656   1.135  2.4495  1.6289 -2.6239
12306SOL    HW237969   3.505   4.712   1.029  2.5957  4.2004 -1.4709
12307SOL     OW37970   1.887   0.543   4.766  0.4540  0.1253  0.1344
12307SOL    HW137971   1.801   0.514   4.797  1.0145 -1.2694  0.4140
12307SOL    HW237972   1.890   0.636   4.789 -0.3870 -0.1586  1.4795
12308SOL     OW37973   0.610   7.962   6.263  0.1484 -0.2942  0.3429
12308SOL    HW137974   0.574   8.017   6.194  2.1918  1.3130  0.4690
12308SOL    HW237975   0.568   7.993   6.343 -0.4923 -0.5907  0.1308
12309SOL     OW37976   0.105   6.564   2.153  0.0002 -0.0360 -0.0203
12309SOL    HW137977   0.055   6.642   2.176 -0.0190 -0.5379  1.7739
12309SOL    HW237978   0.192   6.597   2.130  0.0718  0.5106  0.9674
12310SOL     OW37979   3.105   3.995   7.302  0.2463  0.5520 -0.5552
12310SOL    HW137980   3.096   3.937   7.379  0.5265 -0.0626 -0.9764
12310SOL    HW237981   3.103   4.083   7.339 -2.0672  0.3686 -0.0544
12311SOL     OW37982   2.288   2.417   6.857  0.3141  0.2665 -0.7684
12311SOL    HW137983   2.212   2.366   6.828  0.2004  0.7051 -1.2846
12311SOL    HW237984   2.252   2.504   6.874  0.4302  0.0734  0.5033
12312SOL     OW37985   7.531   5.395   2.095  0.1887  0.9194  0.0114
12312SOL    HW137986   7.465   5.349   2.042  2.0357  0.5957 -2.1370
12312SOL    HW237987   7.607   5.337   2.094  1.9462  3.0980 -1.1545
12313SOL     OW37988   0.516   8.027   7.180  0.4443 -0.2781  0.0468
12313SOL    HW137989   0.422   8.041   7.188  0.1159 -2.7928  2.1327
12313SOL    HW237990   0.555   8.081   7.248  0.3483 -0.3450  0.1562
12314SOL     OW37991   4.978   5.598   3.852 -0.1503  0.2904  0.3675
12314SOL    HW137992   5.071   5.619   3.848 -0.2043  0.5222  0.3125
12314SOL    HW237993   4.940   5.666   3.908 -0.0685 -0.5851  1.5221
12315SOL     OW37994   4.615   6.757   0.677  0.5308  0.2675 -0.0525
12315SOL    HW137995   4.704   6.752   0.710  1.0246  2.6302 -0.8272
12315SOL    HW237996   4.559   6.745   0.754  1.5658  1.0274  0.8395
12316SOL     OW37997   1.726   0.247   8.128 -0.3071 -0.3044  0.2102
12316SOL    HW137998   1.722   0.342   8.126 -1.8003 -0.3609 -0.1461
12316SOL    HW237999   1.640   0.218   8.100  0.5023 -1.7783 -0.8998
12317SOL     OW38000   6.102   7.444   0.865  0.3361  0.2962 -0.3205
12317SOL    HW138001   6.194   7.460   0.843 -0.1986  0.9832 -2.2169
12317SOL    HW238002   6.102   7.355   0.901  1.7173  0.2597 -0.3378
12318SOL     OW38003   7.573   4.307   0.876  0.2039  0.4695 -0.8486
12318SOL    HW138004   7.535   4.281   0.960  0.1511  1.4712 -0.5543
12318SOL    HW238005   7.538   4.244   0.814 -1.4060  0.9357 -0.4696
12319SOL     OW38006   2.480   4.958   7.218  0.0249 -1.1106  0.4723
12319SOL    HW138007   2.488   4.863   7.220  0.6455 -1.0596  0.4734
12319SOL    HW238008   2.387   4.974   7.202 -0.0934 -1.7145  0.5514
12320SOL     OW38009   3.941   7.129   3.102 -0.6020  0.3252  0.4324
12320SOL    HW138010   3.923   7.035   3.101 -0.5788  0.3202 -0.5540
12320SOL    HW238011   3.939   7.155   3.010  0.9849  0.9946  0.5497
12321SOL     OW38012   2.376   1.606   1.062 -0.2387  0.1245  0.0937
12321SOL    HW138013   2.442   1.555   1.110 -0.4002  0.4204  0.6332
12321SOL    HW238014   2.387   1.696   1.093 -0.5889  0.2586 -0.1602
12322SOL     OW38015   5.062   7.975   0.484 -0.5050 -0.1148 -0.5616
12322SOL    HW138016   5.097   7.898   0.439  1.6442  0.7655 -0.4668
12322SOL    HW238017   5.012   8.022   0.416 -1.9146 -1.5704 -0.6007
12323SOL     OW38018   7.957   1.321   3.647  0.2572 -0.0567  0.1415
12323SOL    HW138019   7.953   1.301   3.741 -1.5246  0.5994  0.2280
12323SOL    HW238020   7.970   1.236   3.605 -0.3714 -0.5445  0.9040
12324SOL     OW38021   8.223   3.675   2.135 -0.0972 -0.2653 -0.0843
12324SOL    HW138022   8.198   3.719   2.216  1.4926  0.5196  0.0345
12324SOL    HW238023   8.231   3.583   2.159 -0.9014 -0.2339  0.3275
12325SOL     OW38024   8.016   5.383   2.971  0.0175  0.1737  0.8469
12325SOL    HW138025   7.964   5.397   2.892  0.1774  2.3194  1.0865
12325SOL    HW238026   8.102   5.356   2.938 -0.0106  0.7377  0.2997
12326SOL     OW38027   5.399   4.929   2.065  0.3494  0.1213  0.1356
12326SOL    HW138028   5.311   4.948   2.032  1.3506  1.0646 -2.2237
12326SOL    HW238029   5.402   4.971   2.151 -1.4514  0.1692  0.2004
12327SOL     OW38030   7.856   5.096   4.222  0.2378 -0.0223 -0.3056
12327SOL    HW138031   7.842   5.159   4.292 -1.0313 -0.9997  0.3519
12327SOL    HW238032   7.882   5.149   4.146 -0.6037  1.2620  0.2827
12328SOL     OW38033   5.220   1.861   1.059  0.1673 -0.1920 -0.3596
12328SOL    HW138034   5.134   1.847   1.098  1.0466 -1.4464  1.2746
12328SOL    HW238035   5.275   1.792   1.097  1.5989 -0.2648 -2.3746
12329SOL     OW38036   4.115   3.218   6.566  0.1771 -0.0003  0.6163
12329SOL    HW138037   4.112   3.159   6.491 -1.6359 -0.9988  1.4219
12329SOL    HW238038   4.178   3.286   6.540  1.0117 -1.3203 -1.0291
12330SOL     OW38039   0.467   7.072   0.637  0.4461  0.1328 -0.4968
12330SOL    HW138040   0.543   7.018   0.615 -0.4000 -1.2717 -0.0895
12330SOL    HW238041   0.472   7.084   0.732 -0.4810 -1.0336 -0.2721
12331SOL     OW38042   5.301   7.109   7.549  0.6357 -0.1116  0.3273
12331SOL    HW138043   5.258   7.100   7.465  2.2212 -2.4076 -0.3128
12331SOL    HW238044   5.394   7.107   7.529  1.0715 -2.1117  2.1965
12332SOL     OW38045   3.581   7.814   6.339 -0.7898 -0.0030 -0.2290
12332SOL    HW138046   3.611   7.724   6.349 -0.2474  0.3699  2.4726
12332SOL    HW238047   3.661   7.864   6.320 -0.9961  0.0058 -1.1119
12333SOL     OW38048   7.283   1.527   4.596 -0.1073 -0.3964 -0.0133
12333SOL    HW138049   7.294   1.518   4.690  0.8571 -1.6339 -0.2239
12333SOL    HW238050   7.372   1.535   4.562 -0.4444  0.0609 -0.8314
12334SOL     OW38051   3.444   0.704   6.695 -0.0317 -0.6861 -0.2318
12334SOL    HW138052   3.400   0.726   6.612 -0.2147 -0.4121 -0.0638
12334SOL    HW238053   3.442   0.608   6.698 -0.6603 -0.6758 -0.2071
12335SOL     OW38054   7.266   4.132   0.394 -0.3641  1.1355  0.5395
12335SOL    HW138055   7.345   4.089   0.428  0.0584  2.3949  1.2239
12335SOL    HW238056   7.230   4.178   0.470 -1.4712  1.0046  0.1061
12336SOL     OW38057   2.089   0.983   4.325  0.7061  0.6745  0.4126
12336SOL    HW138058   2.020   1.040   4.359 -0.2736 -0.0547 -0.2819
12336SOL    HW238059   2.057   0.894   4.340  1.4800  0.3177  0.0416
12337SOL     OW38060   5.056   0.439   0.067  0.1694  0.6241  0.5852
12337SOL    HW138061   5.003   0.510   0.029  1.0314  1.2350  0.4914
12337SOL    HW238062   5.080   0.471   0.154 -1.0291 -0.3858  1.3237
12338SOL     OW38063   0.039   5.923   5.539 -0.5285  0.1364  0.0930
12338SOL    HW138064  -0.022   5.995   5.556  0.1336  0.0451  3.6402
12338SOL    HW238065   0.010   5.853   5.597  0.8909 -1.2056 -0.7362
12339SOL     OW38066   7.432   1.398   0.090  0.4587 -0.0987 -0.1356
12339SOL    HW138067   7.372   1.467   0.119 -0.3731 -1.7655  2.4706
12339SOL    HW238068   7.499   1.444   0.040  0.4339  2.7859  2.1751
12340SOL     OW38069   5.711   6.823   2.251  0.4488  0.4769  0.9707
12340SOL    HW138070   5.646   6.893   2.257  0.2968  0.3264  1.1426
12340SOL    HW238071   5.658   6.743   2.243  0.6019  0.5343 -1.3894
12341SOL     OW38072   1.579   5.052   0.205  0.2959  0.7978 -0.5746
12341SOL    HW138073   1.511   5.072   0.141 -0.2071  0.1579 -0.2526
12341SOL    HW238074   1.654   5.025   0.153 -1.3572 -3.9272 -0.9922
12342SOL     OW38075   7.232   7.625   2.670 -0.1041  0.4736 -0.6589
12342SOL    HW138076   7.184   7.686   2.727 -1.2025 -2.7725  2.3014
12342SOL    HW238077   7.166   7.594   2.608 -0.7013 -0.5206  0.4142
12343SOL     OW38078   4.093   4.067   5.766 -0.4882 -0.1630  0.2583
12343SOL    HW138079   4.098   4.052   5.860  0.5711  1.3149  0.4787
12343SOL    HW238080   4.128   3.987   5.727 -1.0911 -0.8586  1.1031
12344SOL     OW38081   3.210   3.220   3.391 -0.6861  0.8085  0.3035
12344SOL    HW138082   3.194   3.308   3.355 -1.3814  0.2810 -0.7412
12344SOL    HW238083   3.305   3.209   3.386 -0.6458  1.2809 -0.1025
12345SOL     OW38084   2.404   0.451   3.618 -0.6109  0.1635 -0.1664
12345SOL    HW138085   2.377   0.514   3.551  0.8880  1.4691  0.3855
12345SOL    HW238086   2.373   0.490   3.700 -0.5454 -0.3383  0.0956
12346SOL     OW38087   6.560   3.940   5.487 -0.3589  0.0804 -0.0847
12346SOL    HW138088   6.559   3.856   5.442  1.3051  1.1577 -2.3025
12346SOL    HW238089   6.653   3.963   5.493 -0.8018  2.2163 -0.4759
12347SOL     OW38090   1.602   0.267   4.022 -0.4837  0.2509  0.2084
12347SOL    HW138091   1.619   0.358   4.046 -0.5953  0.3461 -0.0714
12347SOL    HW238092   1.540   0.236   4.088 -0.4145  0.3646  0.3275
12348SOL     OW38093   7.347   0.375   1.854  0.4345 -0.4696  0.5411
12348SOL    HW138094   7.368   0.468   1.865 -1.2950  0.0665 -0.3977
12348SOL    HW238095   7.270   0.361   1.910  0.0403 -1.0697 -0.1268
12349SOL     OW38096   4.606   4.768   7.270  0.2597  0.5266  0.1323
12349SOL    HW138097   4.563   4.726   7.345 -0.2151  2.4234  0.9751
12349SOL    HW238098   4.692   4.795   7.303  0.8454 -0.3555 -0.6092
12350SOL     OW38099   4.552   1.705   3.152  0.1190 -0.0916 -0.0702
12350SOL    HW138100   4.580   1.614   3.166 -0.3435 -0.1652  0.4421
12350SOL    HW238101   4.622   1.745   3.102  0.1778 -0.8293 -0.5970
12351SOL     OW38102   3.146   8.161   5.869  0.4285  0.2213  0.2201
12351SOL    HW138103   3.135   8.241   5.817  1.0433  0.3348  0.2602
12351SOL    HW238104   3.221   8.179   5.925  1.1168 -0.6922 -0.3647
12352SOL     OW38105   4.726   2.393   5.766 -0.1109  0.1252 -0.4143
12352SOL    HW138106   4.685   2.479   5.753  0.0979  0.2003 -0.5681
12352SOL    HW238107   4.818   2.412   5.781 -0.2200 -0.0008  0.5122
12353SOL     OW38108   6.927   3.038   0.888 -0.1763 -0.5881  0.4322
12353SOL    HW138109   6.993   2.977   0.855  0.5311  0.3397  0.0925
12353SOL    HW238110   6.938   3.036   0.983  0.7728  0.0183  0.3464
12354SOL     OW38111   6.687   0.767   3.719 -0.6539 -0.1987  0.1130
12354SOL    HW138112   6.716   0.701   3.782  0.6212 -0.0799 -0.3163
12354SOL    HW238113   6.687   0.722   3.635  1.3825  0.6199 -0.3708
12355SOL     OW38114   0.801   8.163   3.056  0.3564  0.4608  0.5750
12355SOL    HW138115   0.740   8.120   3.115 -0.1429  0.2509 -0.0770
12355SOL    HW238116   0.854   8.219   3.112 -0.1600  0.3256  1.2057
12356SOL     OW38117   3.683   5.281   6.981 -0.8567  0.0640 -0.6421
12356SOL    HW138118   3.704   5.370   6.954  1.0055 -0.6149 -1.5713
12356SOL    HW238119   3.684   5.284   7.077 -0.6013  0.9841 -0.6699
12357SOL     OW38120   3.606   1.583   5.907  0.1670 -0.4370 -0.3529
12357SOL    HW138121   3.600   1.521   5.979 -2.3683  1.0734  0.8776
12357SOL    HW238122   3.671   1.647   5.935  0.9906 -1.1593 -0.5556
12358SOL     OW38123   1.243   4.712   6.740 -0.4145  0.1571 -0.3768
12358SOL    HW138124   1.164   4.662   6.758  0.6492 -1.2623  0.5592
12358SOL    HW238125   1.315   4.650   6.754  0.8765  1.3995 -1.1756
12359SOL     OW38126   6.043   3.014   3.789  0.7564 -0.6072  0.3738
12359SOL    HW138127   5.989   3.085   3.756 -1.6831 -1.6889  1.8117
12359SOL    HW238128   6.127   3.056   3.811  0.4301  1.1955 -1.5372
12360SOL     OW38129   1.964   6.990   6.976  0.2593  0.5534 -0.3543
12360SOL    HW138130   1.952   6.980   7.070 -1.0682 -0.3902 -0.6024
12360SOL    HW238131   1.891   6.942   6.937 -0.2255  2.3767 -1.8484
12361SOL     OW38132   5.842   0.336   4.445 -0.2381 -0.2851 -0.0054
12361SOL    HW138133   5.907   0.285   4.493  1.0057  0.5559 -0.7313
12361SOL    HW238134   5.882   0.423   4.434 -0.5769 -0.3440 -2.2859
12362SOL     OW38135   4.837   3.556   4.458  0.7527  0.1585 -0.1222
12362SOL    HW138136   4.885   3.520   4.383  1.3928 -0.1716  0.4314
12362SOL    HW238137   4.792   3.480   4.495 -1.0581  0.6288 -1.2270
12363SOL     OW38138   5.262   0.895   5.088  0.6374 -0.0142 -0.1783
12363SOL    HW138139   5.274   0.889   4.994  1.5592 -1.3475 -0.0092
12363SOL    HW238140   5.333   0.843   5.125 -1.0450 -1.5068  1.1701
12364SOL     OW38141   2.223   3.883   3.253 -0.0102 -0.1624 -0.0525
12364SOL    HW138142   2.144   3.831   3.269  0.0224 -0.3188 -0.3789
12364SOL    HW238143   2.213   3.913   3.162  0.0189  0.3173  0.1027
12365SOL     OW38144   3.848   3.037   0.244 -0.3833  0.5904  0.2141
12365SOL    HW138145   3.818   3.105   0.304 -0.1594  0.3625  0.5937
12365SOL    HW238146   3.886   2.970   0.301 -1.1526 -0.1366 -0.1159
12366SOL     OW38147   6.243   0.493   0.554 -0.0506  0.0390 -0.9625
12366SOL    HW138148   6.253   0.404   0.588 -0.1057  0.8358  1.3281
12366SOL    HW238149   6.150   0.499   0.532 -0.0123 -0.5048 -1.3106
12367SOL     OW38150   5.633   4.311   3.598  0.8502  0.1428 -0.1256
12367SOL    HW138151   5.680   4.315   3.515  4.7249  1.0496  1.8568
12367SOL    HW238152   5.624   4.403   3.625 -0.4747 -0.1258  0.4468
12368SOL     OW38153   0.513   6.902   2.262 -0.0982 -0.4189 -0.9235
12368SOL    HW138154   0.517   6.969   2.330  1.2100 -1.6391  0.2611
12368SOL    HW238155   0.549   6.945   2.184  3.3146 -0.3857  0.4688
12369SOL     OW38156   5.029   5.431   7.666 -0.0194  0.0069  1.1428
12369SOL    HW138157   5.099   5.465   7.722  0.8518 -0.9262  0.6698
12369SOL    HW238158   5.014   5.342   7.698  0.6245 -0.6132 -0.1701
12370SOL     OW38159   2.597   7.963   1.402 -0.0917  0.2345  0.0413
12370SOL    HW138160   2.678   7.954   1.452 -0.3078  0.3977  0.4313
12370SOL    HW238161   2.625   7.975   1.312  0.3203  0.4067  0.1890
12371SOL     OW38162   8.062   0.276   0.489  0.1098 -0.2097 -0.0565
12371SOL    HW138163   7.973   0.306   0.504 -0.2887 -1.6146  0.5248
12371SOL    HW238164   8.090   0.321   0.409 -1.0046  0.4649 -0.0753
12372SOL     OW38165   3.052   6.240   4.473 -0.9589  0.6746  0.0624
12372SOL    HW138166   2.999   6.168   4.439 -1.3676  0.6822  0.6714
12372SOL    HW238167   3.092   6.278   4.396 -0.3848 -0.4795 -0.2388
12373SOL     OW38168   3.244   4.140   4.357 -0.1190  0.3629  0.4843
12373SOL    HW138169   3.160   4.094   4.355 -0.8362  1.6269 -0.8564
12373SOL    HW238170   3.275   4.129   4.446 -1.0600 -1.2611  0.6515
12374SOL     OW38171   7.648   2.532   1.410  0.0673 -0.1330 -0.8087
12374SOL    HW138172   7.727   2.545   1.359  0.0235 -0.2314 -0.9018
12374SOL    HW238173   7.602   2.461   1.365 -0.8830  1.0227 -1.7148
12375SOL     OW38174   0.962   1.147   4.112  0.5279  0.3306 -0.2922
12375SOL    HW138175   1.053   1.172   4.126  0.4048  0.7218 -0.1565
12375SOL    HW238176   0.966   1.064   4.064  0.9552  0.4265 -0.4248
12376SOL     OW38177   7.665   1.629   1.088 -0.1697  0.1449  0.0871
12376SOL    HW138178   7.680   1.585   1.005  0.0731  1.3049 -0.5122
12376SOL    HW238179   7.702   1.571   1.154  1.2467  0.0118 -0.7863
12377SOL     OW38180   6.068   4.261   1.975 -0.4092  0.0858  0.4138
12377SOL    HW138181   6.159   4.250   2.004 -0.3375  0.2456  0.2472
12377SOL    HW238182   6.017   4.215   2.041 -0.2589  0.6385  0.9266
12378SOL     OW38183   7.894   4.209   1.945  0.0300  0.1616 -0.0350
12378SOL    HW138184   7.900   4.137   2.008  1.0689 -0.8551 -1.2576
12378SOL    HW238185   7.980   4.214   1.904 -0.2886  1.5321 -0.6109
12379SOL     OW38186   1.737   2.123   4.031 -0.2563  0.2262 -0.3718
12379SOL    HW138187   1.747   2.043   4.082 -0.7860 -0.1371 -0.8272
12379SOL    HW238188   1.686   2.181   4.087  0.5042  0.4132  0.1363
12380SOL     OW38189   5.541   5.084   3.345 -0.0169  0.3975 -0.8190
12380SOL    HW138190   5.545   5.089   3.249 -0.5851 -0.8397 -0.9257
12380SOL    HW238191   5.462   5.034   3.363  0.3203  0.2386  0.2901
12381SOL     OW38192   2.279   6.162   7.597 -0.0596 -0.4635 -0.1489
12381SOL    HW138193   2.195   6.117   7.589  0.0384 -0.4212 -1.5531
12381SOL    HW238194   2.340   6.108   7.547  0.0492  1.1934 -1.9193
12382SOL     OW38195   4.952   1.840   3.774  0.3640  0.2394 -0.4521
12382SOL    HW138196   4.861   1.810   3.775  0.1973  0.7308 -0.6011
12382SOL    HW238197   4.954   1.909   3.708  1.0259 -0.3188 -1.0350
12383SOL     OW38198   3.980   4.578   0.622  0.4316  0.0313 -0.2560
12383SOL    HW138199   3.977   4.487   0.593  2.5107  0.0440 -0.6737
12383SOL    HW238200   4.004   4.573   0.715  1.3772  0.1461 -0.4831
12384SOL     OW38201   3.979   0.328   6.872  0.1163 -0.0119  0.2809
12384SOL    HW138202   3.984   0.415   6.912  0.9002  0.2510 -0.3752
12384SOL    HW238203   3.946   0.271   6.943  3.3193  0.0522  1.9803
12385SOL     OW38204   0.459   0.877   5.183 -0.7162 -0.1894  0.2415
12385SOL    HW138205   0.397   0.902   5.252 -1.3431 -0.2996 -0.2644
12385SOL    HW238206   0.414   0.901   5.102 -0.3843 -0.8982 -0.1635
12386SOL     OW38207   5.263   5.923   5.499 -0.1042 -0.1067  0.0789
12386SOL    HW138208   5.353   5.889   5.494 -0.5706 -1.4410  0.2888
12386SOL    HW238209   5.228   5.885   5.579 -0.4542  1.4795  0.7096
12387SOL     OW38210   5.092   5.758   1.844 -0.4307  0.5831 -0.0442
12387SOL    HW138211   5.066   5.794   1.929 -0.0462  0.4083  0.1495
12387SOL    HW238212   5.176   5.800   1.824  1.4917 -2.1979  1.5167
12388SOL     OW38213   7.915   4.126   2.924  0.2949  0.3598  0.4246
12388SOL    HW138214   7.864   4.168   2.855  0.2746 -2.0679 -1.1522
12388SOL    HW238215   7.849   4.082   2.979  0.4795  0.1211  0.4542
12389SOL     OW38216   5.661   1.144   2.430 -0.8705 -0.0787 -0.1656
12389SOL    HW138217   5.595   1.164   2.497 -0.8921 -0.9059  0.0690
12389SOL    HW238218   5.698   1.060   2.457  1.2711  1.0069  0.4757
12390SOL     OW38219   4.690   0.843   6.968  0.9326 -0.2477  0.4539
12390SOL    HW138220   4.652   0.759   6.941  1.2177 -0.4171  0.5729
12390SOL    HW238221   4.658   0.856   7.057  1.7728 -0.7720  0.8444
12391SOL     OW38222   6.951   6.564   2.562 -0.2266 -0.0105 -0.4572
12391SOL    HW138223   6.900   6.645   2.573  0.3442  0.4383 -1.0438
12391SOL    HW238224   6.909   6.502   2.622 -1.8849  0.1411 -1.3936
12392SOL     OW38225   5.894   8.167   1.274 -0.1402  0.2144 -0.1065
12392SOL    HW138226   5.817   8.216   1.304 -0.8439 -1.8325  1.7100
12392SOL    HW238227   5.938   8.140   1.355 -0.0614 -2.5131 -0.9709
12393SOL     OW38228   0.353   4.947   1.321  0.8780  0.2291 -0.2776
12393SOL    HW138229   0.342   4.876   1.257 -2.1836 -1.0619  1.5055
12393SOL    HW238230   0.410   4.909   1.388 -0.1250 -0.2919  0.2909
12394SOL     OW38231   4.143   1.468   3.755 -0.0553 -0.5394 -0.0163
12394SOL    HW138232   4.064   1.440   3.801  0.0820 -0.9150 -0.0053
12394SOL    HW238233   4.111   1.524   3.685 -0.4246 -1.5608 -0.6865
12395SOL     OW38234   4.757   7.757   6.516 -0.5564  0.0073  0.1975
12395SOL    HW138235   4.665   7.731   6.518 -1.1359  1.6599 -1.3454
12395SOL    HW238236   4.780   7.753   6.423  2.3994 -4.8005  0.8120
12396SOL     OW38237   4.630   0.474   4.317 -0.0579 -0.3637 -0.6701
12396SOL    HW138238   4.690   0.459   4.390  0.0670  0.9075 -0.4767
12396SOL    HW238239   4.675   0.438   4.240  0.7879  0.1998 -0.4568
12397SOL     OW38240   7.524   4.664   3.836  0.6526 -0.1346 -0.2907
12397SOL    HW138241   7.479   4.667   3.751  0.6578 -0.5870 -0.3084
12397SOL    HW238242   7.609   4.625   3.816  0.7599  0.0102 -0.1215
12398SOL     OW38243   8.058   7.008   3.533  0.2357 -0.3536  0.1143
12398SOL    HW138244   8.009   6.927   3.553 -0.2677  0.0005  0.3376
12398SOL    HW238245   8.084   7.041   3.619  0.1765 -0.1178  0.0411
12399SOL     OW38246   6.525   7.893   1.106 -0.3978 -0.1090 -0.0637
12399SOL    HW138247   6.598   7.831   1.111 -1.2018 -1.0485  0.5923
12399SOL    HW238248   6.553   7.958   1.042  0.7546 -0.7911 -0.2902
12400SOL     OW38249   3.956   5.105   4.837 -0.0156  0.2083  0.1549
12400SOL    HW138250   3.902   5.098   4.916  0.9777 -1.4452  0.7332
12400SOL    HW238251   4.000   5.020   4.830  0.5468  0.6091 -1.7342
12401SOL     OW38252   5.007   2.547   1.217 -0.4277 -0.1456  0.1305
12401SOL    HW138253   4.918   2.582   1.217 -0.7234 -0.7945  1.9413
12401SOL    HW238254   5.036   2.556   1.308  2.3225  2.3955 -0.8391
12402SOL     OW38255   5.623   1.563   2.923 -0.9332 -0.2676  0.2598
12402SOL    HW138256   5.716   1.561   2.944 -0.4700  1.3934 -1.3494
12402SOL    HW238257   5.579   1.563   3.008  0.6185  1.1663  1.1257
12403SOL     OW38258   2.184   4.545   4.189 -0.2946  0.7962 -0.2742
12403SOL    HW138259   2.116   4.600   4.228  0.3132  1.9485 -0.7847
12403SOL    HW238260   2.154   4.529   4.100 -1.2110 -1.0201  0.3248
12404SOL     OW38261   0.618   0.579   4.385  0.4198 -0.5619  0.2480
12404SOL    HW138262   0.650   0.669   4.384  1.1373 -0.7973 -1.7057
12404SOL    HW238263   0.680   0.532   4.441  2.0803 -0.4937 -1.4611
12405SOL     OW38264   3.736   4.269   2.838 -0.0193  0.8564  0.5347
12405SOL    HW138265   3.733   4.355   2.795 -1.1438  1.7543  2.2691
12405SOL    HW238266   3.647   4.256   2.870  0.5442 -0.1979  1.7526
12406SOL     OW38267   5.661   2.915   4.154  0.1651 -0.0029  0.2884
12406SOL    HW138268   5.709   2.911   4.237 -0.5451  1.0150  0.7763
12406SOL    HW238269   5.722   2.880   4.089  0.3001 -1.9587  1.4041
12407SOL     OW38270   7.721   4.916   5.473 -0.3633  0.1606  0.1263
12407SOL    HW138271   7.681   4.869   5.399 -1.5919  0.4929  0.5609
12407SOL    HW238272   7.815   4.914   5.454 -0.7762  2.3537 -2.7287
12408SOL     OW38273   7.873   5.657   8.262  0.9668  0.0821 -0.0468
12408SOL    HW138274   7.846   5.566   8.265 -0.1447  0.3538 -0.9292
12408SOL    HW238275   7.919   5.672   8.345 -1.0142 -0.6139  1.2416
12409SOL     OW38276   4.218   7.301   4.439  0.1760 -0.2477  0.0913
12409SOL    HW138277   4.180   7.386   4.418 -2.4869 -1.1323  0.9543
12409SOL    HW238278   4.264   7.315   4.522  1.3443  0.7146 -0.6805
12410SOL     OW38279   0.602   1.736   3.084 -0.3151 -0.5035  0.1261
12410SOL    HW138280   0.660   1.805   3.116 -1.7339  0.4358  0.7527
12410SOL    HW238281   0.661   1.674   3.040  0.9418  1.3986 -1.0418
12411SOL     OW38282   2.912   7.534   1.725 -0.0174  0.0359  0.0525
12411SOL    HW138283   2.952   7.556   1.809 -0.0305 -1.0764  0.3645
12411SOL    HW238284   2.878   7.618   1.692  2.6913  1.0950 -0.3187
12412SOL     OW38285   3.695   5.623   3.827 -0.1378  0.0776 -0.2462
12412SOL    HW138286   3.763   5.594   3.888 -0.7975 -0.0250  0.4512
12412SOL    HW238287   3.676   5.713   3.854 -0.8797 -0.1785  0.1190
12413SOL     OW38288   2.328   5.602   0.715 -0.2808  1.1517 -0.3218
12413SOL    HW138289   2.271   5.614   0.791  0.4549 -0.3790  0.5318
12413SOL    HW238290   2.284   5.535   0.663 -0.1876  1.3388 -0.6447
12414SOL     OW38291   8.107   4.223   4.559 -0.0568  0.6632 -0.5271
12414SOL    HW138292   8.172   4.191   4.497  0.7071  1.5226 -0.1942
12414SOL    HW238293   8.158   4.252   4.635 -0.8416  1.1190 -0.1524
12415SOL     OW38294   3.335   6.677   4.104  0.6155 -0.6175 -0.0139
12415SOL    HW138295   3.368   6.750   4.155  2.4916 -0.6226 -1.1284
12415SOL    HW238296   3.372   6.690   4.017 -0.4300 -1.9699 -0.7086
12416SOL     OW38297   4.309   4.385   2.794 -0.0628 -0.2928  0.0779
12416SOL    HW138298   4.344   4.448   2.731  0.0610 -0.1435  0.2971
12416SOL    HW238299   4.217   4.411   2.805  0.4657  1.1045  1.6820
12417SOL     OW38300   2.995   3.550   0.458 -0.1890  0.7819  0.0602
12417SOL    HW138301   3.005   3.569   0.365 -0.9644 -1.6757 -0.6118
12417SOL    HW238302   3.079   3.513   0.484 -0.5730 -0.3583 -0.2238
12418SOL     OW38303   3.883   3.534   3.592  0.5474  0.2757 -0.5061
12418SOL    HW138304   3.940   3.467   3.555  1.2043  0.1370  0.7036
12418SOL    HW238305   3.822   3.555   3.521  0.1251 -1.8020 -0.8470
12419SOL     OW38306   1.766   7.764   7.153  0.4656 -0.0005  0.0506
12419SOL    HW138307   1.787   7.675   7.127  1.2760 -0.1988  1.3288
12419SOL    HW238308   1.677   7.759   7.187  0.7235 -0.4368  0.6602
12420SOL     OW38309   7.975   1.188   4.206  0.0482 -0.4474  0.1803
12420SOL    HW138310   7.922   1.109   4.195  0.4608 -0.9960  1.8816
12420SOL    HW238311   7.970   1.208   4.299  0.5304  1.1492 -0.1076
12421SOL     OW38312   1.418   2.434   7.162 -0.1546  0.0664  0.5383
12421SOL    HW138313   1.476   2.510   7.170 -0.7893  0.4779  1.4779
12421SOL    HW238314   1.413   2.398   7.251 -0.1100 -0.8967  0.1662
12422SOL     OW38315   7.577   0.656   1.822 -0.1892  0.0043  0.2819
12422SOL    HW138316   7.663   0.686   1.792 -0.1166  1.0750  1.4462
12422SOL    HW238317   7.570   0.691   1.911 -1.7016 -0.3260  0.3134
12423SOL     OW38318   6.469   3.025   5.845 -0.2515 -0.0843  0.2785
12423SOL    HW138319   6.486   3.090   5.777 -1.1289  0.6141  0.7055
12423SOL    HW238320   6.399   3.063   5.898 -0.6036 -1.2681  0.6993
12424SOL     OW38321   7.809   2.866   6.799 -0.2681  0.1073 -0.2803
12424SOL    HW138322   7.845   2.893   6.715 -0.7426 -0.3120 -0.6267
12424SOL    HW238323   7.715   2.883   6.791 -0.2689  0.3786  0.2892
12425SOL     OW38324   3.811   4.568   1.791 -0.4699  0.6860  0.5761
12425SOL    HW138325   3.882   4.557   1.729 -0.6400  1.9662  0.1279
12425SOL    HW238326   3.841   4.637   1.850 -1.0819  0.7999  0.7601
12426SOL     OW38327   7.339   5.482   6.425 -0.4690 -0.1821  0.4616
12426SOL    HW138328   7.257   5.488   6.475 -0.4034 -0.3654  0.5960
12426SOL    HW238329   7.393   5.421   6.476 -0.2294 -0.0212  0.4019
12427SOL     OW38330   6.345   6.685   0.879  0.2563  0.2101 -0.1865
12427SOL    HW138331   6.328   6.593   0.857 -1.5635  0.4031  0.2832
12427SOL    HW238332   6.291   6.735   0.818 -1.4450  0.8606  1.7449
12428SOL     OW38333   2.523   7.626   3.689  0.2956  0.1594 -0.7342
12428SOL    HW138334   2.543   7.595   3.600 -0.9952  0.2032 -1.0661
12428SOL    HW238335   2.564   7.562   3.747  1.9987  0.6526 -1.3264
12429SOL     OW38336   5.842   7.353   6.333 -0.1817 -0.1354 -0.4451
12429SOL    HW138337   5.836   7.413   6.408  1.7572 -1.2218  0.6642
12429SOL    HW238338   5.875   7.407   6.262  0.8101  0.3310  0.3326
12430SOL     OW38339   7.259   2.446   4.008 -0.3402 -0.3105 -0.2619
12430SOL    HW138340   7.223   2.362   4.037  1.2836 -0.4555  1.5293
12430SOL    HW238341   7.331   2.423   3.949 -1.0043 -0.0930 -1.1908
12431SOL     OW38342   0.490   6.218   6.568 -0.3752 -0.1355  0.0596
12431SOL    HW138343   0.562   6.214   6.505 -0.5555  0.9284 -0.2390
12431SOL    HW238344   0.433   6.288   6.536 -0.9510 -0.1904  0.9066
12432SOL     OW38345   3.231   4.385   1.046  0.3690  0.9050  0.0778
12432SOL    HW138346   3.232   4.443   1.121  2.0375 -1.8653  2.4214
12432SOL    HW238347   3.261   4.300   1.080 -1.1747 -1.1980 -3.1986
12433SOL     OW38348   6.569   1.570   4.672 -0.5550  0.0361 -0.1880
12433SOL    HW138349   6.507   1.500   4.692  1.4836 -1.0742  3.0004
12433SOL    HW238350   6.520   1.651   4.686 -1.5238 -0.7964  1.4927
12434SOL     OW38351   5.736   0.556   6.527 -0.3648 -0.7907 -0.5173
12434SOL    HW138352   5.829   0.568   6.506  0.2394 -1.8065  1.3158
12434SOL    HW238353   5.707   0.642   6.556  0.2833 -0.6734 -0.1947
12435SOL     OW38354   0.723   1.098   1.016 -0.0998 -0.0661 -0.7659
12435SOL    HW138355   0.803   1.149   1.004 -0.2762  0.0932 -1.3175
12435SOL    HW238356   0.671   1.117   0.937 -1.4883  1.2917  0.3989
12436SOL     OW38357   2.138   0.467   2.725 -0.5904  0.3125 -0.4104
12436SOL    HW138358   2.091   0.544   2.758 -0.7195 -0.4094  1.1374
12436SOL    HW238359   2.074   0.396   2.728 -0.6212  0.1916 -2.2852
12437SOL     OW38360   2.659   0.633   6.756  0.7674  0.1809 -0.0157
12437SOL    HW138361   2.588   0.695   6.739 -0.0212 -1.0932 -1.7730
12437SOL    HW238362   2.699   0.618   6.670  2.0791 -0.4239  0.6596
12438SOL     OW38363   6.302   4.003   0.001  0.0176 -0.3681 -0.3799
12438SOL    HW138364   6.299   4.064   0.075  2.3393 -0.2804 -0.2560
12438SOL    HW238365   6.273   4.055  -0.074 -1.5443 -0.2175  0.2987
12439SOL     OW38366   2.538   6.787   7.561 -0.5175  0.2425 -0.1914
12439SOL    HW138367   2.458   6.748   7.526 -0.8781  1.5117 -0.8406
12439SOL    HW238368   2.601   6.781   7.490 -0.8369  1.5714 -0.6249
12440SOL     OW38369   2.264   1.520   3.446 -0.7620  0.3136  0.2630
12440SOL    HW138370   2.301   1.532   3.533 -0.0224  2.1841 -0.2544
12440SOL    HW238371   2.184   1.573   3.446 -0.2277  1.1649 -0.4702
12441SOL     OW38372   3.745   2.239   5.349 -0.2883 -0.2657  0.6584
12441SOL    HW138373   3.755   2.162   5.404 -3.0121 -0.5960  0.8276
12441SOL    HW238374   3.794   2.219   5.269 -0.0692 -1.7232  1.1336
12442SOL     OW38375   5.728   0.643   4.687  0.2085  0.5089  1.1482
12442SOL    HW138376   5.701   0.732   4.712  1.0224  0.6807  1.4411
12442SOL    HW238377   5.705   0.636   4.595  0.2195  1.0539  1.1009
12443SOL     OW38378   2.861   3.124   1.860  0.3590 -0.5921  0.5361
12443SOL    HW138379   2.917   3.061   1.816 -0.7350 -2.4517  1.6885
12443SOL    HW238380   2.915   3.157   1.932  1.4099  0.8903 -0.8606
12444SOL     OW38381   1.518   7.066   3.546  0.2678  0.1531 -0.5695
12444SOL    HW138382   1.492   7.154   3.517 -0.3238 -0.4991 -2.1002
12444SOL    HW238383   1.587   7.041   3.485 -0.9343 -1.2171 -1.4209
12445SOL     OW38384   1.029   5.311   1.265  0.6583 -0.6774 -0.1537
12445SOL    HW138385   0.956   5.319   1.326  0.5306 -0.6297 -0.3115
12445SOL    HW238386   1.043   5.400   1.232  0.8807 -0.6601 -0.0186
12446SOL     OW38387   1.984   3.985   5.832 -0.0223 -0.3411  0.3067
12446SOL    HW138388   1.893   3.987   5.801  0.3269  0.6640 -0.7072
12446SOL    HW238389   1.977   3.951   5.921 -1.6206  1.3476  0.9190
12447SOL     OW38390   6.151   4.932   7.269  0.8645 -0.0635 -0.3231
12447SOL    HW138391   6.149   4.837   7.256 -0.1811  0.1564 -2.2394
12447SOL    HW238392   6.228   4.948   7.323  0.6746 -2.0575  0.5998
12448SOL     OW38393   5.392   3.092   1.442  0.0203  0.0367 -0.3130
12448SOL    HW138394   5.301   3.063   1.437  0.1211 -0.0314 -2.9632
12448SOL    HW238395   5.390   3.182   1.410  1.0555 -0.4187 -1.7146
12449SOL     OW38396   5.866   1.223   2.636 -0.1447 -0.0815  0.0448
12449SOL    HW138397   5.819   1.215   2.553  0.4640 -0.1062 -0.3032
12449SOL    HW238398   5.904   1.311   2.633  0.6454 -0.4281 -0.1108
12450SOL     OW38399   4.798   1.763   0.436  0.0965  0.4030 -0.0314
12450SOL    HW138400   4.824   1.855   0.443 -1.0460  0.8099 -0.7663
12450SOL    HW238401   4.802   1.744   0.343 -1.4655  0.2822 -0.1035
12451SOL     OW38402   0.926   2.302   5.733 -0.3817 -0.0067  0.0114
12451SOL    HW138403   0.960   2.390   5.720  0.4563 -0.6171 -2.5622
12451SOL    HW238404   0.970   2.270   5.812 -0.5093  1.7338  0.8364
12452SOL     OW38405   7.728   5.666   2.374 -0.4208 -0.0901  0.0868
12452SOL    HW138406   7.772   5.585   2.398 -1.6663 -1.0507 -0.7425
12452SOL    HW238407   7.780   5.735   2.416  2.1606 -1.0902 -1.2485
12453SOL     OW38408   0.959   2.787   7.603  0.6471 -0.0303 -0.3009
12453SOL    HW138409   1.037   2.745   7.640  1.3701  1.4121 -0.0897
12453SOL    HW238410   0.981   2.880   7.603 -1.2509  0.4600  0.1499
12454SOL     OW38411   6.270   7.287   5.027 -0.2161 -0.0752 -0.0396
12454SOL    HW138412   6.219   7.216   5.064  0.8518 -0.8863 -0.0814
12454SOL    HW238413   6.344   7.244   4.983  0.1967  1.0259 -0.4798
12455SOL     OW38414   4.979   1.533   7.770 -1.1839  0.0766 -0.3530
12455SOL    HW138415   4.981   1.627   7.751 -0.6960 -0.0035 -0.6803
12455SOL    HW238416   5.070   1.505   7.768 -0.6398  0.5486  4.4847
12456SOL     OW38417   2.180   5.655   3.681 -0.4875  0.4058  0.0771
12456SOL    HW138418   2.184   5.699   3.765  1.4970  1.6544 -0.5849
12456SOL    HW238419   2.123   5.710   3.627  0.8121  1.4365 -0.3057
12457SOL     OW38420   8.254   3.089   8.154  0.1607 -0.1335 -0.1059
12457SOL    HW138421   8.324   3.150   8.179 -0.2041  0.2355  0.0409
12457SOL    HW238422   8.270   3.012   8.208  0.0420  0.2222  0.4495
12458SOL     OW38423   2.446   3.385   1.931 -0.2238 -0.2008 -0.0807
12458SOL    HW138424   2.380   3.392   2.000 -0.7377  0.8827 -0.6677
12458SOL    HW238425   2.485   3.472   1.926 -0.2414 -0.2483 -1.2035
12459SOL     OW38426   4.320   4.851   5.024 -0.8078 -0.2273  0.4596
12459SOL    HW138427   4.267   4.774   5.004  1.2666 -2.0996  1.7670
12459SOL    HW238428   4.410   4.819   5.024  0.5716  2.9691 -2.4650
12460SOL     OW38429   3.247   7.859   2.036  0.0983 -0.1233 -0.3470
12460SOL    HW138430   3.282   7.947   2.025 -1.5924  0.4558 -1.4390
12460SOL    HW238431   3.172   7.870   2.094 -0.0230 -0.8715 -0.3536
12461SOL     OW38432   2.885   2.064   0.688  0.6046  0.5691 -0.3729
12461SOL    HW138433   2.930   2.083   0.770  1.3696 -1.5052 -0.2605
12461SOL    HW238434   2.955   2.056   0.623  0.2361 -0.3686 -0.6774
12462SOL     OW38435   4.419   0.220   1.421  0.1342 -0.0349 -0.3097
12462SOL    HW138436   4.484   0.230   1.490 -1.4003 -0.3232  1.2811
12462SOL    HW238437   4.335   0.232   1.466 -0.9015  1.0638 -2.4014
12463SOL     OW38438   7.514   4.908   2.982 -0.0359 -0.7571  0.2739
12463SOL    HW138439   7.608   4.903   2.964  0.1885 -0.5070  1.3221
12463SOL    HW238440   7.492   5.000   2.973 -0.1880 -0.8172  0.0165
12464SOL     OW38441   4.074   8.257   4.938  0.2435  0.2353  0.4353
12464SOL    HW138442   4.105   8.283   4.851  0.5016 -0.0365  0.4439
12464SOL    HW238443   4.152   8.263   4.993  0.1833 -0.0358  0.5492
12465SOL     OW38444   4.483   3.469   6.110 -0.5077 -0.1699 -0.2018
12465SOL    HW138445   4.483   3.405   6.039  0.3602 -0.4576  0.0469
12465SOL    HW238446   4.576   3.492   6.122 -0.6951  0.2568  0.4952
12466SOL     OW38447   3.604   0.691   1.043 -0.0974  0.7701 -0.1006
12466SOL    HW138448   3.615   0.708   1.137 -0.1869  2.4185 -0.3513
12466SOL    HW238449   3.519   0.731   1.022  0.2708  1.0906 -1.0264
12467SOL     OW38450   0.526   5.211   4.493  0.5416  0.4655 -0.5422
12467SOL    HW138451   0.461   5.234   4.559  0.5670  0.9441 -0.6756
12467SOL    HW238452   0.474   5.185   4.416  0.4898  1.4738 -0.8648
12468SOL     OW38453   7.123   0.604   1.476 -0.0726 -0.2805 -0.4794
12468SOL    HW138454   7.164   0.535   1.425  0.0048 -0.8093  0.2786
12468SOL    HW238455   7.196   0.656   1.510 -0.1287  0.1517 -1.0167
12469SOL     OW38456   4.280   1.062   4.015  0.2123 -0.0503  0.0902
12469SOL    HW138457   4.302   0.973   3.988 -1.1890 -0.4481  0.1890
12469SOL    HW238458   4.223   1.095   3.945  0.8459  0.8311 -0.0252
12470SOL     OW38459   3.260   0.866   7.392  0.5899 -0.3211  0.5854
12470SOL    HW138460   3.292   0.814   7.318  0.2805 -0.0007  0.2249
12470SOL    HW238461   3.167   0.879   7.374  0.2509 -1.2042  1.6086
12471SOL     OW38462   3.300   1.920   7.048  0.4473 -0.2484  0.4369
12471SOL    HW138463   3.390   1.889   7.053  0.2942 -0.6592  0.7506
12471SOL    HW238464   3.258   1.883   7.126 -0.0457 -0.2421  0.1814
12472SOL     OW38465   1.007   0.862   7.704 -0.0272  0.0037  0.0956
12472SOL    HW138466   0.990   0.947   7.743 -1.4750  0.7223 -1.9022
12472SOL    HW238467   0.955   0.862   7.623 -2.8863 -4.0467  1.6020
12473SOL     OW38468   6.239   3.504   7.533  0.0992 -0.1700 -0.2854
12473SOL    HW138469   6.299   3.489   7.460  0.0856  0.0279 -0.3386
12473SOL    HW238470   6.296   3.508   7.611  0.1683  0.1175 -0.3480
12474SOL     OW38471   7.070   6.015   6.533 -0.2236  0.1520  0.3299
12474SOL    HW138472   7.025   5.935   6.558  0.0881 -0.2010 -0.2157
12474SOL    HW238473   7.022   6.047   6.456  0.4322 -0.2178 -0.2448
12475SOL     OW38474   2.114   5.354   3.774  0.2653  0.0900  0.0447
12475SOL    HW138475   2.158   5.305   3.844 -0.3622 -0.0969  0.3156
12475SOL    HW238476   2.148   5.444   3.783  0.5035 -0.0237  0.3192
12476SOL     OW38477   6.651   2.917   4.324 -0.2227 -0.1133  0.0905
12476SOL    HW138478   6.745   2.898   4.330 -0.5404 -1.6792  0.8117
12476SOL    HW238479   6.646   2.998   4.274  1.4965 -0.1513 -0.2191
12477SOL     OW38480   5.414   1.217   6.503  0.1326  0.8837 -0.1158
12477SOL    HW138481   5.462   1.300   6.509  0.0230  0.9701 -0.4423
12477SOL    HW238482   5.368   1.221   6.419 -1.3106  1.2621  0.6533
12478SOL     OW38483   3.190   7.534   7.804  0.1417  0.1656 -0.3140
12478SOL    HW138484   3.216   7.445   7.824 -0.9011 -0.1169 -0.1763
12478SOL    HW238485   3.104   7.526   7.762  0.4318  1.0388 -1.1248
12479SOL     OW38486   8.033   8.103   1.673  0.3193 -0.3018 -0.3022
12479SOL    HW138487   8.073   8.051   1.743 -0.0771 -0.0330  0.1310
12479SOL    HW238488   8.078   8.187   1.677 -1.7463  0.8122  1.6703
12480SOL     OW38489   4.877   0.096   0.637  0.0109 -0.6480  0.6996
12480SOL    HW138490   4.921   0.180   0.627 -0.7290 -0.3480 -0.1974
12480SOL    HW238491   4.932   0.047   0.698  1.0558  0.0549  0.3458
12481SOL     OW38492   6.610   1.839   0.349  0.0097  0.7605 -0.5544
12481SOL    HW138493   6.568   1.884   0.276  0.1316  0.3350 -0.8936
12481SOL    HW238494   6.695   1.812   0.315 -0.5389 -0.8196 -0.7915
12482SOL     OW38495   0.051   2.758   6.153  0.0161  0.2301  0.3400
12482SOL    HW138496  -0.044   2.758   6.168 -0.1722  3.1087 -0.2850
12482SOL    HW238497   0.089   2.749   6.240 -0.8066 -0.5920  0.6369
12483SOL     OW38498   3.932   5.061   3.852  0.5077  0.3127  0.0552
12483SOL    HW138499   3.865   5.041   3.786  0.8164  0.2189 -0.2296
12483SOL    HW238500   3.882   5.091   3.928 -0.0081 -1.8614  0.6464
12484SOL     OW38501   2.900   0.111   7.176  0.2318 -0.3479 -0.0377
12484SOL    HW138502   2.850   0.080   7.252 -0.0067  1.1694  0.4535
12484SOL    HW238503   2.850   0.186   7.144  1.2987  0.1420 -0.5879
12485SOL     OW38504   1.603   5.034   7.351 -0.5995  0.0064  0.0786
12485SOL    HW138505   1.605   5.110   7.410 -0.8802  2.1270 -2.4579
12485SOL    HW238506   1.510   5.022   7.332 -0.4815 -0.3793 -0.2584
12486SOL     OW38507   1.158   0.169   0.540 -0.3122  0.0875 -0.3087
12486SOL    HW138508   1.160   0.246   0.596  1.2626 -1.4549  1.9393
12486SOL    HW238509   1.088   0.115   0.577  0.7083 -0.9283  0.2046
12487SOL     OW38510   1.412   7.732   0.598 -0.0871 -0.0154  0.3753
12487SOL    HW138511   1.366   7.770   0.523 -1.5139 -0.0771  1.1849
12487SOL    HW238512   1.435   7.644   0.570 -1.5317 -0.4064  0.3441
12488SOL     OW38513   8.125   6.579   7.832  0.1275  0.2475  0.0811
12488SOL    HW138514   8.145   6.548   7.744 -1.6642 -0.5703 -0.0731
12488SOL    HW238515   8.168   6.664   7.837  1.8247 -0.4957 -0.8950
12489SOL     OW38516   7.962   4.064   1.205 -0.0608  0.1221 -0.4816
12489SOL    HW138517   8.048   4.099   1.184 -0.7124  1.7459 -0.5403
12489SOL    HW238518   7.908   4.085   1.128 -0.6594 -0.3912 -0.2153
12490SOL     OW38519   4.941   4.429   2.120 -0.0442 -0.6483  0.4620
12490SOL    HW138520   4.860   4.393   2.157  0.6401 -1.2755  1.3964
12490SOL    HW238521   4.962   4.502   2.178  1.4741 -2.1325  1.9120
12491SOL     OW38522   6.612   4.218   4.470  0.9730 -0.3435  0.4697
12491SOL    HW138523   6.645   4.168   4.395  0.1185 -1.1227  0.5980
12491SOL    HW238524   6.567   4.292   4.431  4.6286  2.0598  0.2803
12492SOL     OW38525   6.598   4.982   7.724 -0.3497 -0.2562  0.0252
12492SOL    HW138526   6.545   4.925   7.779  2.1173 -1.6356  1.1296
12492SOL    HW238527   6.593   4.944   7.636 -1.9096  0.2163 -0.1126
12493SOL     OW38528   7.067   0.192   4.163  0.4963  0.1976 -0.0874
12493SOL    HW138529   7.124   0.267   4.172  0.7015 -0.0603  0.9837
12493SOL    HW238530   7.020   0.206   4.081  0.3757  1.5921  0.1970
12494SOL     OW38531   3.610   5.351   3.621 -0.2072 -0.4192 -0.2063
12494SOL    HW138532   3.603   5.442   3.650 -2.1226 -0.5326 -0.2040
12494SOL    HW238533   3.520   5.324   3.604  0.3007 -2.3813 -0.0419
12495SOL     OW38534   6.916   4.424   6.307  0.1904 -0.1818 -0.0327
12495SOL    HW138535   6.870   4.485   6.249 -0.9619  0.4097  1.4425
12495SOL    HW238536   6.847   4.369   6.343  0.9214 -0.7030  0.6065
12496SOL     OW38537   4.314   7.956   0.373 -0.2285 -0.0896  0.0986
12496SOL    HW138538   4.388   7.967   0.313 -0.9214 -0.2471 -0.8059
12496SOL    HW238539   4.240   7.934   0.317 -1.6659  2.8565  0.6133
12497SOL     OW38540   1.944   2.486   1.720 -0.1836 -0.4945  0.6072
12497SOL    HW138541   1.909   2.514   1.635 -0.9707 -0.3536  0.9735
12497SOL    HW238542   1.874   2.434   1.759  0.4434 -1.1634  0.8710
12498SOL     OW38543   6.099   0.731   6.773 -0.2273 -0.4162 -0.2879
12498SOL    HW138544   6.188   0.726   6.807 -0.1492 -0.9851 -0.5587
12498SOL    HW238545   6.080   0.825   6.768  0.1697 -0.3047  0.2469
12499SOL     OW38546   7.372   4.699   0.819 -0.3910  0.1049 -0.1109
12499SOL    HW138547   7.461   4.729   0.801  0.7200 -3.2305 -0.9636
12499SOL    HW238548   7.356   4.723   0.910  1.3811  0.7940  0.0537
12500SOL     OW38549   4.971   5.751   6.094  0.7855  0.1607 -0.3232
12500SOL    HW138550   4.895   5.788   6.049  2.1308  0.8731 -2.1468
12500SOL    HW238551   4.939   5.669   6.131 -0.9905  0.6818 -0.5903
12501SOL     OW38552   4.107   6.847   4.273 -0.1614  0.2723 -0.6042
12501SOL    HW138553   4.152   6.895   4.343  1.8284  0.0138 -1.6200
12501SOL    HW238554   4.069   6.915   4.218  0.5367  0.6070 -0.6871
12502SOL     OW38555   0.001   0.842   2.179 -0.0413 -0.3262  0.0425
12502SOL    HW138556  -0.055   0.907   2.222  0.4375  0.8958 -1.1066
12502SOL    HW238557  -0.036   0.757   2.206 -0.8178  0.4054  1.4065
12503SOL     OW38558   6.121   1.007   0.673 -0.0402 -0.2658 -0.0753
12503SOL    HW138559   6.148   0.960   0.751  1.0924  0.2468 -0.1459
12503SOL    HW238560   6.060   0.948   0.629  1.6708 -1.8631 -0.3953
12504SOL     OW38561   8.157   1.973   3.046 -0.2468 -0.0167 -0.1714
12504SOL    HW138562   8.214   2.011   2.980 -0.2265 -0.5440 -0.4674
12504SOL    HW238563   8.169   1.878   3.037  0.2807 -0.0896  1.0461
12505SOL     OW38564   7.988   3.431   2.076  0.2995  0.5267 -1.2382
12505SOL    HW138565   7.969   3.373   2.150 -1.1299  0.1145 -1.8984
12505SOL    HW238566   8.052   3.494   2.110  1.1302 -0.8227 -0.2223
12506SOL     OW38567   0.872   7.425   4.272 -0.1979 -0.3061  0.3709
12506SOL    HW138568   0.796   7.400   4.219  0.5846 -0.7215 -0.5731
12506SOL    HW238569   0.890   7.516   4.247 -0.5787 -0.0947  0.8444
12507SOL     OW38570   6.440   5.308   5.230 -0.2376  0.5910  0.2171
12507SOL    HW138571   6.347   5.314   5.250 -0.4354 -0.4119 -0.3256
12507SOL    HW238572   6.462   5.393   5.191 -1.3800  0.1957 -1.3955
12508SOL     OW38573   2.157   3.316   3.242  0.6345 -0.9133  0.0724
12508SOL    HW138574   2.138   3.370   3.165  1.2332  0.2464  0.7145
12508SOL    HW238575   2.162   3.378   3.314  1.7557 -1.7738  0.7723
12509SOL     OW38576   2.880   1.239   2.063  0.0940  0.2243  0.1563
12509SOL    HW138577   2.938   1.312   2.039  0.9542 -0.3197  0.5646
12509SOL    HW238578   2.798   1.259   2.018 -0.5446  2.7512  2.1976
12510SOL     OW38579   3.656   5.620   1.443  0.4039  0.1762 -0.4957
12510SOL    HW138580   3.644   5.668   1.361  2.1214 -0.6886 -1.3017
12510SOL    HW238581   3.684   5.687   1.505  1.1021  0.5156 -1.1618
12511SOL     OW38582   1.355   2.364   4.483 -0.5990  0.3221  0.4224
12511SOL    HW138583   1.440   2.327   4.506 -0.8428 -0.7898 -0.3651
12511SOL    HW238584   1.371   2.409   4.400 -0.4636  1.3960  1.0187
12512SOL     OW38585   2.237   6.661   7.524  0.0221  0.7991  0.6589
12512SOL    HW138586   2.224   6.586   7.581 -0.6919  1.4367  1.3507
12512SOL    HW238587   2.149   6.684   7.494  0.2981  1.0034 -0.0283
12513SOL     OW38588   6.083   5.477   2.476 -0.1332 -0.2018  0.2622
12513SOL    HW138589   6.136   5.481   2.556  1.4829 -1.2148 -0.7079
12513SOL    HW238590   6.142   5.505   2.406 -0.2191 -3.1449 -1.1292
12514SOL     OW38591   3.754   7.162   4.276  0.7551 -0.2532 -0.1982
12514SOL    HW138592   3.818   7.094   4.298 -0.7380 -1.7858 -0.3699
12514SOL    HW238593   3.807   7.237   4.249  2.5022 -0.7092  1.7422
12515SOL     OW38594   0.942   6.832   2.421  0.5032  0.1435 -0.3995
12515SOL    HW138595   1.024   6.821   2.373  0.2521  0.9193 -1.0348
12515SOL    HW238596   0.968   6.866   2.506  0.8408  0.4154 -0.6077
12516SOL     OW38597   1.149   3.369   5.704 -0.0569 -0.1886 -0.1691
12516SOL    HW138598   1.098   3.384   5.625  0.5912  2.5676 -0.1532
12516SOL    HW238599   1.231   3.330   5.673 -0.1632  0.0534 -0.7567
12517SOL     OW38600   7.993   6.669   2.441  0.4399 -0.1044 -0.1225
12517SOL    HW138601   8.079   6.650   2.478 -0.1285  0.2105  1.4256
12517SOL    HW238602   7.948   6.720   2.508 -1.4501 -1.4185 -0.2998
12518SOL     OW38603   3.912   7.655   5.855  0.7511 -0.5371  0.1888
12518SOL    HW138604   3.835   7.600   5.843 -1.8156  2.9663 -1.0791
12518SOL    HW238605   3.919   7.666   5.950 -2.0207  1.0756  0.3056
12519SOL     OW38606   7.369   3.421   0.734 -0.3327 -0.3171 -0.0436
12519SOL    HW138607   7.451   3.374   0.717 -0.3299 -0.0458 -0.8169
12519SOL    HW238608   7.378   3.503   0.684 -1.1927 -0.4123 -0.3623
12520SOL     OW38609   6.048   4.740   5.254 -0.1884 -0.6582 -0.1959
12520SOL    HW138610   6.135   4.779   5.258 -0.2935 -0.1732 -1.9116
12520SOL    HW238611   6.009   4.760   5.339  1.4655 -1.1523  0.7158
12521SOL     OW38612   5.668   6.029   2.299  0.4120  0.1221 -0.4290
12521SOL    HW138613   5.603   6.073   2.244  0.3158 -0.2604 -0.6278
12521SOL    HW238614   5.620   6.006   2.378  0.3347 -0.0449 -0.5222
12522SOL     OW38615   5.864   3.917   6.480 -0.1168  0.2070  0.2886
12522SOL    HW138616   5.897   3.883   6.563  1.1573  0.5066 -0.0839
12522SOL    HW238617   5.837   3.839   6.432 -1.7270  0.0820  1.3071
12523SOL     OW38618   2.184   4.794   5.281 -0.6599 -0.3809  0.1096
12523SOL    HW138619   2.142   4.711   5.304 -0.4238 -0.9145 -1.3008
12523SOL    HW238620   2.153   4.813   5.193  0.5748  0.1810 -0.2264
12524SOL     OW38621   5.540   2.585   7.668  0.5896 -0.1348 -0.2912
12524SOL    HW138622   5.557   2.493   7.650 -0.4538 -0.8162  1.8662
12524SOL    HW238623   5.627   2.625   7.671  1.3096 -1.7067  1.7304
12525SOL     OW38624   4.151   0.816   3.179  0.3086  0.1458  0.0500
12525SOL    HW138625   4.199   0.851   3.254 -1.0541 -1.1989  1.6253
12525SOL    HW238626   4.085   0.882   3.159  0.8242  0.6130 -0.1332
12526SOL     OW38627   0.729   2.700   2.096  0.5982  0.2415  0.0888
12526SOL    HW138628   0.688   2.644   2.031  1.6016 -0.3797 -0.0333
12526SOL    HW238629   0.721   2.651   2.178  1.3114  0.0003  0.0174
12527SOL     OW38630   3.530   0.715   7.784  0.0818 -0.5452 -0.2137
12527SOL    HW138631   3.595   0.717   7.854 -2.2142  0.0419  2.0301
12527SOL    HW238632   3.538   0.800   7.740  1.4205 -0.8541 -0.6011
12528SOL     OW38633   2.334   1.474   5.166 -0.3146  0.4087  0.1149
12528SOL    HW138634   2.246   1.506   5.145 -0.1414  0.0866 -1.1913
12528SOL    HW238635   2.386   1.497   5.089  0.8537  0.9752  1.0472
12529SOL     OW38636   5.124   3.857   6.495 -0.1300  0.4800  0.5004
12529SOL    HW138637   5.108   3.891   6.407  0.7754  3.1131  1.2417
12529SOL    HW238638   5.165   3.772   6.481  0.5827  1.1092 -1.6530
12530SOL     OW38639   6.375   4.262   4.002 -0.1794  0.2588 -0.2753
12530SOL    HW138640   6.395   4.350   4.034  0.8647 -0.2306  0.4977
12530SOL    HW238641   6.334   4.276   3.917  0.1111  1.4881 -0.2364
12531SOL     OW38642   0.353   1.811   0.941  0.4960  0.1486  0.7237
12531SOL    HW138643   0.334   1.830   1.033  0.3924 -0.1603  0.7665
12531SOL    HW238644   0.427   1.750   0.944 -1.8173 -2.8865  0.7622
12532SOL     OW38645   3.736   6.509   5.625 -0.3809  0.3364 -0.7196
12532SOL    HW138646   3.739   6.582   5.687  1.2089  0.3778 -0.7921
12532SOL    HW238647   3.782   6.541   5.548  0.9927 -0.9479 -0.4782
12533SOL     OW38648   3.085   7.280   6.131  0.5913 -0.7180  0.1724
12533SOL    HW138649   3.038   7.329   6.063  2.7821 -0.3023 -1.1688
12533SOL    HW238650   3.107   7.345   6.197 -0.7642 -0.9420  0.8749
12534SOL     OW38651   7.199   0.828   0.551 -0.3053  0.5011 -0.4491
12534SOL    HW138652   7.282   0.874   0.541 -0.8780  1.5722 -0.4222
12534SOL    HW238653   7.184   0.786   0.466  0.6416 -0.3627 -0.1985
12535SOL     OW38654   4.248   2.172   3.851  0.3565 -0.6731  0.2007
12535SOL    HW138655   4.180   2.240   3.850  2.2159  1.2739 -0.8428
12535SOL    HW238656   4.277   2.169   3.942 -1.0820 -1.5215  0.6555
12536SOL     OW38657   1.850   0.794   6.067  0.0634  0.2260 -0.2331
12536SOL    HW138658   1.924   0.854   6.062 -0.1276  0.5087  0.2970
12536SOL    HW238659   1.889   0.711   6.095  0.1179  0.5132  0.5846
12537SOL     OW38660   1.991   6.292   3.139  0.1519  0.3938  0.3623
12537SOL    HW138661   1.982   6.212   3.088  0.2577  1.2989 -1.1442
12537SOL    HW238662   1.929   6.282   3.211 -1.1821 -0.2702 -0.8179
12538SOL     OW38663   5.980   7.499   4.016 -0.1540 -0.6517  0.4266
12538SOL    HW138664   6.021   7.511   4.101 -0.3165  2.2631  0.1987
12538SOL    HW238665   5.886   7.500   4.034 -0.1858 -0.7819  0.2745
12539SOL     OW38666   4.989   7.344   3.923  0.7630  0.5107  1.0268
12539SOL    HW138667   4.952   7.286   3.856  2.0900 -1.5428  1.9590
12539SOL    HW238668   4.913   7.383   3.966 -0.1445  0.4531 -0.4539
12540SOL     OW38669   0.156   7.246   7.374  0.1379  0.3928  0.5655
12540SOL    HW138670   0.111   7.259   7.291  0.4274 -0.0010  0.3414
12540SOL    HW238671   0.123   7.162   7.406 -0.7091  0.9966  1.3364
12541SOL     OW38672   4.253   1.395   3.476 -0.5575 -0.2284  0.2263
12541SOL    HW138673   4.281   1.313   3.435  2.7719 -0.3973  2.4267
12541SOL    HW238674   4.286   1.389   3.565 -1.2340  3.0335  0.8132
12542SOL     OW38675   4.520   6.442   0.637 -0.1279 -0.2024  0.2195
12542SOL    HW138676   4.512   6.450   0.542 -0.1859 -0.7639  0.1773
12542SOL    HW238677   4.594   6.498   0.660 -0.8665  0.9077 -0.0075
12543SOL     OW38678   4.477   6.076   5.814  0.6562  0.2229  0.0331
12543SOL    HW138679   4.512   6.011   5.754 -0.6899  1.3331 -2.0515
12543SOL    HW238680   4.417   6.027   5.870 -0.0469 -0.4196 -1.2448
12544SOL     OW38681   1.161   7.338   0.903 -0.3196 -0.3344  0.2218
12544SOL    HW138682   1.213   7.266   0.939 -2.4403 -2.4907 -0.6982
12544SOL    HW238683   1.080   7.337   0.954 -1.4329 -0.3298 -1.4626
12545SOL     OW38684   4.774   1.415   5.836 -0.5950  0.1295 -0.0667
12545SOL    HW138685   4.851   1.434   5.891 -1.0527  1.2811  0.2083
12545SOL    HW238686   4.701   1.455   5.883 -1.1631  0.1930 -0.9778
12546SOL     OW38687   1.015   7.377   6.334 -0.5366 -0.0596 -0.6359
12546SOL    HW138688   1.001   7.284   6.349  1.9844 -1.1578 -3.8402
12546SOL    HW238689   0.933   7.408   6.296 -1.0784 -1.2528 -0.4827
12547SOL     OW38690   1.249   4.342   7.399 -0.6540  0.0234  0.7193
12547SOL    HW138691   1.263   4.334   7.493 -1.1812  0.9359  0.8938
12547SOL    HW238692   1.187   4.272   7.377 -2.3867  1.2198  1.5059
12548SOL     OW38693   5.077   2.965   4.744 -0.3735  0.0130 -0.6502
12548SOL    HW138694   5.040   3.002   4.664  1.6657  1.9624 -0.7663
12548SOL    HW238695   5.159   2.924   4.717 -0.0878 -0.0873  0.3041
12549SOL     OW38696   4.904   5.123   6.620 -0.0916 -0.5666  0.1093
12549SOL    HW138697   4.926   5.167   6.538  2.0895 -0.0648  0.8848
12549SOL    HW238698   4.964   5.048   6.623 -0.5145 -0.8837  0.9962
12550SOL     OW38699   2.816   0.430   7.862  0.6848  0.5974  0.1728
12550SOL    HW138700   2.895   0.386   7.892  1.2208  1.9554  0.8438
12550SOL    HW238701   2.813   0.511   7.913 -0.0021  1.5688 -1.3390
12551SOL     OW38702   5.233   7.159   4.080 -0.6687 -0.3181  0.2607
12551SOL    HW138703   5.164   7.201   4.028  1.2444  2.3219 -0.3829
12551SOL    HW238704   5.298   7.131   4.015 -0.2555 -1.0132  0.9616
12552SOL     OW38705   2.915   6.927   4.717 -0.4709 -0.0105  0.1265
12552SOL    HW138706   2.955   6.849   4.755  0.5439  0.9499  1.1101
12552SOL    HW238707   2.936   6.997   4.779 -0.6471  1.1991 -1.1462
12553SOL     OW38708   0.215   4.839   5.469  0.2629 -0.0555 -0.3834
12553SOL    HW138709   0.233   4.856   5.377  3.4779  1.3642  0.3636
12553SOL    HW238710   0.175   4.920   5.501  2.6072  0.9556  0.1781
12554SOL     OW38711   3.303   1.117   1.220 -0.7961 -0.8476  1.0872
12554SOL    HW138712   3.286   1.210   1.209  0.0916 -0.6726  1.1177
12554SOL    HW238713   3.249   1.074   1.152  0.7435 -0.1312 -0.6846
12555SOL     OW38714   7.335   2.471   4.414  0.4106  0.3068  0.0624
12555SOL    HW138715   7.418   2.510   4.444 -0.6800  1.6811  1.4689
12555SOL    HW238716   7.298   2.432   4.493 -0.0216 -0.8243 -0.6827
12556SOL     OW38717   5.805   6.170   6.375 -0.3548  0.4456  0.5459
12556SOL    HW138718   5.778   6.163   6.466 -0.3741 -1.3928  0.4258
12556SOL    HW238719   5.899   6.156   6.376 -0.0234  2.3807  0.4628
12557SOL     OW38720   0.803   0.449   3.489  0.0812  0.2538 -0.0674
12557SOL    HW138721   0.735   0.429   3.424  0.8427 -0.8364 -0.5549
12557SOL    HW238722   0.803   0.545   3.494 -1.0278  0.2951 -0.5486
12558SOL     OW38723   0.823   8.248   4.931  0.5052  0.7617 -0.0536
12558SOL    HW138724   0.743   8.250   4.984  1.5111 -1.9866  1.8048
12558SOL    HW238725   0.880   8.313   4.972  1.2630 -1.3015  2.4716
12559SOL     OW38726   7.916   3.883   0.227 -0.3158  0.0597 -0.7511
12559SOL    HW138727   7.847   3.829   0.188 -1.1623  0.8781 -0.4212
12559SOL    HW238728   7.961   3.923   0.152  0.0445 -0.7492 -0.9794
12560SOL     OW38729   0.208   7.031   2.383 -0.6487 -0.2620  0.9871
12560SOL    HW138730   0.144   7.089   2.342 -0.2993  0.6968  1.7588
12560SOL    HW238731   0.286   7.085   2.393  0.4450 -1.5157 -0.2783
12561SOL     OW38732   1.395   5.281   2.708 -0.1788  0.2073 -0.1163
12561SOL    HW138733   1.384   5.226   2.631 -0.4243 -2.2137  1.5348
12561SOL    HW238734   1.489   5.279   2.726 -0.3559 -1.0707  0.8364
12562SOL     OW38735   4.301   4.401   3.976  0.2546  0.6468  0.2212
12562SOL    HW138736   4.292   4.494   3.953 -1.2584  0.6039  0.5327
12562SOL    HW238737   4.368   4.399   4.043  0.0124  1.5738  0.4997
12563SOL     OW38738   6.128   3.740   3.357  0.1497 -0.0584 -0.0405
12563SOL    HW138739   6.122   3.645   3.366  0.1841 -0.1119 -0.5117
12563SOL    HW238740   6.202   3.765   3.412  2.2667 -0.7222 -2.3644
12564SOL     OW38741   2.334   5.555   2.278 -0.2051 -0.2805  0.1374
12564SOL    HW138742   2.277   5.572   2.203  0.9739 -2.2111 -1.3073
12564SOL    HW238743   2.421   5.582   2.247 -0.0934  1.7828  1.9729
12565SOL     OW38744   1.652   6.106   4.355 -0.7100  0.3291 -0.1841
12565SOL    HW138745   1.596   6.180   4.375 -0.0467  0.5273  1.0302
12565SOL    HW238746   1.690   6.081   4.439 -1.3206 -1.7369 -0.4688
12566SOL     OW38747   0.529   1.710   3.624  0.3290 -0.2889 -0.5678
12566SOL    HW138748   0.560   1.678   3.709 -1.2655 -0.0989  0.1230
12566SOL    HW238749   0.569   1.797   3.616 -0.5154  0.2559  0.6443
12567SOL     OW38750   4.117   3.445   0.546  0.0768 -0.2644  0.3847
12567SOL    HW138751   4.147   3.354   0.554  0.8861  0.0497  1.1105
12567SOL    HW238752   4.197   3.496   0.543 -0.3792  0.4431  0.1035
12568SOL     OW38753   7.310   2.594   6.922 -0.4044  0.1446 -0.3251
12568SOL    HW138754   7.274   2.506   6.919  1.0883 -0.4701 -1.9106
12568SOL    HW238755   7.323   2.618   6.830  2.0775  0.7542  0.1116
12569SOL     OW38756   3.392   0.926   0.045  0.8121 -0.6913 -0.6327
12569SOL    HW138757   3.402   0.894  -0.045  2.0379 -2.8620  0.2069
12569SOL    HW238758   3.472   0.899   0.090 -0.7577 -1.7772  1.7037
12570SOL     OW38759   0.981   3.206   4.946  0.4505  0.4101  0.3773
12570SOL    HW138760   1.008   3.160   5.025  2.7650  0.7945 -0.1124
12570SOL    HW238761   0.938   3.286   4.978 -2.4546 -1.3425  1.2013
12571SOL     OW38762   7.881   1.789   2.595  0.3477  0.3119 -0.4981
12571SOL    HW138763   7.970   1.771   2.566  0.0322 -0.9385 -0.7882
12571SOL    HW238764   7.874   1.745   2.680 -0.1909 -0.2397 -0.8120
12572SOL     OW38765   0.987   5.222   8.183 -0.7329  0.0015  0.6245
12572SOL    HW138766   1.043   5.255   8.112  0.4567  0.4433  1.7239
12572SOL    HW238767   1.035   5.147   8.217 -0.5343  0.6757  1.9020
12573SOL     OW38768   7.411   0.228   2.672  0.4557  0.2587  0.1285
12573SOL    HW138769   7.353   0.301   2.693  1.8246  0.9851  1.6031
12573SOL    HW238770   7.457   0.257   2.593  1.6064  1.4461  1.1700
12574SOL     OW38771   7.927   3.249   2.265  0.0082  0.1274  0.3702
12574SOL    HW138772   7.953   3.161   2.239 -0.2659  0.3094 -0.5480
12574SOL    HW238773   7.843   3.238   2.310  0.1900 -0.1209  0.6554
12575SOL     OW38774   4.335   5.522   1.966 -0.1171 -0.0381  0.4020
12575SOL    HW138775   4.289   5.543   1.885 -0.3825 -2.3645 -0.1055
12575SOL    HW238776   4.424   5.502   1.938  0.0027 -0.0788  0.8072
12576SOL     OW38777   4.925   2.409   4.493  0.4053  0.3216  0.5059
12576SOL    HW138778   5.009   2.398   4.538 -0.2632  0.5265  1.8500
12576SOL    HW238779   4.869   2.339   4.528 -0.3957  1.0259  0.6757
12577SOL     OW38780   1.054   3.077   5.189 -0.0389 -0.0553  0.4808
12577SOL    HW138781   1.012   3.136   5.250 -1.5017 -0.3747 -0.1602
12577SOL    HW238782   1.059   2.993   5.235  0.2846  0.0820  0.7002
12578SOL     OW38783   5.791   3.097   1.379 -0.0455 -0.2953  0.2598
12578SOL    HW138784   5.821   3.102   1.289 -0.8669  3.7041  0.0581
12578SOL    HW238785   5.870   3.109   1.432  0.1438 -0.6478  0.0653
12579SOL     OW38786   7.484   2.460   6.016 -0.3381 -0.5839 -0.0502
12579SOL    HW138787   7.470   2.446   5.922  0.0866 -0.2760 -0.1611
12579SOL    HW238788   7.414   2.519   6.043 -0.8074 -1.1277 -0.0479
12580SOL     OW38789   2.796   5.639   6.362 -0.3960  0.0433 -0.3327
12580SOL    HW138790   2.778   5.703   6.293 -3.6974  1.0676  1.2724
12580SOL    HW238791   2.752   5.559   6.332 -1.5492  0.3923  0.3756
12581SOL     OW38792   2.610   4.130   0.483 -0.0211 -0.0287 -0.1172
12581SOL    HW138793   2.637   4.222   0.486 -0.6405  0.2734 -2.4737
12581SOL    HW238794   2.520   4.131   0.452 -0.0696 -1.4452 -0.1109
12582SOL     OW38795   3.124   7.185   6.915 -0.1013 -0.3792  0.1493
12582SOL    HW138796   3.172   7.104   6.933  0.6623 -0.1533 -0.7615
12582SOL    HW238797   3.060   7.192   6.986 -1.8565 -3.0245 -1.0284
12583SOL     OW38798   1.995   6.688   5.642  0.2306 -0.3979 -0.1748
12583SOL    HW138799   1.942   6.722   5.714 -0.4250 -2.7832  0.5827
12583SOL    HW238800   2.077   6.661   5.684  1.8678  2.5437 -1.2085
12584SOL     OW38801   6.307   6.114   0.721 -0.1255  0.2451 -0.1035
12584SOL    HW138802   6.235   6.138   0.779  0.9701  0.2530  1.2917
12584SOL    HW238803   6.282   6.030   0.684 -0.6879  0.0680  0.6625
12585SOL     OW38804   3.553   3.301   1.144  0.1583  0.4874 -0.1738
12585SOL    HW138805   3.604   3.379   1.164 -0.1872  0.3876  1.1957
12585SOL    HW238806   3.467   3.335   1.118 -0.1829  0.5735  1.0014
12586SOL     OW38807   4.510   1.540   8.212  0.5928 -0.8992  0.2728
12586SOL    HW138808   4.425   1.499   8.196  0.1730  0.7929 -2.5852
12586SOL    HW238809   4.489   1.631   8.232  1.6675  0.0620 -2.5089
12587SOL     OW38810   6.859   6.357   5.970 -0.2365 -0.5920 -0.2387
12587SOL    HW138811   6.924   6.292   5.995  0.5381 -0.4403 -1.7159
12587SOL    HW238812   6.888   6.388   5.884 -0.3741  1.9894  0.5739
12588SOL     OW38813   1.785   6.441   7.457  0.5834  0.2340 -0.1212
12588SOL    HW138814   1.708   6.406   7.412  0.8187  0.2701 -0.5537
12588SOL    HW238815   1.750   6.482   7.536  0.0873  0.7639 -0.6040
12589SOL     OW38816   5.540   1.266   3.746  0.1632 -0.3906 -0.1730
12589SOL    HW138817   5.613   1.320   3.718  0.3162 -1.8936 -3.0740
12589SOL    HW238818   5.462   1.315   3.720 -0.0127  1.2000  2.8971
12590SOL     OW38819   2.064   3.082   3.356 -0.3892  0.2877 -0.0014
12590SOL    HW138820   2.110   3.145   3.300 -0.7409 -1.8778 -2.9796
12590SOL    HW238821   2.126   3.062   3.425  1.4481  0.7249 -1.4253
12591SOL     OW38822   3.120   5.785   6.662 -0.1675  0.0174  0.1448
12591SOL    HW138823   3.093   5.876   6.673 -2.2415 -0.6557  1.1699
12591SOL    HW238824   3.193   5.775   6.723 -0.1985  0.8752  0.3423
12592SOL     OW38825   1.704   1.362   7.548  0.3698 -0.2743 -0.0727
12592SOL    HW138826   1.759   1.389   7.621 -0.1364  2.4153 -0.5987
12592SOL    HW238827   1.733   1.273   7.528  2.1959 -0.1646  1.7934
12593SOL     OW38828   5.407   0.121   4.379 -0.3474 -0.1412 -0.5026
12593SOL    HW138829   5.482   0.153   4.429 -0.3767 -1.0944  0.1820
12593SOL    HW238830   5.356   0.199   4.358  0.0149  0.3449  0.3948
12594SOL     OW38831   3.921   4.506   4.433  0.0533  0.8478 -0.4828
12594SOL    HW138832   3.946   4.530   4.344 -1.8881  1.2644 -0.9460
12594SOL    HW238833   3.826   4.498   4.431  0.0837 -0.5822  1.2203
12595SOL     OW38834   8.167   7.039   2.427 -0.0629  0.3505  0.6149
12595SOL    HW138835   8.227   6.968   2.449 -0.5119  0.1596  1.2638
12595SOL    HW238836   8.204   7.078   2.348  0.0110 -0.8187  0.0492
12596SOL     OW38837   4.014   3.775   2.259 -0.0191 -0.1331  0.4179
12596SOL    HW138838   4.015   3.865   2.227  1.4312  0.1529  1.1850
12596SOL    HW238839   3.933   3.739   2.225 -0.2110  1.1967 -0.6388
12597SOL     OW38840   8.122   4.595   5.028  0.4443 -0.1410  0.2744
12597SOL    HW138841   8.083   4.508   5.028  0.6934 -0.2574 -0.3862
12597SOL    HW238842   8.155   4.606   5.117 -2.8089  0.7658  1.5392
12598SOL     OW38843   6.144   1.023   4.639  0.4952 -0.5843  0.4993
12598SOL    HW138844   6.080   1.046   4.706 -0.0267 -1.4691  0.3148
12598SOL    HW238845   6.161   1.106   4.593  0.7983  0.0127  1.6477
12599SOL     OW38846   4.716   0.066   3.286 -0.3172  0.4738  0.3372
12599SOL    HW138847   4.667   0.128   3.231 -0.6682  0.5978  0.7791
12599SOL    HW238848   4.711   0.104   3.374 -0.2654 -0.0238  0.5577
12600SOL     OW38849   7.185   4.092   1.081  0.2581 -0.1058  0.1228
12600SOL    HW138850   7.168   4.167   1.139 -0.2234 -0.2579  0.1782
12600SOL    HW238851   7.222   4.025   1.139  0.4738  0.0082  0.1163
12601SOL     OW38852   7.513   1.171   0.292  0.1691  0.8575 -0.2208
12601SOL    HW138853   7.498   1.234   0.222 -0.2006 -1.8222 -2.6852
12601SOL    HW238854   7.608   1.176   0.308  0.1159  2.1452 -0.2029
12602SOL     OW38855   6.420   3.704   3.140  0.2673  0.1990 -0.3775
12602SOL    HW138856   6.343   3.649   3.148  0.9056 -0.4860  1.8202
12602SOL    HW238857   6.459   3.679   3.056 -1.3703 -0.1095 -1.0735
12603SOL     OW38858   2.211   3.750   2.625  0.2686  0.1050 -0.0641
12603SOL    HW138859   2.291   3.759   2.676  0.1640 -1.2943  0.4058
12603SOL    HW238860   2.225   3.671   2.572 -0.6831  0.0092 -0.1978
12604SOL     OW38861   7.738   0.339   6.533 -0.8406 -0.5905 -0.4341
12604SOL    HW138862   7.800   0.376   6.596  1.1666 -1.8073 -1.5919
12604SOL    HW238863   7.663   0.397   6.537  0.7591  1.5655  0.3072
12605SOL     OW38864   6.452   6.799   6.836 -0.0571  0.1418  0.0592
12605SOL    HW138865   6.362   6.806   6.867 -0.1666  0.9591 -0.3995
12605SOL    HW238866   6.469   6.705   6.833 -0.6536  0.0012  0.8240
12606SOL     OW38867   3.431   7.268   4.982 -0.5174  0.0049 -0.0563
12606SOL    HW138868   3.445   7.348   4.931 -0.1646  0.6343  1.0117
12606SOL    HW238869   3.463   7.289   5.070  2.0766 -2.1316 -0.3559
12607SOL     OW38870   1.570   0.134   6.576  0.0375 -0.0734 -0.5337
12607SOL    HW138871   1.486   0.102   6.543 -0.8299  1.0324  0.4638
12607SOL    HW238872   1.627   0.057   6.578 -0.7238 -0.6987 -1.9129
12608SOL     OW38873   7.280   3.117   5.826  0.3156 -0.4282  0.1877
12608SOL    HW138874   7.359   3.108   5.879 -0.5670 -4.5067  1.2104
12608SOL    HW238875   7.209   3.089   5.885 -1.4040 -0.2833 -1.7154
12609SOL     OW38876   1.637   2.681   2.135 -0.0301 -0.3919  0.6625
12609SOL    HW138877   1.718   2.708   2.093  0.0483  1.2741  1.8129
12609SOL    HW238878   1.613   2.754   2.191 -1.1635 -1.7406  2.0265
12610SOL     OW38879   4.123   8.026   3.611  0.1443 -0.2912  0.6013
12610SOL    HW138880   4.179   8.076   3.552 -0.4227 -1.7389 -1.2378
12610SOL    HW238881   4.082   8.092   3.667 -0.0512  1.2442 -1.2576
12611SOL     OW38882   2.965   5.668   5.459 -0.1558 -0.0150  0.4068
12611SOL    HW138883   2.874   5.674   5.433  0.0865 -0.1704 -0.4916
12611SOL    HW238884   2.962   5.636   5.549 -0.9043 -2.5394 -0.4496
12612SOL     OW38885   6.112   3.818   1.703  0.3229  0.0731 -0.3410
12612SOL    HW138886   6.077   3.905   1.723 -0.6053 -0.2016 -0.7147
12612SOL    HW238887   6.039   3.771   1.664  1.0588 -0.6013 -0.9464
12613SOL     OW38888   4.923   5.009   3.055  0.5569  0.4158 -0.9056
12613SOL    HW138889   4.829   4.997   3.066  0.4057  1.0428 -1.4063
12613SOL    HW238890   4.952   5.048   3.137  0.6610 -1.1467 -0.1569
12614SOL     OW38891   2.365   5.505   7.270 -0.3913 -0.3300 -1.0808
12614SOL    HW138892   2.333   5.482   7.357  0.0316  2.9717  0.1212
12614SOL    HW238893   2.459   5.517   7.281 -0.4172  0.7240 -1.8023
12615SOL     OW38894   0.267   6.232   6.727 -0.2683 -0.4409  0.1192
12615SOL    HW138895   0.355   6.234   6.689  0.0640 -0.8221  0.8541
12615SOL    HW238896   0.239   6.141   6.718 -1.3856  0.0265 -1.8533
12616SOL     OW38897   3.473   3.516   5.902 -0.0416 -0.2571 -0.0970
12616SOL    HW138898   3.394   3.553   5.862  0.8474  2.0689  0.1393
12616SOL    HW238899   3.521   3.593   5.934  0.7048 -1.7849  2.8036
12617SOL     OW38900   4.744   0.063   5.568  0.5828  0.4033 -0.3969
12617SOL    HW138901   4.746   0.159   5.568  1.0924  0.3946 -0.5657
12617SOL    HW238902   4.749   0.040   5.661 -0.9592  0.5515 -0.2414
12618SOL     OW38903   6.402   6.925   7.464 -0.2903  0.3343  0.0659
12618SOL    HW138904   6.423   6.856   7.527  0.8562  2.0079  1.6305
12618SOL    HW238905   6.453   7.000   7.494 -1.9834  2.0629 -1.1939
12619SOL     OW38906   2.474   6.762   4.206 -0.1966  0.4476  0.1405
12619SOL    HW138907   2.538   6.752   4.277 -0.4512  0.9592  0.4562
12619SOL    HW238908   2.448   6.673   4.184 -0.3780  0.2958  0.9445
12620SOL     OW38909   3.051   0.226   5.266  0.5420 -0.0392 -0.1323
12620SOL    HW138910   3.028   0.184   5.183 -0.4488  0.1267  0.0512
12620SOL    HW238911   3.046   0.319   5.248 -1.4156  0.0343  0.5367
12621SOL     OW38912   6.180   7.158   7.958  0.8914  0.0534  0.0142
12621SOL    HW138913   6.138   7.155   8.044 -1.9341 -1.0597 -1.2673
12621SOL    HW238914   6.235   7.080   7.955  1.8134  0.6299  1.1253
12622SOL     OW38915   4.774   7.609   6.795  0.2963  0.0379  0.5296
12622SOL    HW138916   4.707   7.559   6.749  0.4925  1.5052 -1.4550
12622SOL    HW238917   4.852   7.553   6.792  0.1981 -0.0581 -0.6377
12623SOL     OW38918   8.053   1.026   3.760  0.4019 -0.1809  0.2399
12623SOL    HW138919   7.958   1.023   3.752  0.3635 -1.1066  0.9256
12623SOL    HW238920   8.077   0.942   3.798  1.3833  0.5441  1.2932
12624SOL     OW38921   5.396   1.735   1.310  0.2752  0.2562  0.7358
12624SOL    HW138922   5.333   1.668   1.284  0.6602  0.1708 -0.0139
12624SOL    HW238923   5.481   1.694   1.297  0.5189  0.9065  0.1791
12625SOL     OW38924   1.427   4.195   4.879 -0.2432  0.2588 -0.3056
12625SOL    HW138925   1.515   4.164   4.896 -0.2758  0.7271  0.7815
12625SOL    HW238926   1.382   4.191   4.964 -1.1029  0.5305 -0.7256
12626SOL     OW38927   2.260   4.110   3.404 -0.0185 -0.0989 -1.1086
12626SOL    HW138928   2.242   4.040   3.341  0.0434  0.2251 -1.4928
12626SOL    HW238929   2.241   4.191   3.355 -0.6477  0.1368 -0.4964
12627SOL     OW38930   2.526   2.803   0.841  0.7190  0.5855 -0.1274
12627SOL    HW138931   2.459   2.742   0.871 -0.4177  1.8950  0.0781
12627SOL    HW238932   2.595   2.747   0.804 -0.2651 -0.8010  0.0772
12628SOL     OW38933   0.690   4.858   0.026 -0.3901  0.2243  0.5496
12628SOL    HW138934   0.603   4.821   0.043 -0.7088  0.1567 -1.0204
12628SOL    HW238935   0.673   4.935  -0.027  0.5172  0.0925  0.0471
12629SOL     OW38936   4.550   5.442   2.831 -0.4410 -0.1019 -0.4539
12629SOL    HW138937   4.593   5.369   2.876  0.0892  1.1594  1.1825
12629SOL    HW238938   4.566   5.518   2.888 -1.3535  1.2075 -1.8763
12630SOL     OW38939   5.717   6.593   4.709 -0.1333 -0.8021  0.1815
12630SOL    HW138940   5.674   6.662   4.659 -0.7329 -1.1100  0.2680
12630SOL    HW238941   5.811   6.614   4.703 -0.1931 -0.8231 -1.0566
12631SOL     OW38942   6.419   0.609   6.086  0.5908 -0.3338  0.2062
12631SOL    HW138943   6.490   0.642   6.031  0.1599  0.8179  0.3086
12631SOL    HW238944   6.421   0.665   6.164  1.8133 -2.5493  1.8831
12632SOL     OW38945   4.488   6.538   1.979  0.8288  0.2051 -0.1986
12632SOL    HW138946   4.488   6.519   1.885 -2.1401 -0.0283 -0.2294
12632SOL    HW238947   4.396   6.544   2.003  1.4987  0.8240  2.6251
12633SOL     OW38948   4.819   2.704   5.507 -0.1100 -0.4971 -0.2392
12633SOL    HW138949   4.854   2.618   5.485  0.7583 -0.1533 -0.2232
12633SOL    HW238950   4.896   2.759   5.519 -0.6574  0.2649 -0.1665
12634SOL     OW38951   8.144   2.820   5.786  0.7771 -0.2762  0.3827
12634SOL    HW138952   8.219   2.761   5.777  0.8329 -0.2049  0.3828
12634SOL    HW238953   8.076   2.782   5.730 -0.4204 -2.2986  3.0071
12635SOL     OW38954   2.990   7.122   6.679 -0.0239  0.0594 -0.6722
12635SOL    HW138955   3.060   7.103   6.617 -1.0567  0.8734 -2.1461
12635SOL    HW238956   3.031   7.175   6.747  1.0105 -0.4013 -0.9201
12636SOL     OW38957   7.567   5.104   3.843  0.0609 -0.2093 -0.3530
12636SOL    HW138958   7.513   5.045   3.896 -1.3651  0.5886 -0.8537
12636SOL    HW238959   7.633   5.047   3.804 -0.6231 -1.3027  0.0247
12637SOL     OW38960   7.216   5.251   7.632  0.0699 -0.2939 -0.0805
12637SOL    HW138961   7.221   5.233   7.726 -0.9801  0.3150  0.0998
12637SOL    HW238962   7.139   5.306   7.621  0.1864 -0.3324 -1.3048
12638SOL     OW38963   4.885   5.300   1.386 -0.0295 -0.0337 -0.1560
12638SOL    HW138964   4.834   5.289   1.466  0.5234 -1.7777  0.0044
12638SOL    HW238965   4.825   5.277   1.315 -0.1485  0.2499 -0.1479
12639SOL     OW38966   0.179   7.450   3.117  0.0755 -0.1640  0.2091
12639SOL    HW138967   0.099   7.483   3.074  0.8074  0.0064 -1.0687
12639SOL    HW238968   0.184   7.501   3.198 -2.5874 -2.0919  1.7779
12640SOL     OW38969   0.019   5.984   2.459 -0.1627  0.1282  0.3045
12640SOL    HW138970   0.099   5.997   2.408  0.3334 -1.2713  0.6957
12640SOL    HW238971  -0.052   5.989   2.394  0.1768  1.7205  0.0055
12641SOL     OW38972   1.274   0.268   6.557  0.5835  0.1342  0.3635
12641SOL    HW138973   1.287   0.173   6.548 -0.3031  0.0658 -0.2911
12641SOL    HW238974   1.308   0.304   6.475  1.8107  0.5020  0.9926
12642SOL     OW38975   3.675   2.541   7.862 -0.3035 -0.6376 -0.0471
12642SOL    HW138976   3.639   2.554   7.950  0.6191  2.4494 -0.0328
12642SOL    HW238977   3.756   2.492   7.877 -0.5781 -0.8880  0.7061
12643SOL     OW38978   0.850   3.230   3.354 -0.4530  0.4125  0.0072
12643SOL    HW138979   0.864   3.234   3.449  1.8353  2.8320 -0.2827
12643SOL    HW238980   0.874   3.141   3.330  0.6594  0.2442  1.5413
12644SOL     OW38981   3.421   1.065   5.848  0.2095 -0.1561  0.1219
12644SOL    HW138982   3.422   1.066   5.753 -1.0694 -1.0087  0.0724
12644SOL    HW238983   3.422   1.158   5.873  0.7197  0.0684 -0.6997
12645SOL     OW38984   7.163   2.208   4.097 -0.1807 -0.3636  0.3873
12645SOL    HW138985   7.218   2.130   4.098 -0.9097 -1.0569 -2.5343
12645SOL    HW238986   7.103   2.197   4.170  1.0110 -1.5329  1.2247
12646SOL     OW38987   4.562   0.572   8.222 -0.0410 -0.1006 -0.2522
12646SOL    HW138988   4.559   0.481   8.192 -0.6185  0.0419 -0.6494
12646SOL    HW238989   4.475   0.606   8.203 -0.1462  0.2574  0.8040
12647SOL     OW38990   4.682   3.988   2.208  0.1680 -0.4571 -0.1209
12647SOL    HW138991   4.656   4.012   2.297  1.9366 -1.3939  0.7079
12647SOL    HW238992   4.616   3.923   2.181  0.4433 -1.2792  1.1060
12648SOL     OW38993   2.256   3.808   1.839 -0.5633  0.1300 -0.3900
12648SOL    HW138994   2.214   3.728   1.806  0.4767 -0.7224  0.2798
12648SOL    HW238995   2.300   3.846   1.762 -0.2854 -0.4502 -0.5222
12649SOL     OW38996   3.331   7.820   0.614 -0.4674 -0.2599  0.3644
12649SOL    HW138997   3.423   7.829   0.589 -0.9914 -0.4514 -1.8010
12649SOL    HW238998   3.333   7.769   0.695  1.2872 -1.0869 -0.1530
12650SOL     OW38999   0.649   0.237   7.954  0.3959 -0.5354  0.0686
12650SOL    HW139000   0.575   0.218   7.897  0.6424 -0.1443 -0.3965
12650SOL    HW239001   0.724   0.246   7.894  0.5806  0.2858  0.4110
12651SOL     OW39002   5.980   2.825   5.142  0.2757  0.0628  0.1813
12651SOL    HW139003   5.890   2.840   5.174  0.9883  1.0892  1.8412
12651SOL    HW239004   5.997   2.733   5.162 -0.1537  0.0581  0.5514
12652SOL     OW39005   2.085   3.742   4.610  0.1023  0.1107 -0.6021
12652SOL    HW139006   2.087   3.837   4.603  0.7188  0.1212 -0.3243
12652SOL    HW239007   2.100   3.711   4.521  3.4671  0.2703 -0.1933
12653SOL     OW39008   1.984   0.292   4.507 -0.2307 -0.8448 -0.4989
12653SOL    HW139009   2.050   0.310   4.573  0.1567  1.2270 -1.3489
12653SOL    HW239010   2.029   0.241   4.440  0.4605  0.2267 -0.8873
12654SOL     OW39011   8.187   5.154   6.104  0.0839 -0.0732  0.1155
12654SOL    HW139012   8.165   5.247   6.096  0.0466 -0.1264 -0.4421
12654SOL    HW239013   8.139   5.112   6.033  0.8992 -0.3772 -0.2686
12655SOL     OW39014   0.153   0.838   5.686 -0.1666  0.4848  0.2442
12655SOL    HW139015   0.116   0.758   5.724  0.7186 -0.6899 -1.2453
12655SOL    HW239016   0.225   0.862   5.745 -1.6866  1.4073  1.8233
12656SOL     OW39017   2.729   0.510   3.056  0.2959  0.1585  0.0340
12656SOL    HW139018   2.717   0.478   3.145 -3.0222 -0.4090 -0.4841
12656SOL    HW239019   2.746   0.431   3.004  2.1339  0.4782  0.0541
12657SOL     OW39020   3.459   6.852   3.118  0.0770  0.1121  0.4232
12657SOL    HW139021   3.485   6.838   3.209 -1.2366 -2.6009  0.4801
12657SOL    HW239022   3.363   6.847   3.119  0.0744 -2.8644 -1.3849
12658SOL     OW39023   3.830   6.497   0.827  0.2884 -0.4559  0.0534
12658SOL    HW139024   3.815   6.426   0.889 -2.7354  1.2932  1.5839
12658SOL    HW239025   3.898   6.550   0.867  0.1765 -0.7144  0.5981
12659SOL     OW39026   1.847   5.577   4.100  0.1182 -0.0581 -0.2208
12659SOL    HW139027   1.798   5.532   4.170  0.4041  0.8100  0.5532
12659SOL    HW239028   1.782   5.635   4.060  0.2136  0.2014  0.0025
12660SOL     OW39029   3.247   1.385   5.775 -0.0164  0.2392  0.2083
12660SOL    HW139030   3.160   1.385   5.814  0.2987 -1.6276  1.0188
12660SOL    HW239031   3.306   1.370   5.849  0.7721 -1.1711 -0.6546
12661SOL     OW39032   1.676   7.109   1.998 -0.2273  0.5927 -0.2722
12661SOL    HW139033   1.756   7.083   2.043 -0.3803  0.6164  0.0164
12661SOL    HW239034   1.648   7.189   2.043 -1.1597 -0.1702  0.5498
12662SOL     OW39035   5.717   1.231   5.486 -0.3558 -0.3923  0.4170
12662SOL    HW139036   5.682   1.283   5.413  1.2120 -1.3055 -1.0514
12662SOL    HW239037   5.696   1.140   5.463 -0.2258 -0.6614  1.3320
12663SOL     OW39038   6.132   6.866   0.442 -0.8643 -0.2989 -0.4930
12663SOL    HW139039   6.185   6.937   0.407 -0.8288  0.2675  0.6513
12663SOL    HW239040   6.153   6.791   0.388  1.7900 -0.3235  0.4314
12664SOL     OW39041   1.062   6.256   6.493  0.6357 -0.0063  0.1310
12664SOL    HW139042   1.011   6.264   6.412 -0.2894 -0.9486  0.5862
12664SOL    HW239043   1.070   6.162   6.506  1.2633  0.1420  0.8430
12665SOL     OW39044   1.648   7.147   0.958 -0.1128  0.2923  0.5255
12665SOL    HW139045   1.638   7.209   0.886 -0.2314 -0.1200  0.1831
12665SOL    HW239046   1.732   7.172   0.999  0.0170  0.4478  0.1692
12666SOL     OW39047   4.850   3.184   2.960 -0.3709  0.1113 -0.1015
12666SOL    HW139048   4.768   3.235   2.967  1.1981  2.5483  2.4068
12666SOL    HW239049   4.850   3.128   3.037  0.6494  0.6569  0.2984
12667SOL     OW39050   4.182   3.971   5.413 -0.0102 -0.3702 -0.6081
12667SOL    HW139051   4.210   3.934   5.497 -0.1408  0.0322 -0.3803
12667SOL    HW239052   4.087   3.980   5.421 -0.1547 -1.2966 -1.2008
12668SOL     OW39053   6.914   5.534   4.042  0.2749  0.6254 -0.1453
12668SOL    HW139054   6.843   5.470   4.052 -0.3586  1.0362 -1.7164
12668SOL    HW239055   6.964   5.502   3.966  2.7682 -0.5161  1.8278
12669SOL     OW39056   5.331   0.200   7.688 -0.1047 -0.6893 -0.8254
12669SOL    HW139057   5.299   0.244   7.767 -1.5148  0.4069 -1.9525
12669SOL    HW239058   5.426   0.202   7.697 -0.2103  0.2222  0.4310
12670SOL     OW39059   5.677   0.425   1.203  0.5277 -0.2602  0.1233
12670SOL    HW139060   5.730   0.350   1.174 -0.4223 -0.5864 -0.8612
12670SOL    HW239061   5.720   0.501   1.164  0.6019 -0.4616 -0.1961
12671SOL     OW39062   6.986   1.019   0.033  0.0000  0.7230  0.1984
12671SOL    HW139063   7.035   1.078   0.090  1.2600  1.1279 -1.2306
12671SOL    HW239064   6.895   1.046   0.040 -0.0650  0.0370  2.8426
12672SOL     OW39065   0.319   3.041   3.821  0.2118 -0.1734  0.5620
12672SOL    HW139066   0.360   3.127   3.811 -0.6479  0.4982  2.3242
12672SOL    HW239067   0.388   2.979   3.799  1.1018  0.9585  0.0526
12673SOL     OW39068   4.077   2.295   0.738 -0.5359 -0.3868 -0.1542
12673SOL    HW139069   4.136   2.352   0.786  0.0807 -0.2886 -1.0061
12673SOL    HW239070   4.084   2.324   0.647 -1.4958 -0.7190 -0.3545
12674SOL     OW39071   6.711   3.120   8.219  0.0068  0.6462  0.2240
12674SOL    HW139072   6.767   3.069   8.277  1.0886  2.5888  0.9916
12674SOL    HW239073   6.627   3.125   8.264 -0.5890 -1.5024 -0.5008
12675SOL     OW39074   8.019   6.086   1.519 -0.8037  0.0333  0.2803
12675SOL    HW139075   7.954   6.020   1.497 -2.5409  1.8198 -0.2252
12675SOL    HW239076   8.090   6.037   1.560 -1.4694 -2.2716 -1.1462
12676SOL     OW39077   2.360   7.385   1.935 -0.0974  0.1013 -0.2037
12676SOL    HW139078   2.283   7.361   1.883  0.4109  0.8476 -1.3263
12676SOL    HW239079   2.362   7.480   1.933 -0.0101  0.1371  1.1213
12677SOL     OW39080   5.469   0.099   4.807 -0.1511  0.1669  0.3871
12677SOL    HW139081   5.423   0.162   4.862 -2.6810 -1.0430 -0.1825
12677SOL    HW239082   5.540   0.065   4.862 -2.0995 -0.4218  2.6806
12678SOL     OW39083   4.104   4.481   2.372  0.0650 -0.0312 -0.0160
12678SOL    HW139084   4.119   4.575   2.364  1.3377 -0.1189  0.8993
12678SOL    HW239085   4.178   4.441   2.326  0.5826 -0.5418  1.1893
12679SOL     OW39086   1.516   5.396   8.260 -0.0164  0.0320  0.1213
12679SOL    HW139087   1.462   5.318   8.271 -2.3032  1.6994  1.8593
12679SOL    HW239088   1.469   5.449   8.196  2.5308 -0.7310 -2.5623
12680SOL     OW39089   1.925   6.018   8.017 -0.2950  0.0997 -0.4928
12680SOL    HW139090   2.004   6.069   8.033  0.9515 -1.6070 -0.8572
12680SOL    HW239091   1.891   5.998   8.105  1.8286 -2.2548 -0.0908
12681SOL     OW39092   5.971   5.827   5.428  0.2399 -0.1347 -0.2108
12681SOL    HW139093   5.953   5.919   5.445 -0.1428  0.1354 -1.9186
12681SOL    HW239094   5.884   5.786   5.426  0.2651 -0.1599 -1.3544
12682SOL     OW39095   2.000   1.720   0.618 -0.3410  0.1263 -0.0936
12682SOL    HW139096   1.992   1.786   0.548 -1.3645 -0.1507 -0.2605
12682SOL    HW239097   2.084   1.739   0.659  0.7176 -0.2264 -1.9473
12683SOL     OW39098   7.886   6.069   2.067 -0.1876  0.5012 -0.0020
12683SOL    HW139099   7.804   6.116   2.055 -2.1122 -2.5712  0.0612
12683SOL    HW239100   7.895   6.013   1.990  1.3539  0.0737  0.4297
12684SOL     OW39101   1.821   7.113   5.749 -0.1480 -0.0062  0.0195
12684SOL    HW139102   1.831   7.093   5.842  1.6719 -2.0642 -0.5420
12684SOL    HW239103   1.884   7.182   5.732  1.8860 -1.8379 -0.2585
12685SOL     OW39104   2.739   0.213   5.998  0.0036  0.2033 -0.0068
12685SOL    HW139105   2.829   0.197   6.026 -0.2074  0.5347  0.8979
12685SOL    HW239106   2.734   0.176   5.910  0.6564 -1.0018  0.4424
12686SOL     OW39107   4.472   5.985   2.933 -0.0025 -0.7381 -0.1881
12686SOL    HW139108   4.415   5.918   2.897  0.0291 -0.6122 -0.4713
12686SOL    HW239109   4.413   6.049   2.973 -0.2327  0.7039 -2.6539
12687SOL     OW39110   8.238   5.253   0.695 -0.5920 -0.4961  0.2393
12687SOL    HW139111   8.243   5.306   0.774  0.3149 -2.2906  1.4421
12687SOL    HW239112   8.148   5.265   0.664 -0.4254  1.6916  0.4283
12688SOL     OW39113   5.343   7.849   7.496  0.3743  0.1089 -0.5182
12688SOL    HW139114   5.327   7.757   7.474  0.6235  0.2240 -1.2230
12688SOL    HW239115   5.412   7.876   7.435  0.4759  0.6973 -0.1504
12689SOL     OW39116   0.762   7.103   7.411 -0.5671 -0.1060  0.0353
12689SOL    HW139117   0.815   7.042   7.362  0.8585  0.0731  1.2753
12689SOL    HW239118   0.725   7.051   7.483 -0.4065  0.2129  0.3505
12690SOL     OW39119   7.093   7.129   2.161 -0.3190 -0.4653  0.1762
12690SOL    HW139120   7.124   7.216   2.135  2.0572 -1.5503 -0.8976
12690SOL    HW239121   7.055   7.143   2.248 -0.2701  1.6845 -0.0845
12691SOL     OW39122   5.688   5.030   0.048  0.1778 -0.5180 -0.3631
12691SOL    HW139123   5.750   5.082  -0.003  1.1517 -0.0460  1.2376
12691SOL    HW239124   5.700   4.941   0.016 -0.7607  0.0315 -2.4058
12692SOL     OW39125   2.377   6.331   7.294  0.1478  0.0205 -0.2962
12692SOL    HW139126   2.291   6.340   7.335 -0.4141 -0.5642 -1.3194
12692SOL    HW239127   2.429   6.400   7.334  0.0828 -1.3711  2.5315
12693SOL     OW39128   3.452   1.133   0.617  0.2069 -0.2262  0.4609
12693SOL    HW139129   3.401   1.125   0.698 -0.0938 -1.3523  0.1821
12693SOL    HW239130   3.543   1.133   0.646  0.0838  1.1698  0.9171
12694SOL     OW39131   5.971   3.568   7.546  0.1552  0.4147  0.3529
12694SOL    HW139132   5.978   3.658   7.513  0.3917  1.7341  3.6382
12694SOL    HW239133   6.062   3.540   7.559  0.0968 -0.5063 -1.0244
12695SOL     OW39134   4.135   4.399   7.881 -0.2267 -0.5564  0.4940
12695SOL    HW139135   4.152   4.308   7.857  0.8030  0.0334 -1.1862
12695SOL    HW239136   4.154   4.403   7.974  4.2069 -1.1649 -0.1586
12696SOL     OW39137   0.915   4.274   2.490  0.1817 -0.1995  0.0505
12696SOL    HW139138   0.912   4.307   2.579 -2.0455  0.5445 -0.2519
12696SOL    HW239139   0.970   4.337   2.443 -0.3989  0.6100  0.4379
12697SOL     OW39140   4.051   4.260   0.656  0.0522  0.5728  0.0210
12697SOL    HW139141   4.067   4.306   0.739  0.4685 -0.7290  0.6995
12697SOL    HW239142   4.139   4.244   0.621 -0.0169 -0.6472  0.3551
12698SOL     OW39143   7.165   3.205   4.097 -0.2154  0.2582 -0.4594
12698SOL    HW139144   7.221   3.180   4.170 -0.7125  0.0590 -0.1392
12698SOL    HW239145   7.196   3.153   4.023  0.2087  0.3697 -0.3644
12699SOL     OW39146   4.239   1.350   7.241 -0.2046  0.5152 -0.1979
12699SOL    HW139147   4.188   1.431   7.247 -1.3047 -0.2190  1.1031
12699SOL    HW239148   4.318   1.368   7.292 -0.5913  0.6796  0.3519
12700SOL     OW39149   6.223   1.937   7.931  0.3199 -0.4261 -0.2428
12700SOL    HW139150   6.227   2.031   7.916  0.6551 -0.7434 -2.5444
12700SOL    HW239151   6.141   1.909   7.890  1.0597 -1.3443 -1.1593
12701SOL     OW39152   6.169   1.988   6.339 -0.6332  0.4627 -0.4134
12701SOL    HW139153   6.166   1.921   6.407 -1.9091  0.7536 -0.1496
12701SOL    HW239154   6.259   1.988   6.309  0.0287  0.4674  1.4345
12702SOL     OW39155   4.312   2.801   3.468  0.3351 -0.4354  0.6331
12702SOL    HW139156   4.226   2.781   3.504  1.2685 -0.7634  2.8608
12702SOL    HW239157   4.307   2.773   3.377 -2.2518  0.6672  0.3611
12703SOL     OW39158   8.213   3.505   0.537  0.1634  0.0124  0.3405
12703SOL    HW139159   8.225   3.411   0.524 -0.4620  0.0310 -0.4848
12703SOL    HW239160   8.219   3.518   0.632  2.3339 -0.5399  0.3393
12704SOL     OW39161   6.864   0.486   0.935 -0.0856  0.1164  0.5553
12704SOL    HW139162   6.830   0.535   0.860 -0.5721 -1.1229 -0.0664
12704SOL    HW239163   6.800   0.500   1.004 -0.4802 -0.0443  0.2263
12705SOL     OW39164   7.600   1.702   4.826  0.2843 -0.0770 -0.0852
12705SOL    HW139165   7.592   1.689   4.732 -1.5863 -0.5216  0.0968
12705SOL    HW239166   7.587   1.615   4.864  0.4196  0.1999  0.6234
12706SOL     OW39167   1.073   2.201   5.954 -0.1001 -0.0759 -0.3192
12706SOL    HW139168   1.126   2.280   5.966 -0.3771  0.0011  0.4527
12706SOL    HW239169   1.070   2.161   6.041 -1.8820  0.2832 -0.1776
12707SOL     OW39170   1.792   3.188   7.126 -0.4808 -0.1752 -0.1016
12707SOL    HW139171   1.812   3.222   7.039  0.9937  2.4498  1.1311
12707SOL    HW239172   1.872   3.142   7.153 -0.7927 -0.6464  0.0494
12708SOL     OW39173   7.185   5.787   4.924  0.3928 -0.5228 -0.2624
12708SOL    HW139174   7.266   5.796   4.874  1.3682 -0.7516  1.2270
12708SOL    HW239175   7.198   5.709   4.978  0.0087  0.5221  1.4370
12709SOL     OW39176   1.864   2.589   1.990 -0.3887 -0.6109 -0.1424
12709SOL    HW139177   1.868   2.598   1.895 -0.8731  0.1548 -0.1003
12709SOL    HW239178   1.907   2.668   2.023  0.3578 -1.1854  0.2822
12710SOL     OW39179   5.292   3.030   4.988  0.4048 -0.4618  0.0733
12710SOL    HW139180   5.202   3.061   4.997  0.6138  0.9279 -1.9993
12710SOL    HW239181   5.342   3.106   4.958  1.3832 -2.1183 -3.0704
12711SOL     OW39182   5.173   0.336   5.849 -0.6703 -0.1081 -0.3538
12711SOL    HW139183   5.141   0.267   5.791 -2.3049 -0.0406  0.4058
12711SOL    HW239184   5.241   0.293   5.902 -1.2603 -0.9958 -0.2884
12712SOL     OW39185   2.075   5.392   7.236  0.4082 -0.2117 -0.0345
12712SOL    HW139186   2.136   5.433   7.298 -0.6014  2.1897 -0.5325
12712SOL    HW239187   1.990   5.430   7.258 -0.4933 -1.5752 -1.0103
12713SOL     OW39188   1.728   7.296   4.151  0.0396 -0.6125  0.1855
12713SOL    HW139189   1.689   7.303   4.064 -0.1151  0.7701  0.3466
12713SOL    HW239190   1.784   7.219   4.145 -0.9729 -1.3108 -0.7308
12714SOL     OW39191   0.087   4.095   6.375  0.3459  0.3257  0.2021
12714SOL    HW139192   0.096   4.172   6.431  0.1732  0.2550  0.3296
12714SOL    HW239193   0.145   4.112   6.301  0.6146  0.3989  0.4288
12715SOL     OW39194   4.978   2.941   5.544 -0.3905  0.7188 -0.7282
12715SOL    HW139195   4.929   2.982   5.616 -1.0686 -0.1057 -0.6962
12715SOL    HW239196   5.070   2.952   5.568 -0.5776  1.4386 -0.2980
12716SOL     OW39197   4.525   1.560   5.681 -0.0349 -0.2787  0.7025
12716SOL    HW139198   4.434   1.541   5.661 -0.4984  1.6503  0.7357
12716SOL    HW239199   4.521   1.624   5.753  1.3762 -0.9333  1.4126
12717SOL     OW39200   1.459   6.189   1.287  0.0660 -0.1207 -0.1077
12717SOL    HW139201   1.484   6.113   1.340 -1.6700 -0.2595  0.5572
12717SOL    HW239202   1.454   6.156   1.198  1.6034 -0.2109 -0.1982
12718SOL     OW39203   0.297   5.347   2.936  0.3416  0.0847 -0.4547
12718SOL    HW139204   0.236   5.355   3.009  0.4686  1.2849 -0.4592
12718SOL    HW239205   0.367   5.290   2.969  0.1458  0.2039  0.1734
12719SOL     OW39206   6.407   4.628   7.076  0.4498 -0.2275 -0.5751
12719SOL    HW139207   6.313   4.632   7.062  0.6722  3.0780 -2.1701
12719SOL    HW239208   6.417   4.577   7.156 -2.5804 -1.6307 -0.9517
12720SOL     OW39209   1.941   2.940   4.930  0.0032 -0.3926 -0.4595
12720SOL    HW139210   1.955   2.887   5.008 -0.8033 -0.4382 -0.3372
12720SOL    HW239211   1.861   2.989   4.948 -0.2036 -0.4200 -1.2548
12721SOL     OW39212   6.427   1.969   6.242  0.1277 -0.1033 -0.1878
12721SOL    HW139213   6.428   2.061   6.217  3.9155 -0.6907 -3.0408
12721SOL    HW239214   6.508   1.956   6.290  0.1771 -2.1285 -0.7162
12722SOL     OW39215   0.584   4.550   8.191  0.1380  0.2002 -0.0019
12722SOL    HW139216   0.580   4.646   8.197 -0.3318  0.2096 -0.4464
12722SOL    HW239217   0.505   4.520   8.237 -0.1331  0.0580 -0.5477
12723SOL     OW39218   0.111   6.063   6.989 -0.3751  0.0480  0.0099
12723SOL    HW139219   0.039   6.078   6.928 -0.4654 -0.4285 -0.0056
12723SOL    HW239220   0.096   5.975   7.023  1.1166 -0.7476 -1.2482
12724SOL     OW39221   3.666   2.633   1.222  0.2742 -0.1343 -0.5290
12724SOL    HW139222   3.641   2.671   1.137 -1.0389 -0.9605 -0.5303
12724SOL    HW239223   3.727   2.563   1.200  1.0489  0.5655 -0.6724
12725SOL     OW39224   3.850   3.864   1.449 -0.0185 -0.0147 -0.6261
12725SOL    HW139225   3.844   3.955   1.420  0.9086 -0.2978 -1.7824
12725SOL    HW239226   3.903   3.821   1.382  0.3710 -1.1945  0.3997
12726SOL     OW39227   6.367   3.952   0.406  0.0850 -1.0972  0.1046
12726SOL    HW139228   6.387   3.887   0.472  0.5456 -1.0715 -0.0043
12726SOL    HW239229   6.371   3.904   0.323  2.9054 -0.4696 -0.2235
12727SOL     OW39230   4.999   7.497   7.277  0.4407 -0.7958  0.2291
12727SOL    HW139231   5.049   7.462   7.203 -0.5559 -1.4203 -0.1714
12727SOL    HW239232   4.933   7.554   7.237  1.3446  0.6956  0.8062
12728SOL     OW39233   6.602   3.998   6.299  0.1781  0.7270  0.1841
12728SOL    HW139234   6.510   3.981   6.276  0.3052 -0.8045  0.6977
12728SOL    HW239235   6.637   4.045   6.223 -0.6640  0.0248 -0.6678
12729SOL     OW39236   3.575   4.737   3.216 -0.0524  0.2216  0.9101
12729SOL    HW139237   3.523   4.662   3.188  1.6588 -0.5295 -0.4713
12729SOL    HW239238   3.551   4.751   3.307 -0.7370 -1.7276  1.0709
12730SOL     OW39239   2.445   4.806   3.778  0.2438  0.0596  0.8288
12730SOL    HW139240   2.473   4.719   3.750 -0.0899  0.7119 -1.8862
12730SOL    HW239241   2.355   4.794   3.808 -0.4451 -0.3248 -1.2329
12731SOL     OW39242   2.286   6.940   2.688 -0.2326 -0.1426  0.0881
12731SOL    HW139243   2.291   6.870   2.624 -0.1859  0.7887 -0.9608
12731SOL    HW239244   2.255   6.897   2.768 -1.9107 -1.0678 -0.9911
12732SOL     OW39245   4.924   1.477   6.031  0.0313  0.2973 -0.3192
12732SOL    HW139246   4.873   1.545   6.075 -0.4120 -0.6799  0.7200
12732SOL    HW239247   4.979   1.440   6.100 -0.9660 -1.5325 -0.4570
12733SOL     OW39248   5.569   3.105   3.472 -0.0639 -0.2706 -0.3990
12733SOL    HW139249   5.548   3.129   3.381  0.7631  0.6795 -0.3490
12733SOL    HW239250   5.502   3.149   3.524  0.3859  0.4733 -0.4405
12734SOL     OW39251   5.218   0.056   3.959 -0.3436  0.2292  0.0700
12734SOL    HW139252   5.298   0.042   4.010 -0.0432  0.8589 -0.2198
12734SOL    HW239253   5.216  -0.018   3.898  0.2218  0.4127 -0.1789
12735SOL     OW39254   6.276   2.072   5.569 -0.3065  0.2315  0.1972
12735SOL    HW139255   6.297   2.163   5.591 -1.2336  0.7729 -1.0562
12735SOL    HW239256   6.352   2.023   5.601  0.1036  1.4001  1.1248
12736SOL     OW39257   2.108   6.854   1.178 -0.2853  0.2356  0.5082
12736SOL    HW139258   2.055   6.780   1.150 -0.7276 -0.1382  2.1860
12736SOL    HW239259   2.044   6.921   1.203 -0.0433 -0.2799  2.7128
12737SOL     OW39260   2.883   6.779   4.064  0.3994 -0.2976  0.1074
12737SOL    HW139261   2.881   6.875   4.067 -0.7727 -0.2946 -0.2458
12737SOL    HW239262   2.890   6.752   4.155  0.0217  0.1198  0.2616
12738SOL     OW39263   7.029   2.837   7.547  0.2791 -0.4206  0.1249
12738SOL    HW139264   7.029   2.922   7.503  0.3718 -0.6590 -0.3451
12738SOL    HW239265   7.091   2.784   7.496 -0.2103 -0.9438  0.0715
12739SOL     OW39266   4.380   3.073   7.222  0.6829  0.7060 -0.5037
12739SOL    HW139267   4.464   3.089   7.179 -0.1668 -0.0206 -2.5380
12739SOL    HW239268   4.344   3.161   7.236  1.7149  1.0239  0.3383
12740SOL     OW39269   7.304   5.202   2.135  0.2707  0.3912 -0.0288
12740SOL    HW139270   7.211   5.222   2.128 -0.3378 -2.2702 -0.6679
12740SOL    HW239271   7.334   5.198   2.044  0.5631 -0.5883  0.1053
12741SOL     OW39272   4.512   3.894   5.832 -0.1141 -0.2361 -0.1002
12741SOL    HW139273   4.453   3.909   5.905  0.7503  0.6631  0.4511
12741SOL    HW239274   4.580   3.961   5.842  1.3420 -1.6169 -0.3405
12742SOL     OW39275   0.639   7.641   3.274 -0.1832 -0.7218  0.4759
12742SOL    HW139276   0.715   7.700   3.272 -0.9654  0.3117 -0.7112
12742SOL    HW239277   0.669   7.562   3.230 -0.5335  0.7478 -2.6862
12743SOL     OW39278   7.916   1.666   0.246 -0.3137 -0.1635 -0.3062
12743SOL    HW139279   7.848   1.666   0.179  0.8462 -3.4083 -1.6794
12743SOL    HW239280   7.992   1.705   0.203 -0.3349  0.2760  0.0541
12744SOL     OW39281   2.722   6.981   2.958 -0.6380  0.7699 -0.7080
12744SOL    HW139282   2.630   6.995   2.939 -1.3668  0.2791  1.9786
12744SOL    HW239283   2.742   7.044   3.027  0.1634 -1.0764  0.8528
12745SOL     OW39284   5.394   6.054   2.124 -0.2466 -0.7583 -0.6547
12745SOL    HW139285   5.322   6.099   2.080  0.0282 -0.1917 -0.5313
12745SOL    HW239286   5.371   5.961   2.120 -0.0623 -0.7531 -2.2963
12746SOL     OW39287   2.928   7.292   7.094  0.2346  0.6718 -0.5589
12746SOL    HW139288   2.910   7.237   7.170  1.8328  2.7882  1.4689
12746SOL    HW239289   2.862   7.361   7.098  0.8544  1.2710 -0.5899
12747SOL     OW39290   8.179   5.170   4.131 -0.0078 -0.0625  0.0372
12747SOL    HW139291   8.206   5.239   4.071 -0.2508  0.5283  0.5856
12747SOL    HW239292   8.084   5.163   4.118  0.0201 -0.3110 -0.0364
12748SOL     OW39293   3.482   0.993   6.699 -0.2144  0.1909 -0.3253
12748SOL    HW139294   3.522   0.966   6.616  1.6169  0.3397  0.4541
12748SOL    HW239295   3.443   0.914   6.734 -3.1631  0.5881 -2.3961
12749SOL     OW39296   4.655   0.421   0.999 -0.1092  0.2461 -0.0428
12749SOL    HW139297   4.624   0.370   1.074  1.0279 -0.1297  0.1882
12749SOL    HW239298   4.697   0.497   1.037  0.8307 -0.1454 -0.2647
12750SOL     OW39299   3.143   8.177   7.515  0.6521  0.0510 -0.3226
12750SOL    HW139300   3.157   8.084   7.535  1.8032  0.4600  0.9370
12750SOL    HW239301   3.178   8.188   7.426  4.1035 -0.0282  0.8546
12751SOL     OW39302   6.387   3.286   2.386 -0.2189 -0.0016  0.0042
12751SOL    HW139303   6.419   3.298   2.296 -0.5534 -1.2221 -0.3013
12751SOL    HW239304   6.292   3.280   2.376 -0.2164 -0.7283  0.3627
12752SOL     OW39305   6.752   7.203   4.505  0.0603  0.3207 -0.4823
12752SOL    HW139306   6.742   7.298   4.511  1.8195  0.4536  1.3358
12752SOL    HW239307   6.701   7.169   4.578  1.0966  0.0579  0.1477
12753SOL     OW39308   1.559   0.460   2.465  0.4704 -0.2723 -0.6514
12753SOL    HW139309   1.502   0.437   2.392  1.2457  0.2949 -1.4603
12753SOL    HW239310   1.641   0.413   2.447  0.6601 -0.1443 -0.1352
12754SOL     OW39311   4.656   1.575   6.979 -0.6517  0.2138 -0.7156
12754SOL    HW139312   4.564   1.601   6.977 -0.7751 -0.2351 -2.7933
12754SOL    HW239313   4.662   1.514   7.052 -1.9899  0.2821 -0.5156
12755SOL     OW39314   5.136   5.147   3.578  0.2260  0.1685  0.2128
12755SOL    HW139315   5.136   5.055   3.603  3.0757  0.8005  3.2515
12755SOL    HW239316   5.137   5.194   3.662  0.8550  2.9251 -1.2308
12756SOL     OW39317   7.539   0.084   3.531  0.1494 -0.5862 -0.5263
12756SOL    HW139318   7.557   0.057   3.621  0.8675  0.4058 -0.3622
12756SOL    HW239319   7.619   0.127   3.502 -0.6892  0.6675 -1.0337
12757SOL     OW39320   3.474   7.332   0.472 -0.0743 -0.3621  0.2105
12757SOL    HW139321   3.543   7.398   0.480 -0.3575 -0.0906  0.4337
12757SOL    HW239322   3.403   7.365   0.527  0.1279 -1.2989  1.0504
12758SOL     OW39323   1.708   2.843   1.115  0.0734  0.2817 -0.6816
12758SOL    HW139324   1.649   2.801   1.051  1.1986 -1.1677 -0.8225
12758SOL    HW239325   1.756   2.770   1.154 -1.0857  1.0379  2.4156
12759SOL     OW39326   1.800   0.894   5.027 -0.7534 -0.6992  0.0071
12759SOL    HW139327   1.741   0.833   5.069 -1.7529 -1.0523 -1.7970
12759SOL    HW239328   1.749   0.932   4.956  1.1721 -1.0801 -1.6984
12760SOL     OW39329   2.846   7.873   1.541  0.0002  0.0626  0.1433
12760SOL    HW139330   2.839   7.854   1.635  2.0077 -1.3018  0.0649
12760SOL    HW239331   2.924   7.928   1.534  0.7867 -1.1422 -0.8644
12761SOL     OW39332   3.629   6.707   2.772 -0.4364 -0.5891  0.6516
12761SOL    HW139333   3.567   6.634   2.779 -0.0943 -1.4613 -2.9595
12761SOL    HW239334   3.576   6.780   2.740  0.0483 -0.8613 -0.8501
12762SOL     OW39335   3.168   1.279   0.910 -0.1569 -0.0399 -0.2437
12762SOL    HW139336   3.195   1.289   0.819 -3.7972 -0.8128 -1.6003
12762SOL    HW239337   3.111   1.202   0.909 -0.4700  0.0421  2.6922
12763SOL     OW39338   6.587   1.263   7.249  0.4517  0.3238  0.0953
12763SOL    HW139339   6.585   1.289   7.341 -1.1239  1.1803 -0.1317
12763SOL    HW239340   6.656   1.316   7.210  1.9628 -0.9115  0.9817
12764SOL     OW39341   2.875   4.770   8.212  0.5143 -0.6201 -0.1950
12764SOL    HW139342   2.939   4.841   8.204  1.7196 -1.5282  0.9245
12764SOL    HW239343   2.922   4.691   8.185 -0.1531 -1.2937  0.5494
12765SOL     OW39344   3.066   1.494   8.080 -0.2360 -0.5798 -1.0274
12765SOL    HW139345   2.974   1.477   8.100 -0.2428  0.4918 -0.0338
12765SOL    HW239346   3.107   1.504   8.166  1.0501 -2.1627 -1.4264
12766SOL     OW39347   6.147   5.224   3.600  0.0539  0.0867  0.3395
12766SOL    HW139348   6.225   5.253   3.552 -0.1378  2.0807  1.1367
12766SOL    HW239349   6.079   5.216   3.534  0.5775 -0.2653 -0.1584
12767SOL     OW39350   2.267   3.256   1.249  0.2205 -0.5656  0.3269
12767SOL    HW139351   2.320   3.287   1.176 -1.2822  0.6114 -0.3170
12767SOL    HW239352   2.265   3.161   1.238  2.5930 -0.7281  0.7078
12768SOL     OW39353   4.877   5.990   3.501  0.5450  0.0623 -0.6596
12768SOL    HW139354   4.969   6.003   3.477  0.4558  0.9839 -0.5204
12768SOL    HW239355   4.862   6.049   3.574  0.3729 -1.5722  0.6939
12769SOL     OW39356   6.502   7.101   1.743  0.4403  0.1556 -0.1976
12769SOL    HW139357   6.531   7.056   1.664 -0.6448 -3.2667  1.1740
12769SOL    HW239358   6.421   7.145   1.718  0.7969  0.2317 -1.2768
12770SOL     OW39359   4.083   7.121   4.915  0.4981 -0.1030 -0.2822
12770SOL    HW139360   4.075   7.185   4.845 -0.6261  0.1978  0.0989
12770SOL    HW239361   4.173   7.090   4.909 -0.0410 -1.4355 -3.0089
12771SOL     OW39362   5.605   6.839   4.042 -0.2896 -0.6926  0.1245
12771SOL    HW139363   5.550   6.913   4.017  0.5410  0.0113  0.3277
12771SOL    HW239364   5.673   6.835   3.975 -1.2123 -2.2772 -0.7659
12772SOL     OW39365   4.663   5.319   7.616  0.0872 -0.2712 -0.1479
12772SOL    HW139366   4.709   5.400   7.640 -0.2813 -0.3653  0.9255
12772SOL    HW239367   4.571   5.339   7.633 -0.1416 -0.5102 -1.0688
12773SOL     OW39368   3.784   2.812   6.667 -1.1195  0.2997  0.2331
12773SOL    HW139369   3.758   2.904   6.665 -0.9436  0.3945  1.6563
12773SOL    HW239370   3.746   2.778   6.748  1.3991 -0.0910  1.3283
12774SOL     OW39371   3.010   3.990   4.487  0.2145  0.4443 -0.5639
12774SOL    HW139372   3.025   3.972   4.580 -1.3177 -0.4008 -0.4495
12774SOL    HW239373   3.038   3.911   4.442 -0.2438  0.3568 -0.7006
12775SOL     OW39374   1.204   0.497   2.172  0.1915 -0.1908  0.1513
12775SOL    HW139375   1.227   0.497   2.079  1.2478  1.9379  0.3579
12775SOL    HW239376   1.108   0.500   2.173  0.1343 -0.9159 -0.8240
12776SOL     OW39377   5.683   4.847   7.024 -0.3505  0.4178  0.2108
12776SOL    HW139378   5.599   4.841   7.069 -0.1966  0.4743  0.5098
12776SOL    HW239379   5.744   4.876   7.092  0.1102 -0.5922  0.2493
12777SOL     OW39380   0.307   2.922   5.502 -0.4096  0.3707  0.4642
12777SOL    HW139381   0.380   2.863   5.485  1.0170  1.6206  1.8594
12777SOL    HW239382   0.320   2.994   5.440 -0.2873  0.7240  0.8957
12778SOL     OW39383   4.845   6.039   8.236 -0.0414 -0.1454 -0.9396
12778SOL    HW139384   4.907   6.083   8.294  1.0157 -1.5118 -0.9987
12778SOL    HW239385   4.896   5.972   8.191 -1.6063 -1.5171 -0.7772
12779SOL     OW39386   2.411   6.108   1.393 -0.0703 -0.6852  0.1012
12779SOL    HW139387   2.338   6.170   1.396  0.8100  0.3504  2.3606
12779SOL    HW239388   2.407   6.062   1.476  0.6297 -2.1249 -0.6245
12780SOL     OW39389   7.055   3.848   7.438  0.4076 -0.3654  0.2340
12780SOL    HW139390   6.981   3.883   7.388  1.1523  0.6132 -0.2029
12780SOL    HW239391   7.064   3.909   7.512  1.4280  0.1444 -0.2879
12781SOL     OW39392   4.944   2.575   6.695 -0.4552 -0.1508 -0.5745
12781SOL    HW139393   4.910   2.650   6.646 -1.3480  0.2019  0.5345
12781SOL    HW239394   4.959   2.608   6.783 -2.7499 -1.6934  0.4928
12782SOL     OW39395   8.245   5.350   6.321 -0.9050 -0.5294 -0.1881
12782SOL    HW139396   8.292   5.268   6.335  0.8702  0.4143 -0.3129
12782SOL    HW239397   8.313   5.412   6.293 -1.9870  1.2736  0.9828
12783SOL     OW39398   1.569   7.769   3.497 -0.6660  0.6088 -0.3132
12783SOL    HW139399   1.627   7.735   3.565 -1.6481 -0.8800 -0.1874
12783SOL    HW239400   1.584   7.864   3.498 -0.9026  0.6776  2.2310
12784SOL     OW39401   6.610   7.559   6.307 -0.4244  0.2769 -0.4438
12784SOL    HW139402   6.521   7.573   6.339 -0.5263  0.0855 -0.6392
12784SOL    HW239403   6.641   7.481   6.353  0.0782  1.0207  0.5125
12785SOL     OW39404   5.815   2.559   5.763 -0.2910  0.6319 -0.0856
12785SOL    HW139405   5.889   2.534   5.708 -0.2549 -1.9290  0.9830
12785SOL    HW239406   5.741   2.566   5.702  0.4632  1.5751 -0.9254
12786SOL     OW39407   3.788   7.023   4.730  0.4558 -0.5633 -0.4985
12786SOL    HW139408   3.734   6.967   4.675  1.0037 -1.3651 -0.2431
12786SOL    HW239409   3.822   7.090   4.670 -1.5297  0.5289 -0.4865
12787SOL     OW39410   2.686   1.779   2.243  0.3402  0.6577 -0.1044
12787SOL    HW139411   2.675   1.868   2.276  1.3384  0.4753  0.7394
12787SOL    HW239412   2.661   1.785   2.151  0.4684  1.8258 -0.0768
12788SOL     OW39413   4.815   7.416   5.817 -0.5576 -0.3234 -0.8115
12788SOL    HW139414   4.785   7.416   5.726 -1.5869  0.0849 -0.4806
12788SOL    HW239415   4.767   7.344   5.858  0.0308 -0.6190 -0.6162
12789SOL     OW39416   2.085   3.465   6.935  0.3480 -0.0464 -0.0844
12789SOL    HW139417   2.038   3.388   6.904  0.5868  1.1797 -4.0626
12789SOL    HW239418   2.021   3.536   6.929 -0.6767  0.0066  5.8957
12790SOL     OW39419   1.916   0.412   3.699 -0.0996 -0.0581 -0.0357
12790SOL    HW139420   1.833   0.451   3.672 -0.5460 -0.2945  0.9518
12790SOL    HW239421   1.982   0.477   3.676 -0.8712  1.6011  2.0943
12791SOL     OW39422   2.891   3.665   7.899 -0.1336 -0.0850 -0.0158
12791SOL    HW139423   2.878   3.724   7.825  0.9197 -1.5670 -1.4486
12791SOL    HW239424   2.966   3.702   7.946  1.2685 -0.8303 -1.5596
12792SOL     OW39425   8.231   1.172   7.345  0.2659  0.7083 -0.3876
12792SOL    HW139426   8.159   1.176   7.408  0.5615 -1.8842  0.2029
12792SOL    HW239427   8.192   1.203   7.263 -1.2638  0.2855  0.1408
12793SOL     OW39428   7.969   5.508   4.978  0.0434 -0.3853 -0.3631
12793SOL    HW139429   7.927   5.490   5.062 -0.7731 -0.0226 -0.6862
12793SOL    HW239430   8.039   5.569   5.000 -0.7804  0.4779 -0.0668
12794SOL     OW39431   1.777   6.114   2.010 -0.3166  0.4288 -0.7827
12794SOL    HW139432   1.831   6.092   2.086 -1.2532  1.0234  0.0943
12794SOL    HW239433   1.832   6.174   1.959  0.8525 -1.0462 -1.3244
12795SOL     OW39434   1.984   0.281   3.363  0.4358 -0.4005  0.2269
12795SOL    HW139435   2.069   0.237   3.368  0.4583 -0.7466 -2.1910
12795SOL    HW239436   2.002   0.361   3.314 -0.3369  0.4262  1.2480
12796SOL     OW39437   3.401   7.428   8.199 -0.5048  0.0278 -0.5407
12796SOL    HW139438   3.410   7.465   8.287  0.0958  1.3392 -1.1130
12796SOL    HW239439   3.325   7.472   8.162  0.3211  0.8864 -1.2955
12797SOL     OW39440   0.521   1.099   2.598 -0.1194  0.2453  0.0949
12797SOL    HW139441   0.569   1.147   2.666  0.4170 -0.5293  0.2712
12797SOL    HW239442   0.587   1.082   2.530 -0.8108  1.6910 -1.0182
12798SOL     OW39443   2.085   0.798   5.421 -0.6898  0.1887  0.0674
12798SOL    HW139444   2.038   0.851   5.356 -0.7281 -0.7694 -0.7086
12798SOL    HW239445   2.165   0.771   5.377 -0.6021 -0.2766  0.5038
12799SOL     OW39446   6.361   6.579   1.123 -0.9045 -0.1059 -0.0348
12799SOL    HW139447   6.348   6.617   1.036  1.9480  1.8717  0.2464
12799SOL    HW239448   6.360   6.485   1.109  0.4285  0.1698 -2.4365
12800SOL     OW39449   3.696   1.287   5.577  0.8326  0.1363  0.2472
12800SOL    HW139450   3.631   1.333   5.629  1.3563  0.7503  0.3776
12800SOL    HW239451   3.664   1.293   5.487 -0.1026 -0.9787  0.4879
12801SOL     OW39452   0.350   4.507   4.733 -0.4117  0.4017  0.1562
12801SOL    HW139453   0.269   4.525   4.780 -1.6866  1.3377 -2.2573
12801SOL    HW239454   0.344   4.414   4.710  0.1065  0.0002  1.4937
12802SOL     OW39455   5.726   0.230   6.290  0.1711  0.4434  0.5885
12802SOL    HW139456   5.658   0.279   6.336  0.4832  0.3666  1.1492
12802SOL    HW239457   5.805   0.246   6.341  0.0887 -1.4542  1.4064
12803SOL     OW39458   7.620   8.239   1.530 -0.2854 -0.1408  0.0383
12803SOL    HW139459   7.555   8.280   1.587  0.4106  0.9992  0.0285
12803SOL    HW239460   7.646   8.159   1.577 -0.3211  0.3520  0.9154
12804SOL     OW39461   8.169   3.665   1.721 -0.1557 -0.3345  0.4640
12804SOL    HW139462   8.116   3.727   1.670 -0.6613  0.7741  2.2542
12804SOL    HW239463   8.105   3.604   1.757  0.0284 -0.2418  0.9440
12805SOL     OW39464   7.051   2.848   6.931  0.4027 -0.2083  0.2069
12805SOL    HW139465   7.017   2.781   6.871  1.1507 -1.5593  1.2441
12805SOL    HW239466   7.112   2.898   6.878 -0.2417 -0.2638 -0.6156
12806SOL     OW39467   7.424   1.151   5.566 -0.1242  0.2677 -0.0592
12806SOL    HW139468   7.513   1.131   5.596  0.2424  0.3726 -1.0649
12806SOL    HW239469   7.375   1.070   5.581 -0.6904  1.0996  3.4106
12807SOL     OW39470   2.775   5.400   0.566  0.1919  0.3522  0.5810
12807SOL    HW139471   2.819   5.475   0.607  0.0245  0.6321  0.2472
12807SOL    HW239472   2.842   5.361   0.510  0.3456  0.1167  0.9197
12808SOL     OW39473   5.542   5.161   1.320  0.4064 -0.1122 -0.0339
12808SOL    HW139474   5.497   5.112   1.390 -1.2060  0.3222 -0.7354
12808SOL    HW239475   5.535   5.252   1.346  2.4209 -0.1017  0.6891
12809SOL     OW39476   2.095   5.162   6.526  0.0404 -0.2015  0.4034
12809SOL    HW139477   2.045   5.217   6.465 -0.8483 -0.4517  0.8977
12809SOL    HW239478   2.052   5.077   6.523  0.1573 -0.2908  1.1896
12810SOL     OW39479   3.392   0.456   6.036 -0.0517  0.5096 -0.4294
12810SOL    HW139480   3.377   0.513   5.961 -0.3301 -0.2958 -1.0112
12810SOL    HW239481   3.333   0.382   6.022  0.6606 -0.1724  0.0190
12811SOL     OW39482   0.626   5.443   4.874 -0.3991 -0.0612  0.3949
12811SOL    HW139483   0.572   5.379   4.920  1.3421  0.5730  3.6381
12811SOL    HW239484   0.706   5.396   4.851 -0.9987 -0.2008 -1.5600
12812SOL     OW39485   5.242   0.127   1.508 -0.2964  0.2249 -0.2002
12812SOL    HW139486   5.246   0.058   1.441 -2.2508  0.3184 -0.4600
12812SOL    HW239487   5.219   0.081   1.589 -1.0133  0.4916 -0.2494
12813SOL     OW39488   3.629   3.132   0.085 -0.0332 -0.7180 -0.4121
12813SOL    HW139489   3.659   3.217   0.053  0.4305 -0.6046  0.3092
12813SOL    HW239490   3.709   3.088   0.115 -0.5317 -0.5205  1.2875
12814SOL     OW39491   0.109   2.425   6.126  0.1096 -0.0479 -0.5491
12814SOL    HW139492   0.089   2.519   6.126 -0.3134 -0.1364 -1.0349
12814SOL    HW239493   0.027   2.383   6.100  0.2091 -0.5772 -0.0356
12815SOL     OW39494   2.552   3.925   6.205 -0.6600  0.1537 -0.2875
12815SOL    HW139495   2.492   3.883   6.267 -0.4421 -1.1318 -0.9279
12815SOL    HW239496   2.514   3.907   6.119 -1.4705  2.7243 -0.5505
12816SOL     OW39497   3.207   1.255   6.500  0.0968  0.2116  0.3987
12816SOL    HW139498   3.287   1.297   6.533 -0.4676  0.2379  1.7891
12816SOL    HW239499   3.172   1.317   6.437  1.7670 -0.3050 -1.1361
12817SOL     OW39500   7.606   3.701   0.345  0.0558 -0.2362  0.2031
12817SOL    HW139501   7.583   3.610   0.328  0.1606 -0.5879  1.7448
12817SOL    HW239502   7.623   3.739   0.259 -1.9990 -1.1038 -0.6487
12818SOL     OW39503   0.342   4.631   1.506 -0.3458 -0.4298  0.7914
12818SOL    HW139504   0.424   4.675   1.483 -0.2715 -0.7047  0.5149
12818SOL    HW239505   0.340   4.632   1.601  1.4483 -2.9908  0.9737
12819SOL     OW39506   6.106   3.284   0.373 -0.0222 -0.4148 -0.1287
12819SOL    HW139507   6.130   3.297   0.281 -0.9650  0.4872 -0.2624
12819SOL    HW239508   6.190   3.285   0.420  0.4460 -0.6455 -0.9477
12820SOL     OW39509   5.385   6.254   5.106 -0.1505 -0.5455 -0.2976
12820SOL    HW139510   5.348   6.299   5.030  0.2726  0.6678  0.1798
12820SOL    HW239511   5.348   6.166   5.103 -0.3573 -0.4252 -1.7421
12821SOL     OW39512   2.681   6.023   2.931  0.5534  0.6556 -0.9381
12821SOL    HW139513   2.718   5.936   2.919 -1.4086 -0.4244  0.3467
12821SOL    HW239514   2.706   6.071   2.851  0.4051 -1.5551 -2.3947
12822SOL     OW39515   0.100   2.538   4.752  0.3789 -0.7543 -0.2155
12822SOL    HW139516   0.055   2.557   4.670 -0.9144  3.8958  1.2431
12822SOL    HW239517   0.192   2.555   4.734 -0.0867  2.0087 -0.4724
12823SOL     OW39518   5.905   1.354   1.768 -0.3940  0.1335  0.3178
12823SOL    HW139519   5.977   1.413   1.744 -0.2389 -0.6068 -1.1833
12823SOL    HW239520   5.826   1.407   1.755 -0.2494  0.0819 -0.8461
12824SOL     OW39521   2.885   1.344   0.746  0.4007  0.3187  0.0311
12824SOL    HW139522   2.874   1.384   0.659 -0.9921  0.6908  0.3654
12824SOL    HW239523   2.842   1.405   0.806  0.0781 -0.6602  0.8100
12825SOL     OW39524   6.014   0.183   4.596  0.0419  0.2376 -0.2938
12825SOL    HW139525   6.086   0.236   4.630  1.5236 -0.3301 -2.3590
12825SOL    HW239526   5.959   0.165   4.673  0.9126  2.4751  0.9402
12826SOL     OW39527   7.126   8.136   2.284 -0.0094 -0.3079  0.2433
12826SOL    HW139528   7.096   8.049   2.260 -1.3512  0.6435 -1.9174
12826SOL    HW239529   7.074   8.195   2.229  1.0443  1.8463  1.4093
12827SOL     OW39530   4.414   3.302   4.969 -0.4111 -0.2481 -0.2501
12827SOL    HW139531   4.455   3.220   4.996  0.4997 -0.0219 -0.9020
12827SOL    HW239532   4.453   3.369   5.025 -0.5112 -0.1388 -0.3084
12828SOL     OW39533   4.250   7.326   5.184 -0.1471 -0.3657  0.2654
12828SOL    HW139534   4.334   7.346   5.143  0.6106 -1.0676  1.4482
12828SOL    HW239535   4.193   7.304   5.110  0.9838 -0.8935 -0.4835
12829SOL     OW39536   4.317   7.368   1.968  0.1082  0.5712 -0.1290
12829SOL    HW139537   4.331   7.283   2.011  0.1545 -0.5193 -2.1787
12829SOL    HW239538   4.289   7.426   2.039  2.5154 -0.4554  1.8505
12830SOL     OW39539   3.673   1.673   0.160  0.0107 -0.6975  0.1845
12830SOL    HW139540   3.588   1.715   0.172 -0.3601 -1.2225 -0.5513
12830SOL    HW239541   3.667   1.630   0.075  1.3642  0.0611 -0.3269
12831SOL     OW39542   4.471   0.384   6.706  0.3511 -0.7834 -0.2288
12831SOL    HW139543   4.496   0.349   6.620 -0.7305 -1.9635 -0.0982
12831SOL    HW239544   4.529   0.339   6.767  1.2772  0.2256 -0.3326
12832SOL     OW39545   6.145   2.845   3.594 -0.0918 -0.1487 -0.0257
12832SOL    HW139546   6.104   2.898   3.663  1.8913  0.1113  1.0089
12832SOL    HW239547   6.073   2.827   3.533 -2.3150 -1.5412  2.7322
12833SOL     OW39548   5.563   1.591   4.705 -0.1843 -0.0711 -0.0056
12833SOL    HW139549   5.514   1.640   4.639  0.5687 -0.6589 -1.0123
12833SOL    HW239550   5.651   1.583   4.669  0.5751  0.6299  1.6027
12834SOL     OW39551   5.689   7.634   0.737 -0.1252  0.6318 -0.1032
12834SOL    HW139552   5.673   7.610   0.646  0.5151 -3.1437  0.6122
12834SOL    HW239553   5.781   7.661   0.739  1.3700 -3.7390 -0.0431
12835SOL     OW39554   0.515   8.082   4.972  0.2975  0.4284 -0.4165
12835SOL    HW139555   0.524   8.072   4.877 -1.0547  0.6824 -0.5913
12835SOL    HW239556   0.496   8.175   4.985  0.1592  0.3360  0.0732
12836SOL     OW39557   5.683   7.155   6.830 -0.2139  0.6774  0.6924
12836SOL    HW139558   5.596   7.167   6.794  0.6222  2.6012 -0.8289
12836SOL    HW239559   5.740   7.145   6.754  1.0179  0.2029  1.6364
12837SOL     OW39560   4.938   0.352   0.975 -0.7868 -0.0501 -0.1410
12837SOL    HW139561   4.846   0.354   0.948 -0.7824 -1.4350 -0.3406
12837SOL    HW239562   4.987   0.356   0.894 -0.7179 -1.1495 -0.1674
12838SOL     OW39563   7.710   8.268   2.090  0.3741 -0.0830  0.1587
12838SOL    HW139564   7.780   8.320   2.053 -1.8099  2.0525 -1.2870
12838SOL    HW239565   7.704   8.297   2.182  0.3963  0.8826 -0.1340
12839SOL     OW39566   6.718   1.385   2.037  0.0007 -0.6811 -0.4436
12839SOL    HW139567   6.702   1.469   2.080 -0.2622 -1.1792  0.4376
12839SOL    HW239568   6.655   1.325   2.076  1.0868 -1.6183 -0.0982
12840SOL     OW39569   2.611   5.962   5.655  0.4108  0.1794  0.2160
12840SOL    HW139570   2.537   5.911   5.687  1.2540  0.0521  2.0433
12840SOL    HW239571   2.682   5.898   5.644  1.2627  0.7982  1.8406
12841SOL     OW39572   1.905   2.606   3.410 -0.0022  0.2607 -0.3497
12841SOL    HW139573   1.938   2.683   3.363 -0.0173  0.5736  0.1482
12841SOL    HW239574   1.811   2.609   3.397 -0.1482  1.0745  0.7688
12842SOL     OW39575   3.260   7.770   2.695 -0.0682 -0.1641 -0.2247
12842SOL    HW139576   3.356   7.767   2.698 -0.0494 -0.5493  3.3686
12842SOL    HW239577   3.239   7.861   2.674  1.2926  1.1912  3.4076
12843SOL     OW39578   4.581   4.457   0.606 -0.1543 -0.2243  0.0133
12843SOL    HW139579   4.587   4.361   0.600  0.5928 -0.1738 -0.2086
12843SOL    HW239580   4.634   4.488   0.533 -0.0724  0.3600  0.3187
12844SOL     OW39581   4.732   1.089   7.218  0.0297  0.4567  0.0526
12844SOL    HW139582   4.797   1.019   7.215 -0.9090 -0.4206 -1.4618
12844SOL    HW239583   4.653   1.049   7.181 -1.2201  1.6385  1.3347
12845SOL     OW39584   7.278   0.549   8.123  0.0755 -0.6813 -0.6005
12845SOL    HW139585   7.357   0.587   8.162 -0.3920  0.3342 -0.5950
12845SOL    HW239586   7.210   0.615   8.138 -1.2582 -2.3278  1.1187
12846SOL     OW39587   1.156   3.496   4.335 -0.4122 -0.2950  0.3823
12846SOL    HW139588   1.125   3.417   4.380 -2.0429 -0.5510 -1.0407
12846SOL    HW239589   1.187   3.464   4.250 -1.1743  0.5582 -0.2473
12847SOL     OW39590   3.427   5.082   6.666  0.4129  0.1575 -0.1141
12847SOL    HW139591   3.403   4.996   6.633 -0.9574  0.4248  0.1440
12847SOL    HW239592   3.467   5.064   6.751  0.7546 -0.2662 -0.3592
12848SOL     OW39593   7.644   0.997   4.270  0.1506 -0.1120  0.4895
12848SOL    HW139594   7.667   1.073   4.324 -0.9680  0.0961  0.6804
12848SOL    HW239595   7.648   0.923   4.331 -2.3340  0.2764  1.2214
12849SOL     OW39596   7.774   5.951   3.047 -0.0655 -0.3225  0.0080
12849SOL    HW139597   7.828   6.021   3.010  0.0702 -0.3633  0.1263
12849SOL    HW239598   7.685   5.984   3.043 -0.4140 -1.2801 -2.6827
12850SOL     OW39599   4.025   1.284   0.606  0.4279 -0.3731  0.0499
12850SOL    HW139600   3.962   1.340   0.561  1.5369  0.7672 -0.1432
12850SOL    HW239601   4.023   1.202   0.558  1.6053  0.8217 -2.2073
12851SOL     OW39602   2.102   1.965   1.983  0.6989 -0.3363  0.2341
12851SOL    HW139603   2.146   1.896   2.034  2.1012 -1.7791 -2.6563
12851SOL    HW239604   2.010   1.956   2.006  1.2836 -0.4499  2.8964
12852SOL     OW39605   3.854   4.545   0.194 -0.0592 -0.1846  0.7107
12852SOL    HW139606   3.800   4.484   0.243 -1.7348  0.4173 -0.2850
12852SOL    HW239607   3.799   4.624   0.185  0.7736  0.2766 -0.7643
12853SOL     OW39608   3.017   6.405   0.580  0.1608  0.4679  0.2291
12853SOL    HW139609   3.034   6.321   0.624  1.2603  0.1715 -0.7335
12853SOL    HW239610   3.037   6.388   0.488 -3.1331  0.7549 -0.6835
12854SOL     OW39611   4.293   2.059   2.271  0.3847 -0.3228 -0.6914
12854SOL    HW139612   4.373   2.109   2.257  0.5787 -0.1980  0.7098
12854SOL    HW239613   4.271   2.074   2.363  0.1995 -2.4732 -0.3291
12855SOL     OW39614   5.692   5.112   5.398 -0.1107 -0.3362 -0.2581
12855SOL    HW139615   5.660   5.039   5.452  0.9566  0.9532  2.2896
12855SOL    HW239616   5.623   5.124   5.332 -1.9876 -1.4603  1.3589
12856SOL     OW39617   6.028   7.881   2.627  0.2990  0.0875  0.5195
12856SOL    HW139618   6.063   7.795   2.649 -0.9536 -0.4295  0.5138
12856SOL    HW239619   5.960   7.864   2.562 -0.1006  1.0605  0.6638
12857SOL     OW39620   3.721   2.630   2.028 -0.0340 -0.2054 -0.6294
12857SOL    HW139621   3.704   2.661   1.939  0.5046 -1.0563 -1.0416
12857SOL    HW239622   3.659   2.557   2.039 -0.1628 -0.0441 -0.2678
12858SOL     OW39623   1.811   6.761   6.785 -0.4544 -0.2520  0.2486
12858SOL    HW139624   1.745   6.826   6.761 -0.9655 -1.4900 -1.9270
12858SOL    HW239625   1.878   6.770   6.717 -0.2048 -1.5296  0.3135
12859SOL     OW39626   7.669   3.763   1.505  0.7104 -0.4026 -0.0775
12859SOL    HW139627   7.660   3.672   1.477 -0.0273 -0.1281 -0.7793
12859SOL    HW239628   7.665   3.813   1.424  2.5753  0.1841  0.1529
12860SOL     OW39629   0.478   2.793   5.806 -0.2050  0.1608 -0.8750
12860SOL    HW139630   0.481   2.885   5.782 -0.8926  0.2427 -0.6543
12860SOL    HW239631   0.390   2.779   5.841  0.3943 -0.1964  0.5944
12861SOL     OW39632   7.335   4.231   2.296 -0.4878  0.1031  0.4003
12861SOL    HW139633   7.332   4.296   2.226 -0.6578 -0.1291  0.1882
12861SOL    HW239634   7.388   4.159   2.260 -2.3453 -0.9681 -0.3254
12862SOL     OW39635   0.815   0.436   0.515 -0.3435  0.0805  0.3880
12862SOL    HW139636   0.765   0.389   0.582 -0.2253 -0.3214  0.1948
12862SOL    HW239637   0.907   0.418   0.536 -0.1597  2.2358  1.8052
12863SOL     OW39638   2.156   4.745   1.329  0.2956 -0.1680 -0.1602
12863SOL    HW139639   2.244   4.709   1.332  0.8454  1.0636 -0.8090
12863SOL    HW239640   2.102   4.674   1.294  1.4265 -0.2257 -1.8939
12864SOL     OW39641   7.371   3.116   5.088  0.5591  0.2461  0.1681
12864SOL    HW139642   7.457   3.109   5.047  0.8774 -0.3262  0.9031
12864SOL    HW239643   7.317   3.160   5.023  0.6287 -1.9347 -1.5121
12865SOL     OW39644   5.407   4.278   6.813 -0.3313  0.2134  0.3397
12865SOL    HW139645   5.450   4.301   6.731  0.3849  1.4247  1.0211
12865SOL    HW239646   5.320   4.318   6.807 -0.4623 -0.1180 -0.0167
12866SOL     OW39647   6.627   2.894   6.758  0.2754 -0.2852  0.3678
12866SOL    HW139648   6.656   2.980   6.728  1.0346 -0.4849  0.5148
12866SOL    HW239649   6.549   2.876   6.706  0.5341  0.1629 -0.1909
12867SOL     OW39650   4.368   5.919   1.814  0.4222 -0.0962 -0.3305
12867SOL    HW139651   4.387   5.891   1.903  1.5102  1.6650  0.0387
12867SOL    HW239652   4.404   5.849   1.758 -0.2692 -1.2073  0.5664
12868SOL     OW39653   4.721   6.027   4.944  0.5604 -0.3718  0.1796
12868SOL    HW139654   4.745   6.066   5.028  1.9849 -1.0184  0.0904
12868SOL    HW239655   4.640   5.978   4.963  1.6006 -1.6680  1.5436
12869SOL     OW39656   1.384   1.039   0.521 -0.2977 -0.1699  0.1000
12869SOL    HW139657   1.363   1.055   0.614 -0.1890 -2.7313  0.6279
12869SOL    HW239658   1.298   1.033   0.478 -0.3441  1.4454 -0.0863
12870SOL     OW39659   5.732   6.687   1.353 -0.0619 -0.4221 -0.3367
12870SOL    HW139660   5.641   6.659   1.359  0.5828 -2.7903 -0.4608
12870SOL    HW239661   5.747   6.739   1.432 -1.2320 -0.9331  0.2407
12871SOL     OW39662   1.218   2.791   4.134  0.0695 -0.5095  0.0127
12871SOL    HW139663   1.234   2.875   4.090  1.8899  0.2605  1.9941
12871SOL    HW239664   1.130   2.800   4.171 -0.3192 -0.0476 -0.9787
12872SOL     OW39665   1.375   1.417   3.369  0.1266  0.1667 -0.2241
12872SOL    HW139666   1.364   1.465   3.451  2.8003 -0.8800  0.8545
12872SOL    HW239667   1.341   1.329   3.387  0.3790  0.0421 -0.3376
12873SOL     OW39668   5.518   8.252   2.312 -0.0552  0.4264  0.1632
12873SOL    HW139669   5.435   8.237   2.267 -0.1850 -0.3181  0.6426
12873SOL    HW239670   5.496   8.252   2.405  0.5771 -0.4129  0.3228
12874SOL     OW39671   4.272   2.883   0.582 -0.0981 -0.6837  0.2875
12874SOL    HW139672   4.297   2.828   0.657  1.0205 -0.4812  0.0733
12874SOL    HW239673   4.347   2.879   0.523 -0.6548 -0.2039 -0.4690
12875SOL     OW39674   7.116   3.232   7.825 -0.3378  0.1619 -0.0177
12875SOL    HW139675   7.146   3.180   7.750  0.2592  1.4830 -0.7283
12875SOL    HW239676   7.029   3.262   7.800 -0.0745  0.7358 -0.2717
12876SOL     OW39677   7.621   3.242   7.414 -0.0552  0.0707  0.2666
12876SOL    HW139678   7.614   3.225   7.320 -0.3511  0.5320  0.2024
12876SOL    HW239679   7.713   3.223   7.435  0.1607  0.5181 -0.2314
12877SOL     OW39680   7.279   5.583   5.084 -0.2722 -0.4935  0.1072
12877SOL    HW139681   7.361   5.553   5.124 -0.8038 -0.8978  0.9050
12877SOL    HW239682   7.210   5.538   5.132 -1.0142  0.5727  0.0817
12878SOL     OW39683   3.240   5.368   0.474  0.0267 -0.3066  0.4014
12878SOL    HW139684   3.221   5.393   0.565 -1.2398 -1.3231  0.4348
12878SOL    HW239685   3.316   5.310   0.482 -0.8747 -1.4533  0.9803
12879SOL     OW39686   0.246   5.081   1.917  0.4338  0.7564  0.1328
12879SOL    HW139687   0.286   5.167   1.906  0.1458  1.0015  0.9436
12879SOL    HW239688   0.292   5.042   1.991 -0.0668  0.5927  0.3652
12880SOL     OW39689   3.809   6.455   1.261 -0.4274  0.7117  0.1687
12880SOL    HW139690   3.819   6.452   1.356  0.4136 -1.7367  0.0857
12880SOL    HW239691   3.719   6.485   1.247 -0.4788  1.3481  1.7100
12881SOL     OW39692   4.907   8.269   1.595  0.0387 -0.6526  0.3256
12881SOL    HW139693   4.941   8.280   1.507  1.1267 -2.2957  0.4987
12881SOL    HW239694   4.844   8.196   1.587 -1.6283  0.7008  0.4958
12882SOL     OW39695   0.811   4.341   0.410 -0.2780 -0.4795 -0.3629
12882SOL    HW139696   0.827   4.436   0.413  0.5933 -0.6291  0.2807
12882SOL    HW239697   0.896   4.304   0.386 -0.3293 -1.1605  0.4434
12883SOL     OW39698   5.898   7.411   0.130  0.0906  0.3482  0.3495
12883SOL    HW139699   5.943   7.383   0.209  2.2053 -2.2548 -1.6134
12883SOL    HW239700   5.935   7.498   0.111 -0.3928  0.9725  2.0823
12884SOL     OW39701   5.212   2.089   0.422 -0.3479  0.1088 -0.5555
12884SOL    HW139702   5.166   2.091   0.506 -0.3248  2.2501 -0.5329
12884SOL    HW239703   5.143   2.101   0.356 -0.3401 -1.3463 -0.8530
12885SOL     OW39704   0.476   4.066   6.438  0.1144 -0.2122  0.2754
12885SOL    HW139705   0.485   3.976   6.470 -0.7480 -0.2591  0.4368
12885SOL    HW239706   0.422   4.109   6.505  0.7597  0.5105  0.3434
12886SOL     OW39707   5.053   1.885   2.487  0.1557  0.0503 -0.6192
12886SOL    HW139708   5.117   1.927   2.546  0.0878 -0.0221 -0.4929
12886SOL    HW239709   5.098   1.880   2.403 -0.1271  1.1126 -0.8462
12887SOL     OW39710   0.649   5.589   1.145  0.5516  0.1230  0.3790
12887SOL    HW139711   0.673   5.533   1.071 -0.3028 -0.4521  0.5237
12887SOL    HW239712   0.656   5.679   1.111 -1.1569 -0.1588 -0.8416
12888SOL     OW39713   7.205   5.440   1.714  0.4875 -0.0517  0.1796
12888SOL    HW139714   7.177   5.515   1.767  0.2631  1.1303 -1.5466
12888SOL    HW239715   7.124   5.393   1.693  0.4010  0.3452 -0.3802
12889SOL     OW39716   7.950   5.274   4.037 -0.7655  0.3609 -0.6606
12889SOL    HW139717   7.859   5.302   4.045 -0.9284  0.4363 -2.4162
12889SOL    HW239718   7.967   5.275   3.943  0.5822 -1.1320 -0.4775
12890SOL     OW39719   7.350   4.232   5.493  0.2596 -0.0554 -0.2258
12890SOL    HW139720   7.446   4.237   5.498  0.3019 -0.1769 -0.9116
12890SOL    HW239721   7.323   4.318   5.461  0.1054  0.1179  0.3532
12891SOL     OW39722   2.014   3.263   6.771 -0.2983  0.6620 -0.1764
12891SOL    HW139723   2.073   3.291   6.702 -0.9995 -0.8311 -1.4500
12891SOL    HW239724   1.926   3.274   6.735 -0.7101  0.5834  0.7626
12892SOL     OW39725   5.663   0.985   5.388  0.5918 -0.1818  0.7797
12892SOL    HW139726   5.724   0.973   5.316 -0.3859 -0.2328 -0.0627
12892SOL    HW239727   5.694   0.924   5.455  2.1368  0.6324  0.8532
12893SOL     OW39728   6.547   8.196   6.846  0.7725 -0.1989  0.0641
12893SOL    HW139729   6.466   8.246   6.837  1.4235  0.7185 -0.9574
12893SOL    HW239730   6.546   8.136   6.772  1.2444  0.1480 -0.2278
12894SOL     OW39731   6.341   3.558   6.604  0.1630 -0.4208 -0.3400
12894SOL    HW139732   6.423   3.524   6.642 -1.1830 -1.5630  1.7966
12894SOL    HW239733   6.336   3.518   6.518  1.3412 -1.2296 -0.0555
12895SOL     OW39734   3.910   2.607   5.264  0.1752  0.1011  0.1421
12895SOL    HW139735   3.878   2.564   5.185  2.3459  1.4627 -1.5966
12895SOL    HW239736   3.976   2.548   5.299  0.4596  0.2687 -0.0981
12896SOL     OW39737   7.284   7.859   1.927 -0.5869  0.0166 -0.8678
12896SOL    HW139738   7.339   7.820   1.995 -1.1561 -1.2228 -1.0905
12896SOL    HW239739   7.275   7.790   1.861 -2.1938  0.2719 -0.9490
12897SOL     OW39740   0.843   1.907   7.332 -0.1208  0.2627 -0.1604
12897SOL    HW139741   0.803   1.929   7.416  1.0605 -0.7579  0.7155
12897SOL    HW239742   0.770   1.883   7.275 -1.1149  2.7495 -0.0410
12898SOL     OW39743   4.621   1.013   0.856  0.1239  0.3904 -0.2051
12898SOL    HW139744   4.578   0.945   0.805  1.6513 -0.8777  0.1035
12898SOL    HW239745   4.571   1.093   0.839 -1.7857 -0.8269 -0.4866
12899SOL     OW39746   0.748   2.487   3.199  0.1728 -0.0242 -0.1730
12899SOL    HW139747   0.716   2.489   3.290 -0.5433  0.2607 -0.4234
12899SOL    HW239748   0.731   2.397   3.170  2.4395 -0.8050  0.6575
12900SOL     OW39749   5.305   4.057   2.476  0.5175  0.3013 -0.0416
12900SOL    HW139750   5.314   3.981   2.534  0.6356  0.9911  0.8641
12900SOL    HW239751   5.328   4.023   2.389 -0.2821 -0.9033  0.1885
12901SOL     OW39752   0.823   2.795   7.927  0.0381 -0.3559 -0.1802
12901SOL    HW139753   0.910   2.769   7.897  0.9348  0.6045  1.4632
12901SOL    HW239754   0.822   2.890   7.917 -0.7244 -0.3356  0.0530
12902SOL     OW39755   2.059   3.354   0.291  0.1678  0.2674 -0.1544
12902SOL    HW139756   1.990   3.289   0.276  0.4330  0.0153 -0.2963
12902SOL    HW239757   2.036   3.427   0.235  0.7035 -0.3341 -1.1913
12903SOL     OW39758   5.898   6.043   8.233  0.5212  0.5272 -0.1743
12903SOL    HW139759   5.949   5.993   8.170 -0.0662 -1.0514  0.5559
12903SOL    HW239760   5.816   6.063   8.188  0.2897 -0.1938 -0.0809
12904SOL     OW39761   0.534   0.691   7.724  0.0661 -0.1190  0.4005
12904SOL    HW139762   0.604   0.693   7.658 -1.0044  0.0513 -0.7619
12904SOL    HW239763   0.544   0.774   7.771  1.0106 -0.3614  0.6616
12905SOL     OW39764   2.426   0.759   1.724  0.2452 -0.1735 -0.1407
12905SOL    HW139765   2.437   0.803   1.639 -2.5817 -0.9938 -1.0348
12905SOL    HW239766   2.411   0.830   1.786  3.1929  0.4990 -0.0677
12906SOL     OW39767   7.614   0.573   0.846  0.2186 -0.1120 -0.2759
12906SOL    HW139768   7.522   0.597   0.833  0.1842 -0.5194 -0.7849
12906SOL    HW239769   7.619   0.481   0.822  1.3802  0.6078 -3.2816
12907SOL     OW39770   2.295   0.353   7.539  0.1261  0.1304  0.4590
12907SOL    HW139771   2.321   0.421   7.602  1.0850  0.3535 -0.1621
12907SOL    HW239772   2.341   0.376   7.459 -0.3460 -0.6914 -0.0555
12908SOL     OW39773   1.308   5.482   2.520  0.3405  0.2068  0.3649
12908SOL    HW139774   1.361   5.424   2.465 -0.3968  0.1801 -0.3352
12908SOL    HW239775   1.326   5.453   2.609 -0.4249 -1.4737  0.0091
12909SOL     OW39776   4.180   4.647   2.021  0.2260  0.0018  0.3522
12909SOL    HW139777   4.231   4.718   1.980  1.0740 -1.2537 -0.8676
12909SOL    HW239778   4.090   4.678   2.018  0.8302  2.4519  2.9016
12910SOL     OW39779   0.299   0.861   7.186  0.2592 -0.1042 -0.2965
12910SOL    HW139780   0.259   0.945   7.168  0.6708  0.4112  1.0940
12910SOL    HW239781   0.380   0.861   7.135  0.7102  0.7415  0.3916
12911SOL     OW39782   4.997   2.436   7.125 -0.0071  0.2224 -0.6106
12911SOL    HW139783   4.970   2.416   7.035  0.2470  0.0394 -0.6463
12911SOL    HW239784   4.925   2.489   7.160  0.3964  1.2593 -1.2947
12912SOL     OW39785   1.282   6.053   7.406  0.3530 -0.0277 -0.4392
12912SOL    HW139786   1.207   6.020   7.456  0.6306  1.7596  1.2985
12912SOL    HW239787   1.254   6.140   7.377  1.8567  0.8540  0.6091
12913SOL     OW39788   6.338   5.445   7.878 -0.2089 -0.5305  0.0457
12913SOL    HW139789   6.397   5.391   7.825 -0.1716 -1.2230  0.7676
12913SOL    HW239790   6.397   5.497   7.932 -0.1085  2.6207 -2.7789
12914SOL     OW39791   2.275   0.985   1.235  0.3602 -0.3566 -0.0540
12914SOL    HW139792   2.295   1.033   1.155 -1.5621 -0.2705 -0.5308
12914SOL    HW239793   2.253   0.897   1.205  0.2173 -0.4899  0.4337
12915SOL     OW39794   0.804   3.347   3.911  0.3201  0.4097 -0.3945
12915SOL    HW139795   0.893   3.331   3.943  0.0670 -0.2744 -0.0078
12915SOL    HW239796   0.788   3.440   3.931 -0.2277 -0.2221  2.5644
12916SOL     OW39797   3.074   0.607   6.644 -0.1872 -0.1114  0.3113
12916SOL    HW139798   3.034   0.656   6.716 -0.5551  0.3022 -0.1590
12916SOL    HW239799   3.033   0.643   6.565  0.1787 -0.5801 -0.1040
12917SOL     OW39800   3.135   3.910   1.426  0.8954 -0.6025 -0.2138
12917SOL    HW139801   3.096   3.909   1.513  1.0932 -0.9764 -0.1290
12917SOL    HW239802   3.177   3.825   1.417  1.6549 -0.2198 -0.3315
12918SOL     OW39803   7.544   1.962   5.155 -0.0737  0.4581  0.1856
12918SOL    HW139804   7.484   2.034   5.172 -0.3259  0.3813 -0.3615
12918SOL    HW239805   7.622   2.004   5.117  0.7055  0.6911  1.9451
12919SOL     OW39806   6.966   1.399   1.340  0.2210 -0.3495  0.1995
12919SOL    HW139807   6.920   1.367   1.262  1.3147 -1.2916 -0.0940
12919SOL    HW239808   7.058   1.404   1.313  0.5447 -0.2055  1.2818
12920SOL     OW39809   6.464   1.108   4.771 -0.7060 -0.3450  0.4378
12920SOL    HW139810   6.486   1.077   4.683  1.1803 -0.3262  0.8441
12920SOL    HW239811   6.399   1.045   4.803  0.5270 -1.9408 -0.0151
12921SOL     OW39812   1.866   4.825   0.858  0.2888  0.4810 -0.1792
12921SOL    HW139813   1.831   4.821   0.769 -0.3027  1.1052  0.0087
12921SOL    HW239814   1.810   4.890   0.902 -0.9623 -1.4849  1.3204
12922SOL     OW39815   1.525   2.066   7.093 -0.0685  0.7787 -0.7379
12922SOL    HW139816   1.506   2.136   7.031 -0.0253 -0.0408 -1.6891
12922SOL    HW239817   1.458   2.076   7.162 -1.6959  0.1936 -2.1666
12923SOL     OW39818   3.978   1.288   4.076  0.5264 -0.1759  0.2068
12923SOL    HW139819   3.952   1.197   4.066 -0.4349 -0.0950  1.6701
12923SOL    HW239820   3.946   1.331   3.996 -0.8159 -0.7437  0.4091
12924SOL     OW39821   7.258   7.098   4.017 -0.5306  0.1506  0.4802
12924SOL    HW139822   7.309   7.142   3.949 -0.8910  0.2414  0.2658
12924SOL    HW239823   7.180   7.153   4.029 -0.1138  0.5410  1.5082
12925SOL     OW39824   4.243   4.358   8.145  0.1542  0.6940 -0.4167
12925SOL    HW139825   4.187   4.412   8.201 -1.6501  1.5684 -2.8643
12925SOL    HW239826   4.321   4.412   8.130  0.3088  0.7659  0.6078
12926SOL     OW39827   0.318   1.597   7.942  0.2802  0.1996  0.8532
12926SOL    HW139828   0.246   1.567   7.886  0.2219 -0.0714  1.0657
12926SOL    HW239829   0.298   1.688   7.961  0.0507  0.1569  0.8170
12927SOL     OW39830   4.551   4.336   2.876  0.0998  0.0815  0.0704
12927SOL    HW139831   4.463   4.358   2.843 -0.4690 -0.1121  1.4080
12927SOL    HW239832   4.606   4.335   2.797 -1.5813 -2.2543 -1.1977
12928SOL     OW39833   2.641   3.902   8.230  0.3178  0.2554  0.0453
12928SOL    HW139834   2.637   3.956   8.152 -1.0798  1.2947  0.7889
12928SOL    HW239835   2.678   3.959   8.297  2.6333 -0.9789 -0.0752
12929SOL     OW39836   3.094   5.406   1.914 -0.1648  0.0812  0.7653
12929SOL    HW139837   3.140   5.378   1.835 -0.7311  0.2984  0.3527
12929SOL    HW239838   3.037   5.332   1.936 -0.0185  0.0265  0.9673
12930SOL     OW39839   2.360   2.955   2.367 -0.5172 -0.2257  0.1436
12930SOL    HW139840   2.319   2.915   2.290 -1.4365  0.9472 -0.0075
12930SOL    HW239841   2.431   3.009   2.332  0.0264 -0.8541  0.2571
12931SOL     OW39842   3.503   6.727   3.392  0.9108 -0.1663 -0.0927
12931SOL    HW139843   3.437   6.779   3.437  1.4493  0.7929 -0.3744
12931SOL    HW239844   3.474   6.637   3.403 -0.4892  0.2323 -0.2909
12932SOL     OW39845   7.292   4.846   8.011  0.1734  0.1811  0.5055
12932SOL    HW139846   7.201   4.876   8.008  0.5252  1.1918 -1.0819
12932SOL    HW239847   7.288   4.753   7.992 -0.4908  0.3066  0.0264
12933SOL     OW39848   0.447   5.584   1.796  0.2261 -1.7498  1.1430
12933SOL    HW139849   0.381   5.606   1.862  0.3284  1.3470  0.3700
12933SOL    HW239850   0.528   5.623   1.830  0.5773 -1.3138 -0.1259
12934SOL     OW39851   8.156   5.750   4.580  0.0335 -0.2401 -0.4565
12934SOL    HW139852   8.186   5.690   4.511 -0.5887 -1.1216  0.0166
12934SOL    HW239853   8.212   5.827   4.570  0.4157 -0.6267 -1.5062
12935SOL     OW39854   6.361   5.597   1.987 -0.0584 -0.2305  0.4730
12935SOL    HW139855   6.293   5.531   1.977  0.9276 -1.8567  3.3329
12935SOL    HW239856   6.421   5.582   1.914 -1.9389  0.2888 -1.2505
12936SOL     OW39857   4.029   6.747   7.452  0.4180 -0.1053 -0.0660
12936SOL    HW139858   3.954   6.689   7.443 -0.7545  1.2416  0.6369
12936SOL    HW239859   4.002   6.829   7.410  2.1892 -0.1727 -1.4106
12937SOL     OW39860   0.062   5.167   3.443 -0.5613  0.0318  0.0408
12937SOL    HW139861   0.025   5.233   3.501 -2.1289  0.2842 -1.1770
12937SOL    HW239862  -0.014   5.125   3.404  0.4434 -1.0852 -0.7812
12938SOL     OW39863   6.785   3.798   0.046 -0.0650  0.1495  0.2087
12938SOL    HW139864   6.875   3.769   0.033 -0.0761  0.5078 -0.7776
12938SOL    HW239865   6.773   3.868  -0.018 -0.8506  0.5366  0.7590
12939SOL     OW39866   3.305   0.687   4.970  0.3404 -0.1538  0.2751
12939SOL    HW139867   3.363   0.702   4.896  0.9694  0.7478  0.9342
12939SOL    HW239868   3.225   0.736   4.949  0.2564 -0.4380 -0.0912
12940SOL     OW39869   2.636   3.880   3.725 -0.2937 -0.0612 -0.0545
12940SOL    HW139870   2.585   3.959   3.744  0.5608  0.6748 -0.7218
12940SOL    HW239871   2.727   3.911   3.718  0.0876 -1.1417 -0.0875
12941SOL     OW39872   4.144   6.329   8.079  0.1474 -0.7802  0.1137
12941SOL    HW139873   4.050   6.344   8.066 -0.2854 -1.7159  1.9406
12941SOL    HW239874   4.168   6.388   8.151  1.0424 -0.3805 -0.4847
12942SOL     OW39875   3.478   1.833   3.348  0.1313 -0.1670  0.3413
12942SOL    HW139876   3.517   1.777   3.415  0.7668  0.9421  0.9366
12942SOL    HW239877   3.386   1.807   3.346 -0.1192  0.3658  2.3149
12943SOL     OW39878   7.994   4.751   3.589  0.1289  0.4013 -0.6202
12943SOL    HW139879   7.912   4.773   3.634 -0.0779  1.1831 -1.3653
12943SOL    HW239880   7.966   4.715   3.505  0.5109 -1.1007 -0.1389
12944SOL     OW39881   0.695   6.502   7.099  0.1626  0.2881  0.1165
12944SOL    HW139882   0.694   6.558   7.178 -0.8257 -0.4470  0.6428
12944SOL    HW239883   0.603   6.494   7.074  0.0684 -2.4105  1.0145
12945SOL     OW39884   7.056   3.791   4.806  0.1079 -0.0810  0.0637
12945SOL    HW139885   7.136   3.795   4.754 -0.7092  0.2744 -1.2153
12945SOL    HW239886   7.070   3.719   4.867  1.1815 -0.3635 -0.5043
12946SOL     OW39887   8.278   3.419   3.788 -0.4432  0.1144 -0.1301
12946SOL    HW139888   8.183   3.428   3.789 -0.3306  1.5881  0.8976
12946SOL    HW239889   8.298   3.386   3.700 -1.8452  0.4169 -0.5937
12947SOL     OW39890   0.216   6.264   1.866 -0.2619 -0.0031 -0.3921
12947SOL    HW139891   0.247   6.240   1.779 -0.0344  2.4124 -1.0537
12947SOL    HW239892   0.138   6.317   1.850  0.2126  1.1152  0.7960
12948SOL     OW39893   7.505   1.447   4.908 -0.1614  0.4669 -0.8929
12948SOL    HW139894   7.519   1.415   4.997 -1.9258 -0.0940 -0.7635
12948SOL    HW239895   7.549   1.382   4.852 -1.5996 -0.8796 -0.5209
12949SOL     OW39896   1.672   5.721   1.697  0.1351  0.0315  0.2341
12949SOL    HW139897   1.646   5.634   1.726 -0.6414  0.5303  1.0691
12949SOL    HW239898   1.753   5.740   1.745 -0.7995  0.5904  1.6611
12950SOL     OW39899   4.353   3.892   0.170  0.1531  0.1329 -0.5284
12950SOL    HW139900   4.421   3.873   0.105  2.8456 -0.2425  2.1916
12950SOL    HW239901   4.308   3.969   0.135  2.8341  1.2210 -1.9160
12951SOL     OW39902   1.304   2.130   3.592  0.1605  0.0908  0.2840
12951SOL    HW139903   1.219   2.151   3.629 -0.0071 -1.5820  0.9431
12951SOL    HW239904   1.299   2.158   3.500 -1.4022 -0.7170  0.0992
12952SOL     OW39905   1.692   3.703   6.250 -0.1490  0.6004  0.3109
12952SOL    HW139906   1.683   3.608   6.260  1.5497  0.4925  1.1227
12952SOL    HW239907   1.643   3.739   6.325  0.1746  0.3196  0.6614
12953SOL     OW39908   2.066   2.492   0.465 -0.4750  0.3915 -0.5571
12953SOL    HW139909   2.084   2.462   0.376 -1.6260  0.7969 -0.9521
12953SOL    HW239910   2.002   2.429   0.498  0.7480 -0.3861  0.3940
12954SOL     OW39911   6.577   4.664   3.521 -0.2104 -0.1987  0.5176
12954SOL    HW139912   6.521   4.733   3.486  1.7217  0.8532 -0.7310
12954SOL    HW239913   6.518   4.604   3.566 -2.2626  0.9064 -0.5941
12955SOL     OW39914   7.209   6.826   1.365  0.1891 -0.0915  0.2456
12955SOL    HW139915   7.169   6.747   1.402 -0.0607  0.1061  0.3975
12955SOL    HW239916   7.267   6.858   1.435  2.5808 -1.7681 -0.8415
12956SOL     OW39917   0.688   7.133   8.188  0.7731  0.4796 -0.8743
12956SOL    HW139918   0.630   7.205   8.213  0.5706 -0.1535  0.5886
12956SOL    HW239919   0.631   7.056   8.183  1.1116  0.2629 -1.7050
12957SOL     OW39920   5.533   4.745   4.225  0.6816 -0.3439  0.7139
12957SOL    HW139921   5.462   4.724   4.286  0.3667 -2.5772 -0.3686
12957SOL    HW239922   5.572   4.825   4.262 -1.0164 -0.2637  2.5018
12958SOL     OW39923   1.642   3.444   1.027  0.0548  0.6286 -0.3408
12958SOL    HW139924   1.705   3.507   1.060  0.7809  0.2955 -1.0549
12958SOL    HW239925   1.598   3.410   1.106  0.2423  1.4025  0.1015
12959SOL     OW39926   1.469   5.503   0.535 -0.1185 -0.2320 -0.0320
12959SOL    HW139927   1.544   5.444   0.541 -0.4585 -0.5259  2.7167
12959SOL    HW239928   1.475   5.541   0.447  1.3914 -2.6324 -1.0699
12960SOL     OW39929   1.566   6.956   2.369 -0.0397  0.4161  0.5989
12960SOL    HW139930   1.518   6.896   2.312  1.3704  0.7068 -0.9482
12960SOL    HW239931   1.637   6.903   2.406  2.2951  1.3781 -2.1302
12961SOL     OW39932   6.993   6.928   7.485 -0.4007  0.5227  0.0253
12961SOL    HW139933   7.080   6.947   7.522  0.3640  0.2922 -1.5737
12961SOL    HW239934   6.983   6.993   7.415  0.0616 -1.6286 -2.1779
12962SOL     OW39935   5.830   6.454   6.271 -0.4319  0.0265  0.4304
12962SOL    HW139936   5.810   6.382   6.331 -2.4033  2.6369  3.2018
12962SOL    HW239937   5.754   6.459   6.213 -0.8585  0.5560  1.0200
12963SOL     OW39938   7.072   6.219   6.065  0.1025 -0.2570 -0.1066
12963SOL    HW139939   7.136   6.290   6.072  0.3204 -0.5688  1.2609
12963SOL    HW239940   7.125   6.141   6.048  0.0939 -0.5020  0.9443
12964SOL     OW39941   7.912   6.651   5.128  0.4175 -0.1789 -0.3791
12964SOL    HW139942   7.860   6.644   5.048  0.2652  1.6079 -0.4732
12964SOL    HW239943   7.997   6.614   5.104 -0.0773 -1.0297 -0.8945
12965SOL     OW39944   3.133   6.120   0.602  0.6467  0.0258 -0.0808
12965SOL    HW139945   3.197   6.089   0.666  1.7957 -0.0284 -1.1882
12965SOL    HW239946   3.187   6.162   0.534 -0.2228 -2.1279 -2.2821
12966SOL     OW39947   1.557   7.135   3.059 -0.1445  0.1155  0.6634
12966SOL    HW139948   1.524   7.125   2.970 -0.0664 -1.8430  0.8136
12966SOL    HW239949   1.646   7.169   3.048 -0.2359  0.1589  0.0191
12967SOL     OW39950   3.464   0.645   4.740 -0.0556  0.2184 -0.2187
12967SOL    HW139951   3.507   0.622   4.658  0.3929  1.8067 -0.4600
12967SOL    HW239952   3.537   0.659   4.802 -0.4036 -2.6063  0.9804
12968SOL     OW39953   0.625   5.000   4.634  0.2268  0.6393 -0.0104
12968SOL    HW139954   0.585   5.075   4.591 -2.1768 -0.0713  0.8321
12968SOL    HW239955   0.626   4.931   4.568 -1.2381  0.2700  0.3210
12969SOL     OW39956   7.264   3.067   3.883 -0.7899 -0.3062  0.2528
12969SOL    HW139957   7.297   3.114   3.806 -0.3263 -1.5823 -0.3584
12969SOL    HW239958   7.282   2.975   3.864  0.7955 -0.5642  2.5693
12970SOL     OW39959   4.691   7.226   3.005 -0.3898 -0.1109  0.0368
12970SOL    HW139960   4.722   7.256   2.919 -0.3759  1.6991  0.6335
12970SOL    HW239961   4.603   7.262   3.013 -1.1814 -1.9509 -0.0187
12971SOL     OW39962   1.981   0.997   5.735 -0.7243  0.2784 -0.0207
12971SOL    HW139963   2.033   0.920   5.760 -2.3737 -2.0623 -3.1495
12971SOL    HW239964   1.897   0.962   5.707 -0.9876  2.9740 -3.2803
12972SOL     OW39965   3.987   7.643   6.137  0.2453 -0.4662  0.1658
12972SOL    HW139966   3.980   7.594   6.219  0.4574  0.6148  0.8478
12972SOL    HW239967   4.001   7.734   6.164 -2.9999  0.5103 -0.9807
12973SOL     OW39968   6.534   1.700   7.823  0.3692  0.1785 -0.0524
12973SOL    HW139969   6.556   1.778   7.873  1.0133 -0.1280  0.1535
12973SOL    HW239970   6.602   1.693   7.757  1.4155 -1.2231  1.0960
12974SOL     OW39971   4.834   0.966   2.186  0.2692  0.2653 -0.1662
12974SOL    HW139972   4.850   0.882   2.145  1.1450  0.0724  0.5316
12974SOL    HW239973   4.919   1.010   2.185  0.0887  0.6535  0.5334
12975SOL     OW39974   7.414   1.152   1.407 -0.0248 -0.0341 -0.1047
12975SOL    HW139975   7.426   1.088   1.478 -1.2157  0.5688  0.6798
12975SOL    HW239976   7.381   1.100   1.334 -0.2259 -0.4363  0.2649
12976SOL     OW39977   1.802   5.372   3.118 -0.7889  0.2024  0.2867
12976SOL    HW139978   1.877   5.364   3.177  0.3846 -1.0766 -1.2881
12976SOL    HW239979   1.754   5.448   3.150  0.3220  0.1218  2.2835
12977SOL     OW39980   4.752   7.694   5.899 -0.2016  0.0148  0.2436
12977SOL    HW139981   4.806   7.614   5.897  1.3123  0.9382  1.5699
12977SOL    HW239982   4.735   7.713   5.807 -0.5990 -1.8196 -0.1090
12978SOL     OW39983   0.306   5.143   6.162 -0.2031 -0.1922 -0.4076
12978SOL    HW139984   0.265   5.134   6.076 -0.5477  0.0734 -0.2739
12978SOL    HW239985   0.358   5.063   6.172  1.3130  0.5712 -1.6483
12979SOL     OW39986   7.616   3.505   7.290 -0.1245  0.3302 -0.2477
12979SOL    HW139987   7.609   3.436   7.355 -0.5005  1.5249  1.0274
12979SOL    HW239988   7.554   3.479   7.221  1.1391 -1.5383 -0.7558
12980SOL     OW39989   6.858   0.936   8.029  0.5088  0.0031  0.2135
12980SOL    HW139990   6.889   0.892   8.108 -0.8363 -0.2730  0.6287
12980SOL    HW239991   6.901   1.021   8.030  0.2527  0.1426  1.4516
12981SOL     OW39992   1.467   3.413   4.495  0.0508  0.1688 -0.3466
12981SOL    HW139993   1.474   3.356   4.572  1.6532  0.6503 -0.1054
12981SOL    HW239994   1.447   3.499   4.531 -0.4594  0.1533 -0.5807
12982SOL     OW39995   1.520   8.232   1.633  0.6059  0.0778 -0.0720
12982SOL    HW139996   1.449   8.295   1.622  0.8814  0.6957  1.4314
12982SOL    HW239997   1.492   8.156   1.582 -0.2561  0.9902 -1.0101
12983SOL     OW39998   5.495   6.592   2.574  0.8324  0.6728  0.0676
12983SOL    HW139999   5.450   6.675   2.587 -0.0701  0.0722  0.9629
12983SOL    HW240000   5.534   6.572   2.659 -1.2675 -1.1067  0.7131
12984SOL     OW40001   0.145   1.624   3.813  0.1704  0.4618 -0.6647
12984SOL    HW140002   0.140   1.642   3.719  0.0583  0.4649 -0.6586
12984SOL    HW240003   0.073   1.563   3.829  0.5232  0.0328 -0.6814
12985SOL     OW40004   0.974   0.733   8.148 -0.0061 -0.5293  0.1784
12985SOL    HW140005   1.011   0.651   8.114  0.6161 -0.1914  0.0213
12985SOL    HW240006   0.925   0.770   8.074  0.5669 -0.2575 -0.0717
12986SOL     OW40007   2.885   0.085   2.204  0.2812  0.4248 -0.1044
12986SOL    HW140008   2.975   0.059   2.224 -0.7541 -2.4674  1.4940
12986SOL    HW240009   2.831   0.021   2.251 -2.6339  2.1242 -0.8829
12987SOL     OW40010   1.054   5.901   7.861 -0.0995  0.2811 -0.2102
12987SOL    HW140011   1.076   5.936   7.775 -3.5096 -0.0093 -1.3730
12987SOL    HW240012   0.961   5.923   7.873 -0.1025 -0.8539  2.8201
12988SOL     OW40013   0.053   3.130   1.893  0.3724 -0.2054 -0.2167
12988SOL    HW140014  -0.009   3.144   1.964  0.2302  1.7380 -0.6701
12988SOL    HW240015   0.004   3.080   1.828 -0.1078 -0.3287  0.2381
12989SOL     OW40016   5.671   1.902   1.077 -0.0123 -0.2205 -0.6901
12989SOL    HW140017   5.699   1.870   0.992  2.7872 -0.1370  0.1020
12989SOL    HW240018   5.703   1.992   1.081  1.1380 -0.6515  0.9387
12990SOL     OW40019   7.300   1.628   0.498 -0.0727 -0.4140  0.6546
12990SOL    HW140020   7.206   1.615   0.508 -0.4176 -0.7811 -2.1837
12990SOL    HW240021   7.308   1.709   0.447  1.1335 -0.4863  0.7065
12991SOL     OW40022   1.283   7.219   1.404  0.5725  0.2048  0.2862
12991SOL    HW140023   1.365   7.194   1.361  1.1302  0.6313  1.0844
12991SOL    HW240024   1.261   7.305   1.366  0.1915 -0.1529 -0.3273
12992SOL     OW40025   1.462   6.931   1.973  0.1120  0.0480 -0.3338
12992SOL    HW140026   1.537   6.985   1.995 -0.1943  0.6454 -0.7090
12992SOL    HW240027   1.428   6.900   2.057 -0.0496  0.9135 -0.0673
12993SOL     OW40028   3.638   3.500   4.045  0.2303  0.1015  0.6012
12993SOL    HW140029   3.724   3.527   4.013  0.1103 -0.5146 -0.2944
12993SOL    HW240030   3.602   3.447   3.974 -0.6658 -0.0995  1.1881
12994SOL     OW40031   3.297   3.286   7.457  0.7993  0.1295 -0.1607
12994SOL    HW140032   3.250   3.306   7.376 -0.0959 -0.4311  0.2038
12994SOL    HW240033   3.337   3.200   7.441 -0.4219 -0.5747  0.4094
12995SOL     OW40034   1.711   5.386   0.598 -0.4018 -0.6398 -0.0409
12995SOL    HW140035   1.705   5.335   0.679  0.8820 -0.8085 -0.0353
12995SOL    HW240036   1.798   5.426   0.601 -0.3751 -0.5653 -1.2761
12996SOL     OW40037   4.831   6.441   4.853  0.2237 -0.4702  0.5028
12996SOL    HW140038   4.847   6.501   4.926 -0.3942 -0.7436  0.8644
12996SOL    HW240039   4.910   6.386   4.850 -0.3176 -1.3926  1.8818
12997SOL     OW40040   2.279   3.698   6.110 -0.2635  0.0270 -0.3495
12997SOL    HW140041   2.188   3.715   6.088  0.1753  2.8236 -0.2839
12997SOL    HW240042   2.293   3.741   6.194  1.1040 -0.4511 -0.2940
12998SOL     OW40043   6.272   0.315   3.410 -0.4095 -0.0591  0.2768
12998SOL    HW140044   6.230   0.232   3.436 -0.8939  0.9822  3.1636
12998SOL    HW240045   6.317   0.294   3.329 -0.7811 -3.0827  0.7319
12999SOL     OW40046   4.319   0.961   6.842  0.0161  0.0808 -0.2924
12999SOL    HW140047   4.370   0.885   6.813  1.3439  0.9807 -0.4036
12999SOL    HW240048   4.383   1.017   6.886 -0.7046  1.6432 -1.1598
13000SOL     OW40049   0.253   4.806   4.049  0.1931 -0.0902  0.0474
13000SOL    HW140050   0.227   4.876   3.989 -1.8371  0.2795  1.2593
13000SOL    HW240051   0.183   4.741   4.042 -0.7987  0.5065  2.7805
13001SOL     OW40052   4.731   1.876   7.380 -0.1964  0.1568  0.0727
13001SOL    HW140053   4.802   1.812   7.381  1.6325  2.0978 -0.0146
13001SOL    HW240054   4.738   1.917   7.294 -1.3570  0.4997  0.1273
13002SOL     OW40055   1.616   2.895   1.373  0.5179  0.4116  0.5039
13002SOL    HW140056   1.688   2.942   1.415  1.4793 -0.1747 -0.4298
13002SOL    HW240057   1.648   2.877   1.284 -0.0807 -1.3569  0.6006
13003SOL     OW40058   5.473   3.712   8.264 -0.4686  0.0420  0.5107
13003SOL    HW140059   5.546   3.689   8.206 -0.0960 -0.0023  0.9922
13003SOL    HW240060   5.404   3.742   8.205  0.2075  0.7977  0.0858
13004SOL     OW40061   3.729   1.152   4.531  0.4419 -0.1380 -0.2576
13004SOL    HW140062   3.728   1.076   4.473 -1.2749 -0.2260 -0.1626
13004SOL    HW240063   3.699   1.224   4.476 -1.9071 -0.3602  0.6376
13005SOL     OW40064   6.859   4.635   5.309  0.3641 -0.0073 -0.0315
13005SOL    HW140065   6.923   4.584   5.258 -0.1727 -0.0447 -0.6824
13005SOL    HW240066   6.774   4.599   5.284 -0.0016  0.9519 -0.2157
13006SOL     OW40067   3.302   4.403   0.777 -0.1804 -0.8398 -0.4912
13006SOL    HW140068   3.281   4.415   0.869  1.7301  1.0893 -0.2205
13006SOL    HW240069   3.384   4.353   0.778  0.6285  0.4276 -1.0464
13007SOL     OW40070   0.303   3.325   6.447  0.1418  0.1596  0.1142
13007SOL    HW140071   0.232   3.292   6.501  0.6152 -0.1391  0.5623
13007SOL    HW240072   0.359   3.248   6.431  0.9669  0.6195  0.7174
13008SOL     OW40073   5.362   0.659   5.440  0.3523 -0.0505  0.2205
13008SOL    HW140074   5.268   0.647   5.429  0.3025 -0.3194  0.9086
13008SOL    HW240075   5.390   0.702   5.359 -0.5460  1.1029  0.5070
13009SOL     OW40076   4.982   5.937   6.531 -0.1175 -0.1811 -0.3670
13009SOL    HW140077   5.037   5.922   6.607  0.3444  0.2165 -0.6135
13009SOL    HW240078   5.037   5.913   6.456 -1.0124 -1.8512 -0.5302
13010SOL     OW40079   6.212   4.098   1.078  0.3216 -0.1205  0.2846
13010SOL    HW140080   6.222   4.016   1.126  3.2617  0.8637  1.5742
13010SOL    HW240081   6.260   4.162   1.130 -1.2908  2.3059 -1.0492
13011SOL     OW40082   4.359   6.160   2.130  0.4133 -0.3470  0.2410
13011SOL    HW140083   4.302   6.112   2.070  0.3004 -0.6904  0.6242
13011SOL    HW240084   4.301   6.220   2.176  0.4293 -0.3977  0.3270
13012SOL     OW40085   1.945   6.027   2.692  0.4899  0.0800  0.2614
13012SOL    HW140086   1.991   5.979   2.623  0.5407  1.4901 -0.7223
13012SOL    HW240087   2.011   6.086   2.728 -0.6794  2.9311 -1.9076
13013SOL     OW40088   7.048   7.225   1.252  0.3860  0.4144 -0.0831
13013SOL    HW140089   7.059   7.245   1.345 -2.3949  0.4339  0.3296
13013SOL    HW240090   7.026   7.132   1.250  0.5081  0.3942 -0.7535
13014SOL     OW40091   0.646   2.457   3.461  0.1634  0.4887  0.1941
13014SOL    HW140092   0.561   2.473   3.502  0.2558  1.1033  0.1549
13014SOL    HW240093   0.709   2.485   3.527  0.3926 -1.4171  0.8568
13015SOL     OW40094   0.649   3.017   5.696 -0.3156 -0.1423  0.6832
13015SOL    HW140095   0.643   3.003   5.790  1.6387 -0.3462  0.8211
13015SOL    HW240096   0.561   3.041   5.669 -0.5242  1.9441  2.9111
13016SOL     OW40097   5.331   5.093   7.727  0.0576 -0.1112 -0.4808
13016SOL    HW140098   5.324   4.999   7.743 -1.1363  0.2238  1.3520
13016SOL    HW240099   5.241   5.122   7.711  0.0828  1.0000  1.1056
13017SOL     OW40100   1.286   2.883   0.136 -0.0250 -0.1484 -0.0703
13017SOL    HW140101   1.281   2.836   0.053 -2.8010 -2.4175  1.1927
13017SOL    HW240102   1.277   2.815   0.203  0.7413  1.7206  2.0643
13018SOL     OW40103   7.491   4.550   6.437 -0.2604 -0.2055  0.0968
13018SOL    HW140104   7.526   4.463   6.421  1.3117  0.4936 -0.4806
13018SOL    HW240105   7.535   4.606   6.374  0.9690  1.5079  2.2994
13019SOL     OW40106   0.769   7.656   6.003  0.4894 -0.1590  0.2298
13019SOL    HW140107   0.722   7.708   5.938  0.4938  0.6192  0.8330
13019SOL    HW240108   0.853   7.636   5.962  0.3447 -0.0086 -0.1478
13020SOL     OW40109   3.810   7.479   4.055  0.0878  0.1756 -0.2947
13020SOL    HW140110   3.778   7.426   3.982 -0.2574  0.8880 -0.6798
13020SOL    HW240111   3.746   7.465   4.125 -0.9512  1.3561 -0.9572
13021SOL     OW40112   6.612   0.978   5.172  0.6737  0.2933  0.5491
13021SOL    HW140113   6.536   1.002   5.226  1.9114  0.2724  2.3837
13021SOL    HW240114   6.574   0.941   5.092 -1.2426  0.7901  1.1861
13022SOL     OW40115   3.095   5.079   4.748  0.1187  0.3789  0.3517
13022SOL    HW140116   3.153   5.026   4.803  0.8034  0.5645 -0.1759
13022SOL    HW240117   3.133   5.167   4.753 -0.1141  0.5005 -0.0171
13023SOL     OW40118   4.127   7.966   4.865 -0.2046  0.1298  0.3220
13023SOL    HW140119   4.196   7.952   4.801  0.6492 -2.1014  1.6096
13023SOL    HW240120   4.103   8.058   4.855  4.5860  1.8051  1.3331
13024SOL     OW40121   2.632   7.303   4.127 -0.5304 -0.1266 -0.4550
13024SOL    HW140122   2.575   7.306   4.203  1.0659 -0.9344  0.8399
13024SOL    HW240123   2.710   7.256   4.157  0.4339  0.1146 -2.4010
13025SOL     OW40124   7.214   4.025   5.079  0.1111  0.6263 -0.1325
13025SOL    HW140125   7.198   4.006   5.171  1.8073 -1.6180 -0.2105
13025SOL    HW240126   7.135   3.995   5.034  0.9706 -2.5446  0.2357
13026SOL     OW40127   2.917   1.799   6.115 -0.4613 -0.2025  0.2314
13026SOL    HW140128   2.975   1.726   6.092 -0.5728 -0.1038 -0.4034
13026SOL    HW240129   2.975   1.865   6.153 -0.1910 -0.2041 -0.1707
13027SOL     OW40130   5.944   7.653   0.778 -0.5345 -0.1055  0.0954
13027SOL    HW140131   5.963   7.728   0.834  1.3843 -0.4087 -0.0633
13027SOL    HW240132   6.003   7.584   0.810 -0.4386 -0.7321 -1.3483
13028SOL     OW40133   7.691   2.082   6.319  0.4811  0.6284  0.3260
13028SOL    HW140134   7.738   2.113   6.241 -1.9001  1.1156 -1.0168
13028SOL    HW240135   7.614   2.139   6.324  1.4310  1.8709  4.1910
13029SOL     OW40136   1.248   2.053   0.212 -0.6637 -0.8326  0.2373
13029SOL    HW140137   1.295   1.979   0.173 -0.1539 -0.5677  0.3383
13029SOL    HW240138   1.303   2.129   0.195 -1.5115 -0.3531 -0.4647
13030SOL     OW40139   3.039   1.236   7.316 -0.5960  0.5593 -0.2472
13030SOL    HW140140   3.047   1.204   7.406 -1.0253 -0.6900 -0.6373
13030SOL    HW240141   3.126   1.268   7.295 -0.3299  0.3057  0.4115
13031SOL     OW40142   3.277   2.517   5.554 -0.0120  0.0451  0.2496
13031SOL    HW140143   3.195   2.543   5.596  0.3908 -1.1495  1.8787
13031SOL    HW240144   3.269   2.423   5.540  1.0022 -0.0578  0.2644
13032SOL     OW40145   3.118   0.653   7.674  0.0259 -0.1928  0.5120
13032SOL    HW140146   3.185   0.586   7.660 -0.9810 -1.4708  1.6212
13032SOL    HW240147   3.165   0.724   7.720  1.0084 -0.2708 -0.3240
13033SOL     OW40148   2.046   4.224   3.200  0.7172 -0.2949  0.3246
13033SOL    HW140149   1.974   4.212   3.137  0.4094  0.0981  0.5973
13033SOL    HW240150   2.002   4.239   3.284  1.1234 -1.4892  0.7824
13034SOL     OW40151   3.915   7.656   7.634 -0.3986  0.1698 -0.1943
13034SOL    HW140152   3.979   7.662   7.564 -1.0622 -2.0187 -1.0846
13034SOL    HW240153   3.870   7.741   7.634  0.9827  0.9280 -1.0122
13035SOL     OW40154   6.927   5.072   1.202 -0.1120 -0.1399  0.1336
13035SOL    HW140155   6.854   5.064   1.264 -0.0142 -1.3005  0.1361
13035SOL    HW240156   6.886   5.091   1.118 -0.4388 -0.8420  0.1247
13036SOL     OW40157   1.100   0.603   5.027  0.4477  0.7567  0.1911
13036SOL    HW140158   1.085   0.683   5.078  1.5710  0.3182  1.2487
13036SOL    HW240159   1.179   0.621   4.977  3.2895 -1.0809  3.6074
13037SOL     OW40160   3.094   6.410   8.099 -0.6907 -0.0961 -0.5314
13037SOL    HW140161   3.055   6.358   8.029 -2.5660  1.4412 -0.7180
13037SOL    HW240162   3.181   6.372   8.112 -0.5061 -0.8349 -3.2720
13038SOL     OW40163   3.166   4.103   5.894  0.3080 -0.4062  0.1620
13038SOL    HW140164   3.113   4.152   5.956 -0.8221  1.0836 -1.8826
13038SOL    HW240165   3.108   4.086   5.820  2.3636  0.4433 -1.7541
13039SOL     OW40166   0.190   2.363   2.035 -0.7915 -0.2022  0.0419
13039SOL    HW140167   0.224   2.310   2.107  1.8848  0.2352 -0.7773
13039SOL    HW240168   0.122   2.417   2.074  0.9095  0.3705  2.4028
13040SOL     OW40169   7.570   3.393   4.381  0.1374  0.2587  0.0660
13040SOL    HW140170   7.502   3.450   4.417 -0.5909  0.0216 -0.8871
13040SOL    HW240171   7.640   3.452   4.355  0.5850  0.4581  1.6005
13041SOL     OW40172   2.374   4.958   6.891  0.1557 -0.1289  0.9298
13041SOL    HW140173   2.319   4.965   6.969  0.4659  0.6551  1.0848
13041SOL    HW240174   2.402   5.047   6.873 -0.4778 -0.2072 -0.4981
13042SOL     OW40175   2.535   2.765   5.470 -0.2822 -0.2136  0.7103
13042SOL    HW140176   2.514   2.836   5.531 -1.0621 -1.3387  1.8100
13042SOL    HW240177   2.520   2.803   5.383  0.1641  1.2138  1.2317
13043SOL     OW40178   4.189   2.757   6.678 -0.6391 -0.2582 -0.1518
13043SOL    HW140179   4.203   2.805   6.759  1.4902 -0.5695 -0.2816
13043SOL    HW240180   4.120   2.694   6.699  1.3247 -1.8305  2.1482
13044SOL     OW40181   2.209   0.200   0.661  0.0275 -0.1229  0.0917
13044SOL    HW140182   2.299   0.207   0.629 -0.2189 -0.4400 -0.7087
13044SOL    HW240183   2.172   0.126   0.612 -0.2344 -0.9368  1.4650
13045SOL     OW40184   1.396   4.154   4.322  0.0660 -1.0704  0.2756
13045SOL    HW140185   1.447   4.117   4.394  0.8755 -0.6076 -0.0425
13045SOL    HW240186   1.432   4.242   4.310 -1.7154 -0.2089  0.9221
13046SOL     OW40187   5.319   3.225   0.525  0.1060  0.5198  0.0883
13046SOL    HW140188   5.259   3.299   0.510 -0.3921  0.2373  0.6527
13046SOL    HW240189   5.406   3.261   0.507 -0.2886  0.6947 -1.6426
13047SOL     OW40190   2.728   0.193   3.900 -0.3656 -0.2807 -0.6100
13047SOL    HW140191   2.651   0.246   3.919  0.3201  0.5384 -0.0473
13047SOL    HW240192   2.695   0.123   3.843 -2.2229 -1.9170  2.2169
13048SOL     OW40193   2.447   3.438   6.723 -0.3156 -0.3900 -0.1032
13048SOL    HW140194   2.478   3.497   6.791  0.2029 -0.2541 -0.4537
13048SOL    HW240195   2.522   3.381   6.704 -0.3882 -0.2962 -0.6963
13049SOL     OW40196   5.479   5.216   6.010  0.0292 -0.1567  0.2588
13049SOL    HW140197   5.463   5.135   6.058 -1.9050  0.7890  1.2713
13049SOL    HW240198   5.401   5.229   5.957  1.0326  0.2016 -1.2115
13050SOL     OW40199   5.657   3.177   4.113 -0.1733 -0.0093  0.4267
13050SOL    HW140200   5.691   3.087   4.122  0.6190  0.2588  0.1764
13050SOL    HW240201   5.587   3.182   4.178  0.0559 -0.6813  0.7395
13051SOL     OW40202   4.736   7.009   3.463  0.9306 -0.5142 -0.0989
13051SOL    HW140203   4.642   7.012   3.479  1.4527  0.1775  3.8739
13051SOL    HW240204   4.755   7.090   3.415 -0.2809  0.5444  1.1145
13052SOL     OW40205   2.617   3.082   2.300  0.0762 -0.6149  0.0016
13052SOL    HW140206   2.590   3.042   2.217  0.4602 -1.3568  0.2192
13052SOL    HW240207   2.707   3.051   2.313  0.5702  0.7434 -0.0657
13053SOL     OW40208   1.877   4.853   1.623 -0.2835 -0.2932  0.8836
13053SOL    HW140209   1.819   4.839   1.547  1.2741  0.0765 -0.4283
13053SOL    HW240210   1.851   4.939   1.657  0.0981  0.3027 -0.2835
13054SOL     OW40211   2.618   4.766   4.431 -0.5002 -0.1426  0.0403
13054SOL    HW140212   2.536   4.804   4.398 -0.3192  0.8854  0.7230
13054SOL    HW240213   2.610   4.770   4.526 -0.0676 -0.9639  0.1163
13055SOL     OW40214   6.824   0.161   2.491 -0.4073 -0.0569  0.1847
13055SOL    HW140215   6.912   0.133   2.515 -0.7713 -0.0591  1.6235
13055SOL    HW240216   6.818   0.145   2.397  1.0086 -0.3639  0.1284
13056SOL     OW40217   2.339   3.122   6.963  0.3568  0.2877  0.0113
13056SOL    HW140218   2.335   3.218   6.962 -0.2180  0.3351  2.0416
13056SOL    HW240219   2.302   3.095   6.879 -2.4455  1.8009  0.6271
13057SOL     OW40220   4.492   5.253   8.162 -0.2710 -0.2438 -0.4385
13057SOL    HW140221   4.459   5.264   8.073  0.3149  2.0223 -0.4564
13057SOL    HW240222   4.582   5.221   8.151  0.2589  1.2551 -0.7798
13058SOL     OW40223   5.743   6.818   4.298 -0.3510 -0.4334 -0.2234
13058SOL    HW140224   5.689   6.788   4.371  0.3828 -1.5317 -0.1125
13058SOL    HW240225   5.679   6.847   4.232 -1.0005  1.5470  1.2117
13059SOL     OW40226   6.459   8.062   3.880 -0.5867  0.2303 -0.2024
13059SOL    HW140227   6.510   8.126   3.928 -2.2839  0.0106  2.0349
13059SOL    HW240228   6.416   8.009   3.947 -2.0500 -0.9572 -1.9562
13060SOL     OW40229   1.572   2.872   0.648 -0.6369  0.2269  0.1773
13060SOL    HW140230   1.600   2.957   0.683 -1.7699  0.6756  0.0225
13060SOL    HW240231   1.523   2.894   0.569  0.2995 -0.6665 -0.6884
13061SOL     OW40232   2.807   2.588   4.616  0.0560  0.1388  0.4808
13061SOL    HW140233   2.836   2.588   4.707 -0.5911  0.3380  0.6897
13061SOL    HW240234   2.880   2.549   4.568  0.1112 -0.6240  1.1688
13062SOL     OW40235   1.640   6.908   6.644  0.1454  0.3110 -0.0395
13062SOL    HW140236   1.675   6.971   6.580  1.0094  1.8345  1.8240
13062SOL    HW240237   1.545   6.915   6.634  0.2559  0.0561 -1.5525
13063SOL     OW40238   7.203   1.241   2.489  0.5760  0.9024 -0.3375
13063SOL    HW140239   7.125   1.217   2.439 -0.1400  0.5756  0.9021
13063SOL    HW240240   7.276   1.206   2.437 -0.3284 -3.3842  0.8731
13064SOL     OW40241   0.184   0.384   0.443 -0.1005 -0.1629 -0.4144
13064SOL    HW140242   0.238   0.315   0.407  0.9464  0.9088 -0.9764
13064SOL    HW240243   0.118   0.401   0.376  0.5561  0.3786 -0.9439
13065SOL     OW40244   4.129   1.194   7.920  0.0156 -0.2915 -0.4917
13065SOL    HW140245   4.104   1.186   7.828 -1.2946  1.5909 -0.3464
13065SOL    HW240246   4.116   1.286   7.941  0.7694 -0.5785  1.4668
13066SOL     OW40247   5.111   4.260   1.327 -0.3086  0.4304 -0.1984
13066SOL    HW140248   5.152   4.208   1.396 -1.1289  1.0207  0.7727
13066SOL    HW240249   5.033   4.211   1.304 -1.1667  1.2540  0.8286
13067SOL     OW40250   0.165   3.212   7.482 -0.2116 -0.4672 -0.1940
13067SOL    HW140251   0.201   3.137   7.528 -0.0760  0.3754  1.1351
13067SOL    HW240252   0.113   3.258   7.549  0.1993  0.9349 -0.8009
13068SOL     OW40253   1.478   4.476   7.274  0.0289  0.2968 -0.2498
13068SOL    HW140254   1.505   4.449   7.362 -0.4553  1.6665  0.3549
13068SOL    HW240255   1.561   4.494   7.228  0.3023 -0.9460 -0.2704
13069SOL     OW40256   2.904   1.474   6.171  0.8361  0.1244  0.0315
13069SOL    HW140257   2.847   1.483   6.094  0.3571  0.1273  0.3824
13069SOL    HW240258   2.971   1.541   6.158  0.1459  0.8490  0.1439
13070SOL     OW40259   0.636   1.948   3.561  0.9372  0.6086  0.3922
13070SOL    HW140260   0.722   1.947   3.603  2.0032  2.2520 -1.5478
13070SOL    HW240261   0.602   2.036   3.580 -0.6775 -0.2414  1.6974
13071SOL     OW40262   7.823   3.807   5.470 -0.2227  0.1889 -0.9459
13071SOL    HW140263   7.738   3.850   5.474 -0.3472 -0.1156 -0.1996
13071SOL    HW240264   7.870   3.838   5.547 -0.7864 -1.9723  0.3512
13072SOL     OW40265   5.514   0.818   3.055 -0.1684 -0.1271 -0.4434
13072SOL    HW140266   5.588   0.810   2.995  0.0576 -0.4709 -0.1248
13072SOL    HW240267   5.540   0.768   3.132 -1.0450 -0.9039 -0.6348
13073SOL     OW40268   0.874   0.984   0.041 -0.0994 -0.2687 -0.0182
13073SOL    HW140269   0.891   0.906  -0.012 -0.0875 -1.2102  1.3124
13073SOL    HW240270   0.895   0.957   0.130  1.0370  1.6178  0.3443
13074SOL     OW40271   7.369   7.607   3.549  0.0823 -0.0678  0.3848
13074SOL    HW140272   7.377   7.696   3.517 -0.7904 -0.4562 -0.9594
13074SOL    HW240273   7.441   7.560   3.506  0.0478 -0.1927  0.4642
13075SOL     OW40274   8.181   0.754   0.539 -0.1314 -0.3685 -0.2769
13075SOL    HW140275   8.206   0.831   0.590  0.2121  0.3832 -1.5100
13075SOL    HW240276   8.220   0.680   0.585 -2.1922 -0.0921  2.0991
13076SOL     OW40277   5.706   1.921   5.638  0.4237 -0.3056  0.2883
13076SOL    HW140278   5.768   1.961   5.577  0.2736  1.0987  1.0050
13076SOL    HW240279   5.758   1.904   5.717  0.2399 -0.5731  0.3536
13077SOL     OW40280   7.932   5.233   5.784  0.8218  0.1732  0.6034
13077SOL    HW140281   7.988   5.160   5.812  0.2025 -0.5564 -0.0179
13077SOL    HW240282   7.888   5.261   5.864 -1.6304 -2.4879  0.3737
13078SOL     OW40283   6.804   1.488   5.833  0.3047 -0.1421 -0.1202
13078SOL    HW140284   6.800   1.581   5.812  2.6932  0.0423  0.0059
13078SOL    HW240285   6.853   1.449   5.761 -1.8248 -1.5941 -0.8763
13079SOL     OW40286   2.751   7.040   1.851  0.1453  0.4970 -0.1088
13079SOL    HW140287   2.750   6.965   1.791 -1.3714  0.0013  0.4793
13079SOL    HW240288   2.668   7.084   1.836  0.1250  0.8709  1.0225
13080SOL     OW40289   2.622   3.686   3.497 -0.0060 -0.4980  0.2991
13080SOL    HW140290   2.561   3.748   3.458  0.5295 -0.2230 -0.0982
13080SOL    HW240291   2.618   3.704   3.591 -2.0593 -1.8339  0.5365
13081SOL     OW40292   3.774   1.080   5.932  0.3779  0.1571  0.3319
13081SOL    HW140293   3.808   1.155   5.882 -2.2139  1.1610 -0.0606
13081SOL    HW240294   3.772   1.008   5.869  1.0835  0.2589  0.1838
13082SOL     OW40295   5.755   0.703   4.192  0.2621  0.0428 -0.0709
13082SOL    HW140296   5.834   0.739   4.153 -0.0595 -0.9030 -1.6897
13082SOL    HW240297   5.689   0.771   4.179  0.7391  0.7484  1.1007
13083SOL     OW40298   4.328   7.891   3.900  0.1901  0.1257 -0.0365
13083SOL    HW140299   4.301   7.906   3.990 -0.5321 -1.4827  0.0659
13083SOL    HW240300   4.260   7.834   3.864 -0.7147  2.4256 -2.2943
13084SOL     OW40301   7.653   3.295   2.837  0.2754 -0.3516 -0.4503
13084SOL    HW140302   7.711   3.224   2.810  0.9142 -0.1519  0.3749
13084SOL    HW240303   7.579   3.250   2.879  1.3505 -0.5183  1.3728
13085SOL     OW40304   4.065   4.391   7.554  0.2477 -0.0885  0.0300
13085SOL    HW140305   4.037   4.456   7.489  2.6688  2.3250  1.2068
13085SOL    HW240306   4.002   4.401   7.626 -0.5759 -0.5178 -0.6180
13086SOL     OW40307   5.098   0.897   5.296 -0.6705  0.3456  0.1460
13086SOL    HW140308   5.149   0.902   5.215 -1.0970 -1.4360 -0.2737
13086SOL    HW240309   5.022   0.954   5.280  0.3097  1.6943  0.1418
13087SOL     OW40310   1.095   2.217   0.002 -0.0374  1.0247 -0.9308
13087SOL    HW140311   1.115   2.152   0.070  1.9050  0.3940 -2.0415
13087SOL    HW240312   1.138   2.184  -0.077 -1.8684  1.9601 -2.4001
13088SOL     OW40313   4.173   6.688   2.626 -0.8520 -0.1007 -0.0633
13088SOL    HW140314   4.263   6.720   2.632  0.5947 -3.8758  1.0837
13088SOL    HW240315   4.124   6.740   2.689  1.3670 -0.2632  1.9021
13089SOL     OW40316   5.044   2.279   0.877 -0.2915  0.1957  0.6637
13089SOL    HW140317   4.973   2.338   0.855 -0.2782  0.9909  2.5151
13089SOL    HW240318   5.012   2.231   0.953  1.1631  0.6708  1.6189
13090SOL     OW40319   0.384   5.207   0.096 -0.1030  0.0710 -0.0453
13090SOL    HW140320   0.478   5.187   0.098  0.6211  3.1304  2.0521
13090SOL    HW240321   0.379   5.299   0.071 -2.5433  0.1066  0.3340
13091SOL     OW40322   0.879   4.489   4.608  0.5037 -0.3427 -0.1676
13091SOL    HW140323   0.944   4.496   4.678  0.6796 -3.0140  0.0516
13091SOL    HW240324   0.850   4.398   4.612 -2.4945  0.4761 -0.9762
13092SOL     OW40325   0.169   6.736   0.880 -0.3590 -0.3343 -0.3678
13092SOL    HW140326   0.222   6.681   0.823 -0.4152  0.0082 -0.7518
13092SOL    HW240327   0.231   6.800   0.916 -0.3356 -0.5095 -0.0896
13093SOL     OW40328   1.166   4.387   1.669  0.1182  1.1155  0.0628
13093SOL    HW140329   1.198   4.365   1.581 -1.0715  0.5712 -0.2626
13093SOL    HW240330   1.239   4.368   1.727 -0.2297 -2.1708 -0.3868
13094SOL     OW40331   0.578   1.578   6.109  0.2198 -0.1248 -0.2034
13094SOL    HW140332   0.522   1.649   6.140 -0.7324 -1.0174  0.1872
13094SOL    HW240333   0.662   1.592   6.154  0.2279  1.0447 -0.5489
13095SOL     OW40334   2.174   2.748   1.084  0.7818  0.1088 -0.5992
13095SOL    HW140335   2.095   2.718   1.129  1.6958 -0.8760  0.4115
13095SOL    HW240336   2.143   2.814   1.023 -0.6963  0.5243  0.5363
13096SOL     OW40337   6.325   0.264   1.598  0.2626  0.0329 -0.1713
13096SOL    HW140338   6.302   0.184   1.644  0.3507 -0.6043 -1.1967
13096SOL    HW240339   6.408   0.244   1.556  1.5654  1.5124  1.5610
13097SOL     OW40340   1.386   6.773   0.331  0.0874 -0.0229 -0.1751
13097SOL    HW140341   1.315   6.836   0.321 -0.0446  0.1159  1.3529
13097SOL    HW240342   1.348   6.689   0.305 -0.0079  0.3676 -1.3291
13098SOL     OW40343   4.718   1.457   7.863 -0.0576  0.0565 -0.1793
13098SOL    HW140344   4.733   1.506   7.944 -1.6738  2.1427 -1.0783
13098SOL    HW240345   4.792   1.480   7.807 -0.8866  1.6937 -0.6568
13099SOL     OW40346   0.113   3.966   3.459  0.0390  0.1654  0.5136
13099SOL    HW140347   0.202   3.993   3.481  0.0270  0.4147  0.2661
13099SOL    HW240348   0.098   3.887   3.511  0.1092  0.5773  1.1678
13100SOL     OW40349   6.540   7.740   3.538  0.0064  0.0769  0.4776
13100SOL    HW140350   6.536   7.827   3.577  0.0108 -0.2488  1.2139
13100SOL    HW240351   6.495   7.750   3.454 -1.5571  0.3820  1.3091
13101SOL     OW40352   1.580   1.406   1.380  0.1301  1.3421  0.1508
13101SOL    HW140353   1.553   1.457   1.457 -0.8747  2.2511 -0.7549
13101SOL    HW240354   1.498   1.370   1.345  0.7871 -0.6740  0.5742
13102SOL     OW40355   4.786   8.006   1.567  0.4206 -0.0811  0.0940
13102SOL    HW140356   4.804   7.927   1.618  1.2871  0.0520  0.0126
13102SOL    HW240357   4.691   8.005   1.555  0.4529 -1.3307 -0.2553
13103SOL     OW40358   0.816   3.878   6.266 -0.1083 -0.3070  0.0715
13103SOL    HW140359   0.788   3.968   6.251  0.0187  0.0995  1.9651
13103SOL    HW240360   0.737   3.833   6.297 -0.0906 -0.7768 -0.5385
13104SOL     OW40361   2.295   5.203   6.696 -0.7732  0.1348  0.1313
13104SOL    HW140362   2.252   5.184   6.612  0.2307 -0.0240 -0.3545
13104SOL    HW240363   2.223   5.230   6.753 -1.3281  1.4931 -1.1430
13105SOL     OW40364   0.918   5.083   2.087 -0.3040 -0.2622 -0.6405
13105SOL    HW140365   0.962   5.040   2.160 -0.4442 -1.3748 -1.1934
13105SOL    HW240366   0.829   5.099   2.119 -0.4908 -1.1324 -0.6984
13106SOL     OW40367   3.069   6.509   5.869 -0.0433 -0.4220  0.1931
13106SOL    HW140368   3.103   6.423   5.891 -0.0042 -0.6027 -0.5301
13106SOL    HW240369   3.079   6.561   5.949  1.4960 -0.6009  0.1579
13107SOL     OW40370   3.671   0.926   2.143 -0.0691  0.4782  0.0726
13107SOL    HW140371   3.696   0.907   2.233  0.8508  0.9402 -0.0755
13107SOL    HW240372   3.711   1.011   2.124 -1.7436  1.2354 -0.2017
13108SOL     OW40373   1.601   0.677   4.853  0.0706 -0.4335  0.0191
13108SOL    HW140374   1.692   0.706   4.861 -0.2048  0.8740 -1.1990
13108SOL    HW240375   1.566   0.727   4.779 -1.1349 -2.2269 -0.6991
13109SOL     OW40376   5.307   3.735   1.585  0.6514  0.8445  0.5657
13109SOL    HW140377   5.262   3.757   1.504  0.3760 -0.1636  0.4332
13109SOL    HW240378   5.277   3.647   1.606  1.3005  0.8008  1.3617
13110SOL     OW40379   7.127   6.152   4.156  0.6348  0.4525 -0.5667
13110SOL    HW140380   7.073   6.076   4.180  0.2558  0.8008 -0.3073
13110SOL    HW240381   7.139   6.200   4.238  1.5589  0.2476 -0.5740
13111SOL     OW40382   6.914   7.009   6.990  0.3032 -0.3745  0.1152
13111SOL    HW140383   6.823   6.992   6.968  0.4513  0.0239 -0.8905
13111SOL    HW240384   6.912   7.046   7.078 -0.7294  1.6137 -0.6876
13112SOL     OW40385   5.442   5.719   6.140  0.0605  0.1220  0.2277
13112SOL    HW140386   5.481   5.760   6.218 -0.1161  0.5740  0.0811
13112SOL    HW240387   5.428   5.628   6.166  0.3210  0.1863  0.6102
13113SOL     OW40388   3.897   1.592   6.067  0.3408 -0.4247 -0.0642
13113SOL    HW140389   3.990   1.614   6.059  0.6386 -0.7370  1.9915
13113SOL    HW240390   3.896   1.498   6.086 -0.4822 -0.6370 -1.0421
13114SOL     OW40391   3.783   8.161   6.423 -0.1767  0.1490 -0.1745
13114SOL    HW140392   3.799   8.169   6.517  1.4949  0.9150 -0.4953
13114SOL    HW240393   3.812   8.244   6.387  2.6111 -1.4127 -1.7809
13115SOL     OW40394   4.670   6.582   6.174  0.4415  0.3719  0.0911
13115SOL    HW140395   4.712   6.583   6.088 -0.7554 -0.4363 -0.5258
13115SOL    HW240396   4.730   6.533   6.230  0.5810 -0.3093 -0.6387
13116SOL     OW40397   6.717   3.237   2.284  0.2059 -0.1024 -0.7453
13116SOL    HW140398   6.785   3.263   2.347 -0.5114  0.6813 -0.2725
13116SOL    HW240399   6.681   3.320   2.252 -0.2497 -0.5072 -1.3014
13117SOL     OW40400   4.002   2.065   7.309 -0.1752  0.4435  0.1778
13117SOL    HW140401   4.098   2.066   7.312 -0.0811  2.0472 -1.6831
13117SOL    HW240402   3.976   2.032   7.395  2.0370 -1.0592  0.3621
13118SOL     OW40403   4.288   5.080   3.338  0.2826 -0.0108 -0.4207
13118SOL    HW140404   4.275   5.045   3.425  0.5199 -0.4321 -0.5540
13118SOL    HW240405   4.301   5.174   3.351  1.7384 -0.2627  0.1353
13119SOL     OW40406   1.017   2.117   6.222 -0.3910 -0.3282 -0.1323
13119SOL    HW140407   1.080   2.048   6.242  0.5410  0.7142  0.6005
13119SOL    HW240408   0.961   2.122   6.300  1.4598  1.7849  1.1600
13120SOL     OW40409   7.216   4.470   6.396 -0.1122 -0.2350 -0.3473
13120SOL    HW140410   7.302   4.511   6.397 -0.3841  0.4937 -2.4975
13120SOL    HW240411   7.175   4.498   6.479  0.5459  2.0216 -0.7220
13121SOL     OW40412   0.541   3.695   4.131  0.2006  0.3530  0.0138
13121SOL    HW140413   0.561   3.758   4.201  0.1147  1.4780 -0.9394
13121SOL    HW240414   0.504   3.619   4.177  0.5041  0.9006  1.2167
13122SOL     OW40415   2.650   2.609   1.473 -0.7591  0.6992  0.3360
13122SOL    HW140416   2.617   2.696   1.495 -0.5233  1.1539 -0.9964
13122SOL    HW240417   2.642   2.559   1.554 -1.5617  1.7557  0.9387
13123SOL     OW40418   4.991   7.441   6.752  0.4040  0.0298  0.1904
13123SOL    HW140419   5.023   7.352   6.762  1.0463  0.2780  0.3747
13123SOL    HW240420   5.016   7.466   6.664 -0.3164 -0.1781 -0.0840
13124SOL     OW40421   0.507   2.051   5.619  0.3559  0.1015  0.7274
13124SOL    HW140422   0.446   2.119   5.589 -0.9938 -0.6984  1.5647
13124SOL    HW240423   0.544   2.086   5.700  1.2543  0.7074  0.0743
13125SOL     OW40424   3.439   3.011   0.287  0.2991 -0.1341  0.5317
13125SOL    HW140425   3.490   3.045   0.213  0.9329 -2.3031 -0.1113
13125SOL    HW240426   3.352   2.996   0.251  0.4097 -0.4992  0.4075
13126SOL     OW40427   3.594   0.453   0.809 -0.6140  0.1305  0.3394
13126SOL    HW140428   3.603   0.433   0.902  2.8424 -1.8745 -0.2394
13126SOL    HW240429   3.677   0.425   0.771 -1.7515  1.2172 -3.3304
13127SOL     OW40430   5.779   4.807   7.971 -0.3174 -0.5427 -0.1992
13127SOL    HW140431   5.700   4.860   7.976 -0.5358 -0.9601  1.4773
13127SOL    HW240432   5.758   4.739   7.907 -1.4144 -0.7722  0.3767
13128SOL     OW40433   1.670   2.986   3.227 -0.5046 -0.7518  0.0329
13128SOL    HW140434   1.732   2.924   3.188 -1.3422 -1.6113  0.0247
13128SOL    HW240435   1.602   2.996   3.162 -0.8770 -0.6016  0.4424
13129SOL     OW40436   7.469   2.758   1.375  0.2277 -0.4860  0.4632
13129SOL    HW140437   7.480   2.844   1.415  0.9786  0.1263 -0.9885
13129SOL    HW240438   7.545   2.707   1.405 -0.2606 -0.6745  1.3872
13130SOL     OW40439   8.191   4.384   4.310  0.3142  0.1704  0.6502
13130SOL    HW140440   8.146   4.405   4.228  0.3544  1.2274  0.8796
13130SOL    HW240441   8.189   4.466   4.359  0.0203 -0.5263  1.8399
13131SOL     OW40442   4.792   1.270   0.670 -0.0508 -0.1374  0.6457
13131SOL    HW140443   4.703   1.259   0.704 -1.4884  2.2788 -1.9135
13131SOL    HW240444   4.782   1.261   0.575  2.8532 -1.7240  0.3726
13132SOL     OW40445   5.258   0.409   6.830  0.1135  0.1354 -0.1339
13132SOL    HW140446   5.253   0.504   6.841  0.1698 -0.0596  1.9873
13132SOL    HW240447   5.345   0.394   6.793 -0.3429  0.9510 -1.6424
13133SOL     OW40448   3.956   2.320   7.516  0.3141 -0.2837  0.0316
13133SOL    HW140449   3.946   2.323   7.611 -0.4201  0.1960 -0.0566
13133SOL    HW240450   4.014   2.245   7.501 -0.7817 -1.3160  0.7644
13134SOL     OW40451   2.558   4.652   5.874  0.7752  0.1301  0.2393
13134SOL    HW140452   2.499   4.596   5.926  1.4244 -1.5977 -0.7735
13134SOL    HW240453   2.576   4.600   5.796  2.6659  1.1497 -0.0493
13135SOL     OW40454   2.541   0.720   5.319  1.0244  0.3135 -0.1236
13135SOL    HW140455   2.509   0.663   5.390 -1.5350 -1.0486 -2.1968
13135SOL    HW240456   2.499   0.804   5.335 -0.1325 -0.1989 -0.3817
13136SOL     OW40457   3.993   3.218   0.053  0.1512  0.8077  0.3652
13136SOL    HW140458   4.077   3.232   0.097  0.5720  0.0880 -0.1912
13136SOL    HW240459   3.943   3.163   0.114  1.3054 -1.4964 -0.6442
13137SOL     OW40460   7.424   0.793   0.192  0.0449  0.2255 -0.0193
13137SOL    HW140461   7.350   0.736   0.211  1.8906 -1.9966  0.9842
13137SOL    HW240462   7.436   0.843   0.272  0.2754 -0.1938  0.2107
13138SOL     OW40463   6.394   0.245   3.080 -0.1003 -0.0535 -0.2425
13138SOL    HW140464   6.449   0.257   3.002 -0.5398  1.9058 -0.3025
13138SOL    HW240465   6.307   0.273   3.052 -0.8746 -1.8950  0.2252
13139SOL     OW40466   2.522   4.932   5.847  0.0353 -0.0988 -0.4055
13139SOL    HW140467   2.474   4.959   5.924 -0.1807  0.1450 -0.6250
13139SOL    HW240468   2.498   4.841   5.834  0.1029 -0.1519 -0.1644
13140SOL     OW40469   3.080   2.255   6.133 -0.3328  0.1035 -0.6056
13140SOL    HW140470   3.065   2.233   6.041 -1.8806  0.6652 -0.5019
13140SOL    HW240471   3.173   2.277   6.137 -0.5200  1.4333 -2.3297
13141SOL     OW40472   5.025   3.514   0.815  0.0617  0.2154 -0.8826
13141SOL    HW140473   4.983   3.595   0.845  2.1473  1.2937 -0.6641
13141SOL    HW240474   5.000   3.507   0.723  0.8467  1.8612 -1.2730
13142SOL     OW40475   8.179   2.823   2.088 -0.1311  0.2550  0.0005
13142SOL    HW140476   8.254   2.804   2.145 -0.5436 -1.1320  0.0941
13142SOL    HW240477   8.142   2.738   2.067 -1.6073  0.9167 -0.1705
13143SOL     OW40478   5.222   4.392   3.782 -0.0666  0.3334 -0.4898
13143SOL    HW140479   5.294   4.417   3.840  1.2330  0.0575 -1.9227
13143SOL    HW240480   5.212   4.467   3.723 -1.7795  0.8661  0.4182
13144SOL     OW40481   3.187   0.558   7.299  0.3621 -0.4710 -0.3964
13144SOL    HW140482   3.202   0.553   7.205  2.1537 -1.0179 -0.1137
13144SOL    HW240483   3.246   0.627   7.329 -1.5723  1.0543  0.1040
13145SOL     OW40484   6.920   5.183   3.957  0.6483 -0.7236  0.3796
13145SOL    HW140485   6.974   5.259   3.935 -0.2634 -0.6872 -2.0742
13145SOL    HW240486   6.898   5.195   4.049 -1.8621  3.6461 -0.4851
13146SOL     OW40487   7.539   1.681   2.768 -0.1550 -1.2710 -0.1701
13146SOL    HW140488   7.626   1.688   2.808  0.4518 -1.1091 -1.4932
13146SOL    HW240489   7.521   1.587   2.767  0.7230 -1.4372 -1.3805
13147SOL     OW40490   7.020   6.629   2.283 -0.2420 -0.1235 -0.0003
13147SOL    HW140491   7.019   6.723   2.265  0.9571  0.0184  0.5840
13147SOL    HW240492   6.980   6.621   2.370  0.2518 -0.0809  0.2326
13148SOL     OW40493   3.769   0.520   3.823  0.1351  0.6123 -0.5549
13148SOL    HW140494   3.711   0.472   3.882  0.8655  0.6451  0.2049
13148SOL    HW240495   3.752   0.612   3.844  3.5993  0.6836  2.9430
13149SOL     OW40496   7.218   3.345   8.186  0.4172  0.2263 -0.5473
13149SOL    HW140497   7.249   3.277   8.127  2.5990  0.9528 -0.3130
13149SOL    HW240498   7.282   3.347   8.257 -0.7494  1.1020  0.5243
13150SOL     OW40499   7.433   8.088   6.966 -0.6016 -0.0761 -0.3252
13150SOL    HW140500   7.364   8.072   7.030  1.0217  1.2263  1.8909
13150SOL    HW240501   7.491   8.012   6.973 -0.3961  0.0904 -0.2158
13151SOL     OW40502   0.745   5.035   2.837  0.0523  0.4049 -0.0180
13151SOL    HW140503   0.775   4.955   2.793  0.7583  1.3055 -1.2407
13151SOL    HW240504   0.814   5.055   2.899  0.4254  0.6703 -0.5099
13152SOL     OW40505   1.171   1.907   3.921 -0.0887 -0.3015  0.0342
13152SOL    HW140506   1.258   1.900   3.881  0.3496 -0.4464  0.9860
13152SOL    HW240507   1.148   1.818   3.944 -0.3970 -0.2365 -0.0282
13153SOL     OW40508   7.747   6.152   6.682  0.4887 -0.3082 -0.0406
13153SOL    HW140509   7.807   6.177   6.612  0.3095  0.3274  0.0283
13153SOL    HW240510   7.660   6.155   6.642  0.3315  0.5746  0.3266
13154SOL     OW40511   2.969   3.421   5.187 -0.4763  0.3829  0.1739
13154SOL    HW140512   3.035   3.488   5.206  0.5627 -0.2497 -1.0374
13154SOL    HW240513   3.019   3.344   5.161 -1.6858 -0.3525 -0.0821
13155SOL     OW40514   4.129   6.392   3.584  0.2240 -0.1581  0.3308
13155SOL    HW140515   4.061   6.460   3.577  0.7256  0.1457 -3.2325
13155SOL    HW240516   4.087   6.313   3.551  1.0891 -0.3782 -0.2688
13156SOL     OW40517   4.201   2.677   4.671  0.7250  0.5800  0.4082
13156SOL    HW140518   4.249   2.610   4.719  0.2068 -0.2928 -0.2637
13156SOL    HW240519   4.122   2.692   4.723 -1.2946 -2.4472 -1.4464
13157SOL     OW40520   0.964   1.622   0.500 -0.6993 -0.6557 -0.5141
13157SOL    HW140521   0.902   1.687   0.469 -1.1950 -0.8100  0.1271
13157SOL    HW240522   1.034   1.672   0.541  0.4306 -0.3995 -2.6253
13158SOL     OW40523   7.146   5.971   5.147 -0.2943 -0.2294 -0.4936
13158SOL    HW140524   7.062   5.932   5.169 -1.1053  1.5356 -0.2385
13158SOL    HW240525   7.163   5.943   5.057 -1.1046 -0.6947 -0.5106
13159SOL     OW40526   2.474   7.478   6.845  0.4902  0.1299 -0.0949
13159SOL    HW140527   2.558   7.459   6.804  0.5290  0.4448 -0.1673
13159SOL    HW240528   2.413   7.487   6.771  0.4872  0.3520 -0.0650
13160SOL     OW40529   6.349   5.475   1.583  0.2837 -0.0823 -0.5074
13160SOL    HW140530   6.265   5.433   1.599  0.0753  0.6095  0.2699
13160SOL    HW240531   6.357   5.477   1.487 -0.8283  0.3287 -0.6005
13161SOL     OW40532   4.439   6.905   3.542  0.0403 -0.2560  0.6606
13161SOL    HW140533   4.422   6.947   3.457  2.6512 -1.3912 -0.5238
13161SOL    HW240534   4.429   6.812   3.525 -0.7730 -0.4385  1.9986
13162SOL     OW40535   5.913   4.661   6.296  0.0583  0.0073  0.2441
13162SOL    HW140536   5.929   4.703   6.211 -0.8421 -0.6167 -0.2400
13162SOL    HW240537   5.927   4.568   6.280 -0.0409 -0.1087  0.8099
13163SOL     OW40538   4.219   1.411   6.889  0.2196 -0.2055  0.1240
13163SOL    HW140539   4.197   1.456   6.807  1.3603  0.2612  0.0566
13163SOL    HW240540   4.295   1.357   6.867  1.7622  1.3733  1.2894
13164SOL     OW40541   4.180   1.082   5.177  0.1447  0.1475 -0.3164
13164SOL    HW140542   4.263   1.057   5.139 -0.0552 -1.9844  0.5147
13164SOL    HW240543   4.203   1.115   5.264  0.3649  2.6728 -1.2513
13165SOL     OW40544   2.781   0.666   3.947  0.0013 -0.3391  0.0401
13165SOL    HW140545   2.757   0.615   3.870  1.3155 -0.9213  0.0030
13165SOL    HW240546   2.721   0.635   4.015  0.5407 -1.6888 -0.0726
13166SOL     OW40547   5.190   3.771   1.336  0.3335  0.1137  0.2301
13166SOL    HW140548   5.111   3.809   1.373 -1.7658 -2.1228 -1.6543
13166SOL    HW240549   5.202   3.816   1.252  0.7137  0.0489  0.2462
13167SOL     OW40550   1.124   0.630   3.545 -0.3654  0.3498  0.4091
13167SOL    HW140551   1.171   0.650   3.626 -0.0204  0.9254  0.0753
13167SOL    HW240552   1.128   0.712   3.494 -2.0704  0.5545  0.5340
13168SOL     OW40553   1.189   0.880   4.696 -0.0584 -0.0195  0.4546
13168SOL    HW140554   1.208   0.786   4.697 -0.1904 -0.0558 -0.1277
13168SOL    HW240555   1.128   0.891   4.623  0.3535  0.5909  0.1997
13169SOL     OW40556   0.338   1.123   3.727  0.0688 -0.0805  0.1689
13169SOL    HW140557   0.358   1.076   3.808 -1.3431  0.2766  0.7579
13169SOL    HW240558   0.250   1.093   3.704  0.3637 -0.0004 -1.1214
13170SOL     OW40559   2.350   2.545   2.970  0.0391  0.2227  0.4347
13170SOL    HW140560   2.401   2.623   2.993  0.9515 -1.0756  3.3805
13170SOL    HW240561   2.416   2.480   2.946 -0.5461 -0.3032  0.2271
13171SOL     OW40562   5.632   7.188   5.604 -0.5746  0.2984  0.5339
13171SOL    HW140563   5.642   7.241   5.683  2.3945  1.8529 -0.7124
13171SOL    HW240564   5.704   7.125   5.608 -1.0267 -0.2927 -0.4273
13172SOL     OW40565   4.752   8.278   0.080  0.1827  0.3162 -0.4070
13172SOL    HW140566   4.668   8.319   0.059  0.8479  1.9014 -0.1307
13172SOL    HW240567   4.744   8.251   0.171 -0.7076 -1.4040 -0.9480
13173SOL     OW40568   7.080   2.395   2.990  0.1944  0.0119  0.2461
13173SOL    HW140569   7.006   2.441   2.949  1.5840  3.2213  1.0565
13173SOL    HW240570   7.099   2.323   2.930 -1.3002  1.2693 -1.8919
13174SOL     OW40571   4.181   7.427   2.217  0.0914  0.1195  0.0274
13174SOL    HW140572   4.101   7.456   2.260 -0.0253 -1.5051  0.9951
13174SOL    HW240573   4.251   7.477   2.261 -0.1353 -0.6753  1.3676
13175SOL     OW40574   7.969   1.394   2.897  0.1172 -0.2070  0.0604
13175SOL    HW140575   8.052   1.402   2.943  0.2721 -0.7790 -0.1164
13175SOL    HW240576   7.923   1.322   2.941  0.6433 -1.3736 -1.2221
13176SOL     OW40577   5.881   3.112   1.137  0.0458  0.8150 -0.3402
13176SOL    HW140578   5.826   3.084   1.063  0.3190  1.3201 -0.7390
13176SOL    HW240579   5.969   3.119   1.100  1.1633 -3.2350  0.9784
13177SOL     OW40580   1.538   6.416   4.897  0.0425 -0.1299 -0.3310
13177SOL    HW140581   1.589   6.338   4.877  1.2124  1.0608 -2.4454
13177SOL    HW240582   1.449   6.395   4.868 -0.1930 -1.3989  1.1857
13178SOL     OW40583   4.162   0.286   3.425 -0.2213  0.4496 -0.1565
13178SOL    HW140584   4.120   0.230   3.359 -0.4567  1.0191 -0.4900
13178SOL    HW240585   4.092   0.343   3.456  0.1313  0.8770 -0.1532
13179SOL     OW40586   6.202   0.097   0.442  0.0436 -0.0281  0.2792
13179SOL    HW140587   6.221   0.009   0.475  2.0051  0.5997  0.9484
13179SOL    HW240588   6.224   0.093   0.348  0.0357 -0.2938  0.2898
13180SOL     OW40589   5.960   1.375   6.782  0.5225  0.4291 -0.4452
13180SOL    HW140590   5.933   1.284   6.769  1.1826 -0.0631  1.2543
13180SOL    HW240591   5.954   1.388   6.877 -1.9828  2.9791 -0.8160
13181SOL     OW40592   1.017   4.544   4.381 -0.2953  0.3451 -0.7746
13181SOL    HW140593   0.968   4.474   4.338 -2.8709  2.2842 -1.2616
13181SOL    HW240594   0.972   4.558   4.464  0.7532  0.8365 -0.2726
13182SOL     OW40595   7.503   2.583   0.923 -0.1838 -0.3712 -0.1039
13182SOL    HW140596   7.537   2.651   0.982 -0.1476 -0.3108 -0.1946
13182SOL    HW240597   7.483   2.509   0.981  0.0001 -0.3680 -0.0354
13183SOL     OW40598   6.599   2.743   6.302 -0.3586 -0.6923 -0.3869
13183SOL    HW140599   6.608   2.741   6.207 -0.7471 -2.1312 -0.4152
13183SOL    HW240600   6.586   2.835   6.323  2.4282  0.0141 -1.4399
13184SOL     OW40601   7.199   0.450   4.579 -0.6833  0.0637  0.1320
13184SOL    HW140602   7.173   0.523   4.635 -0.4119  0.1782  0.1116
13184SOL    HW240603   7.128   0.388   4.586 -0.3257 -0.2505  1.1837
13185SOL     OW40604   2.521   4.700   7.216  0.1563  0.0382  0.0585
13185SOL    HW140605   2.533   4.716   7.122 -3.2859 -1.2694 -0.7532
13185SOL    HW240606   2.544   4.609   7.228  1.7305  0.5101  0.7800
13186SOL     OW40607   1.094   3.106   3.853  0.6484 -0.1838  0.1695
13186SOL    HW140608   1.099   3.202   3.853  1.4963 -0.2166 -0.5154
13186SOL    HW240609   1.175   3.078   3.810 -0.3299 -1.1646 -1.0991
13187SOL     OW40610   4.571   0.944   6.481 -0.0222 -0.4373 -0.2015
13187SOL    HW140611   4.592   0.854   6.504  2.0574 -0.7732 -2.9386
13187SOL    HW240612   4.554   0.942   6.387 -0.4469  1.9642 -0.2504
13188SOL     OW40613   2.974   4.427   7.613  0.1799 -0.0370  0.5182
13188SOL    HW140614   3.042   4.494   7.607 -0.4507  0.7217  1.3946
13188SOL    HW240615   2.901   4.471   7.656 -0.9059 -0.8106 -0.4709
13189SOL     OW40616   6.168   7.229   4.121  0.5757 -0.1832  0.1285
13189SOL    HW140617   6.255   7.256   4.151 -0.1379  1.7581  0.5969
13189SOL    HW240618   6.118   7.310   4.117 -1.2407 -1.2656 -0.0935
13190SOL     OW40619   3.763   3.154   2.136 -0.0523  0.3470 -0.5747
13190SOL    HW140620   3.850   3.156   2.097  0.7043  0.6462  1.0619
13190SOL    HW240621   3.709   3.109   2.072  0.8788  1.7496 -2.4545
13191SOL     OW40622   6.667   4.810   0.663  0.2566  0.0827 -0.4186
13191SOL    HW140623   6.605   4.767   0.722 -0.0076 -0.2767 -0.9515
13191SOL    HW240624   6.617   4.879   0.621  0.1950 -0.2363 -0.8830
13192SOL     OW40625   7.179   3.173   7.062  0.1568 -0.0243 -0.4896
13192SOL    HW140626   7.211   3.097   7.111 -0.2158  0.3745  0.3906
13192SOL    HW240627   7.091   3.147   7.034 -1.0790  1.0535  2.1414
13193SOL     OW40628   1.800   1.511   5.869 -0.1440 -0.0354 -0.1347
13193SOL    HW140629   1.719   1.504   5.919  0.9937 -0.2256  1.7716
13193SOL    HW240630   1.830   1.421   5.859  1.1370  0.1479  1.5227
13194SOL     OW40631   8.184   0.482   5.329  0.1399  0.0806 -0.1619
13194SOL    HW140632   8.116   0.524   5.276 -0.8402  1.2687  1.9347
13194SOL    HW240633   8.148   0.395   5.348 -0.1833  0.1998 -0.2128
13195SOL     OW40634   4.142   5.303   7.218  0.2685  0.4873 -0.1416
13195SOL    HW140635   4.211   5.369   7.207  2.0323 -1.1394  0.5083
13195SOL    HW240636   4.153   5.244   7.143  0.3764 -0.4276  0.5696
13196SOL     OW40637   2.763   2.203   5.564  0.1825 -0.5158 -0.3776
13196SOL    HW140638   2.703   2.256   5.512 -0.5160 -0.5775  0.3524
13196SOL    HW240639   2.724   2.116   5.566 -0.7325 -0.1113  1.6827
13197SOL     OW40640   5.175   5.373   1.433 -0.1817  0.0334 -0.4622
13197SOL    HW140641   5.154   5.376   1.340 -1.5798 -0.6373 -0.1939
13197SOL    HW240642   5.091   5.362   1.476 -0.0344  3.7544  1.1405
13198SOL     OW40643   6.013   5.875   8.047 -0.3289  0.8740 -0.2095
13198SOL    HW140644   5.988   5.872   7.954 -0.6583 -2.8139 -0.1269
13198SOL    HW240645   6.108   5.861   8.046 -0.4064  0.3269  0.0228
13199SOL     OW40646   3.226   3.585   6.866 -0.3933 -0.2348 -0.4320
13199SOL    HW140647   3.281   3.512   6.837  1.0019  0.6659 -0.0957
13199SOL    HW240648   3.234   3.585   6.961 -1.9391 -0.8123 -0.2640
13200SOL     OW40649   3.318   6.956   7.568 -0.5136  0.3003  0.3918
13200SOL    HW140650   3.313   6.865   7.536  1.5868  0.8578 -1.8371
13200SOL    HW240651   3.232   6.993   7.545 -1.3714 -1.0499  1.2319
13201SOL     OW40652   5.351   3.439   6.036 -0.3984  0.0167  0.0410
13201SOL    HW140653   5.380   3.530   6.024 -1.5939  0.4665  0.4454
13201SOL    HW240654   5.256   3.443   6.029 -0.3792 -1.5517 -2.1264
13202SOL     OW40655   3.275   7.561   2.932  0.0596 -0.2132  0.1236
13202SOL    HW140656   3.367   7.561   2.903 -0.4732  0.1320 -1.7408
13202SOL    HW240657   3.276   7.511   3.014  1.8427 -0.6010 -0.0730
13203SOL     OW40658   6.870   2.395   6.810  0.3390 -0.5360 -0.0640
13203SOL    HW140659   6.861   2.392   6.905  0.0583  0.2669 -0.0583
13203SOL    HW240660   6.896   2.306   6.786 -0.1592 -0.9032  0.6982
13204SOL     OW40661   5.149   6.949   2.432 -0.0479 -0.4784 -0.5247
13204SOL    HW140662   5.120   6.985   2.515 -0.7925 -1.0365 -0.5321
13204SOL    HW240663   5.244   6.941   2.441 -0.2198 -1.4712  0.6612
13205SOL     OW40664   3.441   1.974   1.425 -0.2346 -0.7695  0.4473
13205SOL    HW140665   3.419   1.912   1.355  0.2460 -0.6142  0.1495
13205SOL    HW240666   3.395   2.054   1.401 -1.2549 -1.1456  1.0934
13206SOL     OW40667   4.254   2.662   4.234  0.1272  0.6200 -0.0473
13206SOL    HW140668   4.345   2.633   4.230  0.5347  2.0084 -2.1403
13206SOL    HW240669   4.207   2.600   4.178  0.7133  2.7202 -3.0994
13207SOL     OW40670   8.154   1.320   5.138 -0.6735 -0.3701  0.1754
13207SOL    HW140671   8.224   1.312   5.074  0.9736  0.5750  1.7419
13207SOL    HW240672   8.074   1.322   5.086  0.4611 -1.1570 -1.7128
13208SOL     OW40673   7.002   5.643   3.527  0.1425 -0.3737  0.0171
13208SOL    HW140674   7.065   5.580   3.562  0.8769  0.3625  0.0593
13208SOL    HW240675   6.916   5.606   3.547  0.5602 -0.7723  1.1071
13209SOL     OW40676   2.211   2.963   0.239 -0.2700  0.2072 -0.2562
13209SOL    HW140677   2.228   3.042   0.290  1.0165  0.4758 -1.0573
13209SOL    HW240678   2.170   2.902   0.301 -0.9774  1.3647  0.4526
13210SOL     OW40679   5.116   2.208   2.583 -0.2810 -0.2082  0.1276
13210SOL    HW140680   5.166   2.240   2.658 -0.2221  0.7940 -0.3149
13210SOL    HW240681   5.103   2.286   2.528  0.4256 -1.0684 -1.3377
13211SOL     OW40682   5.558   1.193   2.935 -0.0554 -0.4390  0.2387
13211SOL    HW140683   5.579   1.265   2.994 -0.9776 -1.8012  2.3111
13211SOL    HW240684   5.641   1.175   2.889  0.4896  1.1238  0.5421
13212SOL     OW40685   0.513   0.187   7.112  0.2690 -0.1669  0.0146
13212SOL    HW140686   0.582   0.251   7.128  0.3868 -0.8022  2.4525
13212SOL    HW240687   0.556   0.102   7.122 -0.6349 -0.5778  0.5651
13213SOL     OW40688   5.683   3.812   1.800  0.1711 -0.1024 -0.2156
13213SOL    HW140689   5.723   3.887   1.756 -0.7329 -0.1486 -1.1536
13213SOL    HW240690   5.636   3.766   1.731 -0.0977 -0.9939  0.5379
13214SOL     OW40691   2.275   2.389   6.434  0.1806  0.1177  0.3173
13214SOL    HW140692   2.293   2.328   6.505 -1.1965 -1.2309 -0.4271
13214SOL    HW240693   2.302   2.342   6.355 -0.4008  0.6759 -0.2295
13215SOL     OW40694   1.752   5.693   3.315 -0.3805  0.1061 -0.2590
13215SOL    HW140695   1.802   5.624   3.359 -0.9335  0.4666  0.9837
13215SOL    HW240696   1.683   5.716   3.378  0.3882  2.4914 -0.2016
13216SOL     OW40697   0.769   3.533   4.822  0.2339  0.1487  0.5451
13216SOL    HW140698   0.719   3.577   4.753  0.1145  1.5751  1.5039
13216SOL    HW240699   0.703   3.510   4.888  0.7133  1.6016  1.5930
13217SOL     OW40700   1.458   3.992   0.220  0.4588 -0.3010  0.3394
13217SOL    HW140701   1.525   3.951   0.275  0.8391  0.0123  0.1191
13217SOL    HW240702   1.375   3.963   0.257  0.7092 -1.8217 -0.2057
13218SOL     OW40703   1.922   5.746   0.092 -0.4254 -0.0241  0.0882
13218SOL    HW140704   1.985   5.731   0.163 -0.3949 -1.8910 -0.2897
13218SOL    HW240705   1.872   5.665   0.086 -1.8502  0.8758 -0.6440
13219SOL     OW40706   4.525   6.618   3.941 -0.1013  0.4527  0.4473
13219SOL    HW140707   4.476   6.638   3.861  1.9336 -1.3393 -1.4106
13219SOL    HW240708   4.488   6.534   3.971 -0.8102  1.0845  1.4031
13220SOL     OW40709   1.859   1.565   0.048  0.1075  0.3270  0.3482
13220SOL    HW140710   1.925   1.502   0.077 -0.0521 -1.8090 -3.2424
13220SOL    HW240711   1.778   1.513   0.043 -0.1843  0.9090 -2.1033
13221SOL     OW40712   7.502   7.631   7.777 -0.3696 -0.7214 -0.0560
13221SOL    HW140713   7.520   7.718   7.813 -0.9155 -0.5975 -0.0628
13221SOL    HW240714   7.538   7.635   7.688  0.3035 -0.7731  0.2091
13222SOL     OW40715   3.316   4.419   0.094  0.5579 -0.6518  0.4865
13222SOL    HW140716   3.307   4.374   0.178 -2.7142 -1.4521 -0.1671
13222SOL    HW240717   3.297   4.352   0.029 -0.8491  0.8363 -0.6881
13223SOL     OW40718   2.083   3.842   7.057  0.2114  0.9199 -0.0667
13223SOL    HW140719   2.164   3.799   7.033  0.6014  1.6958 -0.1933
13223SOL    HW240720   2.108   3.905   7.125 -0.9148 -1.4046  2.6949
13224SOL     OW40721   1.759   4.780   4.772 -0.1168 -0.4386 -0.1393
13224SOL    HW140722   1.761   4.815   4.683 -0.1299 -1.3934 -0.5302
13224SOL    HW240723   1.691   4.830   4.816 -1.1653 -0.9549 -1.1126
13225SOL     OW40724   0.861   3.005   3.983  0.0672  0.1114  0.4515
13225SOL    HW140725   0.844   3.022   4.075 -1.1106 -0.4441  0.3452
13225SOL    HW240726   0.943   3.052   3.965 -0.1056  0.8714  1.5716
13226SOL     OW40727   1.973   6.039   1.541 -0.6264 -0.0989 -0.0553
13226SOL    HW140728   2.046   6.021   1.481 -0.4146 -1.7136  0.6209
13226SOL    HW240729   1.895   6.016   1.491 -0.6871  1.5033 -0.7349
13227SOL     OW40730   3.239   7.392   3.169  0.4097 -0.1898 -0.5055
13227SOL    HW140731   3.263   7.359   3.255 -0.2579 -1.4048 -0.7664
13227SOL    HW240732   3.232   7.314   3.114 -0.6596  0.4308 -1.2926
13228SOL     OW40733   1.017   1.101   7.812  0.1174 -0.5540 -0.2310
13228SOL    HW140734   0.990   1.173   7.868  0.7516 -1.5574  1.4463
13228SOL    HW240735   1.035   1.141   7.727  2.2205  1.5911  1.1121
13229SOL     OW40736   6.344   5.058   2.465 -0.4959  0.5299  0.2339
13229SOL    HW140737   6.385   5.140   2.439  1.3411 -0.7913 -1.3094
13229SOL    HW240738   6.389   5.033   2.546 -0.4132  0.5714  0.2004
13230SOL     OW40739   5.255   3.322   0.212  0.8215 -0.0147  0.3458
13230SOL    HW140740   5.222   3.235   0.234 -0.2512 -0.3610 -2.2371
13230SOL    HW240741   5.348   3.310   0.195  0.7551 -0.5868  0.3812
13231SOL     OW40742   1.109   6.139   1.786 -0.3464 -0.2982 -0.2268
13231SOL    HW140743   1.104   6.052   1.824 -0.9675 -1.5419 -2.9559
13231SOL    HW240744   1.019   6.161   1.764  0.0111  0.1816 -1.2918
13232SOL     OW40745   7.912   2.925   7.324 -0.2060 -0.2077 -0.1207
13232SOL    HW140746   7.897   2.862   7.395 -1.5764  0.0365 -0.1554
13232SOL    HW240747   7.894   2.876   7.244 -0.1990 -0.0768 -0.2030
13233SOL     OW40748   3.701   7.899   7.344  0.4898  0.1023  0.5081
13233SOL    HW140749   3.654   7.820   7.317  0.9446 -0.0379  0.1211
13233SOL    HW240750   3.667   7.917   7.432  0.1175 -0.3144  0.4575
13234SOL     OW40751   8.230   0.609   1.911  0.1562 -0.3310  0.2809
13234SOL    HW140752   8.284   0.688   1.900  1.1725 -0.9234  0.8254
13234SOL    HW240753   8.234   0.566   1.825 -0.0563  0.0038  0.1034
13235SOL     OW40754   4.990   3.613   2.342 -0.7181 -0.1978 -0.0167
13235SOL    HW140755   5.083   3.629   2.330 -0.3606 -2.0490 -0.1050
13235SOL    HW240756   4.976   3.526   2.304 -2.3153 -0.3011  0.7315
13236SOL     OW40757   7.466   5.912   0.879 -0.2009  0.3428 -0.4486
13236SOL    HW140758   7.484   5.858   0.957 -1.0636  1.8606  0.8500
13236SOL    HW240759   7.550   5.915   0.833  1.4974  2.4989  2.4467
13237SOL     OW40760   1.262   1.893   7.022  0.4671 -0.2619 -0.0990
13237SOL    HW140761   1.254   1.973   6.970  2.3568  0.4009  0.5302
13237SOL    HW240762   1.218   1.915   7.105 -0.7580 -0.6059 -0.6365
13238SOL     OW40763   6.405   1.205   8.098  0.3195  0.0582 -0.2922
13238SOL    HW140764   6.441   1.289   8.127 -0.4115  0.1893  0.2576
13238SOL    HW240765   6.419   1.204   8.004  2.2854 -0.1511 -0.0372
13239SOL     OW40766   1.418   0.458   6.697 -0.1154 -0.2201 -0.2072
13239SOL    HW140767   1.360   0.395   6.655  0.1461  0.6048 -1.9102
13239SOL    HW240768   1.482   0.480   6.629  0.7846  0.6399  0.8803
13240SOL     OW40769   7.061   5.790   5.488 -0.3675  0.6319  0.6689
13240SOL    HW140770   6.981   5.761   5.532  0.5082 -1.9188  0.6891
13240SOL    HW240771   7.053   5.757   5.399  0.9038 -0.1239  0.8221
13241SOL     OW40772   1.918   1.327   4.639 -0.4445 -0.0730 -0.0817
13241SOL    HW140773   1.947   1.412   4.671  0.4266  0.4896 -2.1502
13241SOL    HW240774   1.857   1.295   4.705 -1.6099  2.6272  0.2737
13242SOL     OW40775   4.429   4.300   0.190  0.3873 -0.0208  0.2354
13242SOL    HW140776   4.416   4.361   0.262  1.1839 -1.1551  1.3757
13242SOL    HW240777   4.352   4.243   0.193  0.0296  0.4105 -0.3432
13243SOL     OW40778   3.300   2.983   2.285 -0.3323  0.2992 -0.2519
13243SOL    HW140779   3.242   2.907   2.292  0.3810 -0.1670  0.7661
13243SOL    HW240780   3.340   2.991   2.372  0.3953  1.1992 -0.6536
13244SOL     OW40781   5.508   6.233   5.967 -0.1784  0.2388 -0.4163
13244SOL    HW140782   5.537   6.205   5.881  1.7928 -0.7238  0.4983
13244SOL    HW240783   5.430   6.181   5.985 -1.1833  1.1444 -1.9666
13245SOL     OW40784   6.949   3.195   1.967  0.2130  0.0669  0.2256
13245SOL    HW140785   6.976   3.104   1.967 -0.5330 -0.1631 -0.2326
13245SOL    HW240786   6.874   3.198   2.027 -0.1202  0.2664 -0.1936
13246SOL     OW40787   0.853   4.992   4.364 -0.2248 -0.1292 -0.2365
13246SOL    HW140788   0.824   5.015   4.275  0.3478  0.2210 -0.3397
13246SOL    HW240789   0.948   4.991   4.358 -0.1898 -0.3802  0.3124
13247SOL     OW40790   3.639   8.257   7.325  0.2379  0.2783 -0.2662
13247SOL    HW140791   3.567   8.196   7.338  0.7909 -0.4261 -0.4616
13247SOL    HW240792   3.599   8.344   7.333 -0.2259 -0.0688  1.9974
13248SOL     OW40793   1.243   3.133   1.088 -0.3525  0.7570  0.0484
13248SOL    HW140794   1.147   3.135   1.090 -0.3681  0.0405  0.4958
13248SOL    HW240795   1.265   3.141   0.995 -0.8658  0.4702 -0.1045
13249SOL     OW40796   4.749   7.242   0.884 -0.0095 -0.2116  0.5157
13249SOL    HW140797   4.802   7.243   0.805 -0.1617 -0.0883  0.4146
13249SOL    HW240798   4.747   7.333   0.913 -2.0905  0.2149 -0.7731
13250SOL     OW40799   6.616   6.723   6.185  0.0292  0.1076  0.3478
13250SOL    HW140800   6.635   6.651   6.126  3.4939  0.9034  0.2801
13250SOL    HW240801   6.630   6.802   6.132 -1.0373  0.8488  1.1274
13251SOL     OW40802   5.868   3.123   8.273  0.2475  0.2759 -0.3775
13251SOL    HW140803   5.953   3.101   8.311 -0.9579 -0.5413  1.9752
13251SOL    HW240804   5.847   3.209   8.309 -1.2268 -0.8098  1.5440
13252SOL     OW40805   6.324   6.133   2.294 -0.0204  0.5472  0.7695
13252SOL    HW140806   6.376   6.208   2.324  0.3288  0.0163  1.5156
13252SOL    HW240807   6.339   6.131   2.199 -0.2504  1.5804  0.6970
13253SOL     OW40808   7.947   2.643   0.821  0.8647 -0.1847  0.3554
13253SOL    HW140809   7.866   2.592   0.823 -0.1281  1.3544  0.8476
13253SOL    HW240810   7.924   2.722   0.772  1.6710  0.9109  1.6915
13254SOL     OW40811   7.740   4.496   7.881  0.4447 -0.2757  0.3964
13254SOL    HW140812   7.708   4.464   7.966  2.5548 -1.7994  0.6955
13254SOL    HW240813   7.745   4.591   7.892 -2.3337 -0.0867  0.8145
13255SOL     OW40814   5.064   0.572   3.925 -0.2224 -0.1163  0.3895
13255SOL    HW140815   5.155   0.603   3.920 -0.3219  0.1599  0.2922
13255SOL    HW240816   5.072   0.477   3.929  0.0382 -0.1683 -0.7722
13256SOL     OW40817   0.722   1.845   6.694 -0.1600 -0.0575  0.1409
13256SOL    HW140818   0.683   1.762   6.666 -0.0562 -0.1547  0.2803
13256SOL    HW240819   0.815   1.826   6.702  0.0054  0.3405 -0.7778
13257SOL     OW40820   4.555   4.693   5.068  0.6024  0.0962 -0.3962
13257SOL    HW140821   4.551   4.633   5.142 -2.5959 -0.0964 -0.5824
13257SOL    HW240822   4.566   4.636   4.992  0.1519 -0.0329 -0.3652
13258SOL     OW40823   6.269   1.802   0.749  0.0043 -0.0148  0.0501
13258SOL    HW140824   6.210   1.858   0.698 -0.2079 -0.6174 -0.3876
13258SOL    HW240825   6.238   1.811   0.839  1.2090  2.0846  0.3103
13259SOL     OW40826   1.139   7.516   0.407  0.4583  0.0461  0.2299
13259SOL    HW140827   1.185   7.434   0.391 -0.0900 -0.1215 -0.5501
13259SOL    HW240828   1.121   7.516   0.501 -0.1522 -1.0678  0.1328
13260SOL     OW40829   5.033   0.565   7.364  0.3670 -0.4291  0.3018
13260SOL    HW140830   5.099   0.612   7.315 -0.3679  1.3795  0.9526
13260SOL    HW240831   5.082   0.502   7.417  1.3076 -1.0019 -1.1889
13261SOL     OW40832   5.871   7.560   3.134 -0.3380  0.1474  0.0363
13261SOL    HW140833   5.842   7.638   3.087 -2.2182 -0.7862 -0.4230
13261SOL    HW240834   5.960   7.582   3.163 -0.5107  2.1365 -0.7671
13262SOL     OW40835   0.322   4.979   6.579 -0.2984 -0.4868 -0.5353
13262SOL    HW140836   0.256   5.021   6.634  1.4469  2.2751 -0.3710
13262SOL    HW240837   0.391   4.953   6.640  0.0353 -0.7672 -1.0231
13263SOL     OW40838   8.077   7.569   0.354 -0.3740  0.4787 -0.0455
13263SOL    HW140839   8.107   7.503   0.416 -0.1580  0.5784 -0.0427
13263SOL    HW240840   8.073   7.650   0.405 -1.4334  0.3076  0.1605
13264SOL     OW40841   4.368   6.857   0.316 -0.3253  0.3121  0.2203
13264SOL    HW140842   4.406   6.920   0.377  1.5905 -1.0369  0.5030
13264SOL    HW240843   4.311   6.802   0.370  1.2374 -0.7738  0.8289
13265SOL     OW40844   7.111   2.168   3.524  0.4974  0.3454 -0.0983
13265SOL    HW140845   7.099   2.123   3.607  1.6282  0.1345 -0.0258
13265SOL    HW240846   7.137   2.257   3.548  2.3760 -0.1374 -0.1674
13266SOL     OW40847   4.943   3.477   4.217  0.1316 -0.1883  0.0719
13266SOL    HW140848   5.025   3.433   4.193 -0.0495 -0.7362  0.4344
13266SOL    HW240849   4.882   3.451   4.148 -0.3996 -1.7952  1.0925
13267SOL     OW40850   0.308   3.683   4.796 -0.7188  0.5868  0.1813
13267SOL    HW140851   0.306   3.778   4.790 -0.9302  0.5264 -0.9690
13267SOL    HW240852   0.336   3.654   4.709 -0.1989 -0.3878  0.6597
13268SOL     OW40853   6.251   6.974   4.298  0.4595 -0.4384 -0.1265
13268SOL    HW140854   6.182   6.927   4.344 -0.2367  1.5280  0.9572
13268SOL    HW240855   6.316   6.993   4.366  0.3600  0.7792 -0.3387
13269SOL     OW40856   2.996   0.691   0.558 -0.1211 -0.0719 -0.8110
13269SOL    HW140857   2.971   0.609   0.601 -0.0253  0.8439  1.0880
13269SOL    HW240858   2.915   0.722   0.516 -0.0812 -1.2679 -1.8006
13270SOL     OW40859   6.633   2.522   4.987 -0.1931 -0.1058  0.0718
13270SOL    HW140860   6.538   2.532   4.999 -0.0188  0.9868  0.7003
13270SOL    HW240861   6.666   2.611   4.984  1.0319 -0.4546  1.7989
13271SOL     OW40862   1.158   3.960   1.579 -0.3824  0.4220  0.1362
13271SOL    HW140863   1.082   3.981   1.524  0.4640  1.1979 -0.7849
13271SOL    HW240864   1.215   3.909   1.521  0.4306  1.0601  0.3662
13272SOL     OW40865   6.480   3.551   1.833 -0.2204 -0.1426  0.0177
13272SOL    HW140866   6.423   3.551   1.756  1.3564 -0.0979 -1.1991
13272SOL    HW240867   6.524   3.466   1.831 -0.0016 -0.0571  0.7454
13273SOL     OW40868   1.379   7.566   3.512 -0.0795 -0.2589  0.1987
13273SOL    HW140869   1.320   7.584   3.585  0.6794  1.9201  0.3357
13273SOL    HW240870   1.450   7.628   3.522  0.4375 -0.4130 -1.9745
13274SOL     OW40871   7.471   2.309   6.489  0.1600  0.1374 -0.2164
13274SOL    HW140872   7.499   2.218   6.488 -0.7255 -0.1629  0.4745
13274SOL    HW240873   7.550   2.360   6.470  0.4626 -0.8036 -1.6003
13275SOL     OW40874   5.041   6.732   0.632 -0.1670 -0.5370  0.0985
13275SOL    HW140875   5.082   6.786   0.564  0.6301 -1.0242  0.1810
13275SOL    HW240876   5.090   6.650   0.630  1.3548  0.2010  2.7516
13276SOL     OW40877   2.674   0.151   0.398 -0.3368 -0.1150  0.2316
13276SOL    HW140878   2.579   0.162   0.403 -0.2932  0.0859  0.6663
13276SOL    HW240879   2.690   0.124   0.308 -1.1383 -3.4668  0.9553
13277SOL     OW40880   7.788   4.388   1.749  0.4414  0.0886 -0.0169
13277SOL    HW140881   7.817   4.320   1.810 -0.8422  0.0573  0.5888
13277SOL    HW240882   7.829   4.468   1.781  0.7435 -0.1357  0.1658
13278SOL     OW40883   0.183   0.367   4.046 -0.5239 -0.1141 -0.0747
13278SOL    HW140884   0.170   0.386   4.138 -1.4529 -0.8540 -0.0351
13278SOL    HW240885   0.275   0.340   4.039 -0.1631  0.9249  0.4374
13279SOL     OW40886   2.563   0.365   1.009  0.1049  0.6734 -0.7251
13279SOL    HW140887   2.592   0.453   0.984  0.5026  0.1479 -2.1989
13279SOL    HW240888   2.599   0.352   1.097 -0.3547  2.1448 -0.2940
13280SOL     OW40889   1.440   0.757   5.496 -0.8645  0.2056  0.2203
13280SOL    HW140890   1.510   0.822   5.497 -0.9712  0.3362 -0.2924
13280SOL    HW240891   1.406   0.760   5.406 -0.8245 -0.6017  0.1728
13281SOL     OW40892   4.403   5.583   0.058 -0.3331 -0.1029 -0.6635
13281SOL    HW140893   4.336   5.651   0.044  0.4707  1.0392  0.7863
13281SOL    HW240894   4.486   5.630   0.053  0.2857 -1.1610 -0.5198
13282SOL     OW40895   3.774   6.123   6.189  0.0472 -0.2605 -0.6052
13282SOL    HW140896   3.785   6.204   6.139 -2.3233  0.1924 -0.5039
13282SOL    HW240897   3.679   6.114   6.200  0.2580 -2.8434 -0.2522
13283SOL     OW40898   5.224   5.972   8.007 -0.5073  0.3621 -0.2053
13283SOL    HW140899   5.297   5.910   8.000  0.2220  1.3748 -3.9303
13283SOL    HW240900   5.265   6.052   8.041  0.0108  0.6634 -1.4703
13284SOL     OW40901   0.240   8.256   1.767 -0.3330 -0.0987 -0.2727
13284SOL    HW140902   0.243   8.177   1.713 -0.6415  0.3603 -0.9675
13284SOL    HW240903   0.311   8.311   1.733  1.5488 -1.0684  1.8065
13285SOL     OW40904   6.908   0.778   3.167 -0.7037  0.0128 -0.4803
13285SOL    HW140905   6.886   0.723   3.091 -1.2810  0.5505 -0.7108
13285SOL    HW240906   6.831   0.773   3.223  0.1863 -1.3754  0.6926
13286SOL     OW40907   0.722   1.731   0.718 -0.6414 -0.4977  0.1993
13286SOL    HW140908   0.810   1.750   0.750 -0.6476 -1.0386  0.5472
13286SOL    HW240909   0.705   1.799   0.653  0.8639 -1.5629 -1.4103
13287SOL     OW40910   6.710   2.500   5.356 -0.0432  0.1733 -0.5377
13287SOL    HW140911   6.616   2.493   5.371  0.1850 -1.3275  0.4253
13287SOL    HW240912   6.732   2.588   5.389 -0.8899  0.0187  0.5107
13288SOL     OW40913   0.041   0.123   1.408  0.3996  0.5436 -0.5215
13288SOL    HW140914   0.007   0.114   1.319 -0.1091  0.6552 -0.3439
13288SOL    HW240915   0.038   0.034   1.443  0.9580  0.4361 -0.7400
13289SOL     OW40916   2.783   3.756   6.723 -0.2910  0.2257  0.2595
13289SOL    HW140917   2.755   3.787   6.638 -0.6047 -0.2653  0.1788
13289SOL    HW240918   2.873   3.726   6.709 -1.1635 -2.2513 -0.5405
13290SOL     OW40919   7.599   2.309   2.467  0.3825  0.3408  0.2349
13290SOL    HW140920   7.545   2.236   2.438  2.0587 -1.3178  1.0567
13290SOL    HW240921   7.573   2.324   2.558  2.4111 -1.7119  1.2668
13291SOL     OW40922   6.404   3.806   0.669 -0.1450  0.2409 -0.3185
13291SOL    HW140923   6.346   3.834   0.740  0.5482  1.2188 -0.1226
13291SOL    HW240924   6.492   3.811   0.706  0.1532 -0.1831 -0.9490
13292SOL     OW40925   0.736   7.412   7.923  0.0895 -0.1008 -0.2683
13292SOL    HW140926   0.761   7.494   7.881 -0.6309 -0.1828 -0.8904
13292SOL    HW240927   0.640   7.413   7.922 -0.0299  0.6711  2.9366
13293SOL     OW40928   0.047   3.790   1.891  0.2226  0.0907 -0.2246
13293SOL    HW140929  -0.002   3.741   1.825  1.7984 -1.4616 -0.3242
13293SOL    HW240930   0.013   3.758   1.975  1.0496 -1.0142 -0.2919
13294SOL     OW40931   3.840   8.073   4.107  0.1276 -0.7535  0.1581
13294SOL    HW140932   3.815   8.046   4.019 -0.2424  0.4026 -0.1152
13294SOL    HW240933   3.762   8.117   4.142 -0.1987 -2.3494  1.5900
13295SOL     OW40934   7.244   5.804   0.777  0.4763 -0.4288  0.0980
13295SOL    HW140935   7.179   5.811   0.846  0.6222 -1.9034  0.4162
13295SOL    HW240936   7.324   5.841   0.815 -0.2618  1.9482 -0.4980
13296SOL     OW40937   4.502   0.761   4.290 -0.2712 -0.2526 -0.3411
13296SOL    HW140938   4.410   0.740   4.273 -0.1047 -0.2161 -1.4136
13296SOL    HW240939   4.547   0.677   4.283 -0.2172 -0.2622  0.1320
13297SOL     OW40940   3.128   0.752   0.080  0.1291  0.3450 -0.5511
13297SOL    HW140941   3.175   0.817   0.131  1.8006 -1.3974  0.2709
13297SOL    HW240942   3.048   0.735   0.130  1.1114 -0.3668  0.8669
13298SOL     OW40943   3.287   7.596   6.033 -0.6660  0.7470 -0.3167
13298SOL    HW140944   3.352   7.634   5.974  0.6063 -0.1657  0.4687
13298SOL    HW240945   3.286   7.654   6.109 -0.3448  0.4428 -0.0789
13299SOL     OW40946   2.731   1.553   2.705  0.6499  0.6207  0.4358
13299SOL    HW140947   2.690   1.604   2.635  2.3399  2.1350  0.4990
13299SOL    HW240948   2.684   1.581   2.784 -0.2747 -0.0162  0.1395
13300SOL     OW40949   5.873   0.849   6.297 -0.3195 -0.2066  0.3079
13300SOL    HW140950   5.827   0.805   6.225  0.8654  0.5029 -0.9284
13300SOL    HW240951   5.913   0.778   6.346  1.1141 -0.6329 -1.3526
13301SOL     OW40952   2.487   7.204   5.457  0.2518  0.2126 -0.0601
13301SOL    HW140953   2.461   7.186   5.367 -1.9375  2.7219 -0.0722
13301SOL    HW240954   2.477   7.120   5.502  0.6113 -0.9028 -1.9695
13302SOL     OW40955   7.943   7.233   2.214 -0.5193  0.4324 -0.3030
13302SOL    HW140956   7.985   7.313   2.180 -2.0807  1.6930  0.6105
13302SOL    HW240957   7.987   7.162   2.167  0.7860  1.8243 -1.3057
13303SOL     OW40958   1.280   1.552   7.783  0.0928 -0.7865 -0.3343
13303SOL    HW140959   1.360   1.587   7.823 -1.0485 -0.3569  1.7557
13303SOL    HW240960   1.241   1.628   7.739  0.0801 -0.6048 -0.0180
13304SOL     OW40961   2.260   6.739   0.318 -0.5093 -0.3100  0.1073
13304SOL    HW140962   2.193   6.715   0.254  0.4713 -0.6815 -0.8140
13304SOL    HW240963   2.339   6.752   0.266 -0.0426  0.9221  1.0782
13305SOL     OW40964   2.308   6.323   3.964 -0.4058  0.3863 -0.0829
13305SOL    HW140965   2.289   6.247   3.909 -0.8937 -0.2720  0.9604
13305SOL    HW240966   2.304   6.398   3.904 -0.0399 -0.3865 -1.1057
13306SOL     OW40967   4.343   1.708   3.601  0.7548 -0.3433 -0.5501
13306SOL    HW140968   4.323   1.795   3.634 -2.2371 -1.0197 -0.3560
13306SOL    HW240969   4.262   1.658   3.611  1.9982 -2.8327 -1.7676
13307SOL     OW40970   0.388   4.408   0.620 -0.3149 -0.4308  0.0101
13307SOL    HW140971   0.457   4.467   0.650 -0.7338  1.2859 -2.1529
13307SOL    HW240972   0.428   4.357   0.551 -0.5194 -1.3020  0.5192
13308SOL     OW40973   0.680   5.413   6.456  0.0859  0.2744  0.2363
13308SOL    HW140974   0.754   5.354   6.445 -0.5961 -0.4317 -0.7220
13308SOL    HW240975   0.603   5.356   6.456 -0.5579  1.1057 -0.3102
13309SOL     OW40976   5.817   3.469   3.960  0.3765 -0.0612  0.2580
13309SOL    HW140977   5.875   3.497   4.031 -1.6591  1.4266  1.4576
13309SOL    HW240978   5.786   3.551   3.921 -2.6293 -0.6016  1.1915
13310SOL     OW40979   2.865   6.140   0.758  0.8239  0.5354 -0.4380
13310SOL    HW140980   2.780   6.123   0.718  1.1810  1.4078 -1.6566
13310SOL    HW240981   2.928   6.102   0.697  1.3179 -0.0352  0.4124
13311SOL     OW40982   6.415   0.612   2.371  0.2426 -0.3961 -0.2823
13311SOL    HW140983   6.402   0.620   2.276 -0.8298  0.3918 -0.0890
13311SOL    HW240984   6.494   0.663   2.389  0.1179 -0.0569 -0.6799
13312SOL     OW40985   7.331   5.181   2.451 -0.7193 -0.1118  0.1501
13312SOL    HW140986   7.246   5.223   2.437 -0.1487  0.7207 -1.0026
13312SOL    HW240987   7.389   5.222   2.386  0.7283 -0.1988  1.3221
13313SOL     OW40988   0.983   0.089   3.428 -0.0926 -0.6098  0.4835
13313SOL    HW140989   0.969   0.109   3.336 -0.2112  0.4166  0.7121
13313SOL    HW240990   0.895   0.084   3.466 -0.0336 -0.5346  0.6334
13314SOL     OW40991   0.669   7.421   1.706 -0.4888 -0.3449 -0.1153
13314SOL    HW140992   0.580   7.385   1.705 -1.1867  1.1619  1.8355
13314SOL    HW240993   0.722   7.352   1.748 -1.0344 -0.6569  0.0705
13315SOL     OW40994   7.149   8.117   6.469  0.5112 -0.3921 -0.4004
13315SOL    HW140995   7.238   8.083   6.463  0.9153  0.5557  0.0063
13315SOL    HW240996   7.117   8.087   6.554  0.4326 -0.7236 -0.5422
13316SOL     OW40997   6.277   7.375   6.911  0.3439  0.5405 -0.1361
13316SOL    HW140998   6.259   7.283   6.894 -0.4458  0.4003  1.3394
13316SOL    HW240999   6.291   7.413   6.824  0.3936 -0.8933 -0.7816
13317SOL     OW41000   0.682   2.350   7.275 -0.1003  0.0453 -0.2291
13317SOL    HW141001   0.591   2.375   7.291  0.5928  2.4365  0.4406
13317SOL    HW241002   0.680   2.254   7.268 -2.4711 -0.0716  1.0006
13318SOL     OW41003   2.527   3.135   0.396 -0.1599 -0.0567  0.4527
13318SOL    HW141004   2.560   3.205   0.340 -0.9908  0.6635  0.8354
13318SOL    HW241005   2.433   3.130   0.376 -0.1537 -0.9319  0.5766
13319SOL     OW41006   8.124   7.065   2.784 -0.8022 -0.4054 -0.5068
13319SOL    HW141007   8.072   7.133   2.826 -0.2385 -0.2934  0.0223
13319SOL    HW241008   8.209   7.107   2.766  0.2074 -1.4671  1.4998
13320SOL     OW41009   4.052   3.658   3.163 -0.6064  0.4754  0.0748
13320SOL    HW141010   4.015   3.570   3.154  1.0433 -0.0821 -2.3097
13320SOL    HW241011   4.018   3.706   3.088  1.2445  0.7680 -0.6169
13321SOL     OW41012   0.986   7.649   4.201  0.3573 -0.4531 -0.2867
13321SOL    HW141013   0.936   7.728   4.220 -0.5458 -1.1029  0.1364
13321SOL    HW241014   1.077   7.674   4.216 -0.0749 -0.1108  2.1688
13322SOL     OW41015   0.953   5.654   0.750 -0.2278  0.3913  0.6234
13322SOL    HW141016   0.937   5.568   0.790 -2.5234  0.6590  0.3865
13322SOL    HW241017   1.010   5.636   0.675 -1.8967 -1.1792 -0.3326
13323SOL     OW41018   4.905   7.554   3.014  0.6463  0.0667  0.1346
13323SOL    HW141019   4.843   7.495   3.057  0.6592 -1.1798 -1.4657
13323SOL    HW241020   4.852   7.630   2.990  0.2487 -0.0144  0.7146
13324SOL     OW41021   2.624   4.525   5.302 -0.1308  0.4063  0.1760
13324SOL    HW141022   2.683   4.587   5.346 -1.0314  0.3472  1.5133
13324SOL    HW241023   2.607   4.565   5.217  0.4048  1.3169  0.4826
13325SOL     OW41024   5.443   5.077   2.293 -0.1275 -0.3550  0.3142
13325SOL    HW141025   5.395   5.032   2.363  0.0016 -0.7512  0.1472
13325SOL    HW241026   5.458   5.165   2.327  1.2720 -0.9819  1.4177
13326SOL     OW41027   7.254   8.082   4.220 -0.3137 -0.6812 -0.0098
13326SOL    HW141028   7.226   8.116   4.305 -0.5273  0.3652 -0.4900
13326SOL    HW241029   7.267   7.988   4.236  1.9839 -0.1359  1.7533
13327SOL     OW41030   7.904   3.147   0.648 -0.7765 -0.3509 -0.5670
13327SOL    HW141031   7.875   3.060   0.675 -1.7593 -0.1690 -0.9628
13327SOL    HW241032   7.942   3.134   0.561 -2.6717 -0.1363 -1.4800
13328SOL     OW41033   6.440   7.620   4.196  0.1787 -0.6296  0.4659
13328SOL    HW141034   6.417   7.642   4.105  1.0240 -1.0297  0.1434
13328SOL    HW241035   6.372   7.662   4.249 -0.7252 -0.9499 -0.3899
13329SOL     OW41036   7.057   6.913   2.372  0.4407  0.0953  0.0894
13329SOL    HW141037   6.984   6.965   2.406 -0.5285 -1.3374  0.3218
13329SOL    HW241038   7.106   6.974   2.317 -0.0685  1.4888  1.1251
13330SOL     OW41039   7.781   1.533   7.001  0.4878  0.0386 -0.4415
13330SOL    HW141040   7.810   1.620   6.973  1.4079 -0.5344 -1.3636
13330SOL    HW241041   7.688   1.544   7.021  0.6998  1.3340 -0.0773
13331SOL     OW41042   5.097   7.888   7.594  0.2469 -0.3612  0.2443
13331SOL    HW141043   5.186   7.877   7.559  0.0750  0.6100 -0.5363
13331SOL    HW241044   5.044   7.826   7.543  0.0603  0.8004 -1.0279
13332SOL     OW41045   0.633   2.352   0.187 -0.0962  0.5917  0.2003
13332SOL    HW141046   0.710   2.324   0.137 -0.4558 -0.8774  0.4036
13332SOL    HW241047   0.655   2.439   0.219  0.3227  1.4199 -2.1358
13333SOL     OW41048   5.828   5.394   3.589 -0.4541 -0.2108  0.0687
13333SOL    HW141049   5.860   5.362   3.504  2.5785  1.5386  0.3942
13333SOL    HW241050   5.799   5.484   3.571 -1.3592 -0.3940  0.5876
13334SOL     OW41051   4.695   0.037   7.573  0.4339  0.2278  0.3760
13334SOL    HW141052   4.674  -0.055   7.588 -1.4572  0.2113 -1.7543
13334SOL    HW241053   4.661   0.083   7.650 -0.0000 -0.7016  0.7512
13335SOL     OW41054   1.785   0.319   7.823  0.2553 -0.5639 -0.1421
13335SOL    HW141055   1.777   0.368   7.905  0.5484  0.4545 -0.7031
13335SOL    HW241056   1.873   0.339   7.792  0.4479 -1.6140 -0.2927
13336SOL     OW41057   8.217   1.723   4.996 -0.2530 -0.1879  0.0046
13336SOL    HW141058   8.153   1.794   4.987 -0.2943 -0.1552  0.4868
13336SOL    HW241059   8.181   1.652   4.943 -0.1958  0.1623 -0.5064
13337SOL     OW41060   6.303   0.619   8.123  0.5386 -0.1283 -0.2603
13337SOL    HW141061   6.318   0.549   8.060  0.4340  0.8914 -1.4572
13337SOL    HW241062   6.302   0.575   8.208 -0.0762 -1.6469 -1.0133
13338SOL     OW41063   4.091   1.019   1.583  0.2313  0.1312  0.2815
13338SOL    HW141064   4.081   0.935   1.628 -0.5234 -0.2335 -0.5271
13338SOL    HW241065   4.085   1.085   1.652 -0.0325 -0.4510  0.8225
13339SOL     OW41066   2.534   3.951   7.833  0.7184  0.5755 -0.0404
13339SOL    HW141067   2.465   3.997   7.786  2.4987  1.4392 -2.0226
13339SOL    HW241068   2.536   3.863   7.794  0.1207  0.2326  0.6950
13340SOL     OW41069   7.507   5.364   7.804 -0.1670 -0.0041 -0.0855
13340SOL    HW141070   7.559   5.347   7.883 -2.3005  1.2304  1.7096
13340SOL    HW241071   7.501   5.279   7.761  2.6094 -0.3466  0.0248
13341SOL     OW41072   4.184   0.454   0.307 -0.3671 -0.1604 -0.0067
13341SOL    HW141073   4.100   0.409   0.295 -0.6374 -0.1173  1.4376
13341SOL    HW241074   4.159   0.536   0.351  0.3859  0.0598  0.0095
13342SOL     OW41075   5.105   3.015   1.662  0.0940 -0.2766  0.6317
13342SOL    HW141076   5.077   3.050   1.577 -1.6282 -0.5604  1.0596
13342SOL    HW241077   5.201   3.020   1.659  0.0145  1.1726 -0.7004
13343SOL     OW41078   5.117   0.027   3.654 -0.0119 -0.3937 -0.2467
13343SOL    HW141079   5.162  -0.051   3.622  2.0613  0.6611 -0.0683
13343SOL    HW241080   5.050  -0.007   3.714  1.6579 -2.0317  0.8084
13344SOL     OW41081   1.902   2.628   2.347  0.1975  0.0531 -0.4221
13344SOL    HW141082   1.894   2.666   2.434  2.0409  0.1419 -0.2669
13344SOL    HW241083   1.827   2.569   2.339 -0.4224  0.6348  0.8999
13345SOL     OW41084   7.403   5.941   7.715 -0.1225 -0.5959 -0.2762
13345SOL    HW141085   7.333   5.991   7.673  1.7968  1.4968 -1.1278
13345SOL    HW241086   7.481   5.962   7.665  1.6272 -0.8303  2.1906
13346SOL     OW41087   4.034   6.693   1.738 -0.2185 -0.8329  0.5561
13346SOL    HW141088   3.999   6.628   1.678  1.8047 -1.1514 -0.3572
13346SOL    HW241089   4.128   6.696   1.720 -0.2509  2.7833  0.1172
13347SOL     OW41090   4.328   7.457   6.455  0.2389 -0.2211  0.2793
13347SOL    HW141091   4.313   7.465   6.361 -0.0973 -1.4097  0.2104
13347SOL    HW241092   4.405   7.401   6.463 -0.3732 -1.0290  0.7076
13348SOL     OW41093   1.761   3.697   5.963 -0.1319  0.1828 -0.2631
13348SOL    HW141094   1.795   3.608   5.970  0.3493  0.3792 -0.1043
13348SOL    HW241095   1.760   3.731   6.053 -1.7148 -0.1700 -0.1158
13349SOL     OW41096   1.996   2.584   4.274  0.3101 -0.6474  0.6284
13349SOL    HW141097   2.001   2.653   4.208  2.9837 -0.0064  1.4166
13349SOL    HW241098   1.902   2.571   4.287 -0.2719  1.2652 -1.1323
13350SOL     OW41099   7.887   0.122   2.583  0.2201  0.7818 -0.1107
13350SOL    HW141100   7.822   0.053   2.576 -0.0945  1.1494 -0.9459
13350SOL    HW241101   7.842   0.194   2.627 -0.4985  1.6504 -2.1310
13351SOL     OW41102   2.246   1.214   6.009  0.5214 -0.4620 -0.2254
13351SOL    HW141103   2.198   1.292   6.037  0.5606 -0.1394 -1.0155
13351SOL    HW241104   2.283   1.238   5.923 -1.2470 -2.0517 -1.5224
13352SOL     OW41105   1.998   2.260   4.163 -0.1093  0.4497  0.1546
13352SOL    HW141106   1.975   2.273   4.070  0.0067 -3.3503 -0.5804
13352SOL    HW241107   1.931   2.307   4.211 -1.5267  0.6702 -1.9075
13353SOL     OW41108   6.555   6.448   1.633  0.3195  0.2909  1.0085
13353SOL    HW141109   6.507   6.446   1.550 -0.6537  2.8088  1.4232
13353SOL    HW241110   6.646   6.459   1.608  0.3204 -1.1146  0.2757
13354SOL     OW41111   1.321   0.990   7.101 -0.0247 -0.0297 -0.3211
13354SOL    HW141112   1.400   0.937   7.117 -0.7075 -0.9897  0.0180
13354SOL    HW241113   1.333   1.068   7.154  0.1117 -0.7904  0.8049
13355SOL     OW41114   4.081   2.349   5.724 -0.1539 -0.5375  0.6907
13355SOL    HW141115   4.139   2.313   5.657 -0.2891  0.4183  0.0469
13355SOL    HW241116   4.001   2.296   5.717 -0.0859 -0.5864  0.2480
13356SOL     OW41117   0.999   4.035   5.006 -0.3044 -0.6846  0.0191
13356SOL    HW141118   1.077   3.995   4.966 -0.1708 -0.5065  0.0948
13356SOL    HW241119   0.927   4.008   4.950 -0.3594 -1.8367  0.6308
13357SOL     OW41120   4.580   4.190   3.982 -0.3863  0.7436  0.6518
13357SOL    HW141121   4.625   4.109   4.006 -0.2523  0.3121 -0.9396
13357SOL    HW241122   4.487   4.167   3.982 -0.2603 -0.1507 -2.0799
13358SOL     OW41123   5.325   6.814   1.349  0.2253  0.0684 -0.3443
13358SOL    HW141124   5.298   6.824   1.440  0.0038 -0.3596 -0.3586
13358SOL    HW241125   5.376   6.733   1.349 -0.0890 -0.1310 -0.6679
13359SOL     OW41126   7.777   0.927   2.037 -0.4203  0.3124 -0.6850
13359SOL    HW141127   7.811   1.002   2.086 -2.0294  0.1125  0.8582
13359SOL    HW241128   7.743   0.965   1.955  1.0553  0.8578 -1.0745
13360SOL     OW41129   2.748   4.775   3.918 -0.2595  0.6082  0.7242
13360SOL    HW141130   2.770   4.714   3.847 -0.1260 -0.2747  1.5084
13360SOL    HW241131   2.672   4.736   3.961  0.6434  0.2865  2.0713
13361SOL     OW41132   6.656   7.857   6.299  0.1241  0.2139  0.5074
13361SOL    HW141133   6.572   7.892   6.332 -0.4262 -1.1662  0.6180
13361SOL    HW241134   6.641   7.763   6.289  0.6331  0.3505 -2.5503
13362SOL     OW41135   4.326   2.446   7.536  0.1931 -0.2793 -0.2809
13362SOL    HW141136   4.344   2.353   7.521 -1.5835 -0.8121  0.5747
13362SOL    HW241137   4.278   2.448   7.619 -2.2043  1.0391 -1.5686
13363SOL     OW41138   6.423   7.005   6.629  0.0766  0.1834  0.0370
13363SOL    HW141139   6.470   6.954   6.695  0.0634  0.6475  0.4094
13363SOL    HW241140   6.483   7.007   6.554  0.6446  0.7419  0.4957
13364SOL     OW41141   7.575   0.250   2.873  0.9561  0.2267  0.3065
13364SOL    HW141142   7.669   0.242   2.854  0.3819 -2.2920 -2.0539
13364SOL    HW241143   7.532   0.227   2.791 -1.7750 -0.2135  1.7534
13365SOL     OW41144   6.343   4.051   5.601  0.6972 -0.2850 -0.1723
13365SOL    HW141145   6.406   4.007   5.544 -1.4224 -1.3396 -1.8077
13365SOL    HW241146   6.295   3.981   5.644  0.1769  0.4928  0.5569
13366SOL     OW41147   1.847   2.580   2.823 -0.0963 -0.0459  0.0283
13366SOL    HW141148   1.890   2.580   2.908 -2.0126  1.2286  1.0459
13366SOL    HW241149   1.827   2.488   2.807  0.1059 -0.2778  1.0393
13367SOL     OW41150   7.823   0.952   1.352  0.3954  0.4325  0.3689
13367SOL    HW141151   7.876   0.970   1.275  0.3599  0.2930  0.3115
13367SOL    HW241152   7.850   0.865   1.380 -0.9672 -0.3343 -0.6279
13368SOL     OW41153   3.751   6.274   2.505  0.4566 -0.8723  0.0200
13368SOL    HW141154   3.726   6.189   2.470 -0.1119 -0.4833 -0.5432
13368SOL    HW241155   3.672   6.328   2.497  1.0050 -0.0887 -0.2941
13369SOL     OW41156   0.296   4.346   2.692  0.3973  0.3397  0.0172
13369SOL    HW141157   0.391   4.350   2.696  0.3373  1.5325  0.6836
13369SOL    HW241158   0.267   4.384   2.775 -0.6543 -0.9696  0.2869
13370SOL     OW41159   7.953   6.528   0.555 -0.0239 -0.1017  0.0090
13370SOL    HW141160   8.021   6.461   0.564  0.2335  0.0522 -0.7050
13370SOL    HW241161   7.880   6.494   0.606 -0.1426 -1.2738 -0.8966
13371SOL     OW41162   1.053   0.235   4.478 -0.3421 -0.0982 -0.0308
13371SOL    HW141163   1.135   0.202   4.440 -0.4919 -0.7120  0.1615
13371SOL    HW241164   0.998   0.157   4.487 -0.2540 -0.0084  1.5854
13372SOL     OW41165   0.499   5.202   7.803 -0.0125 -0.0933  0.5109
13372SOL    HW141166   0.482   5.136   7.736 -2.1596 -0.7010  1.5439
13372SOL    HW241167   0.591   5.188   7.828  0.0636 -1.5835 -0.4556
13373SOL     OW41168   1.843   6.088   5.901 -0.0564 -0.3651  0.4931
13373SOL    HW141169   1.872   6.048   5.819  0.2146  0.7186  0.0389
13373SOL    HW241170   1.792   6.020   5.945 -0.5792 -0.8172 -0.7823
13374SOL     OW41171   0.451   6.535   5.683 -0.0391 -0.3296 -0.6970
13374SOL    HW141172   0.395   6.539   5.606  1.2427  0.8516 -1.6273
13374SOL    HW241173   0.508   6.612   5.675  2.5477 -2.0924 -0.4805
13375SOL     OW41174   0.108   6.518   0.555  0.6523 -0.4138 -0.1881
13375SOL    HW141175   0.160   6.476   0.486  0.5533  1.0476 -1.1833
13375SOL    HW241176   0.025   6.469   0.555  0.5007 -0.1929 -1.3974
13376SOL     OW41177   0.230   1.140   4.635 -0.4310  0.4449  0.5143
13376SOL    HW141178   0.192   1.228   4.646 -1.2215  0.0287  1.1890
13376SOL    HW241179   0.157   1.086   4.607 -0.8909 -0.8182  3.7477
13377SOL     OW41180   2.253   1.461   2.491 -0.1334 -0.2762  1.2774
13377SOL    HW141181   2.176   1.408   2.472  2.1411 -2.6442 -2.9481
13377SOL    HW241182   2.327   1.400   2.486  2.2558  2.2021  2.9322
13378SOL     OW41183   5.555   3.708   2.211  0.1734 -0.0957  0.2051
13378SOL    HW141184   5.629   3.737   2.265 -0.1650  1.2221  0.0078
13378SOL    HW241185   5.593   3.645   2.150  0.9076 -0.2840  0.8452
13379SOL     OW41186   7.140   3.293   0.494  0.6090 -0.7977 -0.3091
13379SOL    HW141187   7.217   3.347   0.509 -0.5563  0.6865  0.5279
13379SOL    HW241188   7.097   3.286   0.579  0.2525 -2.3484 -0.5689
13380SOL     OW41189   5.255   6.281   0.827 -0.1523 -0.0459  0.0416
13380SOL    HW141190   5.248   6.291   0.922 -1.3620 -2.9344  0.3618
13380SOL    HW241191   5.348   6.292   0.808  0.8220 -3.1223  2.2034
13381SOL     OW41192   5.420   6.465   1.086  0.5257 -0.5365  0.2123
13381SOL    HW141193   5.442   6.524   1.015  2.6056 -0.0777  1.1556
13381SOL    HW241194   5.356   6.404   1.049 -0.9208  1.6315 -1.0767
13382SOL     OW41195   5.422   1.289   0.738 -0.4158  0.0130  0.0240
13382SOL    HW141196   5.381   1.203   0.743  1.7226 -0.9910  1.8239
13382SOL    HW241197   5.476   1.295   0.817  3.2738  0.9834 -2.3581
13383SOL     OW41198   1.621   3.710   0.279 -0.0822  0.0937 -0.0703
13383SOL    HW141199   1.609   3.639   0.342 -0.3807  1.0858  1.0434
13383SOL    HW241200   1.628   3.789   0.334 -2.0867  1.2245 -1.3318
13384SOL     OW41201   3.695   8.246   2.035  0.1189 -0.2525 -0.2213
13384SOL    HW141202   3.716   8.192   2.111 -0.6021 -0.4486 -0.1616
13384SOL    HW241203   3.608   8.281   2.053  1.0818  2.0610  0.3933
13385SOL     OW41204   2.906   4.541   7.943 -0.1880 -0.7118  0.4086
13385SOL    HW141205   2.953   4.624   7.934  1.1126 -1.4890 -0.3905
13385SOL    HW241206   2.972   4.475   7.921 -2.1761 -1.7852 -3.0666
13386SOL     OW41207   7.351   1.968   6.282 -0.6973 -0.5676 -0.6603
13386SOL    HW141208   7.411   2.028   6.239 -0.2629 -0.4315  0.1166
13386SOL    HW241209   7.396   1.941   6.361 -1.3629 -1.0311 -0.4255
13387SOL     OW41210   2.165   7.447   7.538 -0.0977 -0.2984 -0.1880
13387SOL    HW141211   2.234   7.382   7.554 -0.0172  0.1511  1.4462
13387SOL    HW241212   2.195   7.495   7.461  0.9831 -0.6815 -0.0244
13388SOL     OW41213   0.566   8.105   6.492  0.7180 -0.1413  0.1903
13388SOL    HW141214   0.558   8.200   6.478  1.6384  0.1922  1.7721
13388SOL    HW241215   0.656   8.092   6.521  0.9522 -1.6724 -1.0476
13389SOL     OW41216   7.657   1.423   2.807 -0.4643  0.1340  0.0284
13389SOL    HW141217   7.736   1.416   2.754 -0.4771 -1.9710  0.1824
13389SOL    HW241218   7.688   1.450   2.893  0.0145 -0.0089 -0.0958
13390SOL     OW41219   2.760   0.937   7.251 -0.0169 -0.0661  0.7099
13390SOL    HW141220   2.720   0.854   7.224  1.7707 -0.1982 -1.8281
13390SOL    HW241221   2.754   0.993   7.174  2.5296  0.6902  0.9901
13391SOL     OW41222   7.374   0.196   5.769 -0.4207  0.2600 -0.0043
13391SOL    HW141223   7.404   0.107   5.787 -0.1139  0.1805 -0.8621
13391SOL    HW241224   7.452   0.251   5.780 -0.7040  0.4925  0.9512
13392SOL     OW41225   5.056   5.579   5.558 -0.4964 -0.4065 -0.4028
13392SOL    HW141226   5.103   5.642   5.613  0.0495 -0.6246 -0.6211
13392SOL    HW241227   5.069   5.495   5.602 -2.1863 -0.2287  0.5337
13393SOL     OW41228   3.531   6.458   1.550  0.3954  0.2070 -0.0034
13393SOL    HW141229   3.473   6.489   1.619  1.8708  2.4906  0.3192
13393SOL    HW241230   3.605   6.418   1.596  0.3946 -0.1974 -0.3371
13394SOL     OW41231   2.564   4.443   0.657  0.6173  0.3285  0.3034
13394SOL    HW141232   2.592   4.500   0.585  0.2589 -0.1492 -0.2231
13394SOL    HW241233   2.511   4.500   0.713 -1.2059  0.1401 -1.1239
13395SOL     OW41234   4.664   4.631   2.386  0.0501  0.2822  0.1832
13395SOL    HW141235   4.731   4.663   2.325  1.2460  0.7273  1.6824
13395SOL    HW241236   4.704   4.638   2.472 -1.2793 -1.1689  0.9725
13396SOL     OW41237   2.853   8.098   5.863 -0.2882  0.1258 -0.0957
13396SOL    HW141238   2.943   8.129   5.855 -0.2372 -0.2862 -1.2921
13396SOL    HW241239   2.860   8.002   5.860 -0.7152  0.0727  0.4471
13397SOL     OW41240   3.718   0.351   2.581 -0.1634 -0.0670  0.4946
13397SOL    HW141241   3.630   0.333   2.547 -0.5662  1.9351  0.3072
13397SOL    HW241242   3.733   0.283   2.646 -1.6820 -0.7085  0.2243
13398SOL     OW41243   1.706   1.032   4.810 -0.2178 -0.8707  0.3184
13398SOL    HW141244   1.622   1.048   4.854  0.4995  1.1430  1.1012
13398SOL    HW241245   1.696   1.071   4.723  0.4457  1.1499  1.0723
13399SOL     OW41246   6.150   2.525   2.088  0.3949 -0.1126 -0.0706
13399SOL    HW141247   6.164   2.568   2.172  0.7791  1.4001 -0.8819
13399SOL    HW241248   6.133   2.596   2.027 -2.9300 -1.3014 -0.7440
13400SOL     OW41249   7.728   2.909   7.976 -0.0246 -0.1073 -0.1745
13400SOL    HW141250   7.726   2.960   7.895  0.4592  1.0756  0.5345
13400SOL    HW241251   7.794   2.842   7.959  0.3041  0.3261 -0.6550
13401SOL     OW41252   5.300   1.106   5.311 -0.3945 -0.1105  0.7675
13401SOL    HW141253   5.259   1.020   5.306 -0.6524 -0.0137  1.1533
13401SOL    HW241254   5.354   1.112   5.232 -0.0474 -0.7893  0.9494
13402SOL     OW41255   5.797   1.000   7.399  0.0635  0.5208 -0.4364
13402SOL    HW141256   5.857   1.074   7.405  1.5258 -0.7238  1.7601
13402SOL    HW241257   5.711   1.039   7.382  1.0403  2.5570 -0.9445
13403SOL     OW41258   8.234   4.331   5.810 -0.1411 -0.5758  0.3051
13403SOL    HW141259   8.231   4.311   5.904  0.2103 -1.1649  0.1945
13403SOL    HW241260   8.327   4.334   5.789 -0.2233 -0.6839 -0.0793
13404SOL     OW41261   3.019   5.984   0.958  0.0074  0.1437 -0.2304
13404SOL    HW141262   3.013   6.024   1.045  0.1151  0.6646 -0.4566
13404SOL    HW241263   2.979   6.048   0.900 -2.1619 -1.1485 -0.3031
13405SOL     OW41264   6.918   0.010   5.873 -0.1552  0.2298 -0.7649
13405SOL    HW141265   6.927  -0.024   5.784  0.2547  0.9624 -1.0077
13405SOL    HW241266   6.996   0.063   5.887  0.0511 -0.3112  0.2335
13406SOL     OW41267   7.963   2.956   2.243 -0.4671 -0.1128  0.0961
13406SOL    HW141268   7.915   2.889   2.193 -1.0745 -0.1136  0.6579
13406SOL    HW241269   8.054   2.945   2.217 -0.9941  1.2825 -2.6072
13407SOL     OW41270   1.433   4.152   5.147 -0.5025 -0.3655 -0.0286
13407SOL    HW141271   1.381   4.086   5.193 -0.1787 -1.2082 -0.8297
13407SOL    HW241272   1.509   4.103   5.115  0.9427  0.8883  1.3617
13408SOL     OW41273   5.940   3.675   3.802 -0.0188  0.8251 -0.3749
13408SOL    HW141274   5.987   3.744   3.849  1.1432  1.0057 -1.7502
13408SOL    HW241275   5.983   3.594   3.829 -1.6543  0.4901  1.5757
13409SOL     OW41276   5.014   2.187   2.207  0.3731  0.1093 -0.3071
13409SOL    HW141277   4.919   2.199   2.201  0.4139  1.0453  0.6787
13409SOL    HW241278   5.025   2.123   2.278  0.4985  0.2059 -0.2414
13410SOL     OW41279   3.036   0.255   7.423 -0.1554 -0.1930 -0.0048
13410SOL    HW141280   3.001   0.336   7.462  1.2338  0.5616 -0.2779
13410SOL    HW241281   2.968   0.190   7.439 -1.6263  1.1800 -0.3637
13411SOL     OW41282   2.524   7.037   6.691 -0.0840  0.1677  0.2096
13411SOL    HW141283   2.587   7.019   6.621 -0.7570 -0.3821 -0.2742
13411SOL    HW241284   2.568   7.100   6.748  1.9180 -2.0538  1.2903
13412SOL     OW41285   1.612   4.821   5.761 -0.1939 -0.1201 -0.1623
13412SOL    HW141286   1.592   4.824   5.668 -1.0392 -2.2190 -0.1063
13412SOL    HW241287   1.538   4.866   5.803 -1.2915 -1.6414 -0.3822
13413SOL     OW41288   2.493   6.341   8.041  0.3687  0.2715  0.1689
13413SOL    HW141289   2.532   6.296   7.966 -0.8258 -0.1112 -0.2406
13413SOL    HW241290   2.418   6.388   8.004  0.7417  1.4367  0.8394
13414SOL     OW41291   4.490   4.625   3.360 -0.9479 -0.1457  0.2219
13414SOL    HW141292   4.422   4.692   3.360 -1.9118 -0.9025 -3.0767
13414SOL    HW241293   4.452   4.552   3.409 -1.9105  0.0325 -0.2252
13415SOL     OW41294   6.323   8.061   6.094 -0.6840 -0.5818 -0.5867
13415SOL    HW141295   6.322   8.032   6.185 -0.8776 -1.9480 -0.9948
13415SOL    HW241296   6.410   8.038   6.062 -0.8240 -0.6759 -0.9085
13416SOL     OW41297   7.842   3.461   1.567  0.2706  0.4099  0.3161
13416SOL    HW141298   7.902   3.495   1.633  2.6970  0.0983 -1.5568
13416SOL    HW241299   7.859   3.514   1.489 -2.7543  1.0193 -0.0739
13417SOL     OW41300   4.468   8.183   0.891  0.7655  0.8786 -0.3862
13417SOL    HW141301   4.500   8.226   0.970  1.5648  0.3771 -0.4270
13417SOL    HW241302   4.534   8.203   0.825  0.4648  0.6926 -0.7458
13418SOL     OW41303   1.501   3.296   1.814  0.0718 -0.9442  0.0200
13418SOL    HW141304   1.436   3.351   1.857  0.8274 -0.7542  0.9642
13418SOL    HW241305   1.581   3.349   1.814  0.1257 -0.9756 -1.5622
13419SOL     OW41306   3.266   7.344   7.397 -0.4194  0.5543 -0.6178
13419SOL    HW141307   3.263   7.430   7.439  1.4151  0.4245 -0.0925
13419SOL    HW241308   3.197   7.294   7.440 -1.9068  1.8868 -1.3335
13420SOL     OW41309   7.199   2.069   3.242 -0.0687  0.2907 -0.1593
13420SOL    HW141310   7.179   2.099   3.330 -0.2660 -1.2749  0.3482
13420SOL    HW241311   7.142   1.994   3.228  0.6119 -0.0481 -1.2686
13421SOL     OW41312   2.911   5.612   3.454  0.8311  0.3654 -0.1085
13421SOL    HW141313   2.869   5.648   3.376 -0.0198  0.6019  0.4500
13421SOL    HW241314   2.990   5.569   3.420  0.0407 -0.2905 -1.2072
13422SOL     OW41315   3.684   0.455   5.390 -0.2236  0.3675  0.0706
13422SOL    HW141316   3.742   0.383   5.365 -0.2332 -0.3268  1.9109
13422SOL    HW241317   3.615   0.454   5.325 -0.0108 -1.0440 -0.1699
13423SOL     OW41318   6.491   7.075   8.071 -0.0653 -0.3501  0.2337
13423SOL    HW141319   6.558   7.046   8.133 -1.6537  1.8603  3.2953
13423SOL    HW241320   6.538   7.125   8.005  1.4946 -0.1582  1.4360
13424SOL     OW41321   8.114   1.700   2.241  0.4916 -0.2652 -0.2891
13424SOL    HW141322   8.120   1.709   2.336 -1.0215 -0.6981 -0.1274
13424SOL    HW241323   8.037   1.752   2.217  1.5434  0.8153 -1.4420
13425SOL     OW41324   0.360   4.402   4.449 -0.2377 -0.0417  0.0773
13425SOL    HW141325   0.301   4.345   4.498 -0.6817  1.6483  1.6093
13425SOL    HW241326   0.438   4.348   4.434  1.2930  0.1698  5.4477
13426SOL     OW41327   8.079   4.049   2.633  0.1640  0.0653  0.0439
13426SOL    HW141328   8.171   4.074   2.643  0.3179 -0.9492  1.4209
13426SOL    HW241329   8.037   4.127   2.595  1.2541  1.1835  1.0432
13427SOL     OW41330   0.970   7.566   4.839  0.0025  0.0676 -0.4700
13427SOL    HW141331   0.897   7.592   4.894  1.1142  1.9094  0.2141
13427SOL    HW241332   0.951   7.604   4.754 -0.1299  0.0173 -0.4629
13428SOL     OW41333   7.816   2.667   2.831 -0.7503 -0.0396  0.2343
13428SOL    HW141334   7.887   2.710   2.878 -0.2070 -1.0754  0.3913
13428SOL    HW241335   7.763   2.626   2.900  0.4095 -2.1071 -0.0269
13429SOL     OW41336   7.319   6.137   0.985  0.1346 -0.1405  0.2420
13429SOL    HW141337   7.373   6.172   1.056 -0.8485 -0.3709  1.1190
13429SOL    HW241338   7.369   6.063   0.951 -0.2264 -1.2067  1.9519
13430SOL     OW41339   2.549   1.109   5.649  0.4470  0.1929 -0.0485
13430SOL    HW141340   2.480   1.073   5.703  1.2121 -1.5321 -0.1664
13430SOL    HW241341   2.505   1.175   5.595 -1.4712 -2.0142 -1.3384
13431SOL     OW41342   2.221   4.306   2.596 -0.0071  0.0159  0.5353
13431SOL    HW141343   2.139   4.312   2.548  0.5024 -0.4227 -0.4204
13431SOL    HW241344   2.272   4.241   2.548  0.8226  0.1440  1.2223
13432SOL     OW41345   4.733   4.146   0.870  0.1143 -0.4305 -0.4625
13432SOL    HW141346   4.722   4.240   0.854 -0.3586 -0.2664  0.7686
13432SOL    HW241347   4.792   4.141   0.945 -0.3246 -1.1043 -0.1516
13433SOL     OW41348   7.686   2.388   2.902 -0.2135 -0.7156 -0.2183
13433SOL    HW141349   7.677   2.297   2.929 -1.3805 -0.7999 -0.8458
13433SOL    HW241350   7.613   2.403   2.841 -0.5604  0.8728  0.5334
13434SOL     OW41351   3.421   4.639   6.676  0.7349 -0.2794  0.5669
13434SOL    HW141352   3.358   4.707   6.698  0.8884  0.2246 -0.4757
13434SOL    HW241353   3.398   4.565   6.732 -2.3450 -0.9836 -1.3808
13435SOL     OW41354   4.232   2.946   4.269  0.0422  0.4495  0.5873
13435SOL    HW141355   4.240   2.856   4.236 -0.1768  0.0797  1.4990
13435SOL    HW241356   4.257   3.001   4.195  2.1092 -0.4003  0.5883
13436SOL     OW41357   5.153   4.448   7.106  0.7807  0.5621 -0.8051
13436SOL    HW141358   5.231   4.488   7.144 -0.4540  3.5815 -1.1220
13436SOL    HW241359   5.168   4.452   7.011  0.0118  1.7851 -0.8929
13437SOL     OW41360   3.797   5.711   3.361 -0.7486  0.1087 -0.1986
13437SOL    HW141361   3.854   5.636   3.348 -1.4257 -0.4275 -0.1516
13437SOL    HW241362   3.793   5.754   3.275 -0.9033 -0.3125 -0.4078
13438SOL     OW41363   2.267   6.494   3.034 -0.4346 -0.4605 -0.3409
13438SOL    HW141364   2.336   6.546   3.075 -0.5402  0.3089 -1.1249
13438SOL    HW241365   2.306   6.460   2.953 -0.0808 -2.3488  0.5468
13439SOL     OW41366   7.059   3.551   3.234 -0.4633  0.4361 -0.8824
13439SOL    HW141367   7.066   3.457   3.245 -1.6685  0.4679  0.4747
13439SOL    HW241368   7.047   3.564   3.140 -1.0108 -0.8177 -0.9998
13440SOL     OW41369   7.789   5.328   2.667  0.3862 -0.0976 -0.0829
13440SOL    HW141370   7.794   5.351   2.574  1.4453  0.3399  0.0624
13440SOL    HW241371   7.707   5.280   2.675 -0.1675  0.6307 -1.0690
13441SOL     OW41372   0.881   3.502   3.405  0.2195 -0.1810  0.0311
13441SOL    HW141373   0.876   3.413   3.371  1.4265 -0.3531  0.2608
13441SOL    HW241374   0.819   3.552   3.352  0.4085 -0.9089 -0.9033
13442SOL     OW41375   1.151   6.184   5.940  0.4457  0.5511 -0.4241
13442SOL    HW141376   1.171   6.100   5.898 -0.1276  0.8525 -1.3320
13442SOL    HW241377   1.153   6.248   5.868 -4.2789  0.5491 -0.8354
13443SOL     OW41378   7.430   6.595   0.861 -0.0720 -0.0431  0.4198
13443SOL    HW141379   7.404   6.656   0.930  0.3962  0.8652 -0.1803
13443SOL    HW241380   7.465   6.651   0.791  0.9941 -1.0315  0.1178
13444SOL     OW41381   4.893   6.930   6.620  0.1127 -0.1042 -0.1083
13444SOL    HW141382   4.831   6.991   6.660 -0.0962 -0.1365 -0.3847
13444SOL    HW241383   4.894   6.854   6.678  1.7106  0.8675  1.2409
13445SOL     OW41384   2.230   4.200   6.838  0.4751  0.4595 -0.5224
13445SOL    HW141385   2.287   4.144   6.786 -0.3719 -1.7122  0.7707
13445SOL    HW241386   2.262   4.193   6.927 -1.4612 -0.4500  0.1591
13446SOL     OW41387   3.507   0.670   2.441 -0.3746 -0.5572  0.6286
13446SOL    HW141388   3.526   0.590   2.392 -1.6326 -2.2806  2.7323
13446SOL    HW241389   3.589   0.720   2.438  0.0686 -1.3107 -1.7717
13447SOL     OW41390   0.869   7.905   2.976  0.4596  0.0823 -0.5899
13447SOL    HW141391   0.855   8.000   2.981 -0.0850  0.0108 -0.6955
13447SOL    HW241392   0.889   7.889   2.884 -0.2540 -0.0016 -0.7422
13448SOL     OW41393   0.685   2.824   6.429 -0.6390  0.0379  0.2039
13448SOL    HW141394   0.669   2.886   6.358 -0.8842 -0.8108 -0.4989
13448SOL    HW241395   0.597   2.804   6.463 -0.5809 -0.1190  0.2597
13449SOL     OW41396   8.037   2.391   5.104  0.1907 -0.3028  0.1798
13449SOL    HW141397   7.975   2.375   5.176  0.0212 -0.7506 -0.0622
13449SOL    HW241398   8.104   2.447   5.143  0.2564 -0.7780  0.7776
13450SOL     OW41399   5.265   6.261   6.481 -0.2781  0.3922  0.1402
13450SOL    HW141400   5.195   6.288   6.541 -0.8481 -1.6347  0.4875
13450SOL    HW241401   5.341   6.312   6.509 -1.0507  0.9801  1.2735
13451SOL     OW41402   2.635   2.277   5.018  0.3619 -0.2134  0.6921
13451SOL    HW141403   2.569   2.344   5.037 -0.0688 -0.8073  1.3109
13451SOL    HW241404   2.615   2.248   4.929 -0.6551 -0.8720  1.1159
13452SOL     OW41405   2.654   1.248   0.436  0.5252 -0.0423  0.2185
13452SOL    HW141406   2.625   1.308   0.368  0.4976 -0.1669  0.1197
13452SOL    HW241407   2.600   1.170   0.423  1.1661 -0.4198 -0.2044
13453SOL     OW41408   6.104   4.361   3.013 -0.3098 -0.2425  0.3017
13453SOL    HW141409   6.095   4.286   2.953  0.4245  0.1891 -0.3733
13453SOL    HW241410   6.047   4.340   3.087 -0.2824 -1.3694  0.0196
13454SOL     OW41411   7.816   6.598   2.698  0.5107  0.1922 -0.3363
13454SOL    HW141412   7.903   6.561   2.714  0.8978  1.5380  0.9060
13454SOL    HW241413   7.756   6.523   2.705  1.6596 -1.1662 -3.2390
13455SOL     OW41414   3.935   8.032   2.219 -0.2386 -0.2231  0.1019
13455SOL    HW141415   3.949   8.060   2.128  2.2784  0.8517  0.7308
13455SOL    HW241416   3.903   7.942   2.212 -1.1623  0.1977 -1.8426
13456SOL     OW41417   1.310   1.621   2.148  0.1546  0.1926  0.0331
13456SOL    HW141418   1.243   1.629   2.216 -0.0143  1.5209 -0.2709
13456SOL    HW241419   1.262   1.592   2.071  0.4623 -2.0839  0.6301
13457SOL     OW41420   3.052   7.679   4.911  0.1544  0.0190 -0.0214
13457SOL    HW141421   3.112   7.707   4.841  0.2361  1.4535  0.5918
13457SOL    HW241422   2.965   7.686   4.872  0.3266 -2.1445 -0.9410
13458SOL     OW41423   2.394   6.179   5.607  0.3460 -0.2192  0.4439
13458SOL    HW141424   2.473   6.191   5.659  0.3329 -0.6111  0.5601
13458SOL    HW241425   2.393   6.086   5.586 -0.3999 -0.3363  0.9531
13459SOL     OW41426   4.965   0.986   6.545 -0.4626  0.0390  0.5062
13459SOL    HW141427   5.034   1.050   6.560 -0.3529 -0.1964  1.0427
13459SOL    HW241428   4.895   1.035   6.503  0.9477 -0.2080 -2.4018
13460SOL     OW41429   5.573   6.067   6.260 -0.3099 -0.2950 -0.2983
13460SOL    HW141430   5.660   6.104   6.273 -0.6218  0.9462 -1.5692
13460SOL    HW241431   5.539   6.110   6.182 -2.0784 -0.7580  0.1583
13461SOL     OW41432   1.280   6.611   5.882  0.4670  0.7407 -0.0645
13461SOL    HW141433   1.245   6.538   5.831  0.1038 -0.1495  1.3844
13461SOL    HW241434   1.273   6.581   5.973  0.0489  2.7043  0.5878
13462SOL     OW41435   3.855   6.847   1.308 -0.6046 -0.1492  0.0402
13462SOL    HW141436   3.789   6.840   1.239 -2.9227  1.1077  1.9828
13462SOL    HW241437   3.866   6.941   1.322  1.9079 -0.2907 -0.3766
13463SOL     OW41438   4.093   0.849   4.733  0.5396 -0.1011  0.0173
13463SOL    HW141439   4.011   0.821   4.693  0.3375  2.0215 -1.1907
13463SOL    HW241440   4.127   0.917   4.674  1.4004  1.5369  2.2721
13464SOL     OW41441   1.661   5.012   3.379 -0.4298  0.3497  0.1331
13464SOL    HW141442   1.711   4.955   3.438  0.3106  0.5959 -0.2421
13464SOL    HW241443   1.727   5.070   3.341 -0.9215  0.2736 -0.8518
13465SOL     OW41444   8.141   7.309   7.653 -0.3670 -0.4383  0.0590
13465SOL    HW141445   8.067   7.364   7.629  0.4439 -0.3703 -2.5168
13465SOL    HW241446   8.126   7.288   7.746 -2.8376  0.7050 -0.0086
13466SOL     OW41447   6.390   5.688   7.235 -0.3155  0.8345  0.4732
13466SOL    HW141448   6.402   5.652   7.323 -1.1339  0.8001  0.5765
13466SOL    HW241449   6.318   5.638   7.198  0.1530  0.7147 -0.2996
13467SOL     OW41450   4.557   0.625   6.905 -0.1419 -0.0635  0.0553
13467SOL    HW141451   4.537   0.575   6.984 -1.0597  0.7896  0.3838
13467SOL    HW241452   4.535   0.566   6.833  2.8227 -1.6999  0.3574
13468SOL     OW41453   7.166   6.125   4.535 -1.4877  0.1415 -0.3032
13468SOL    HW141454   7.236   6.190   4.537 -0.9646 -0.3579 -1.5310
13468SOL    HW241455   7.091   6.171   4.497 -1.5075  0.3810  0.0253
13469SOL     OW41456   5.727   2.441   2.077 -0.0693  0.3949  0.7464
13469SOL    HW141457   5.802   2.453   2.135  1.3510 -0.6293 -0.8111
13469SOL    HW241458   5.752   2.369   2.019 -0.8621  2.1820 -1.9966
13470SOL     OW41459   7.896   1.994   5.821 -0.4846 -0.0170  1.0637
13470SOL    HW141460   7.836   2.062   5.791 -1.5486 -0.9185  1.0732
13470SOL    HW241461   7.945   1.969   5.743 -1.3856 -0.5170  0.6504
13471SOL     OW41462   6.778   0.503   5.164  0.1491  0.1826 -0.6945
13471SOL    HW141463   6.786   0.536   5.254  1.9134  1.2092 -1.1777
13471SOL    HW241464   6.688   0.525   5.139 -0.5617 -0.6177  0.9724
13472SOL     OW41465   6.004   7.760   4.410 -0.3710  0.1587  0.3957
13472SOL    HW141466   6.096   7.740   4.426 -0.0101  0.8968 -0.6989
13472SOL    HW241467   5.975   7.805   4.489  0.3037  0.2676  0.5853
13473SOL     OW41468   1.910   4.375   2.202  0.4092  0.3115  0.8868
13473SOL    HW141469   1.849   4.302   2.190  1.4066 -0.1941 -1.8891
13473SOL    HW241470   1.886   4.437   2.132  1.3144  1.3788  1.4945
13474SOL     OW41471   5.386   1.724   2.569 -0.6733  0.0603  0.3913
13474SOL    HW141472   5.430   1.729   2.484  0.9350  0.1777  1.2008
13474SOL    HW241473   5.419   1.800   2.618 -1.9299  0.2574  0.9732
13475SOL     OW41474   6.280   4.084   6.508  0.3418 -0.3626 -0.0912
13475SOL    HW141475   6.282   3.994   6.541 -0.3959 -0.2115  0.3915
13475SOL    HW241476   6.266   4.075   6.414 -1.8144 -0.7237  0.2291
13476SOL     OW41477   7.774   5.912   3.317  0.6952 -0.1837  0.4781
13476SOL    HW141478   7.782   5.907   3.222 -0.5220 -0.3847  0.3746
13476SOL    HW241479   7.817   5.995   3.340  0.4245  0.1890 -0.3184
13477SOL     OW41480   4.020   1.195   1.791 -0.2461  0.5581 -0.0067
13477SOL    HW141481   4.022   1.263   1.859  1.4077  0.8243 -0.2750
13477SOL    HW241482   4.018   1.244   1.709 -1.2333  0.2462 -0.1744
13478SOL     OW41483   3.988   3.402   3.132 -0.0390  0.1371  0.1099
13478SOL    HW141484   3.969   3.320   3.178  3.8385 -2.2097 -2.0112
13478SOL    HW241485   3.928   3.402   3.057 -0.9437 -0.0346  0.8129
13479SOL     OW41486   4.929   8.027   0.250  0.0884 -0.1365 -0.1833
13479SOL    HW141487   4.952   7.977   0.171  1.9511  0.5016 -0.1005
13479SOL    HW241488   4.940   8.118   0.224 -0.7223  0.1402  0.4174
13480SOL     OW41489   6.183   0.818   5.432  0.0972  0.1155 -0.1838
13480SOL    HW141490   6.128   0.865   5.494  0.2738 -0.0896  0.1363
13480SOL    HW241491   6.123   0.760   5.385  0.0773 -0.3419  0.3848
13481SOL     OW41492   0.252   3.304   1.786  0.0405  0.3350 -0.6175
13481SOL    HW141493   0.264   3.240   1.716  0.5438 -0.0444 -0.1899
13481SOL    HW241494   0.187   3.264   1.844  1.7549 -0.6797  0.6715
13482SOL     OW41495   4.241   6.570   7.448 -0.4995  0.1285 -0.0146
13482SOL    HW141496   4.166   6.625   7.467 -0.6641  0.1139 -0.5892
13482SOL    HW241497   4.299   6.626   7.396 -1.2528 -0.5982 -1.7309
13483SOL     OW41498   7.688   3.972   4.961  0.0519 -0.0741  0.2801
13483SOL    HW141499   7.619   3.970   4.895 -0.9781  0.4090  1.3022
13483SOL    HW241500   7.677   3.889   5.009 -0.2532  0.2857  0.8496
13484SOL     OW41501   0.860   5.462   2.327  0.5972 -0.8124  0.4895
13484SOL    HW141502   0.906   5.443   2.245  1.1379  0.4024  0.4889
13484SOL    HW241503   0.780   5.410   2.321 -1.1649  1.8476 -2.4924
13485SOL     OW41504   6.532   5.897   0.044 -0.2155 -0.5259  0.4187
13485SOL    HW141505   6.604   5.834   0.053 -0.8914 -1.8720 -2.4160
13485SOL    HW241506   6.474   5.878   0.118  1.2480 -0.8960  1.5062
13486SOL     OW41507   4.651   8.231   4.582  0.1197 -0.1996 -0.3939
13486SOL    HW141508   4.662   8.196   4.493 -0.2840  0.4267 -0.7025
13486SOL    HW241509   4.717   8.299   4.590  2.2412 -2.2858  0.9188
13487SOL     OW41510   5.231   2.558   7.168 -0.5016 -0.3792 -0.3094
13487SOL    HW141511   5.140   2.532   7.187 -0.3197 -1.0117 -0.3095
13487SOL    HW241512   5.284   2.483   7.195 -0.0634 -0.4497 -1.3555
13488SOL     OW41513   4.263   3.149   1.973  0.1809 -0.6207 -0.0858
13488SOL    HW141514   4.311   3.191   2.045 -0.1727  0.8930 -0.6835
13488SOL    HW241515   4.330   3.108   1.919  0.5950 -0.4196  0.2732
13489SOL     OW41516   2.458   1.438   1.788  0.1829  0.0962  0.1652
13489SOL    HW141517   2.475   1.413   1.696  0.1277  0.3408  0.0888
13489SOL    HW241518   2.374   1.396   1.808  0.2118  0.0121  0.1160
13490SOL     OW41519   4.249   0.262   5.086  0.0378  0.2909  0.2406
13490SOL    HW141520   4.300   0.184   5.106  0.5592  0.0590 -1.8273
13490SOL    HW241521   4.202   0.281   5.168 -0.3046 -2.3177  0.7377
13491SOL     OW41522   0.298   7.870   7.493  0.1368 -0.0289 -0.5236
13491SOL    HW141523   0.277   7.896   7.403 -0.1592 -0.0178 -0.4506
13491SOL    HW241524   0.260   7.783   7.502 -0.8454  0.4380 -0.0389
13492SOL     OW41525   0.283   6.244   4.821 -0.2018 -0.0252  0.3443
13492SOL    HW141526   0.303   6.335   4.844 -0.5750 -0.7897  4.4118
13492SOL    HW241527   0.338   6.191   4.879 -0.8256 -2.4107 -1.0939
13493SOL     OW41528   4.197   6.860   6.422 -0.1857  0.2175 -0.3322
13493SOL    HW141529   4.139   6.809   6.478  1.6649 -3.7115 -1.5901
13493SOL    HW241530   4.160   6.848   6.334  0.6843  0.4799 -0.7379
13494SOL     OW41531   1.691   7.609   2.666 -0.4254  0.7010  0.7152
13494SOL    HW141532   1.735   7.613   2.581 -2.3113 -2.1137 -0.5546
13494SOL    HW241533   1.700   7.697   2.702  2.3124  1.4157 -1.3807
13495SOL     OW41534   0.619   3.033   3.091  0.1802  0.1771  0.1787
13495SOL    HW141535   0.545   2.977   3.068  0.0308  0.1919  0.6120
13495SOL    HW241536   0.605   3.054   3.183  1.0588 -0.3196  0.4292
13496SOL     OW41537   7.189   2.474   7.747  0.5015  0.2710  0.3142
13496SOL    HW141538   7.116   2.526   7.713 -0.3263 -0.9141  0.2036
13496SOL    HW241539   7.256   2.479   7.679 -0.6858 -1.1077 -1.0377
13497SOL     OW41540   3.875   0.669   1.029  0.3519  0.1933  0.2568
13497SOL    HW141541   3.784   0.700   1.034  1.3231  3.3056  1.3701
13497SOL    HW241542   3.886   0.616   1.108 -0.5589 -0.5390 -0.0819
13498SOL     OW41543   5.612   2.367   8.066 -0.2367  0.2453 -0.2751
13498SOL    HW141544   5.548   2.382   8.135 -1.0125  0.2595 -0.9955
13498SOL    HW241545   5.660   2.288   8.095 -2.2064 -1.2502 -0.8922
13499SOL     OW41546   4.720   1.027   7.727 -0.4312 -0.1822  0.0583
13499SOL    HW141547   4.782   1.056   7.660 -0.7901  0.7030  0.1021
13499SOL    HW241548   4.670   0.957   7.684 -0.9301  0.6453 -0.7399
13500SOL     OW41549   7.094   0.779   2.927  0.2876 -0.0146  0.4467
13500SOL    HW141550   7.144   0.740   2.856 -1.4100  3.6717 -3.1997
13500SOL    HW241551   7.005   0.746   2.916  0.0199  0.5121  0.9356
13501SOL     OW41552   5.154   1.041   3.689  0.2518  0.1812  0.7013
13501SOL    HW141553   5.115   1.074   3.608  0.6690 -1.5166 -0.2528
13501SOL    HW241554   5.247   1.031   3.668  0.4480  0.1616  1.5455
13502SOL     OW41555   4.677   8.018   6.861 -0.5731 -0.4094 -0.4764
13502SOL    HW141556   4.619   8.065   6.921 -0.8565 -1.5012  0.1373
13502SOL    HW241557   4.678   8.072   6.782 -1.6731  0.1127 -0.1616
13503SOL     OW41558   6.063   0.150   1.535 -0.5059 -0.4201  0.1826
13503SOL    HW141559   6.119   0.204   1.479  0.0578 -1.6317 -0.4553
13503SOL    HW241560   6.072   0.188   1.622  1.2561 -0.5170  0.0767
13504SOL     OW41561   2.762   7.375   0.902 -0.2466 -0.9245 -0.2471
13504SOL    HW141562   2.705   7.451   0.912 -0.2496 -0.8996 -0.4414
13504SOL    HW241563   2.837   7.392   0.960 -0.7874 -1.3005  0.5743
13505SOL     OW41564   6.179   3.525   3.159 -0.0807 -0.3804  0.2378
13505SOL    HW141565   6.138   3.600   3.116 -0.1179  0.4404  1.6362
13505SOL    HW241566   6.106   3.476   3.196  0.0575  0.0790  1.1531
13506SOL     OW41567   2.094   3.479   1.125 -0.2214  0.5596  1.0513
13506SOL    HW141568   2.084   3.387   1.149  0.8141  0.5765  1.5873
13506SOL    HW241569   2.007   3.505   1.094  0.1735 -1.4497 -2.1984
13507SOL     OW41570   1.686   3.853   7.581 -0.2917 -0.4770 -0.4206
13507SOL    HW141571   1.640   3.810   7.653 -0.2503 -1.1471 -0.7904
13507SOL    HW241572   1.774   3.816   7.583  0.0730  0.3890 -0.0686
13508SOL     OW41573   0.732   4.362   0.089 -0.0134 -0.1403 -0.7051
13508SOL    HW141574   0.792   4.289   0.100 -0.9447 -0.8513 -0.2186
13508SOL    HW241575   0.650   4.323   0.059 -0.0227  0.8957 -2.1155
13509SOL     OW41576   1.691   5.466   5.997 -0.2962  0.3563  0.1643
13509SOL    HW141577   1.628   5.426   6.057  0.6359  0.0801  0.9863
13509SOL    HW241578   1.645   5.471   5.913 -1.3377 -0.0097  0.6968
13510SOL     OW41579   7.559   1.577   0.319  0.0459  0.1224  0.3473
13510SOL    HW141580   7.553   1.657   0.371 -1.8612  0.2153  0.0667
13510SOL    HW241581   7.487   1.584   0.256  1.8743 -0.2479 -1.9609
13511SOL     OW41582   7.208   7.002   3.263  0.7319 -0.3622  0.1471
13511SOL    HW141583   7.288   6.955   3.239  0.5219 -0.5781 -0.1401
13511SOL    HW241584   7.138   6.952   3.222  0.4948  0.1491 -0.0736
13512SOL     OW41585   2.246   0.647   4.659  0.0001  0.2454  0.3056
13512SOL    HW141586   2.327   0.699   4.660  0.3385 -0.2567  1.9986
13512SOL    HW241587   2.226   0.632   4.751 -1.6265 -0.2857 -0.1066
13513SOL     OW41588   6.251   6.738   0.041  0.0608  0.1514 -0.3594
13513SOL    HW141589   6.190   6.712   0.110  2.6509 -1.7784  1.3947
13513SOL    HW241590   6.270   6.830   0.060 -1.2418  0.4011 -0.1482
13514SOL     OW41591   5.468   2.359   2.208  0.0149  0.2153  0.0918
13514SOL    HW141592   5.538   2.343   2.145 -1.4416 -0.4080 -1.4261
13514SOL    HW241593   5.490   2.444   2.248  0.9766  0.6153 -1.2396
13515SOL     OW41594   8.248   0.835   7.292 -0.8766  0.0886 -0.6137
13515SOL    HW141595   8.300   0.756   7.274 -1.3934 -0.2915 -0.4718
13515SOL    HW241596   8.312   0.906   7.291 -0.2755 -0.4248  0.0336
13516SOL     OW41597   3.075   5.693   2.128  0.7513 -0.5713  0.9904
13516SOL    HW141598   3.159   5.679   2.086 -0.0336 -2.4172 -0.1219
13516SOL    HW241599   3.082   5.779   2.169  2.4543  0.2217 -0.7969
13517SOL     OW41600   6.345   5.888   6.451  0.0123  0.4615  0.2581
13517SOL    HW141601   6.425   5.930   6.422 -0.2995  0.8451 -0.0665
13517SOL    HW241602   6.275   5.936   6.407 -0.4948  1.2331  1.8272
13518SOL     OW41603   2.480   7.539   7.105  0.2916 -0.0937  0.6951
13518SOL    HW141604   2.499   7.522   7.013 -2.8478  3.5856 -0.8953
13518SOL    HW241605   2.531   7.617   7.126 -1.1125  0.7607  1.0933
13519SOL     OW41606   4.388   6.328   5.928 -0.0738  0.5337 -0.4082
13519SOL    HW141607   4.327   6.370   5.867  0.4865  0.9483 -0.6915
13519SOL    HW241608   4.420   6.251   5.881  0.4273  0.9029 -0.6894
13520SOL     OW41609   0.770   3.971   2.245  0.1968  0.6608  0.1413
13520SOL    HW141610   0.791   3.893   2.193  0.0612  0.7716 -0.0789
13520SOL    HW241611   0.815   4.043   2.200  0.0721  0.7581  0.1733
13521SOL     OW41612   7.256   0.172   4.715  0.2477  0.3857  0.1781
13521SOL    HW141613   7.244   0.262   4.747  0.2998  2.1177 -4.0361
13521SOL    HW241614   7.167   0.140   4.701  0.2472  0.1835  0.6228
13522SOL     OW41615   0.308   4.591   1.800 -0.8147  0.2583  0.4056
13522SOL    HW141616   0.233   4.561   1.852  1.3257 -4.4684  1.2871
13522SOL    HW241617   0.364   4.635   1.863  0.2617 -2.5873  1.6349
13523SOL     OW41618   2.946   1.733   1.930  0.3163 -0.3829 -0.2015
13523SOL    HW141619   3.010   1.675   1.888  1.3548  1.1711 -0.8177
13523SOL    HW241620   2.971   1.732   2.023  0.7591 -0.3685 -0.3211
13524SOL     OW41621   6.494   4.300   1.568  0.0109 -0.0692  0.8537
13524SOL    HW141622   6.486   4.395   1.581 -2.0142  0.0655 -0.8355
13524SOL    HW241623   6.550   4.292   1.490 -0.7183 -0.1954  0.3342
13525SOL     OW41624   2.085   3.020   1.915  0.6793  0.2283 -0.5551
13525SOL    HW141625   2.142   3.097   1.909  0.4713  0.3562 -0.9016
13525SOL    HW241626   2.013   3.038   1.855 -0.4287  0.6522  0.8569
13526SOL     OW41627   7.130   6.869   2.836 -0.1638  0.3571  0.4037
13526SOL    HW141628   7.039   6.896   2.840 -0.5406 -0.8718  0.4542
13526SOL    HW241629   7.142   6.833   2.748 -0.2700 -1.2349  1.0001
13527SOL     OW41630   6.727   3.404   2.744 -0.1326  0.5020  0.6049
13527SOL    HW141631   6.664   3.361   2.685  0.5363 -2.9464  2.1376
13527SOL    HW241632   6.793   3.442   2.686 -0.5261 -1.0371 -0.9341
13528SOL     OW41633   5.930   5.011   8.062 -0.6803 -0.0985 -0.0535
13528SOL    HW141634   5.977   5.043   7.985 -0.7499  0.7612  0.2467
13528SOL    HW241635   5.886   4.932   8.032  0.3003 -0.4694 -0.5537
13529SOL     OW41636   0.870   6.981   6.556 -0.4953  0.0897 -0.7206
13529SOL    HW141637   0.902   7.016   6.640 -1.3634  0.4633 -0.5397
13529SOL    HW241638   0.905   6.892   6.553 -0.9162 -0.1246  0.3035
13530SOL     OW41639   2.020   2.552   0.938 -0.0889 -0.2143  0.0869
13530SOL    HW141640   2.080   2.558   1.012 -0.9085 -1.3613  0.8880
13530SOL    HW241641   1.954   2.488   0.966 -1.2446  0.4237 -1.0592
13531SOL     OW41642   6.349   5.298   3.059  0.6899  0.0781  0.0653
13531SOL    HW141643   6.438   5.302   3.095  0.6459 -0.1187  0.1978
13531SOL    HW241644   6.362   5.277   2.966  0.9436  3.3901 -0.7565
13532SOL     OW41645   7.484   1.008   6.502  0.2285 -0.0421  0.0500
13532SOL    HW141646   7.512   1.099   6.487 -1.4553  0.3603 -0.9860
13532SOL    HW241647   7.414   1.015   6.567  1.2283 -0.8126  1.2403
13533SOL     OW41648   4.987   6.986   0.184 -0.0384  0.0506  0.1491
13533SOL    HW141649   4.915   6.923   0.179  0.8325 -1.1271  1.7577
13533SOL    HW241650   4.967   7.050   0.115 -2.0300 -0.8373 -0.1728
13534SOL     OW41651   2.449   3.282   4.964  0.4123  0.0511 -0.2358
13534SOL    HW141652   2.393   3.290   4.887  0.1418  2.6532  0.1168
13534SOL    HW241653   2.393   3.310   5.037  1.0673 -0.9978  0.6984
13535SOL     OW41654   1.755   4.376   6.599  0.4818  0.5104 -0.4502
13535SOL    HW141655   1.701   4.454   6.607 -3.1963 -1.8001 -0.5785
13535SOL    HW241656   1.772   4.367   6.505 -0.4886  0.3089 -0.6097
13536SOL     OW41657   7.103   0.017   7.951 -0.4641  0.0213  0.6407
13536SOL    HW141658   7.169   0.027   8.019 -0.4628 -0.9268  0.7911
13536SOL    HW241659   7.115   0.094   7.895  1.9672 -0.9670 -0.3461
13537SOL     OW41660   0.954   6.218   3.306 -0.0518 -0.5873 -0.0584
13537SOL    HW141661   0.868   6.237   3.342  0.0318 -0.4659  0.0789
13537SOL    HW241662   0.991   6.304   3.285  0.5622 -0.5482  1.1067
13538SOL     OW41663   7.676   4.377   1.371  0.1293 -0.0643 -0.1081
13538SOL    HW141664   7.689   4.282   1.375  2.6312  0.2730  1.5738
13538SOL    HW241665   7.704   4.402   1.283 -0.7019 -0.8744 -0.6167
13539SOL     OW41666   7.128   6.145   4.880 -0.7734  0.3042  0.2044
13539SOL    HW141667   7.050   6.117   4.927 -0.6029  0.4689  0.5891
13539SOL    HW241668   7.154   6.068   4.829 -1.4790  0.4126 -0.3328
13540SOL     OW41669   5.971   3.446   6.388  0.1259  0.4041  0.1395
13540SOL    HW141670   5.916   3.410   6.317  0.2018 -1.9082  1.1670
13540SOL    HW241671   6.012   3.523   6.349 -0.9355  0.0352 -1.8790
13541SOL     OW41672   1.727   1.080   7.465  0.0416 -0.5298  0.4873
13541SOL    HW141673   1.717   1.062   7.558 -1.6757 -1.5844  0.1432
13541SOL    HW241674   1.751   0.996   7.427  0.9883 -0.0517 -0.0110
13542SOL     OW41675   6.127   0.016   6.653  0.0433 -0.4335  0.2066
13542SOL    HW141676   6.084   0.095   6.619 -2.0309 -1.1299  1.0148
13542SOL    HW241677   6.095  -0.054   6.597  0.1365 -0.9845  0.8322
13543SOL     OW41678   3.154   0.404   3.727 -0.1444  0.2924  0.0774
13543SOL    HW141679   3.075   0.349   3.728 -0.2396  0.3539 -1.3387
13543SOL    HW241680   3.178   0.409   3.634  0.2595  2.0983  0.2572
13544SOL     OW41681   1.112   5.162   7.384 -0.1517 -0.4272 -0.0589
13544SOL    HW141682   1.179   5.097   7.408  0.9771  1.3158  1.7771
13544SOL    HW241683   1.069   5.183   7.467  1.6149  3.3749  0.1032
13545SOL     OW41684   2.361   1.052   7.169 -0.2061  0.1056  0.5480
13545SOL    HW141685   2.329   1.124   7.114 -2.0043 -0.9711  0.0851
13545SOL    HW241686   2.409   0.995   7.110 -0.5362 -0.0936  0.4650
13546SOL     OW41687   0.117   2.772   5.666  0.4252  0.1642 -0.4317
13546SOL    HW141688   0.184   2.786   5.732  1.9862 -1.9187 -1.4410
13546SOL    HW241689   0.144   2.826   5.592 -1.2331  2.3670  0.4429
13547SOL     OW41690   1.557   6.722   7.923 -0.4684 -0.2145  0.0567
13547SOL    HW141691   1.627   6.761   7.975 -0.3264 -0.1197 -0.2004
13547SOL    HW241692   1.554   6.630   7.949 -1.9697  0.3040  1.9545
13548SOL     OW41693   1.243   1.245   5.458 -0.6720  0.6926  0.0326
13548SOL    HW141694   1.151   1.219   5.452 -0.9615  1.7021 -0.1673
13548SOL    HW241695   1.290   1.183   5.403 -1.2076  0.0577  0.2820
13549SOL     OW41696   2.254   5.669   2.768  0.6342  0.1476 -0.3315
13549SOL    HW141697   2.284   5.587   2.807 -2.2269 -0.6900  0.3707
13549SOL    HW241698   2.188   5.643   2.704  0.3791  1.8567 -0.8348
13550SOL     OW41699   7.221   2.256   5.718  0.5331 -0.7350 -0.3337
13550SOL    HW141700   7.183   2.173   5.746 -0.3532  0.0875  1.0107
13550SOL    HW241701   7.151   2.321   5.731  1.5781  0.4091 -0.1878
13551SOL     OW41702   2.907   5.919   3.758 -0.0264 -0.3883  0.1302
13551SOL    HW141703   2.864   5.850   3.809  2.8080 -2.1991  0.2537
13551SOL    HW241704   2.982   5.945   3.812  0.1675  1.2927 -0.8872
13552SOL     OW41705   4.081   4.586   3.282  0.0676  0.6182 -0.0481
13552SOL    HW141706   4.147   4.648   3.252 -0.6692  0.9825 -0.9901
13552SOL    HW241707   4.013   4.641   3.322 -1.6745  0.7192 -2.8912
13553SOL     OW41708   6.725   3.900   7.663  0.1589 -0.2195  0.0871
13553SOL    HW141709   6.668   3.879   7.590  0.9652 -1.1231 -0.3027
13553SOL    HW241710   6.677   3.967   7.712 -0.5378  0.1582 -1.0672
13554SOL     OW41711   5.656   1.952   1.902 -0.1967 -0.3881  0.0928
13554SOL    HW141712   5.585   1.893   1.876 -0.0609  0.1642 -1.7263
13554SOL    HW241713   5.718   1.948   1.828  0.2137  1.3766  0.2929
13555SOL     OW41714   7.470   4.697   2.587  0.1645 -0.2716  0.0311
13555SOL    HW141715   7.538   4.707   2.653  0.8402  0.6942 -0.7918
13555SOL    HW241716   7.435   4.785   2.574 -1.0929 -0.7176  0.2690
13556SOL     OW41717   7.344   3.705   5.430 -0.3184  0.0512 -0.0819
13556SOL    HW141718   7.382   3.641   5.490  2.2490  2.1728  0.7589
13556SOL    HW241719   7.267   3.739   5.476  0.6898  0.4791  1.3712
13557SOL     OW41720   1.732   0.077   0.380 -0.0397 -0.2103 -0.5026
13557SOL    HW141721   1.678   0.152   0.405 -1.8023 -1.8371  0.8451
13557SOL    HW241722   1.741   0.084   0.285 -1.9769  0.5571 -0.6623
13558SOL     OW41723   0.471   1.956   1.436 -0.2365 -0.6569  0.2950
13558SOL    HW141724   0.552   1.920   1.401 -0.5699 -0.2919 -0.8994
13558SOL    HW241725   0.460   1.912   1.521  1.4724 -0.3002  0.7366
13559SOL     OW41726   8.184   4.603   0.244 -0.1820  0.3733 -0.8893
13559SOL    HW141727   8.115   4.668   0.255  0.3670  0.5819  2.4784
13559SOL    HW241728   8.144   4.521   0.271  0.2897  0.0905 -1.0447
13560SOL     OW41729   2.063   2.543   5.554  0.4184  0.8731  0.2348
13560SOL    HW141730   2.031   2.458   5.524  1.0863  0.5374  0.4568
13560SOL    HW241731   1.988   2.582   5.599  0.4522 -0.1271  1.2079
13561SOL     OW41732   2.599   7.621   0.727 -0.3220 -0.5238  0.7692
13561SOL    HW141733   2.551   7.631   0.810 -1.6780  1.4787 -0.1791
13561SOL    HW241734   2.560   7.686   0.669 -0.0883 -2.5238 -1.7956
13562SOL     OW41735   6.564   4.157   2.523  0.4962  0.2709  0.0842
13562SOL    HW141736   6.655   4.134   2.508  0.4012 -1.3266  1.6747
13562SOL    HW241737   6.566   4.238   2.572  1.0611  0.1650  0.2313
13563SOL     OW41738   3.523   0.512   0.488  0.4241 -0.0491 -0.0341
13563SOL    HW141739   3.436   0.496   0.525 -1.0581 -0.4496 -3.2948
13563SOL    HW241740   3.548   0.598   0.522 -1.6326  0.4416  0.3749
13564SOL     OW41741   2.396   7.835   5.216 -0.1292  0.0664 -0.0196
13564SOL    HW141742   2.316   7.851   5.167  0.3577  1.1806 -0.4848
13564SOL    HW241743   2.438   7.921   5.223  1.5466 -0.6456 -0.7420
13565SOL     OW41744   0.660   0.762   0.296  0.1115 -1.0971  0.1111
13565SOL    HW141745   0.746   0.800   0.277 -0.5500  0.8350  0.7505
13565SOL    HW241746   0.668   0.726   0.385  0.0897 -0.3207  0.4349
13566SOL     OW41747   5.287   3.237   3.124  0.2155 -0.2645  0.0664
13566SOL    HW141748   5.205   3.266   3.164  0.4298 -2.2267  2.0940
13566SOL    HW241749   5.261   3.169   3.062  0.1795  0.4929 -0.7747
13567SOL     OW41750   5.541   4.084   1.753  0.1032  0.0225 -0.1113
13567SOL    HW141751   5.574   4.090   1.843 -0.1401 -0.2464 -0.0032
13567SOL    HW241752   5.478   4.012   1.756 -0.6404  0.6510 -0.2645
13568SOL     OW41753   0.632   2.686   0.978  0.0949  0.3088  0.2526
13568SOL    HW141754   0.574   2.735   1.037 -0.7000 -0.3449  0.0318
13568SOL    HW241755   0.578   2.615   0.945  0.9367 -0.1250 -0.2246
13569SOL     OW41756   5.922   1.916   7.166 -0.3571 -0.1510 -0.2148
13569SOL    HW141757   5.896   1.824   7.177 -1.9306  0.3955  0.8279
13569SOL    HW241758   6.001   1.925   7.220 -0.0420 -0.9405 -0.5287
13570SOL     OW41759   3.565   3.893   5.757 -0.3298  0.3757  0.4643
13570SOL    HW141760   3.494   3.957   5.764 -0.8953 -0.2009  0.0573
13570SOL    HW241761   3.573   3.855   5.845 -4.5406 -3.7892 -0.5801
13571SOL     OW41762   2.426   5.655   3.132 -0.2972  0.0513  0.0736
13571SOL    HW141763   2.513   5.635   3.097 -0.5705 -1.0528 -0.0246
13571SOL    HW241764   2.430   5.630   3.224 -0.1090  1.3163  0.4336
13572SOL     OW41765   5.929   3.533   2.424 -0.1512 -0.0327  0.4263
13572SOL    HW141766   5.859   3.587   2.388 -0.4367 -0.5817  0.1479
13572SOL    HW241767   5.997   3.532   2.356 -1.0570 -1.7885 -0.5094
13573SOL     OW41768   4.547   8.151   8.011  0.4200  0.1293  0.0447
13573SOL    HW141769   4.613   8.206   7.967 -0.4305  0.8992 -0.3011
13573SOL    HW241770   4.465   8.171   7.966 -0.5559  1.1666  2.1187
13574SOL     OW41771   4.224   2.946   4.975  0.3417 -0.2909  0.4193
13574SOL    HW141772   4.190   3.033   4.956 -0.4161 -0.5447  0.5949
13574SOL    HW241773   4.303   2.939   4.921 -0.5007 -0.1252 -0.8773
13575SOL     OW41774   3.467   6.781   5.575  0.1801  0.1539 -0.0624
13575SOL    HW141775   3.438   6.711   5.516  0.4781  0.0306 -0.0629
13575SOL    HW241776   3.538   6.742   5.625  0.7767  0.6510 -0.5097
13576SOL     OW41777   0.631   7.923   3.444 -0.4920 -0.3585 -0.1255
13576SOL    HW141778   0.605   8.005   3.402  1.5461  0.8714  0.8301
13576SOL    HW241779   0.693   7.883   3.383  1.2648  0.6531  0.9147
13577SOL     OW41780   5.112   8.184   4.758  0.3524 -0.1501  0.1503
13577SOL    HW141781   5.060   8.123   4.705  2.0873 -0.0957 -1.7219
13577SOL    HW241782   5.116   8.264   4.706 -1.1315  1.3363  2.1773
13578SOL     OW41783   2.072   6.739   3.685 -0.1291 -0.3810 -0.2163
13578SOL    HW141784   2.152   6.727   3.634  0.3907 -0.5395  0.6145
13578SOL    HW241785   2.001   6.721   3.623  0.4119  1.3022 -1.3858
13579SOL     OW41786   3.199   2.461   6.790 -0.2131 -0.5859  0.5611
13579SOL    HW141787   3.202   2.544   6.743 -0.2046 -0.7143  0.3305
13579SOL    HW241788   3.140   2.477   6.864  1.1444  0.1320  1.5382
13580SOL     OW41789   0.425   5.275   6.518  0.0873 -0.2776  0.3332
13580SOL    HW141790   0.400   5.342   6.582 -0.2300 -0.8370  0.7987
13580SOL    HW241791   0.342   5.243   6.483  0.2667  1.6556 -2.1134
13581SOL     OW41792   2.534   0.535   0.554 -0.1790  0.0048  0.0119
13581SOL    HW141793   2.472   0.541   0.481  0.3969  0.0739 -0.4786
13581SOL    HW241794   2.603   0.477   0.521 -0.7352 -1.3557  1.1037
13582SOL     OW41795   7.662   6.333   5.496 -0.0206  0.1918 -0.3737
13582SOL    HW141796   7.647   6.341   5.402  2.5978 -0.6848 -0.9355
13582SOL    HW241797   7.579   6.299   5.530 -0.7080 -0.4393 -2.5065
13583SOL     OW41798   7.261   2.003   2.787 -0.6570  0.2053 -0.2352
13583SOL    HW141799   7.286   1.951   2.863 -0.5513  0.7290  0.0929
13583SOL    HW241800   7.343   2.045   2.759 -0.9656  1.1515  0.2437
13584SOL     OW41801   2.211   4.405   7.930  0.3213 -0.4826  0.4177
13584SOL    HW141802   2.289   4.388   7.877  0.4222 -0.5747  0.5952
13584SOL    HW241803   2.149   4.446   7.869  1.2432  1.5348  0.7351
13585SOL     OW41804   2.947   4.862   7.036  0.4048 -0.1200  0.2331
13585SOL    HW141805   3.039   4.888   7.036 -0.0743  1.7512 -0.6354
13585SOL    HW241806   2.935   4.817   6.952  0.2605  0.7814 -0.2434
13586SOL     OW41807   2.885   2.966   7.150 -0.5655  0.0456 -0.2716
13586SOL    HW141808   2.819   2.956   7.218 -0.0978 -0.3096  0.1400
13586SOL    HW241809   2.835   2.972   7.068 -1.0878 -0.8302 -0.0360
13587SOL     OW41810   3.704   0.966   3.093  0.2890  0.0928 -0.1332
13587SOL    HW141811   3.779   1.018   3.065 -1.1230  1.6719 -1.1842
13587SOL    HW241812   3.632   0.995   3.037 -1.0289 -1.6573  0.5583
13588SOL     OW41813   3.886   6.556   0.418  0.2265  1.1369 -0.0515
13588SOL    HW141814   3.858   6.570   0.327  1.0276  1.5291 -0.2449
13588SOL    HW241815   3.806   6.566   0.469 -0.2919  0.6183 -0.7359
13589SOL     OW41816   1.363   6.195   6.211  0.5997 -0.0549  0.5040
13589SOL    HW141817   1.277   6.155   6.204  1.1772 -1.1416 -0.8914
13589SOL    HW241818   1.417   6.130   6.256  0.9707  0.1344  0.3414
13590SOL     OW41819   8.022   1.586   6.859 -0.8176 -0.2701  0.0300
13590SOL    HW141820   7.956   1.525   6.892 -0.9759 -0.6027 -0.8485
13590SOL    HW241821   8.085   1.529   6.813 -0.8455  0.1999 -0.6053
13591SOL     OW41822   2.584   4.378   2.530 -0.5479  0.0107  0.3493
13591SOL    HW141823   2.547   4.330   2.604  1.3766 -0.3050  1.1581
13591SOL    HW241824   2.660   4.326   2.504  0.2315  1.4226 -0.2661
13592SOL     OW41825   6.229   5.997   3.841 -0.4130 -0.1577  0.1253
13592SOL    HW141826   6.312   6.012   3.886 -1.2002  0.1482  1.5698
13592SOL    HW241827   6.198   6.085   3.819 -0.1002 -0.3005 -0.9132
13593SOL     OW41828   6.472   1.735   3.975  0.1616 -0.1905  0.1186
13593SOL    HW141829   6.548   1.778   4.015 -0.1348  0.5597 -0.1166
13593SOL    HW241830   6.489   1.739   3.881 -0.2701  0.1767  0.0528
13594SOL     OW41831   4.696   8.063   5.543  0.0029  0.5351  0.2016
13594SOL    HW141832   4.757   8.058   5.616 -0.4184  2.4830  0.7493
13594SOL    HW241833   4.687   8.157   5.525  0.1126  0.1446 -2.3894
13595SOL     OW41834   3.375   6.796   1.627 -0.4292  0.2774 -0.4136
13595SOL    HW141835   3.313   6.829   1.563  1.3890 -0.2576 -2.5750
13595SOL    HW241836   3.353   6.842   1.708 -3.0482  0.7036 -1.2764
13596SOL     OW41837   4.281   4.201   5.559  0.9677 -0.4518 -0.2783
13596SOL    HW141838   4.374   4.178   5.548  0.5296 -1.2235 -3.2488
13596SOL    HW241839   4.234   4.134   5.509 -1.2501 -0.1480  1.2694
13597SOL     OW41840   1.964   1.879   3.030  0.0635  0.3654 -0.1696
13597SOL    HW141841   1.928   1.906   3.115 -0.4106 -0.2327 -0.1778
13597SOL    HW241842   2.012   1.956   2.999 -0.7351  0.9848  0.1037
13598SOL     OW41843   2.071   3.260   6.395 -0.3017  0.7670  0.0852
13598SOL    HW141844   2.126   3.294   6.466  0.7859  0.6271 -0.6694
13598SOL    HW241845   2.098   3.310   6.318  1.6649 -1.9707 -1.1704
13599SOL     OW41846   5.398   3.402   5.115  0.0499 -0.1481  0.4124
13599SOL    HW141847   5.323   3.454   5.144 -1.1843 -2.3336  1.3961
13599SOL    HW241848   5.417   3.345   5.189  2.2855 -0.1407 -0.0878
13600SOL     OW41849   3.131   0.098   6.570 -0.2999 -0.2656  0.0192
13600SOL    HW141850   3.188   0.035   6.613 -0.1098 -0.9981 -1.2505
13600SOL    HW241851   3.152   0.182   6.611 -0.2712 -0.9498  1.4453
13601SOL     OW41852   1.017   4.474   1.303 -0.4889  0.2060  0.3678
13601SOL    HW141853   1.037   4.383   1.284 -1.4517 -0.4749  2.3706
13601SOL    HW241854   1.102   4.518   1.300 -0.0652 -0.6377 -1.0066
13602SOL     OW41855   5.129   0.385   5.031 -0.0347 -0.0056  0.3247
13602SOL    HW141856   5.089   0.471   5.044 -0.0175 -0.3031  2.8047
13602SOL    HW241857   5.062   0.322   5.057 -0.1467 -0.8222 -1.7359
13603SOL     OW41858   4.787   5.693   2.217  0.0727 -0.0869  0.3539
13603SOL    HW141859   4.845   5.720   2.288  0.0827  1.1007 -0.0759
13603SOL    HW241860   4.745   5.775   2.188 -1.0116 -0.7671 -0.0485
13604SOL     OW41861   7.032   2.348   4.902 -0.1832 -0.5474 -0.5632
13604SOL    HW141862   6.985   2.278   4.856  2.0076 -2.5968  0.1263
13604SOL    HW241863   6.991   2.351   4.989 -1.4921  0.3619 -1.1814
13605SOL     OW41864   0.457   1.726   2.658 -0.5348  0.3354  0.2301
13605SOL    HW141865   0.469   1.821   2.666  1.7215  0.2358 -1.0281
13605SOL    HW241866   0.405   1.715   2.579 -0.5469  0.5118  0.2129
13606SOL     OW41867   0.922   5.322   6.399  0.9536 -0.3250 -0.0778
13606SOL    HW141868   0.962   5.341   6.314  0.3271 -0.7542 -0.4836
13606SOL    HW241869   0.980   5.257   6.439  1.3384 -0.0025 -0.0997
13607SOL     OW41870   3.216   7.932   5.735  0.3920 -0.5909 -0.5672
13607SOL    HW141871   3.176   7.983   5.805  0.7273  1.2605 -1.6404
13607SOL    HW241872   3.159   7.856   5.725 -1.1794  0.4786 -0.0802
13608SOL     OW41873   1.046   4.480   7.044  0.1297 -0.4303 -0.3918
13608SOL    HW141874   0.990   4.404   7.028 -0.5208 -0.3934  1.4853
13608SOL    HW241875   1.090   4.495   6.960 -1.9568 -1.0332 -1.6932
13609SOL     OW41876   0.127   3.539   4.926  0.1177  0.1329 -0.4191
13609SOL    HW141877   0.188   3.584   4.868  1.4508  0.0936  0.9121
13609SOL    HW241878   0.046   3.590   4.920  0.4113  0.4770 -1.8219
13610SOL     OW41879   7.839   6.266   2.259 -0.1732 -0.6249 -0.4401
13610SOL    HW141880   7.776   6.262   2.187  0.9837 -0.4253 -1.4886
13610SOL    HW241881   7.908   6.205   2.234 -0.1896 -1.2420  0.9566
13611SOL     OW41882   7.742   6.336   3.152 -0.0448  0.7639 -0.3948
13611SOL    HW141883   7.686   6.265   3.120 -0.0288  1.0136 -1.0122
13611SOL    HW241884   7.713   6.413   3.101  0.8000  0.9137 -0.6671
13612SOL     OW41885   3.026   5.246   1.075 -0.1165  0.1457  0.3491
13612SOL    HW141886   3.083   5.241   0.999 -0.1697  1.1624  0.2327
13612SOL    HW241887   2.965   5.317   1.056 -1.9736 -1.4044  0.1207
13613SOL     OW41888   6.536   3.603   1.512 -0.1669 -0.0142  0.1673
13613SOL    HW141889   6.443   3.613   1.534 -0.6392  3.0738 -2.3960
13613SOL    HW241890   6.582   3.654   1.578 -0.0751 -2.1970  1.9231
13614SOL     OW41891   6.513   0.291   0.900  0.6461  0.1894  0.4519
13614SOL    HW141892   6.505   0.229   0.973 -0.9010  0.3350  0.4432
13614SOL    HW241893   6.604   0.286   0.874  1.2708  0.1876  2.4550
13615SOL     OW41894   1.349   2.545   7.514 -0.6467  0.2171  0.8643
13615SOL    HW141895   1.403   2.489   7.458 -1.4524 -0.5389  0.8201
13615SOL    HW241896   1.283   2.486   7.550 -1.6994  1.1885  0.5968
13616SOL     OW41897   7.569   3.877   5.497  0.2592 -0.0071  0.4533
13616SOL    HW141898   7.496   3.818   5.475  0.1312 -0.0306  0.9277
13616SOL    HW241899   7.537   3.929   5.570  0.8650 -0.3082  0.9455
13617SOL     OW41900   3.388   2.562   4.502  0.9781 -0.0262  0.1192
13617SOL    HW141901   3.423   2.612   4.576 -0.2346 -1.0311  1.4408
13617SOL    HW241902   3.414   2.611   4.425 -0.5575  2.9489  1.3443
13618SOL     OW41903   7.552   3.082   2.183 -0.0122 -0.1501  0.3295
13618SOL    HW141904   7.597   3.064   2.266  0.5248 -0.7124 -0.0845
13618SOL    HW241905   7.513   3.169   2.196  0.6561  0.0676  0.9180
13619SOL     OW41906   2.511   0.909   8.005  0.6485 -0.1880 -0.1038
13619SOL    HW141907   2.550   0.822   8.019  1.3378 -0.2606 -2.0542
13619SOL    HW241908   2.523   0.925   7.911 -1.7817  0.9211 -0.3006
13620SOL     OW41909   5.783   8.033   7.801  0.5523  0.3634 -0.2144
13620SOL    HW141910   5.748   7.945   7.785 -0.0836  0.7438 -0.9478
13620SOL    HW241911   5.727   8.091   7.750  0.8871  1.2170  0.3643
13621SOL     OW41912   5.574   1.638   5.409  0.0404  0.2367 -0.0869
13621SOL    HW141913   5.589   1.603   5.497  0.8912  0.1187 -0.2640
13621SOL    HW241914   5.541   1.564   5.359 -1.2351  0.5086  0.3274
13622SOL     OW41915   3.972   5.894   1.364 -0.0115 -0.4109 -0.5135
13622SOL    HW141916   4.031   5.959   1.404 -1.9808  0.2743  1.4647
13622SOL    HW241917   3.977   5.911   1.270  1.1687  1.1412 -0.2059
13623SOL     OW41918   5.215   2.387   7.732  0.1760  0.4553 -0.3674
13623SOL    HW141919   5.261   2.335   7.665 -1.1572 -1.0463 -0.1588
13623SOL    HW241920   5.164   2.323   7.781 -0.3392  1.7944  0.8880
13624SOL     OW41921   6.598   4.103   7.770  0.2581 -0.4393  0.1582
13624SOL    HW141922   6.653   4.145   7.705  0.5188 -0.6789  0.2243
13624SOL    HW241923   6.604   4.159   7.848  1.4693 -1.1643  0.6084
13625SOL     OW41924   1.936   1.531   2.012 -0.1728  0.2263  0.6403
13625SOL    HW141925   1.920   1.446   1.969 -0.3631 -0.7558  2.5518
13625SOL    HW241926   2.009   1.569   1.963 -0.6736 -0.6152 -0.8260
13626SOL     OW41927   6.432   7.049   4.920  0.7748  0.0040  0.0390
13626SOL    HW141928   6.509   6.992   4.914  1.7253  1.2579 -0.0776
13626SOL    HW241929   6.357   6.989   4.923  1.7319 -1.2299 -0.2646
13627SOL     OW41930   4.045   5.355   6.496  0.0494  0.0238  0.2230
13627SOL    HW141931   4.125   5.368   6.545 -0.1841  0.8045  0.4076
13627SOL    HW241932   4.073   5.355   6.404  0.4439 -1.1540  0.3216
13628SOL     OW41933   1.501   1.209   8.200  0.2048 -0.3832  0.5606
13628SOL    HW141934   1.527   1.124   8.163  1.2712  0.3103 -0.3326
13628SOL    HW241935   1.445   1.247   8.132  0.2470 -0.1052  0.6834
13629SOL     OW41936   5.999   2.138   1.981  0.4951  0.1611  0.8765
13629SOL    HW141937   5.989   2.213   2.039 -0.7659 -0.6828  1.7898
13629SOL    HW241938   5.979   2.172   1.894 -3.8600  0.2056  1.6795
13630SOL     OW41939   1.443   6.253   4.445 -0.3769 -0.7299  0.1166
13630SOL    HW141940   1.368   6.246   4.385  0.9151  1.8897 -2.0613
13630SOL    HW241941   1.442   6.345   4.473  1.5353 -0.8492  0.6934
13631SOL     OW41942   2.628   5.401   4.058 -0.1584 -0.4072 -0.1956
13631SOL    HW141943   2.605   5.332   4.122  1.0040 -1.2498 -0.6455
13631SOL    HW241944   2.621   5.357   3.973  1.8780 -0.3866 -0.4146
13632SOL     OW41945   6.327   2.904   0.318  0.4338 -0.2183 -0.1728
13632SOL    HW141946   6.383   2.871   0.388  0.6637  0.1476 -0.1803
13632SOL    HW241947   6.380   2.970   0.274 -0.1964  0.5479  0.1817
13633SOL     OW41948   3.454   5.270   0.025  0.1840  0.5169  0.4886
13633SOL    HW141949   3.361   5.273   0.045 -0.4065  0.5112 -1.9457
13633SOL    HW241950   3.458   5.252  -0.069  2.6557 -0.1217  0.6407
13634SOL     OW41951   3.433   5.898   1.438 -0.1844  0.1315 -0.1581
13634SOL    HW141952   3.447   5.832   1.370  1.1164  0.3729 -0.1647
13634SOL    HW241953   3.515   5.948   1.438 -1.4645  2.3669 -0.8191
13635SOL     OW41954   2.753   7.171   3.146  0.1445 -0.5279 -0.2652
13635SOL    HW141955   2.789   7.259   3.160 -0.4403 -0.2734 -0.3325
13635SOL    HW241956   2.766   7.127   3.230  0.8407 -0.5279 -0.3657
13636SOL     OW41957   7.360   1.552   3.534 -0.9495 -0.3707  0.4820
13636SOL    HW141958   7.287   1.588   3.484 -1.1344 -0.7776  0.4572
13636SOL    HW241959   7.369   1.612   3.608  1.2210  1.9670 -1.4862
13637SOL     OW41960   4.071   5.489   5.472  0.1125 -0.0322 -0.0122
13637SOL    HW141961   4.005   5.490   5.541 -1.2207  0.1001 -1.2480
13637SOL    HW241962   4.033   5.540   5.401  1.8095  0.5446 -0.5456
13638SOL     OW41963   4.539   7.143   7.843  0.1827 -0.0112 -0.0026
13638SOL    HW141964   4.528   7.072   7.779  2.1564  1.5573 -2.2443
13638SOL    HW241965   4.450   7.172   7.862 -0.5286 -1.4605 -0.9022
13639SOL     OW41966   0.977   4.094   0.619  0.6907  1.0153 -0.0108
13639SOL    HW141967   1.016   4.009   0.597 -1.3085  0.2113 -0.7125
13639SOL    HW241968   1.039   4.159   0.585  2.8813 -0.0825  1.6301
13640SOL     OW41969   3.962   2.221   4.810  0.0963  0.2059 -0.2288
13640SOL    HW141970   4.027   2.217   4.740 -1.9422 -2.3332 -2.1930
13640SOL    HW241971   3.912   2.140   4.801 -0.7763  0.0730  3.7695
13641SOL     OW41972   1.350   3.054   0.540  0.0594 -0.2516  0.0743
13641SOL    HW141973   1.360   2.992   0.468 -1.6327 -0.4519 -0.0337
13641SOL    HW241974   1.293   3.009   0.602  1.3314 -0.0103  1.4797
13642SOL     OW41975   5.991   7.924   8.271 -0.4156 -0.2386  0.0375
13642SOL    HW141976   6.058   7.989   8.252 -0.8030 -0.0102 -0.5726
13642SOL    HW241977   5.941   7.962   8.343  0.0218 -0.3513  0.4056
13643SOL     OW41978   0.369   8.178   3.450 -0.7682 -0.2689  0.0261
13643SOL    HW141979   0.451   8.160   3.404 -0.0149 -0.0799  1.2510
13643SOL    HW241980   0.301   8.147   3.390  0.1803 -0.3664 -1.0455
13644SOL     OW41981   3.337   1.431   8.001 -0.4556 -0.1287  0.2733
13644SOL    HW141982   3.247   1.437   8.031 -1.4726  0.6018 -2.5588
13644SOL    HW241983   3.362   1.521   7.980  0.7649 -0.3896  0.5269
13645SOL     OW41984   6.577   8.038   2.047  0.7265  0.5877 -0.1429
13645SOL    HW141985   6.496   7.988   2.041 -0.6698  2.6043  0.7334
13645SOL    HW241986   6.631   7.990   2.110 -1.2816  1.0112  2.0374
13646SOL     OW41987   1.843   5.091   0.571 -0.1980 -0.2005 -0.5255
13646SOL    HW141988   1.927   5.100   0.527 -0.1670 -0.0727 -0.4410
13646SOL    HW241989   1.849   5.149   0.647 -0.1206 -0.6788 -0.1643
13647SOL     OW41990   3.286   3.972   3.580  0.2620  0.0509  0.0198
13647SOL    HW141991   3.373   3.990   3.546  0.8981 -2.0012  0.3887
13647SOL    HW241992   3.299   3.899   3.641 -1.3873  1.1346  1.8048
13648SOL     OW41993   2.991   0.467   4.274 -0.0777  0.0265 -0.1178
13648SOL    HW141994   2.967   0.404   4.206 -0.8875  1.7759 -1.5099
13648SOL    HW241995   2.951   0.549   4.247  2.8726  1.7880  0.3449
13649SOL     OW41996   2.728   4.732   5.436 -0.1461 -0.2193 -0.0782
13649SOL    HW141997   2.787   4.736   5.512 -0.3604  0.5176  0.0604
13649SOL    HW241998   2.644   4.766   5.469 -0.1581  0.4016 -0.7174
13650SOL     OW41999   7.175   5.119   5.958 -0.2278  0.3703 -0.1057
13650SOL    HW142000   7.151   5.184   5.892  0.5272  1.1195  0.3326
13650SOL    HW242001   7.266   5.096   5.936 -0.0072  0.5491  0.5947
13651SOL     OW42002   4.282   4.334   4.724  0.0916 -0.1156  0.7926
13651SOL    HW142003   4.375   4.313   4.733  0.1643  0.5981  1.9247
13651SOL    HW242004   4.265   4.396   4.796 -1.1296  0.1726  0.2695
13652SOL     OW42005   4.530   1.915   2.659  0.3288  0.6325  0.1444
13652SOL    HW142006   4.466   1.886   2.724  0.2135 -0.0763 -0.2800
13652SOL    HW242007   4.497   2.000   2.630 -1.5718 -0.5858 -1.5463
13653SOL     OW42008   5.819   2.476   4.355  0.3962  0.1006 -0.1739
13653SOL    HW142009   5.788   2.388   4.334 -0.0367  0.7698 -2.5753
13653SOL    HW242010   5.744   2.519   4.396  0.0056 -0.0766 -0.6932
13654SOL     OW42011   1.659   4.683   3.267  0.5473  0.1038  0.0232
13654SOL    HW142012   1.631   4.618   3.331 -2.3489  0.3426 -0.8761
13654SOL    HW242013   1.729   4.731   3.311  1.0534 -1.9548  1.6325
13655SOL     OW42014   4.979   8.172   2.271  0.3069  0.2484 -0.0014
13655SOL    HW142015   5.072   8.175   2.251  0.9313 -1.1468  2.2580
13655SOL    HW242016   4.968   8.236   2.341 -0.1597 -0.4557  0.5877
13656SOL     OW42017   3.208   2.566   0.498  0.6240  0.1775 -0.7637
13656SOL    HW142018   3.204   2.471   0.485 -0.3332  0.2952 -1.4402
13656SOL    HW242019   3.118   2.592   0.517  0.7722  1.0342 -1.1658
13657SOL     OW42020   4.957   7.550   2.563 -0.0175  0.5644  0.0137
13657SOL    HW142021   4.971   7.511   2.477 -1.9359 -2.4552  0.9075
13657SOL    HW242022   4.875   7.598   2.554 -0.7607 -0.6077  0.3673
13658SOL     OW42023   0.961   0.204   5.023  0.3045 -0.3041  0.4243
13658SOL    HW142024   0.958   0.215   5.118 -0.6544 -2.4771  0.7014
13658SOL    HW242025   1.041   0.249   4.996  0.0272  1.3089  2.0957
13659SOL     OW42026   5.062   1.471   1.117  0.3374  0.7802 -0.2465
13659SOL    HW142027   5.094   1.497   1.204  0.4008 -1.5826  0.5015
13659SOL    HW242028   5.138   1.482   1.060  0.0512  3.2377 -0.2690
13660SOL     OW42029   1.174   7.986   5.287 -0.5868 -0.7095  0.3493
13660SOL    HW142030   1.245   7.927   5.264  0.7890  1.2230 -0.6877
13660SOL    HW242031   1.106   7.969   5.222  0.1084 -0.6436 -0.4104
13661SOL     OW42032   0.585   3.306   6.670 -0.4071 -0.2821 -0.3485
13661SOL    HW142033   0.594   3.401   6.678 -0.5399 -0.3011  0.0635
13661SOL    HW242034   0.490   3.291   6.667 -0.5255 -0.6029  2.5089
13662SOL     OW42035   6.140   7.419   3.800 -0.3581  0.0747 -0.1299
13662SOL    HW142036   6.073   7.486   3.783  1.2838  1.9796  0.4541
13662SOL    HW242037   6.101   7.362   3.866 -2.0383  0.0497 -1.0806
13663SOL     OW42038   0.525   0.158   5.756 -0.6521  0.1463  0.7430
13663SOL    HW142039   0.599   0.189   5.703 -2.4147  2.6110 -0.4657
13663SOL    HW242040   0.452   0.152   5.695 -1.4277 -2.7280  1.7975
13664SOL     OW42041   0.655   0.102   2.973 -0.1642  0.3164  0.1667
13664SOL    HW142042   0.669   0.008   2.960  0.4947  0.0169  2.5429
13664SOL    HW242043   0.742   0.136   2.996 -0.6883  1.1815  0.9477
13665SOL     OW42044   4.302   0.899   3.384 -0.2810  0.0491 -0.1537
13665SOL    HW142045   4.286   0.910   3.478  0.1615 -0.3606 -0.0257
13665SOL    HW242046   4.356   0.974   3.360  0.0280 -0.1106  0.0302
13666SOL     OW42047   6.796   2.680   0.030 -0.6627  0.1794 -0.0659
13666SOL    HW142048   6.719   2.652   0.080 -0.6457  0.7729  0.3057
13666SOL    HW242049   6.763   2.697  -0.058 -1.3112  1.9525  0.4641
13667SOL     OW42050   3.450   0.387   6.678 -0.5801  0.3911 -0.1090
13667SOL    HW142051   3.528   0.425   6.719 -0.4080 -1.8566  1.7973
13667SOL    HW242052   3.480   0.358   6.592 -0.3125  2.8860 -0.9421
13668SOL     OW42053   5.603   0.515   6.120  0.3853  0.2183 -0.3030
13668SOL    HW142054   5.591   0.532   6.026 -0.7852 -0.9475 -0.3871
13668SOL    HW242055   5.697   0.509   6.131  0.9222  4.5469 -0.6092
13669SOL     OW42056   1.098   0.147   4.721 -0.2188 -0.2437 -0.2054
13669SOL    HW142057   1.068   0.184   4.638  1.8707  0.4914 -0.6953
13669SOL    HW242058   1.112   0.224   4.777 -1.2059 -0.7091  0.7144
13670SOL     OW42059   4.291   0.040   1.235  0.0720  0.0808 -0.1662
13670SOL    HW142060   4.219   0.097   1.208  0.3995  1.3497  1.5185
13670SOL    HW242061   4.335   0.088   1.305  1.8675 -1.1845 -0.3727
13671SOL     OW42062   7.750   4.006   3.076 -0.3287 -0.3846  0.4930
13671SOL    HW142063   7.725   4.015   3.168 -1.2615 -0.1148  0.2188
13671SOL    HW242064   7.806   3.928   3.074  2.0394  1.1675  1.7342
13672SOL     OW42065   5.628   3.637   6.006 -0.1153 -0.6375  0.1413
13672SOL    HW142066   5.638   3.722   5.962  0.6486 -0.3259  0.8851
13672SOL    HW242067   5.717   3.606   6.018 -0.3085 -0.7365  1.4169
13673SOL     OW42068   6.432   8.216   4.552  0.0565 -1.0066  0.2431
13673SOL    HW142069   6.404   8.232   4.642 -0.0586 -1.4781  0.2957
13673SOL    HW242070   6.353   8.228   4.499  0.5137  1.0909 -0.0247
13674SOL     OW42071   8.261   1.338   6.977  0.3720  0.5101  0.1400
13674SOL    HW142072   8.185   1.340   7.035  0.8250 -1.4981  0.8858
13674SOL    HW242073   8.336   1.352   7.035  0.6671  1.1624 -0.3888
13675SOL     OW42074   1.903   2.705   7.828 -0.4624  0.5012  0.2669
13675SOL    HW142075   1.963   2.772   7.861  0.5180 -0.1817 -0.0847
13675SOL    HW242076   1.877   2.737   7.741  1.0675 -0.1871 -0.4816
13676SOL     OW42077   4.752   1.196   0.397  0.2444 -0.0142 -0.1442
13676SOL    HW142078   4.677   1.198   0.339 -0.3566 -1.3565  0.5424
13676SOL    HW242079   4.758   1.105   0.426  2.4930 -0.0855 -0.6442
13677SOL     OW42080   2.948   7.106   1.661  0.2049 -0.0269  0.2371
13677SOL    HW142081   2.922   7.184   1.612  0.5814 -0.6346 -0.9700
13677SOL    HW242082   2.874   7.089   1.720 -0.5633  0.3421 -0.5995
13678SOL     OW42083   2.047   2.363   3.905 -0.2570 -0.5129 -0.3958
13678SOL    HW142084   2.123   2.342   3.959 -2.0046 -1.3345  1.9395
13678SOL    HW242085   2.045   2.458   3.902 -0.0140 -0.4509  0.9021
13679SOL     OW42086   7.228   3.764   3.364 -0.1821  0.3602  0.0888
13679SOL    HW142087   7.199   3.849   3.330 -2.0633  0.4952  1.8212
13679SOL    HW242088   7.163   3.702   3.331  0.0055 -0.0560  0.4892
13680SOL     OW42089   6.561   1.445   6.911  0.0925  0.6903  0.3354
13680SOL    HW142090   6.484   1.443   6.967 -0.8025  0.9080 -0.8441
13680SOL    HW242091   6.631   1.409   6.965 -0.1133  3.2471  2.4737
13681SOL     OW42092   3.726   2.877   7.262  0.0650  0.4749  0.1153
13681SOL    HW142093   3.796   2.940   7.243 -0.4249  0.6160 -1.3401
13681SOL    HW242094   3.761   2.793   7.232  0.2369  0.2581  0.9107
13682SOL     OW42095   6.468   0.693   1.427  0.0994 -0.1632 -0.0194
13682SOL    HW142096   6.409   0.662   1.497  1.0352  0.2445  0.9735
13682SOL    HW242097   6.420   0.765   1.386  0.0397  0.4288  1.0430
13683SOL     OW42098   8.166   2.734   7.090 -0.4311  0.0346 -0.3817
13683SOL    HW142099   8.116   2.654   7.104  0.6240 -0.5176  0.3820
13683SOL    HW242100   8.168   2.778   7.175 -0.5994  0.6409 -0.6804
13684SOL     OW42101   7.056   0.390   1.146 -0.6782 -0.0695  0.3326
13684SOL    HW142102   6.998   0.395   1.070 -0.0116  2.4583 -0.1060
13684SOL    HW242103   7.141   0.363   1.110 -0.5116  0.5391  0.2599
13685SOL     OW42104   3.242   2.774   2.904  0.4122 -0.0780  0.2155
13685SOL    HW142105   3.299   2.702   2.877 -0.5629 -0.9735  0.4770
13685SOL    HW242106   3.182   2.786   2.830  0.4377  0.3174  0.2599
13686SOL     OW42107   2.834   7.581   0.614  0.2280 -0.0506  0.1108
13686SOL    HW142108   2.900   7.534   0.665  1.0077  0.3862 -0.4660
13686SOL    HW242109   2.756   7.579   0.669  0.8231 -0.2535  0.9810
13687SOL     OW42110   7.938   0.885   2.908 -0.1379  0.0121  0.5777
13687SOL    HW142111   7.959   0.902   3.000  1.5535 -1.9613  0.6235
13687SOL    HW242112   7.922   0.790   2.905  0.8512 -0.1316 -1.3365
13688SOL     OW42113   0.951   7.051   1.135  0.6667 -0.0634 -0.0004
13688SOL    HW142114   1.026   6.995   1.115 -1.2631 -2.1792 -1.7674
13688SOL    HW242115   0.907   7.065   1.051 -1.2152  0.6804  1.0431
13689SOL     OW42116   3.475   1.351   0.124 -0.0119  0.2832 -0.1098
13689SOL    HW142117   3.397   1.406   0.124 -0.4113 -0.2593 -1.1368
13689SOL    HW242118   3.471   1.304   0.208 -0.6586  0.4304 -0.0523
13690SOL     OW42119   6.523   4.763   2.662  0.0782  0.2073 -0.5049
13690SOL    HW142120   6.568   4.733   2.583 -0.9870 -0.2233 -0.9624
13690SOL    HW242121   6.570   4.721   2.734  0.2447 -0.4560 -0.9905
13691SOL     OW42122   6.663   2.785   0.459 -0.4296  0.1230  0.2382
13691SOL    HW142123   6.695   2.873   0.478 -0.4901  0.1948  0.0120
13691SOL    HW242124   6.574   2.784   0.495 -0.1559 -0.0918  0.9059
13692SOL     OW42125   7.246   7.603   3.304  0.2339  0.1347  0.3585
13692SOL    HW142126   7.181   7.538   3.276 -0.7767  0.4647  1.8120
13692SOL    HW242127   7.271   7.575   3.392 -0.1440  1.6663  0.9703
13693SOL     OW42128   4.647   6.605   7.680 -0.1558 -0.3049  0.4877
13693SOL    HW142129   4.554   6.588   7.665 -0.6997  0.7588  2.3849
13693SOL    HW242130   4.687   6.518   7.676 -1.4883 -0.9949  1.2746
13694SOL     OW42131   4.393   2.607   6.156 -0.7480  0.8685 -0.2747
13694SOL    HW142132   4.298   2.602   6.146 -0.6494  1.7590 -1.9294
13694SOL    HW242133   4.427   2.542   6.093 -0.2517 -0.0014  0.8477
13695SOL     OW42134   5.957   7.534   7.700  0.2096 -0.7025  0.7050
13695SOL    HW142135   6.043   7.503   7.726  0.2832  0.1263  1.5050
13695SOL    HW242136   5.896   7.490   7.759  0.0161 -1.7296 -0.2347
13696SOL     OW42137   4.408   3.575   3.363  0.1269 -0.1325 -0.0230
13696SOL    HW142138   4.345   3.646   3.354  1.3703  0.8344 -1.7223
13696SOL    HW242139   4.381   3.528   3.442 -0.9949  1.9377  0.8896
13697SOL     OW42140   4.410   6.837   6.990  0.0233 -0.1645 -0.0178
13697SOL    HW142141   4.325   6.881   6.994  0.7290  1.4493 -1.5780
13697SOL    HW242142   4.422   6.799   7.077 -2.2084 -0.3095  0.2779
13698SOL     OW42143   3.403   4.433   5.094  0.1836  0.2662 -0.6505
13698SOL    HW142144   3.319   4.421   5.049  0.5114 -1.1381 -0.9391
13698SOL    HW242145   3.469   4.405   5.030  0.7169 -0.8834  0.3747
13699SOL     OW42146   6.643   6.481   4.026  0.2626  0.9037 -0.1379
13699SOL    HW142147   6.692   6.539   4.085 -2.4753  2.4240  0.8135
13699SOL    HW242148   6.624   6.536   3.950  0.4675  0.1611 -0.7356
13700SOL     OW42149   3.135   2.185   6.937  0.5621  0.2444  0.1033
13700SOL    HW142150   3.159   2.247   6.869  1.7594 -2.5832 -2.3026
13700SOL    HW242151   3.218   2.149   6.968 -0.1118 -1.3437  0.1825
13701SOL     OW42152   5.243   6.048   5.190  0.1924  0.4898  0.2083
13701SOL    HW142153   5.200   6.001   5.262  1.7487 -0.3896  0.5903
13701SOL    HW242154   5.180   6.116   5.166 -1.4965 -0.8529  0.6220
13702SOL     OW42155   7.991   1.269   4.454 -0.0546  0.3239  0.1939
13702SOL    HW142156   8.049   1.341   4.478 -1.4107  1.4246  0.3788
13702SOL    HW242157   7.904   1.309   4.452 -0.5964 -0.7708 -2.0196
13703SOL     OW42158   1.655   0.488   3.637  0.1075  0.5532 -0.0838
13703SOL    HW142159   1.566   0.458   3.655 -0.0767  1.1624  0.0375
13703SOL    HW242160   1.643   0.570   3.590  0.6039  0.2973 -0.6720
13704SOL     OW42161   1.629   4.506   0.884  0.0283 -0.0743  0.3563
13704SOL    HW142162   1.605   4.598   0.898 -0.0880  0.0622 -0.6855
13704SOL    HW242163   1.572   4.458   0.944  0.0429  0.5291  0.8654
13705SOL     OW42164   3.642   5.814   2.406  0.0189  0.4413  0.1055
13705SOL    HW142165   3.593   5.804   2.488  0.6993  3.5195  1.0178
13705SOL    HW242166   3.587   5.770   2.340 -0.9900 -1.3296  2.0114
13706SOL     OW42167   0.597   4.565   4.585  0.4290  0.1632 -0.3446
13706SOL    HW142168   0.658   4.492   4.585 -0.6825 -0.8113 -1.2390
13706SOL    HW242169   0.638   4.631   4.529 -0.0251 -1.1331 -2.3054
13707SOL     OW42170   4.924   2.602   5.814  0.0689 -0.3722 -0.1448
13707SOL    HW142171   4.949   2.685   5.773  0.2494 -0.5041 -0.3079
13707SOL    HW242172   4.957   2.535   5.754  3.3792 -0.7006  1.7629
13708SOL     OW42173   4.373   0.991   1.464  0.3219  0.4140  0.1849
13708SOL    HW142174   4.450   1.036   1.498  0.4407  0.9325 -0.7358
13708SOL    HW242175   4.398   0.899   1.461  1.2638  0.6806 -0.9643
13709SOL     OW42176   1.088   5.753   0.994  0.5988  0.4524  0.5054
13709SOL    HW142177   1.051   5.721   0.912 -0.5965 -0.5443  1.4031
13709SOL    HW242178   1.090   5.848   0.983  1.9038  0.2946 -1.2411
13710SOL     OW42179   0.370   2.158   6.131  0.2397 -0.0742  0.4002
13710SOL    HW142180   0.301   2.122   6.187  0.5349  0.3176  1.0348
13710SOL    HW242181   0.380   2.248   6.160  1.0256 -0.1299  0.3348
13711SOL     OW42182   0.502   7.389   8.200  0.3946  0.2170  0.1877
13711SOL    HW142183   0.524   7.406   8.109 -0.6955 -0.8140 -0.2877
13711SOL    HW242184   0.429   7.327   8.197  0.7674 -0.3589  1.7693
13712SOL     OW42185   7.219   5.400   0.508  0.5568  0.1597 -0.1206
13712SOL    HW142186   7.177   5.453   0.576  0.9944 -0.4554  0.6495
13712SOL    HW242187   7.187   5.436   0.426  0.1415  1.0300  0.4100
13713SOL     OW42188   6.870   3.852   0.612  0.0126 -0.1504 -0.0029
13713SOL    HW142189   6.822   3.888   0.687 -1.4932  0.2561 -1.1118
13713SOL    HW242190   6.962   3.854   0.640 -0.5729 -1.0919  2.2608
13714SOL     OW42191   6.352   3.194   7.605  0.2758  0.0770 -0.0820
13714SOL    HW142192   6.332   3.112   7.559  0.8844 -0.3220  0.3565
13714SOL    HW242193   6.289   3.257   7.569  0.0630 -0.4800 -0.7120
13715SOL     OW42194   7.385   5.211   0.353 -0.1855 -0.3342 -0.1074
13715SOL    HW142195   7.332   5.280   0.393  0.4426  0.2524 -0.2650
13715SOL    HW242196   7.439   5.177   0.425  1.6640  1.3939 -0.5768
13716SOL     OW42197   4.513   5.342   6.242  0.0241  0.2092  0.3278
13716SOL    HW142198   4.458   5.413   6.274  0.3160  1.3715 -1.6068
13716SOL    HW242199   4.451   5.275   6.213 -0.3061  0.4869  0.3920
13717SOL     OW42200   0.964   0.172   3.823 -0.2727 -0.1834 -0.3950
13717SOL    HW142201   1.051   0.131   3.820  0.3348  0.7622  1.8323
13717SOL    HW242202   0.974   0.254   3.775 -0.3860 -0.7370 -1.4043
13718SOL     OW42203   3.028   6.098   3.336  0.1390  0.5523 -0.0870
13718SOL    HW142204   3.039   6.176   3.282  1.4548  0.5618  0.1583
13718SOL    HW242205   3.116   6.062   3.343 -0.6512 -1.9498 -1.6654
13719SOL     OW42206   1.984   2.331   6.475  0.2332 -0.1408 -0.1204
13719SOL    HW142207   2.063   2.345   6.422  0.9721  0.2589  1.0485
13719SOL    HW242208   2.015   2.333   6.566 -0.4057 -4.1077  0.3646
13720SOL     OW42209   3.085   5.651   6.429 -0.1417  0.8432 -0.4144
13720SOL    HW142210   3.125   5.719   6.374 -0.1354  2.1442  1.1237
13720SOL    HW242211   3.108   5.676   6.519  0.6608 -1.7584  0.1630
13721SOL     OW42212   2.714   6.732   6.342  0.1047 -0.1052 -0.0762
13721SOL    HW142213   2.655   6.805   6.320 -0.5827 -0.3270  0.9211
13721SOL    HW242214   2.705   6.671   6.269  0.8796  0.9095 -1.0480
13722SOL     OW42215   1.857   6.782   2.151 -0.2604 -0.2812  0.2546
13722SOL    HW142216   1.830   6.708   2.206  0.6097 -1.3562 -0.7320
13722SOL    HW242217   1.872   6.744   2.065  0.2281  1.0488 -0.2674
13723SOL     OW42218   5.222   1.552   4.814 -0.2063  0.1110  0.5894
13723SOL    HW142219   5.258   1.559   4.902  0.9896 -1.0784  0.2242
13723SOL    HW242220   5.138   1.507   4.826 -1.5083  2.5972  1.4020
13724SOL     OW42221   8.067   4.436   6.406 -0.3045 -0.5796 -0.0619
13724SOL    HW142222   8.099   4.346   6.406  1.2992 -0.0492 -0.2543
13724SOL    HW242223   7.972   4.428   6.408 -0.1819 -2.2478  1.6907
13725SOL     OW42224   3.973   2.035   6.652 -0.0823  0.1158  0.2230
13725SOL    HW142225   4.047   1.975   6.642 -0.1596  0.0599 -0.0228
13725SOL    HW242226   3.936   2.043   6.564  0.7237  1.5539 -0.0258
13726SOL     OW42227   2.841   7.654   6.042  0.0162  0.4681 -0.2835
13726SOL    HW142228   2.781   7.717   6.003 -0.1926  0.7606  0.4950
13726SOL    HW242229   2.798   7.627   6.124  1.4464  1.5732  0.9034
13727SOL     OW42230   2.290   7.723   0.197  0.6278 -0.0453 -0.1276
13727SOL    HW142231   2.313   7.742   0.288 -3.4267 -2.3771  1.6405
13727SOL    HW242232   2.320   7.634   0.182  1.1658  0.2757 -1.1426
13728SOL     OW42233   1.867   0.020   2.515 -0.0510 -0.3238  0.6438
13728SOL    HW142234   1.912  -0.064   2.502  1.7296  0.3995  1.6754
13728SOL    HW242235   1.931   0.074   2.562 -0.6399  2.0528 -1.0824
13729SOL     OW42236   2.477   2.211   1.065 -0.8217  0.0087  0.3047
13729SOL    HW142237   2.427   2.233   0.987 -0.5707  0.1354  0.1774
13729SOL    HW242238   2.418   2.158   1.118  0.4569 -4.2466 -2.0932
13730SOL     OW42239   1.150   0.922   3.733  0.3689 -0.0708 -0.4161
13730SOL    HW142240   1.239   0.927   3.768  1.0304  0.4179 -2.0641
13730SOL    HW242241   1.129   1.012   3.708 -0.8109 -0.0926  0.4604
13731SOL     OW42242   8.015   0.483   8.077  0.3442  0.4395  0.1027
13731SOL    HW142243   7.993   0.557   8.020 -1.6570 -0.5803 -0.5280
13731SOL    HW242244   7.931   0.444   8.100  1.3234 -1.3964  0.7710
13732SOL     OW42245   0.132   3.748   7.124  0.2484 -0.2630 -0.4909
13732SOL    HW142246   0.176   3.832   7.114 -1.1449  0.4788 -0.6614
13732SOL    HW242247   0.154   3.720   7.213 -0.3333  0.9282  0.0430
13733SOL     OW42248   3.217   2.134   3.834 -0.5304 -0.5146  0.6237
13733SOL    HW142249   3.270   2.057   3.814 -0.8454 -1.1717  2.1781
13733SOL    HW242250   3.272   2.208   3.810 -0.7744 -1.1559 -2.3210
13734SOL     OW42251   7.395   5.201   7.274 -0.4443 -0.4161  0.0696
13734SOL    HW142252   7.466   5.139   7.258  0.8666  0.9067  0.5602
13734SOL    HW242253   7.439   5.284   7.293 -2.0492  0.0577  2.1768
13735SOL     OW42254   7.094   1.241   0.203 -0.3271  0.5024 -0.2034
13735SOL    HW142255   7.130   1.330   0.208 -0.6059  0.5652  1.5922
13735SOL    HW242256   6.999   1.254   0.214 -0.3840 -0.0040 -0.0737
13736SOL     OW42257   6.708   2.601   1.518 -0.4309 -0.2715  0.1196
13736SOL    HW142258   6.689   2.622   1.427  0.0240 -0.3121  0.0142
13736SOL    HW242259   6.655   2.523   1.537 -0.5589 -0.2358 -0.0936
13737SOL     OW42260   3.798   6.604   4.172 -0.1501  0.2653  0.2327
13737SOL    HW142261   3.836   6.576   4.089  2.1682  0.7247  1.0465
13737SOL    HW242262   3.773   6.523   4.216  1.4689 -0.2301  0.3178
13738SOL     OW42263   7.643   1.368   5.149  0.4376  0.0662 -0.0491
13738SOL    HW142264   7.664   1.287   5.196  0.8597  0.3516  0.2612
13738SOL    HW242265   7.627   1.432   5.218  1.8437  0.6943 -0.2721
13739SOL     OW42266   3.316   4.305   5.570  0.3550  0.2381 -0.1898
13739SOL    HW142267   3.246   4.370   5.579  1.0015  0.7581  1.2273
13739SOL    HW242268   3.285   4.247   5.499 -0.9580  1.1374 -0.3894
13740SOL     OW42269   6.218   3.636   5.067 -0.0573  0.2992  0.0876
13740SOL    HW142270   6.159   3.693   5.116  1.4855  2.3057 -0.2460
13740SOL    HW242271   6.219   3.673   4.978  2.0760  0.7123  0.2225
13741SOL     OW42272   3.147   6.825   4.524 -0.2885  0.1661  0.5984
13741SOL    HW142273   3.241   6.833   4.540 -0.3630  0.4701  0.9065
13741SOL    HW242274   3.114   6.774   4.598 -0.2225 -0.7670 -0.0070
13742SOL     OW42275   4.470   4.912   5.316 -0.0116  0.0725  0.1035
13742SOL    HW142276   4.447   4.821   5.296  1.7217 -0.3417 -0.2013
13742SOL    HW242277   4.459   4.959   5.234  2.6947 -0.6921 -0.8147
13743SOL     OW42278   0.319   1.721   1.749  0.0524  0.3251  0.3902
13743SOL    HW142279   0.283   1.678   1.671  0.1080 -0.3639  0.7347
13743SOL    HW242280   0.274   1.805   1.752 -2.8386 -1.1341  1.7200
13744SOL     OW42281   6.553   0.297   1.788  0.1215 -0.0226 -0.3096
13744SOL    HW142282   6.513   0.210   1.780 -0.7182  0.4499 -1.8164
13744SOL    HW242283   6.633   0.291   1.736  0.3494 -0.0490  0.0438
13745SOL     OW42284   6.129   6.075   3.077 -0.3150  0.2129  0.4641
13745SOL    HW142285   6.196   6.008   3.082 -0.8998 -0.3869  0.3433
13745SOL    HW242286   6.131   6.105   2.986 -2.3677 -2.0900 -0.4500
13746SOL     OW42287   1.595   5.366   4.014  0.0666 -0.3574  0.0335
13746SOL    HW142288   1.667   5.347   3.954 -0.1882  0.5102 -0.5698
13746SOL    HW242289   1.536   5.423   3.964  0.1155  0.8328  1.2770
13747SOL     OW42290   8.064   0.863   4.119  0.3236  0.0901 -0.3689
13747SOL    HW142291   7.972   0.869   4.096  0.4810  0.3570 -0.9437
13747SOL    HW242292   8.096   0.787   4.071  0.4080  0.0097 -0.1872
13748SOL     OW42293   5.448   1.668   2.307 -0.0918 -0.1207  0.2637
13748SOL    HW142294   5.534   1.627   2.304 -0.0373 -0.0892  1.3516
13748SOL    HW242295   5.392   1.608   2.257  0.8111  0.5653 -1.7025
13749SOL     OW42296   5.376   6.630   3.253  0.1253 -0.0398  0.2387
13749SOL    HW142297   5.327   6.703   3.291 -0.6058 -0.3905 -0.0038
13749SOL    HW242298   5.320   6.553   3.267  0.0814 -0.2710 -1.0188
13750SOL     OW42299   6.174   7.319   5.604 -0.2756 -0.1984  0.1572
13750SOL    HW142300   6.238   7.248   5.594  0.7396 -0.2490  4.9249
13750SOL    HW242301   6.089   7.276   5.606 -0.1006 -0.6778 -1.3207
13751SOL     OW42302   8.147   2.320   6.005  0.2554 -0.1543 -0.1947
13751SOL    HW142303   8.163   2.265   6.081 -1.2998 -2.1232 -1.2257
13751SOL    HW242304   8.148   2.260   5.930 -0.3054  1.3928 -1.5148
13752SOL     OW42305   0.359   2.044   3.811 -0.2126 -0.3843 -0.3905
13752SOL    HW142306   0.447   2.081   3.819 -1.0249  1.4829  0.4689
13752SOL    HW242307   0.317   2.096   3.742 -1.8450  1.4099  1.8156
13753SOL     OW42308   0.532   5.539   5.417  0.7117  0.4431 -0.1481
13753SOL    HW142309   0.607   5.573   5.466 -0.2143 -0.5470  2.0488
13753SOL    HW242310   0.463   5.528   5.482 -0.4667 -1.3610 -1.6056
13754SOL     OW42311   3.135   6.601   4.316 -0.2989  0.3068 -0.0957
13754SOL    HW142312   3.220   6.609   4.272  0.5573 -0.1001  1.4060
13754SOL    HW242313   3.116   6.690   4.345 -0.1558  0.3230 -0.0473
13755SOL     OW42314   2.967   8.025   8.113 -0.0356 -0.6900  0.4512
13755SOL    HW142315   2.892   7.978   8.148 -0.6809 -0.3737 -0.4521
13755SOL    HW242316   3.040   8.000   8.169 -0.3230 -2.8421 -0.0533
13756SOL     OW42317   4.967   8.237   3.228  0.1335  0.5414 -0.1575
13756SOL    HW142318   4.888   8.288   3.249 -1.3841 -1.5455 -0.4571
13756SOL    HW242319   4.953   8.209   3.138  1.5384  0.6075 -0.4097
13757SOL     OW42320   7.130   6.906   1.757  0.0010 -0.4139 -0.5004
13757SOL    HW142321   7.187   6.912   1.834  0.1350 -1.7736 -0.4575
13757SOL    HW242322   7.183   6.858   1.693 -0.5390 -0.3230 -1.0212
13758SOL     OW42323   2.269   3.418   5.136  0.1475  0.2187 -0.4761
13758SOL    HW142324   2.344   3.450   5.186  0.1748  0.5716 -0.7337
13758SOL    HW242325   2.249   3.490   5.075 -0.5162  0.2067 -0.2816
13759SOL     OW42326   0.584   2.403   6.924 -0.0831  0.0941 -0.1980
13759SOL    HW142327   0.520   2.341   6.959  0.9821 -1.0454 -0.1795
13759SOL    HW242328   0.623   2.358   6.849  0.9941  0.5641  0.0500
13760SOL     OW42329   2.521   7.534   5.517  0.3209  0.0839 -0.7650
13760SOL    HW142330   2.552   7.453   5.475  1.4132  0.0851 -0.0059
13760SOL    HW242331   2.571   7.603   5.474  1.0676  0.1308  0.1574
13761SOL     OW42332   2.093   5.869   4.974  0.1174  0.0646  0.3059
13761SOL    HW142333   2.056   5.788   5.009 -0.5024  0.4708  0.6116
13761SOL    HW242334   2.100   5.854   4.880  0.9705 -0.7165  0.4864
13762SOL     OW42335   2.130   4.926   2.671  0.4955 -0.7598  0.4795
13762SOL    HW142336   2.077   4.879   2.607 -0.1637  0.7723 -0.1538
13762SOL    HW242337   2.218   4.925   2.634  0.0879  0.2728 -0.6016
13763SOL     OW42338   0.884   8.030   2.254 -0.5677 -0.0310 -0.4422
13763SOL    HW142339   0.889   8.110   2.201  0.4059 -0.0654 -0.4183
13763SOL    HW242340   0.880   7.959   2.189 -3.8304  0.0741 -0.5307
13764SOL     OW42341   2.629   6.190   1.695 -0.3066 -0.2817  0.2413
13764SOL    HW142342   2.698   6.123   1.694  2.2523  1.9866 -3.4112
13764SOL    HW242343   2.650   6.244   1.771  2.8298  0.9107 -1.2770
13765SOL     OW42344   4.487   7.706   6.538  0.2015  0.7642  0.1332
13765SOL    HW142345   4.445   7.629   6.500  1.4413  0.7293 -1.2433
13765SOL    HW242346   4.439   7.780   6.500 -2.1142  0.7670  2.7435
13766SOL     OW42347   5.393   1.980   2.117 -0.2110  0.3631 -0.0323
13766SOL    HW142348   5.383   1.993   2.022 -2.0438  0.1163  0.0895
13766SOL    HW242349   5.303   1.978   2.150  0.3924 -0.0294  1.6620
13767SOL     OW42350   2.317   1.877   3.476 -0.4490  0.0036  0.0458
13767SOL    HW142351   2.294   1.829   3.396  0.3410 -2.3867  1.1805
13767SOL    HW242352   2.269   1.833   3.546 -2.1968  2.8809  0.8436
13768SOL     OW42353   7.160   6.107   3.570 -0.4735  0.7508 -0.0111
13768SOL    HW142354   7.118   6.023   3.551  0.8610  0.1306 -0.3176
13768SOL    HW242355   7.139   6.162   3.495 -0.9239  0.5241 -0.0530
13769SOL     OW42356   0.578   8.103   3.236  0.3061  0.6530 -0.7108
13769SOL    HW142357   0.559   8.026   3.182  0.0869 -1.4264  2.0788
13769SOL    HW242358   0.531   8.175   3.194 -2.1996 -1.4047 -1.7139
13770SOL     OW42359   4.152   2.040   0.820  0.4615  0.2515 -0.6610
13770SOL    HW142360   4.129   2.133   0.815 -0.2988  0.0220 -1.7037
13770SOL    HW242361   4.113   2.002   0.742 -0.8948 -1.3244  0.7209
13771SOL     OW42362   3.585   6.401   5.285 -0.1857 -0.0987 -0.1294
13771SOL    HW142363   3.628   6.478   5.248  0.7372 -0.2856  0.5272
13771SOL    HW242364   3.615   6.328   5.230 -0.0350 -0.1640  0.0381
13772SOL     OW42365   7.066   3.121   3.506  0.2097 -0.2199 -0.0207
13772SOL    HW142366   6.970   3.122   3.510  0.1657  0.8513 -0.9184
13772SOL    HW242367   7.092   3.210   3.529  1.0333 -0.6682  0.8304
13773SOL     OW42368   7.773   3.221   4.247 -0.2679  0.3577  0.4838
13773SOL    HW142369   7.864   3.233   4.222 -0.8175  0.7054 -1.5046
13773SOL    HW242370   7.736   3.309   4.248 -0.7903  0.1463  0.3635
13774SOL     OW42371   4.611   0.489   0.740 -0.2802  0.2304  0.3794
13774SOL    HW142372   4.611   0.407   0.690  2.6385  0.3354  0.0410
13774SOL    HW242373   4.591   0.463   0.829 -1.2371 -0.5630 -0.0466
13775SOL     OW42374   5.489   1.652   3.517  0.0701  0.4388  0.1180
13775SOL    HW142375   5.432   1.603   3.457 -1.8070 -0.6280  2.6073
13775SOL    HW242376   5.452   1.740   3.517  0.5332  0.6472 -0.7964
13776SOL     OW42377   5.086   2.881   0.436 -0.1161  0.5340  0.0759
13776SOL    HW142378   5.138   2.895   0.515  0.8810 -0.0388 -0.4676
13776SOL    HW242379   5.081   2.967   0.395  1.4469  0.3904 -0.4840
13777SOL     OW42380   1.352   4.890   4.995 -0.4875 -0.0634  0.3561
13777SOL    HW142381   1.286   4.825   5.019 -1.0621  0.4245  0.1321
13777SOL    HW242382   1.308   4.974   5.008 -0.3237  0.2466 -0.9721
13778SOL     OW42383   2.191   5.335   0.684  0.0996 -0.3750  0.0577
13778SOL    HW142384   2.245   5.287   0.621  1.0028 -0.4817  0.8740
13778SOL    HW242385   2.186   5.277   0.760 -0.1084  0.1704  0.4673
13779SOL     OW42386   0.459   1.424   7.107  0.1526 -0.3511  0.0004
13779SOL    HW142387   0.452   1.342   7.157 -2.4592 -0.1392  0.1355
13779SOL    HW242388   0.412   1.406   7.025 -2.4937  1.5717  0.9409
13780SOL     OW42389   2.756   1.496   5.213 -0.3367 -0.2130 -0.4581
13780SOL    HW142390   2.719   1.580   5.188 -1.8817 -0.4404  0.8961
13780SOL    HW242391   2.716   1.476   5.298 -0.5682 -2.6379 -1.0538
13781SOL     OW42392   6.887   4.258   1.146  0.3706 -0.1305  0.1925
13781SOL    HW142393   6.877   4.168   1.178 -0.8986  0.7377  2.5079
13781SOL    HW242394   6.917   4.249   1.056 -0.2168 -2.8698  0.1989
13782SOL     OW42395   5.414   2.377   3.468  0.0665  0.0133 -0.2098
13782SOL    HW142396   5.328   2.363   3.506  0.4815 -0.8083  0.4569
13782SOL    HW242397   5.406   2.345   3.378 -0.3289 -0.0378 -0.1572
13783SOL     OW42398   1.981   6.817   6.592 -0.1399 -0.4859 -0.6299
13783SOL    HW142399   2.046   6.764   6.546 -1.2308 -0.5770 -2.1436
13783SOL    HW242400   1.902   6.810   6.538 -0.9826  0.8021  0.3786
13784SOL     OW42401   5.072   3.389   7.323 -0.0345 -0.5689  0.2245
13784SOL    HW142402   5.096   3.319   7.262 -2.0311  0.0523 -1.4000
13784SOL    HW242403   5.108   3.468   7.283 -0.7722 -0.2430  0.1849
13785SOL     OW42404   7.982   5.042   3.688 -0.2591  0.5549 -0.4677
13785SOL    HW142405   7.994   5.131   3.723  1.0464  0.4247 -0.5093
13785SOL    HW242406   8.043   4.989   3.739  0.1141 -0.0272 -1.4927
13786SOL     OW42407   6.449   4.642   3.199  0.4309  0.0498 -0.2526
13786SOL    HW142408   6.397   4.591   3.138  0.0199 -0.2186  0.3080
13786SOL    HW242409   6.460   4.585   3.275 -0.1751  0.8352  0.4481
13787SOL     OW42410   4.651   2.258   3.506  0.0485 -0.0235 -0.2791
13787SOL    HW142411   4.698   2.305   3.437  0.1127 -0.9858 -0.9110
13787SOL    HW242412   4.691   2.171   3.508  0.1237  0.0259  1.0659
13788SOL     OW42413   0.359   5.050   3.103 -0.5445 -0.6296 -0.5242
13788SOL    HW142414   0.340   5.068   3.195  1.1167  1.7037 -0.5404
13788SOL    HW242415   0.438   4.996   3.105 -0.6447 -0.7764 -0.5624
13789SOL     OW42416   3.297   6.639   2.315  0.0924  0.0472 -0.0530
13789SOL    HW142417   3.339   6.647   2.401  2.1939 -0.4835 -0.9713
13789SOL    HW242418   3.336   6.709   2.263  2.0981 -2.1820 -1.7622
13790SOL     OW42419   0.040   0.628   2.558 -0.2630 -0.3292 -0.4425
13790SOL    HW142420   0.007   0.718   2.551  1.3618  0.2266 -1.7181
13790SOL    HW242421   0.056   0.615   2.651 -2.0658  0.0875 -0.0357
13791SOL     OW42422   6.467   1.190   1.163 -0.8812  0.4371 -0.1318
13791SOL    HW142423   6.561   1.182   1.180 -1.3846 -1.3462  2.3785
13791SOL    HW242424   6.455   1.152   1.076  0.6981  0.7578 -0.5258
13792SOL     OW42425   0.786   2.790   0.186  0.3211 -0.5984  0.1911
13792SOL    HW142426   0.738   2.708   0.196  0.0367 -0.4126  0.3698
13792SOL    HW242427   0.794   2.802   0.091 -0.5411 -0.3188  0.1403
13793SOL     OW42428   4.084   3.179   1.445  0.1268 -0.1113 -0.8129
13793SOL    HW142429   4.172   3.166   1.482 -0.0916  1.6979  0.5080
13793SOL    HW242430   4.045   3.092   1.444  0.7093 -0.4994  1.9815
13794SOL     OW42431   1.480   6.617   7.339 -0.1561 -0.5025 -0.3094
13794SOL    HW142432   1.529   6.537   7.319 -1.0974 -0.9349 -0.9751
13794SOL    HW242433   1.429   6.594   7.417  0.4443 -0.1578  0.1930
13795SOL     OW42434   2.065   6.108   5.441  0.1839  0.1878 -0.1855
13795SOL    HW142435   2.089   6.081   5.352 -1.7983 -0.1251 -0.6613
13795SOL    HW242436   2.085   6.201   5.444  2.6765 -0.2644 -0.0660
13796SOL     OW42437   6.053   6.172   7.781  0.1235 -0.1647  0.6855
13796SOL    HW142438   6.086   6.101   7.726 -0.8969 -0.0984 -0.0266
13796SOL    HW242439   6.113   6.173   7.856  2.4670  0.6971 -1.0803
13797SOL     OW42440   4.787   7.225   0.006 -0.5877 -0.0578  0.2374
13797SOL    HW142441   4.732   7.157  -0.034  0.6780 -0.1098 -1.5190
13797SOL    HW242442   4.854   7.243  -0.059  0.1083  1.6923  1.3702
13798SOL     OW42443   1.325   7.941   1.470 -0.1237  0.8326 -0.0676
13798SOL    HW142444   1.336   7.903   1.382 -4.5062 -0.1249 -0.4678
13798SOL    HW242445   1.372   7.881   1.528 -1.6595 -1.8070 -1.3474
13799SOL     OW42446   6.149   1.444   0.659 -0.2612 -0.2722 -0.3654
13799SOL    HW142447   6.230   1.399   0.632 -0.0374 -1.8716  2.5788
13799SOL    HW242448   6.177   1.533   0.678  0.5052 -0.4079 -0.7934
13800SOL     OW42449   2.225   7.835   6.001 -0.4056  0.5282  0.0512
13800SOL    HW142450   2.266   7.908   6.046  1.0258  1.3943 -2.4744
13800SOL    HW242451   2.195   7.871   5.918 -0.4471 -1.5499 -0.9073
13801SOL     OW42452   6.161   7.126   3.468  0.3041  0.5438 -0.2928
13801SOL    HW142453   6.151   7.096   3.558  1.5453 -0.4139 -0.4549
13801SOL    HW242454   6.073   7.156   3.443 -0.7952 -2.0271  0.2293
13802SOL     OW42455   6.113   6.257   6.136 -0.5044  0.0346 -0.3263
13802SOL    HW142456   6.196   6.282   6.095  0.7325 -2.1609  0.6319
13802SOL    HW242457   6.047   6.277   6.069  0.7596  1.7726 -1.1502
13803SOL     OW42458   0.147   1.886   6.738 -0.0768  0.4161  0.5190
13803SOL    HW142459   0.151   1.929   6.652  1.9002  0.4041  0.5480
13803SOL    HW242460   0.127   1.957   6.799  0.3818  0.7775  0.2533
13804SOL     OW42461   7.232   1.457   4.870  0.0598 -0.2264 -0.8619
13804SOL    HW142462   7.321   1.461   4.905  0.0774 -1.0664 -0.7822
13804SOL    HW242463   7.192   1.540   4.895 -0.6666 -1.5693  3.1716
13805SOL     OW42464   2.949   4.381   1.287  0.2455 -0.2982  0.5412
13805SOL    HW142465   3.008   4.314   1.320  2.7441  0.7151 -1.5178
13805SOL    HW242466   2.985   4.463   1.319 -1.4751  0.2520  1.1897
13806SOL     OW42467   3.046   5.412   1.554 -0.0442 -0.2682 -0.0346
13806SOL    HW142468   3.101   5.489   1.542 -1.0652  0.6493  0.8878
13806SOL    HW242469   3.106   5.342   1.579  0.7847  0.5141  0.1990
13807SOL     OW42470   6.604   1.049   0.448  0.0226 -0.1551  0.3082
13807SOL    HW142471   6.599   1.035   0.542 -1.6918 -1.2757  0.1046
13807SOL    HW242472   6.523   1.010   0.414  1.0521 -0.6451 -1.7304
13808SOL     OW42473   0.358   1.701   5.189  0.5131  0.0658 -0.8129
13808SOL    HW142474   0.401   1.634   5.135  0.7369 -0.2381 -0.2760
13808SOL    HW242475   0.301   1.748   5.129  1.0216 -0.0314 -1.3853
13809SOL     OW42476   1.406   5.731   5.995 -0.0686 -0.4649 -0.0715
13809SOL    HW142477   1.383   5.678   5.919 -1.0005 -0.4526  0.1863
13809SOL    HW242478   1.406   5.821   5.962  1.6441 -0.5964 -0.5391
13810SOL     OW42479   1.744   8.159   1.054  0.4941  0.1947 -0.2923
13810SOL    HW142480   1.800   8.237   1.049 -0.6010  1.0045 -0.2844
13810SOL    HW242481   1.713   8.158   1.145 -0.8909  0.7730 -0.7350
13811SOL     OW42482   5.690   6.554   7.279 -0.1447  0.1610  0.4168
13811SOL    HW142483   5.778   6.526   7.255 -0.4166  0.2900 -0.7830
13811SOL    HW242484   5.703   6.611   7.355  0.6438 -1.1026  1.2604
13812SOL     OW42485   2.532   0.637   0.248  0.3502  0.6831 -0.5412
13812SOL    HW142486   2.583   0.718   0.241  0.6534  0.4896 -0.5756
13812SOL    HW242487   2.596   0.567   0.234  0.4045  0.3761  1.0511
13813SOL     OW42488   7.959   5.883   3.926  0.1720 -0.2787  0.4157
13813SOL    HW142489   8.020   5.941   3.971 -0.5971  0.0215  1.0828
13813SOL    HW242490   8.015   5.817   3.885  0.9665  0.1923  0.7228
13814SOL     OW42491   2.272   0.598   8.100 -0.3055 -0.0549  0.2928
13814SOL    HW142492   2.220   0.646   8.035  0.9047  0.0570 -0.6248
13814SOL    HW242493   2.220   0.521   8.120 -1.0148  0.2518 -0.3137
13815SOL     OW42494   0.103   2.054   4.783  0.1504  0.6667 -0.0757
13815SOL    HW142495   0.083   2.128   4.839  0.4872  0.6782  0.0303
13815SOL    HW242496   0.193   2.031   4.804  0.1572  0.4365 -0.3445
13816SOL     OW42497   0.805   4.876   3.510  0.5696  0.2646  0.3301
13816SOL    HW142498   0.732   4.936   3.496  0.9361  0.3884 -1.3046
13816SOL    HW242499   0.877   4.932   3.537  0.5432  0.3899  0.1468
13817SOL     OW42500   1.093   4.508   2.360  0.4236 -0.4258 -0.9786
13817SOL    HW142501   1.092   4.544   2.271  0.2106  0.8210 -0.4864
13817SOL    HW242502   1.185   4.512   2.386  0.4154 -0.3477 -0.9630
13818SOL     OW42503   6.135   1.046   7.260  0.7318  0.1023  0.0776
13818SOL    HW142504   6.187   0.967   7.273 -0.3423 -0.4862  0.9967
13818SOL    HW242505   6.138   1.060   7.165  1.5950 -0.5703 -0.0154
13819SOL     OW42506   5.675   2.674   4.713 -0.3291 -0.1992  0.3810
13819SOL    HW142507   5.721   2.600   4.751 -0.0600  0.1475  0.7430
13819SOL    HW242508   5.672   2.655   4.620  0.5436 -0.2347  0.3494
13820SOL     OW42509   4.160   4.318   3.374  0.0863  0.7144  0.1250
13820SOL    HW142510   4.138   4.410   3.358  0.4417  0.4944 -2.0884
13820SOL    HW242511   4.254   4.313   3.355 -0.1184 -0.2622 -0.7260
13821SOL     OW42512   7.613   6.545   4.575  0.3170 -0.2216 -0.4936
13821SOL    HW142513   7.568   6.528   4.658  2.5406  0.2224  0.9138
13821SOL    HW242514   7.649   6.634   4.585  1.8902 -0.7290 -1.2870
13822SOL     OW42515   7.027   7.642   8.221  0.1740 -0.0176 -0.2975
13822SOL    HW142516   7.115   7.681   8.225 -0.1497  1.0701 -2.4691
13822SOL    HW242517   7.044   7.548   8.210  1.0235 -0.0023  0.6726
13823SOL     OW42518   7.097   8.216   6.982 -0.2957 -0.3456 -0.0150
13823SOL    HW142519   7.172   8.226   6.923 -0.1328  0.8797  0.3648
13823SOL    HW242520   7.025   8.192   6.925  0.1503 -0.4833 -0.5322
13824SOL     OW42521   7.805   7.698   3.391  0.4484  0.1039 -0.1359
13824SOL    HW142522   7.818   7.616   3.344 -0.0135  0.0272 -0.1375
13824SOL    HW242523   7.754   7.753   3.331 -1.3030 -0.4715  0.7321
13825SOL     OW42524   1.010   6.905   1.594 -0.2291  0.5150 -0.1797
13825SOL    HW142525   0.997   6.828   1.649 -2.1065  0.9350  0.0215
13825SOL    HW242526   1.096   6.891   1.554 -0.8220 -2.0334 -0.7301
13826SOL     OW42527   5.644   4.548   2.094  0.1455  0.0295 -0.0071
13826SOL    HW142528   5.648   4.471   2.038  0.4932 -0.7127  1.0161
13826SOL    HW242529   5.556   4.582   2.082  0.8438  1.1472 -2.6262
13827SOL     OW42530   3.235   4.174   0.566 -0.9191  0.0798  0.4352
13827SOL    HW142531   3.201   4.263   0.577 -1.3683  0.0463 -0.5812
13827SOL    HW242532   3.172   4.119   0.613 -0.7203  0.2775  0.9425
13828SOL     OW42533   0.697   1.037   7.936 -0.3534 -0.3467 -0.0341
13828SOL    HW142534   0.755   0.963   7.953 -0.4477 -0.6491 -0.9314
13828SOL    HW242535   0.754   1.113   7.937  0.0851 -0.6431 -0.9251
13829SOL     OW42536   2.226   3.251   0.720 -0.5252  0.6428 -0.5624
13829SOL    HW142537   2.247   3.157   0.719 -0.4768  0.5846  1.4023
13829SOL    HW242538   2.310   3.294   0.738 -0.9634  0.8271  1.3020
13830SOL     OW42539   6.310   5.117   6.862 -0.1637 -0.1282 -0.0701
13830SOL    HW142540   6.238   5.053   6.870  1.1264 -1.5531  0.5874
13830SOL    HW242541   6.272   5.187   6.809 -1.6631 -1.4199 -0.8350
13831SOL     OW42542   6.195   0.075   1.781 -0.0414 -0.3540  0.1485
13831SOL    HW142543   6.099   0.074   1.789  0.0737  0.0328  2.1343
13831SOL    HW242544   6.218  -0.017   1.766 -0.6416 -0.7010  1.2335
13832SOL     OW42545   6.501   3.105   0.237 -0.0466 -0.0965 -0.1080
13832SOL    HW142546   6.499   3.196   0.267 -0.3296  1.1146 -3.3086
13832SOL    HW242547   6.594   3.087   0.221 -0.0349 -0.1773  0.0563
13833SOL     OW42548   2.438   5.819   1.813 -0.2678 -0.1599 -0.1209
13833SOL    HW142549   2.490   5.740   1.827 -0.5514 -0.3642 -0.2136
13833SOL    HW242550   2.365   5.811   1.873  0.7647  1.0230  1.3836
13834SOL     OW42551   2.159   7.690   4.043  0.2830 -0.3628 -0.0444
13834SOL    HW142552   2.147   7.630   4.116 -0.2083  0.5985  0.7050
13834SOL    HW242553   2.070   7.719   4.021  0.5354  0.4123 -0.0936
13835SOL     OW42554   7.674   4.807   2.146  0.2340 -0.0850  0.1441
13835SOL    HW142555   7.610   4.870   2.179 -0.0762 -0.4537  0.2464
13835SOL    HW242556   7.622   4.742   2.098  0.3739 -1.1232  1.3440
13836SOL     OW42557   1.346   3.293   2.208  0.0338 -0.5173 -0.3071
13836SOL    HW142558   1.300   3.245   2.140  1.1973  0.0329 -1.5260
13836SOL    HW242559   1.326   3.385   2.191  0.8734 -0.3264 -0.3449
13837SOL     OW42560   0.730   3.709   2.873  0.4051  0.2920 -0.3278
13837SOL    HW142561   0.760   3.799   2.859  0.9117  0.1384 -0.2325
13837SOL    HW242562   0.684   3.686   2.792 -0.8044  1.0658  0.1217
13838SOL     OW42563   0.520   3.261   7.584  0.1691  0.3066  0.1727
13838SOL    HW142564   0.478   3.347   7.586 -0.5458 -0.0034 -0.8529
13838SOL    HW242565   0.480   3.216   7.510 -0.3265 -1.3464  1.3762
13839SOL     OW42566   5.810   8.167   3.751 -0.9279  0.8371  0.1953
13839SOL    HW142567   5.742   8.233   3.766 -4.2152 -1.9319 -1.3382
13839SOL    HW242568   5.811   8.115   3.832 -1.3255  0.2990 -0.1443
13840SOL     OW42569   4.494   4.169   0.579 -0.0852 -0.1328  0.5784
13840SOL    HW142570   4.434   4.235   0.545  0.5364  0.4564  0.6168
13840SOL    HW242571   4.463   4.087   0.541 -1.1573  0.1027  0.9250
13841SOL     OW42572   1.649   2.725   7.448  0.3976  0.8877 -0.2476
13841SOL    HW142573   1.557   2.750   7.446  0.4745  1.3177  0.7943
13841SOL    HW242574   1.652   2.647   7.503  0.5708  0.4690 -0.8475
13842SOL     OW42575   5.712   5.403   0.836 -0.6966  0.5898 -0.1601
13842SOL    HW142576   5.751   5.388   0.749 -0.4838  1.0353 -0.1448
13842SOL    HW242577   5.618   5.409   0.819 -0.8806 -1.4633 -0.0690
13843SOL     OW42578   6.005   7.924   7.339 -0.8130  0.1460  0.5225
13843SOL    HW142579   5.974   7.864   7.271 -1.5695  1.4244 -0.2842
13843SOL    HW242580   5.925   7.957   7.380 -0.3853  0.1715  1.3669
13844SOL     OW42581   5.494   2.860   2.323  0.3681  0.1940  0.4752
13844SOL    HW142582   5.521   2.769   2.336  4.0410  1.3563  2.2336
13844SOL    HW242583   5.529   2.883   2.237 -0.0785  0.1538  0.2761
13845SOL     OW42584   2.982   5.318   0.423 -0.4176  0.7234 -0.4218
13845SOL    HW142585   3.076   5.325   0.444 -0.3304 -0.4641 -0.3260
13845SOL    HW242586   2.975   5.355   0.335  0.0318  1.4118 -0.1764
13846SOL     OW42587   0.691   0.045   2.049  0.2547  0.6496  0.3837
13846SOL    HW142588   0.689  -0.031   1.991  0.8523 -0.0135  1.2201
13846SOL    HW242589   0.601   0.052   2.082 -0.2053  1.2863 -0.8987
13847SOL     OW42590   5.378   4.642   2.131  0.2436 -0.1383 -0.1799
13847SOL    HW142591   5.372   4.643   2.226  1.8158 -0.7957 -0.0482
13847SOL    HW242592   5.374   4.734   2.105  0.4364  0.0809  0.5651
13848SOL     OW42593   0.587   3.392   8.190  0.4010 -0.1647 -0.0965
13848SOL    HW142594   0.559   3.361   8.104  0.5723 -1.4172  0.2784
13848SOL    HW242595   0.634   3.318   8.228 -0.2450  0.1191  1.3398
13849SOL     OW42596   7.534   4.593   1.997 -0.2655  0.4151  0.1110
13849SOL    HW142597   7.598   4.576   1.928 -0.5760 -0.5121  0.0509
13849SOL    HW242598   7.449   4.583   1.955 -0.4578 -0.3184  0.6560
13850SOL     OW42599   6.572   3.135   0.689  0.8045  0.3546  0.1793
13850SOL    HW142600   6.477   3.150   0.697  0.4670 -1.2386 -0.4495
13850SOL    HW242601   6.588   3.057   0.742  1.0454 -1.6734 -2.6390
13851SOL     OW42602   0.475   6.323   4.390 -0.1800  0.0656  0.2068
13851SOL    HW142603   0.510   6.409   4.412 -2.7673  0.5879  2.9554
13851SOL    HW242604   0.427   6.296   4.468 -4.2202 -1.2875 -2.3868
13852SOL     OW42605   0.499   4.903   1.949  0.0767  0.0220  0.3004
13852SOL    HW142606   0.469   4.815   1.971 -0.1965 -0.1122 -0.5709
13852SOL    HW242607   0.575   4.917   2.005 -0.5732 -0.3075  1.2919
13853SOL     OW42608   4.040   7.587   1.316  0.8287 -0.1265  0.4370
13853SOL    HW142609   4.114   7.570   1.374  0.2090 -0.2331  1.2101
13853SOL    HW242610   4.068   7.662   1.263  0.8569  0.9115  1.8743
13854SOL     OW42611   5.491   0.976   6.002 -0.4128 -0.1414 -0.0415
13854SOL    HW142612   5.494   0.919   6.079  0.8250 -0.9620 -0.6739
13854SOL    HW242613   5.448   1.056   6.033 -0.4785 -0.6904  1.3391
13855SOL     OW42614   0.836   8.093   6.154 -0.1030 -0.0058  0.3199
13855SOL    HW142615   0.874   8.122   6.237 -1.8407 -0.8303  1.4786
13855SOL    HW242616   0.775   8.024   6.180 -1.3018  0.2975 -1.5775
13856SOL     OW42617   0.455   5.971   3.531 -0.6913 -0.0773 -0.0306
13856SOL    HW142618   0.508   5.915   3.588  0.5682  0.4264 -0.6595
13856SOL    HW242619   0.519   6.013   3.473 -1.8554 -0.0116 -1.3152
13857SOL     OW42620   3.909   3.330   7.894  0.4106  0.4838  0.3811
13857SOL    HW142621   3.831   3.306   7.844  1.3455  1.4720 -1.6853
13857SOL    HW242622   3.910   3.426   7.892  1.5125  0.4869  0.6286
13858SOL     OW42623   2.056   4.319   5.490 -0.4217 -0.2143  0.2431
13858SOL    HW142624   2.145   4.299   5.460 -0.2757  0.8709 -0.0999
13858SOL    HW242625   2.008   4.236   5.481  0.5506 -0.8172  0.4565
13859SOL     OW42626   7.587   8.247   2.869 -0.0577 -0.2271 -0.0457
13859SOL    HW142627   7.506   8.297   2.883 -0.4878 -1.0759  0.6525
13859SOL    HW242628   7.591   8.234   2.775 -0.6502 -0.0189 -0.1078
13860SOL     OW42629   1.235   7.644   0.182 -1.0407  0.7046 -0.0481
13860SOL    HW142630   1.308   7.688   0.226  0.5139  0.3698 -2.1256
13860SOL    HW242631   1.194   7.592   0.251  1.8221 -0.5191  0.9077
13861SOL     OW42632   5.893   3.708   6.052 -0.1826 -0.3521 -0.3551
13861SOL    HW142633   5.961   3.680   6.113 -0.7768  1.4315  1.2262
13861SOL    HW242634   5.876   3.799   6.075 -2.8826 -0.6292 -0.9051
13862SOL     OW42635   0.210   3.535   1.312 -0.4905  0.4723 -0.2711
13862SOL    HW142636   0.143   3.603   1.317  0.9323  1.8408  1.8857
13862SOL    HW242637   0.175   3.462   1.364 -0.9734  0.5343 -0.5064
13863SOL     OW42638   3.216   7.223   2.092 -0.0741  0.0091  0.0627
13863SOL    HW142639   3.254   7.185   2.014  1.6526  0.5119  0.6251
13863SOL    HW242640   3.235   7.160   2.162 -1.0933 -0.1617  0.2126
13864SOL     OW42641   3.429   3.989   7.307 -0.2493 -0.1468  0.4171
13864SOL    HW142642   3.427   3.907   7.258 -0.7263  0.1695 -0.1084
13864SOL    HW242643   3.386   4.053   7.250 -0.6058  0.2866  1.1444
13865SOL     OW42644   5.097   5.121   0.073 -0.5404 -0.4169  0.1202
13865SOL    HW142645   5.169   5.122   0.009  0.4381  2.0960  1.1164
13865SOL    HW242646   5.023   5.159   0.025 -0.2510  0.0036 -0.0064
13866SOL     OW42647   3.563   4.073   3.554 -0.2245  0.6966  0.2958
13866SOL    HW142648   3.566   4.157   3.599  1.2182  0.1588  1.2619
13866SOL    HW242649   3.629   4.080   3.485 -1.3671  0.9644 -0.8270
13867SOL     OW42650   2.710   0.191   2.485 -0.0983 -0.2724  0.3608
13867SOL    HW142651   2.783   0.252   2.494 -0.8776  0.6902  0.3838
13867SOL    HW242652   2.662   0.223   2.409 -1.4943  0.2133  1.4092
13868SOL     OW42653   4.663   7.693   4.579 -0.2717 -0.2002  0.5793
13868SOL    HW142654   4.655   7.617   4.636 -0.2643 -1.0884 -0.5651
13868SOL    HW242655   4.674   7.656   4.491 -1.0590  1.1244 -0.1062
13869SOL     OW42656   7.240   4.067   4.083  0.0016 -0.0275  0.1983
13869SOL    HW142657   7.286   4.131   4.137  1.2850 -0.9788  0.2631
13869SOL    HW242658   7.295   4.056   4.006  0.3633 -1.8288  0.6644
13870SOL     OW42659   6.455   3.864   3.718  0.5630 -0.3793 -0.3512
13870SOL    HW142660   6.535   3.910   3.744  0.6092 -1.4320  1.5464
13870SOL    HW242661   6.470   3.773   3.742 -1.3139 -0.5495  0.4090
13871SOL     OW42662   4.747   4.294   1.795 -0.2448 -0.5574 -0.0942
13871SOL    HW142663   4.825   4.348   1.804 -1.6509  1.6720 -0.6802
13871SOL    HW242664   4.696   4.311   1.874 -0.5380 -1.3301 -0.1042
13872SOL     OW42665   2.250   7.824   1.565 -0.6248  0.0490 -0.0042
13872SOL    HW142666   2.161   7.857   1.548 -1.2134 -1.5958 -0.2522
13872SOL    HW242667   2.285   7.805   1.478 -0.1214  0.4366  0.1109
13873SOL     OW42668   4.473   1.797   0.097  0.3399  0.3443 -0.1648
13873SOL    HW142669   4.480   1.864   0.164  1.6295  0.9189 -0.8368
13873SOL    HW242670   4.383   1.765   0.104  0.7922 -0.6038  2.7374
13874SOL     OW42671   1.787   7.726   7.426 -0.3057 -0.0415 -0.5871
13874SOL    HW142672   1.783   7.706   7.333  0.0190 -0.3422 -0.5352
13874SOL    HW242673   1.801   7.642   7.469  0.1163  0.1707 -0.3077
13875SOL     OW42674   0.654   6.141   3.326 -0.1440 -0.1069 -0.1251
13875SOL    HW142675   0.573   6.178   3.290 -1.0493 -1.7436  0.1142
13875SOL    HW242676   0.654   6.171   3.417 -0.2770  0.2230 -0.2302
13876SOL     OW42677   1.710   3.643   0.031 -0.2444  0.1275  0.1154
13876SOL    HW142678   1.674   3.661   0.118 -2.6189  0.9371 -0.9341
13876SOL    HW242679   1.718   3.548   0.027 -0.2852  0.0733  1.1418
13877SOL     OW42680   0.819   4.549   1.109 -0.1744 -0.6276  0.1190
13877SOL    HW142681   0.862   4.507   1.182 -0.6247 -3.0860 -0.9246
13877SOL    HW242682   0.739   4.498   1.095  1.0927 -1.9407 -3.6073
13878SOL     OW42683   5.204   3.528   4.346  0.2039 -0.3530  0.1612
13878SOL    HW142684   5.167   3.492   4.427 -1.4644  1.0094  0.0781
13878SOL    HW242685   5.253   3.605   4.375 -0.0397 -0.1063 -0.0817
13879SOL     OW42686   6.834   8.201   6.825  0.4411  0.3452  0.1686
13879SOL    HW142687   6.745   8.220   6.853 -0.0039 -1.4519  0.0538
13879SOL    HW242688   6.826   8.175   6.733  1.1250  0.4190  0.0776
13880SOL     OW42689   1.110   5.978   2.628  0.3047 -0.4014  0.5458
13880SOL    HW142690   1.073   5.890   2.619 -0.6144  0.1879 -2.4033
13880SOL    HW242691   1.035   6.033   2.651  0.7780 -0.2620  1.8455
13881SOL     OW42692   0.079   3.713   6.607  0.7537  0.1907  0.2767
13881SOL    HW142693   0.170   3.686   6.592  0.7664  0.6904 -0.6828
13881SOL    HW242694   0.068   3.709   6.701  1.7064 -0.1065  0.3895
13882SOL     OW42695   1.833   3.137   3.639 -0.1727 -0.3890 -0.2828
13882SOL    HW142696   1.764   3.112   3.578 -0.3741  0.8584 -0.5868
13882SOL    HW242697   1.867   3.220   3.605  0.2675 -0.0874  0.8381
13883SOL     OW42698   3.772   4.614   7.911 -0.0773 -0.0772  0.0059
13883SOL    HW142699   3.848   4.659   7.875  0.0426 -0.1529  0.1605
13883SOL    HW242700   3.806   4.571   7.990  0.0338 -1.2187 -0.6453
13884SOL     OW42701   4.442   7.517   5.568  0.1258  0.4457 -0.0633
13884SOL    HW142702   4.393   7.537   5.488 -1.6712 -1.5306  0.4370
13884SOL    HW242703   4.446   7.600   5.615  1.2813  1.6589 -2.1676
13885SOL     OW42704   1.832   1.523   8.014 -0.4995  0.3405 -0.7462
13885SOL    HW142705   1.840   1.598   8.074 -1.1493 -0.5018  0.4222
13885SOL    HW242706   1.822   1.447   8.071 -2.2986 -0.3676 -1.9284
13886SOL     OW42707   2.440   0.348   7.294 -0.2338  0.2872  0.0239
13886SOL    HW142708   2.390   0.365   7.214 -0.4543  2.6436  0.5989
13886SOL    HW242709   2.532   0.350   7.265 -0.3426 -0.8225 -0.4658
13887SOL     OW42710   7.869   0.977   6.695 -0.5748 -0.1559  0.6157
13887SOL    HW142711   7.947   1.032   6.702 -0.1723 -0.4984 -0.9041
13887SOL    HW242712   7.797   1.035   6.718  0.0753  0.2785  1.6434
13888SOL     OW42713   5.351   4.738   0.267 -0.0984 -0.2016  0.3261
13888SOL    HW142714   5.361   4.650   0.229  2.6252  0.6537 -1.2472
13888SOL    HW242715   5.364   4.726   0.361 -0.8925 -1.5957  0.2832
13889SOL     OW42716   5.221   7.586   4.117 -0.0120 -0.1017  0.6413
13889SOL    HW142717   5.178   7.506   4.087  1.5567 -0.1940 -1.6732
13889SOL    HW242718   5.209   7.648   4.045  2.4865  0.2584  0.4311
13890SOL     OW42719   2.902   5.642   5.012 -0.3432  0.0424  0.2017
13890SOL    HW142720   2.958   5.591   5.070  0.8518 -0.0383 -0.9927
13890SOL    HW242721   2.858   5.578   4.957 -0.1814  0.2063 -0.1204
13891SOL     OW42722   2.994   6.034   6.616  0.0170  0.6651 -0.2209
13891SOL    HW142723   3.052   6.109   6.603 -1.5440  2.1063  0.7167
13891SOL    HW242724   2.918   6.070   6.662 -1.3123 -1.2802 -0.7594
13892SOL     OW42725   3.332   5.033   5.952  0.4041  0.1246  0.3252
13892SOL    HW142726   3.266   4.994   6.010 -0.1492  1.8455  0.8958
13892SOL    HW242727   3.281   5.068   5.878  0.5331  2.1199  1.1240
13893SOL     OW42728   7.146   4.473   3.747 -0.1725  0.1748 -0.1510
13893SOL    HW142729   7.077   4.497   3.809  1.7072  0.9604  1.7701
13893SOL    HW242730   7.201   4.411   3.795  1.7473  1.3465 -0.7509
13894SOL     OW42731   4.249   5.441   1.592 -0.0846  0.2972 -0.1437
13894SOL    HW142732   4.213   5.492   1.521 -1.8128 -0.0225  0.4544
13894SOL    HW242733   4.210   5.478   1.671 -1.4915 -1.9260  0.3026
13895SOL     OW42734   5.148   1.275   6.007 -0.5363  0.4432  0.5019
13895SOL    HW142735   5.169   1.234   5.923  0.3318  1.3091  0.2693
13895SOL    HW242736   5.076   1.224   6.042 -1.3325  0.4321 -1.0652
13896SOL     OW42737   6.348   5.612   6.357  0.2858  0.0755 -0.0827
13896SOL    HW142738   6.349   5.694   6.405  2.9257  0.6065 -0.9141
13896SOL    HW242739   6.325   5.636   6.267  1.9981  0.1200 -0.5491
13897SOL     OW42740   2.599   0.952   2.867  0.0302 -0.3939 -0.5516
13897SOL    HW142741   2.559   1.030   2.906  2.6955  0.4235  0.7673
13897SOL    HW242742   2.622   0.897   2.942 -0.8348 -1.9997 -1.4183
13898SOL     OW42743   4.444   2.115   1.338  0.0730 -0.0324 -0.2569
13898SOL    HW142744   4.457   2.106   1.432 -0.7350  0.3591 -0.0943
13898SOL    HW242745   4.507   2.181   1.311  1.0872 -0.9545 -0.2001
13899SOL     OW42746   0.699   5.934   0.488 -1.0290  0.2941  0.3099
13899SOL    HW142747   0.698   5.880   0.409 -3.0368  1.3420 -0.4334
13899SOL    HW242748   0.608   5.955   0.505 -0.4118  2.8254  1.0005
13900SOL     OW42749   5.368   4.079   7.374 -0.0401 -0.0086  0.0258
13900SOL    HW142750   5.392   4.166   7.406  0.0598 -0.5455  1.4647
13900SOL    HW242751   5.450   4.029   7.378 -0.1732 -0.2718 -0.4517
13901SOL     OW42752   0.013   2.189   0.547 -0.4795  0.6184  0.0292
13901SOL    HW142753   0.079   2.216   0.482 -0.0345 -0.9080 -0.1921
13901SOL    HW242754   0.037   2.099   0.569  0.1618  1.4625  3.2864
13902SOL     OW42755   4.748   6.317   0.356 -0.0246  0.8800 -0.4021
13902SOL    HW142756   4.843   6.312   0.366  0.1542  2.3151 -1.1641
13902SOL    HW242757   4.714   6.259   0.425  1.3673  1.2799  0.6714
13903SOL     OW42758   3.319   4.607   5.438 -0.2848  0.5706  0.0516
13903SOL    HW142759   3.362   4.668   5.378 -1.4998 -0.0912 -1.5550
13903SOL    HW242760   3.267   4.663   5.495 -2.1782  1.0926 -2.0334
13904SOL     OW42761   3.108   1.305   2.875 -0.4159 -0.3321 -0.2161
13904SOL    HW142762   3.123   1.294   2.969 -0.0117  1.0170 -0.0961
13904SOL    HW242763   3.111   1.216   2.839  0.0796 -0.8028  0.9559
13905SOL     OW42764   1.486   7.721   1.534 -0.5846  0.4039 -0.0825
13905SOL    HW142765   1.476   7.626   1.521 -1.7087  0.5377 -0.2463
13905SOL    HW242766   1.535   7.728   1.616 -1.0558 -0.3128  0.2732
13906SOL     OW42767   0.462   2.302   2.997  0.4826  0.1600 -0.2668
13906SOL    HW142768   0.432   2.389   3.024  0.8686  0.2424 -0.1037
13906SOL    HW242769   0.526   2.277   3.063  2.1932  0.7881 -1.6189
13907SOL     OW42770   7.397   4.676   0.010 -0.6288 -0.4369 -0.1547
13907SOL    HW142771   7.317   4.645  -0.031 -0.4197 -0.0703 -0.8452
13907SOL    HW242772   7.397   4.770  -0.005 -0.0521 -0.4415 -0.1960
13908SOL     OW42773   0.500   5.305   8.082  0.0725  0.9533 -0.2310
13908SOL    HW142774   0.493   5.398   8.101  4.6079  1.8521 -1.7022
13908SOL    HW242775   0.505   5.299   7.987  1.1899 -0.5806 -0.1251
13909SOL     OW42776   0.437   1.957   2.978  0.4080 -0.8866 -0.0058
13909SOL    HW142777   0.477   2.043   2.965  0.1571 -0.7481  0.1286
13909SOL    HW242778   0.502   1.906   3.026  0.3835 -0.6343  0.2942
13910SOL     OW42779   1.595   6.190   6.931 -0.3871  0.2407  0.3996
13910SOL    HW142780   1.528   6.132   6.897 -0.5767 -0.0188  1.2072
13910SOL    HW242781   1.572   6.203   7.023  0.5228  0.3487  0.6213
13911SOL     OW42782   3.184   6.477   3.717  0.2621  0.4184 -0.1940
13911SOL    HW142783   3.210   6.426   3.640  1.0692  0.4312  0.0646
13911SOL    HW242784   3.245   6.450   3.786 -0.5307  0.3070  0.4877
13912SOL     OW42785   8.206   4.240   0.274  0.1731 -0.1210 -0.1364
13912SOL    HW142786   8.202   4.253   0.179  5.0015  1.6427 -0.3992
13912SOL    HW242787   8.270   4.170   0.286  1.0124  0.8992  1.7712
13913SOL     OW42788   6.039   3.017   2.969  0.7478 -0.3291  0.1579
13913SOL    HW142789   5.960   3.037   3.021  2.1627 -1.1043  2.8045
13913SOL    HW242790   6.079   3.102   2.953 -0.6957  0.1020 -1.4554
13914SOL     OW42791   1.436   2.772   2.755 -0.2548  0.4654  0.0331
13914SOL    HW142792   1.506   2.810   2.809  1.5277 -0.8541 -1.2089
13914SOL    HW242793   1.414   2.840   2.692  0.9369  0.4532 -0.4311
13915SOL     OW42794   0.917   0.981   1.354  0.0411  0.0833 -0.2576
13915SOL    HW142795   0.849   0.950   1.294 -0.9384  2.2634 -0.3809
13915SOL    HW242796   0.982   1.023   1.297  0.5783 -0.4144 -0.0090
13916SOL     OW42797   1.210   3.330   1.379 -0.3717 -0.2180  0.0563
13916SOL    HW142798   1.264   3.309   1.303 -0.5023  0.1354 -0.1383
13916SOL    HW242799   1.150   3.398   1.348  0.2203  0.6342  0.7258
13917SOL     OW42800   4.087   0.987   7.197 -0.2135  1.0616  0.1730
13917SOL    HW142801   4.096   1.033   7.281  1.9957  0.8047  0.1313
13917SOL    HW242802   4.097   1.056   7.131 -0.0934  0.9899  0.1162
13918SOL     OW42803   6.375   1.372   4.744  0.2991  0.0926 -0.3689
13918SOL    HW142804   6.400   1.292   4.790 -1.1866 -0.5699 -0.6492
13918SOL    HW242805   6.364   1.437   4.814  1.1305 -0.0520 -0.0997
13919SOL     OW42806   0.104   2.182   5.480  0.2893 -0.1015  0.2701
13919SOL    HW142807   0.014   2.212   5.471  0.3378  0.1454  0.5783
13919SOL    HW242808   0.097   2.101   5.531  0.4134  1.1481  2.3833
13920SOL     OW42809   3.159   6.593   0.703  0.3591 -0.2515 -0.2300
13920SOL    HW142810   3.108   6.527   0.656  1.5241 -1.3649  0.0369
13920SOL    HW242811   3.105   6.616   0.778  0.3124 -1.5723  0.1673
13921SOL     OW42812   3.109   3.822   0.516  0.0411 -0.2177 -0.8098
13921SOL    HW142813   3.198   3.791   0.505  0.0789 -0.0627 -0.9392
13921SOL    HW242814   3.080   3.784   0.599 -0.4269 -1.7901 -1.6605
13922SOL     OW42815   3.757   8.101   0.302 -0.1580  0.2095  0.0920
13922SOL    HW142816   3.793   8.050   0.374 -3.9622 -1.6881  0.9040
13922SOL    HW242817   3.776   8.048   0.224  0.7830  0.4597  0.1296
13923SOL     OW42818   7.266   5.917   2.448 -0.0426  0.5262  0.9659
13923SOL    HW142819   7.318   5.995   2.467  1.3083  0.1124 -0.7486
13923SOL    HW242820   7.321   5.844   2.476 -1.3226  0.1376  2.6164
13924SOL     OW42821   7.711   7.923   2.645  0.3414 -0.0801 -0.4088
13924SOL    HW142822   7.667   8.005   2.667  1.5473  0.3432  0.5235
13924SOL    HW242823   7.640   7.860   2.636 -0.4775  0.5878  1.0037
13925SOL     OW42824   8.070   7.807   1.681  0.9564 -0.4193 -0.4225
13925SOL    HW142825   8.154   7.803   1.725  1.1735  0.7923 -0.6880
13925SOL    HW242826   8.086   7.859   1.602 -0.2686  0.8111  0.0924
13926SOL     OW42827   4.353   2.356   8.116 -0.0490  0.0415 -0.2635
13926SOL    HW142828   4.398   2.422   8.170 -0.0981 -0.7588  0.8032
13926SOL    HW242829   4.272   2.338   8.164  0.3681 -1.4243 -0.0326
13927SOL     OW42830   7.524   1.579   7.071  0.4343 -0.4866 -0.2026
13927SOL    HW142831   7.452   1.519   7.055  0.0539  0.1148 -0.8053
13927SOL    HW242832   7.488   1.665   7.050  0.9984 -0.0565  0.5406
13928SOL     OW42833   7.045   3.584   7.575  1.0472 -0.2142  0.2122
13928SOL    HW142834   7.037   3.674   7.546  2.6882 -0.0348  0.2214
13928SOL    HW242835   7.132   3.557   7.546  0.9134 -1.5230  0.9431
13929SOL     OW42836   3.962   5.225   8.192 -0.2209  0.3449  0.4228
13929SOL    HW142837   4.048   5.207   8.230 -0.3150 -1.4996 -0.1479
13929SOL    HW242838   3.972   5.207   8.098 -1.2470  0.0228  0.3578
13930SOL     OW42839   1.369   7.187   6.847 -0.2645 -0.3656 -0.5248
13930SOL    HW142840   1.456   7.174   6.886 -0.6528 -0.4185  0.3441
13930SOL    HW242841   1.378   7.267   6.795 -0.5585  1.6850  2.3000
13931SOL     OW42842   7.008   6.921   4.646 -0.1631  0.4628  0.2426
13931SOL    HW142843   7.065   6.888   4.577  0.3382 -0.7933  1.2128
13931SOL    HW242844   6.995   6.846   4.704 -2.2896  0.8855  0.4127
13932SOL     OW42845   2.123   0.399   7.226  0.1425 -0.3850  0.7382
13932SOL    HW142846   2.081   0.387   7.312 -1.7175 -1.1291 -0.2268
13932SOL    HW242847   2.080   0.476   7.189  0.4061 -0.5131  0.1653
13933SOL     OW42848   4.351   4.730   1.367 -0.2181  0.3652 -0.1976
13933SOL    HW142849   4.299   4.806   1.342  0.1178  0.8486  0.5492
13933SOL    HW242850   4.308   4.695   1.445  0.3097  0.5018  0.1592
13934SOL     OW42851   6.713   5.602   6.112 -0.2643 -0.3176 -0.3059
13934SOL    HW142852   6.759   5.524   6.082 -0.3311 -0.2541 -0.5721
13934SOL    HW242853   6.730   5.668   6.044  0.3553  0.1054  0.2396
13935SOL     OW42854   2.891   4.690   5.664  0.4166  0.1325 -0.1544
13935SOL    HW142855   2.894   4.731   5.750  0.6513  1.0261 -0.5733
13935SOL    HW242856   2.837   4.612   5.676  0.2838  0.3554  0.7533
13936SOL     OW42857   5.518   3.511   3.746 -0.3643 -0.2529  0.2167
13936SOL    HW142858   5.540   3.540   3.834  1.0347  1.2013 -0.5585
13936SOL    HW242859   5.558   3.576   3.688 -1.3257 -1.1049 -1.5011
13937SOL     OW42860   6.026   0.202   5.228 -0.4781  0.2802 -0.2265
13937SOL    HW142861   6.105   0.243   5.265 -1.3817  1.7755  0.1548
13937SOL    HW242862   6.046   0.192   5.135 -0.6196  2.8577 -0.6327
13938SOL     OW42863   1.585   7.298   4.390  0.6153  0.3517 -0.3228
13938SOL    HW142864   1.623   7.319   4.304 -0.4630  2.3799 -0.3826
13938SOL    HW242865   1.655   7.315   4.452  1.0794 -0.0696 -0.7227
13939SOL     OW42866   6.371   7.786   3.270 -0.7521 -0.4687  0.3062
13939SOL    HW142867   6.320   7.706   3.275 -1.6476  0.1278  1.1373
13939SOL    HW242868   6.437   7.769   3.203 -1.9718 -1.2998 -0.7231
13940SOL     OW42869   5.142   1.034   1.638  0.6187  0.4413 -0.9114
13940SOL    HW142870   5.049   1.014   1.628  0.2042  0.0358  2.5996
13940SOL    HW242871   5.185   0.949   1.636  0.5105  0.3400  0.5353
13941SOL     OW42872   2.574   5.743   6.706 -0.1198 -0.2518  0.2200
13941SOL    HW142873   2.564   5.816   6.645 -0.5151 -0.6687 -0.2283
13941SOL    HW242874   2.663   5.711   6.689  0.4152  0.7288  1.1140
13942SOL     OW42875   7.270   5.070   6.693  0.4493  0.1489 -0.4426
13942SOL    HW142876   7.217   5.140   6.655  1.6193  0.4791 -1.5239
13942SOL    HW242877   7.358   5.087   6.662  0.8045 -1.6764 -0.5447
13943SOL     OW42878   3.078   4.366   4.335 -0.0522 -0.7223  0.3312
13943SOL    HW142879   3.000   4.330   4.377 -0.0028 -1.5505 -0.2668
13943SOL    HW242880   3.142   4.295   4.340 -0.1739 -0.9877 -1.4726
13944SOL     OW42881   4.629   1.217   4.207 -0.2907 -0.1942 -0.3168
13944SOL    HW142882   4.621   1.255   4.294  1.8571 -0.2319 -0.0528
13944SOL    HW242883   4.656   1.127   4.222  1.0215  0.0636 -1.0068
13945SOL     OW42884   2.890   6.931   6.859 -0.9629  0.0154 -0.2203
13945SOL    HW142885   2.982   6.903   6.869 -0.5181  1.3459 -0.3999
13945SOL    HW242886   2.890   6.981   6.777 -2.1652 -1.1918 -0.9891
13946SOL     OW42887   2.086   3.473   2.001  0.3103  0.0747 -0.4345
13946SOL    HW142888   2.131   3.494   2.083 -0.1266  1.1761 -0.4597
13946SOL    HW242889   1.993   3.484   2.022  0.1255 -0.8584 -0.7470
13947SOL     OW42890   2.015   6.826   4.764 -0.1274 -0.3078 -0.3886
13947SOL    HW142891   1.990   6.736   4.744 -0.0917 -0.5083  0.4260
13947SOL    HW242892   2.030   6.826   4.858 -0.7454  0.7039 -0.2773
13948SOL     OW42893   1.220   5.757   6.179 -0.3694 -0.3059  0.4710
13948SOL    HW142894   1.215   5.675   6.227  0.1603 -1.2709 -1.0366
13948SOL    HW242895   1.290   5.743   6.115 -0.5635  1.1679 -0.0971
13949SOL     OW42896   2.331   2.259   4.627 -0.3051  0.0207 -0.1145
13949SOL    HW142897   2.335   2.272   4.722  3.1898 -0.6574 -0.0464
13949SOL    HW242898   2.322   2.347   4.591  2.4517  0.7903  0.8300
13950SOL     OW42899   7.414   6.198   2.452  0.1620 -0.1204 -0.0642
13950SOL    HW142900   7.407   6.218   2.358  1.2653 -0.7828 -0.2980
13950SOL    HW242901   7.378   6.276   2.495 -1.5100 -0.3045 -1.0308
13951SOL     OW42902   4.707   6.932   5.743 -0.4064 -0.2179  0.1266
13951SOL    HW142903   4.704   6.991   5.668 -1.2741  1.1914  1.1966
13951SOL    HW242904   4.799   6.929   5.768  0.0906 -1.6602 -1.6509
13952SOL     OW42905   1.354   2.021   4.786  0.0126  0.2722 -0.0964
13952SOL    HW142906   1.283   2.025   4.850 -0.8958  1.2488 -1.1130
13952SOL    HW242907   1.385   2.111   4.778 -1.1150  0.5269 -2.3072
13953SOL     OW42908   4.047   0.892   5.019 -0.5987 -0.6057  0.2030
13953SOL    HW142909   4.137   0.919   5.039 -0.6203  0.2487 -0.7808
13953SOL    HW242910   4.052   0.858   4.929 -1.1459 -1.1754  0.3775
13954SOL     OW42911   7.270   1.460   1.305 -0.2003 -0.2749 -0.1822
13954SOL    HW142912   7.261   1.435   1.397 -1.1890 -1.4943 -0.5835
13954SOL    HW242913   7.334   1.399   1.269 -0.2678 -0.1899 -0.4468
13955SOL     OW42914   3.290   2.619   6.274 -0.0235  0.4501 -0.8790
13955SOL    HW142915   3.292   2.524   6.292  0.3434  0.5237 -0.5282
13955SOL    HW242916   3.296   2.659   6.360 -1.8416  0.7915 -0.8797
13956SOL     OW42917   4.658   8.208   6.638 -0.7400  0.5963  0.2898
13956SOL    HW142918   4.571   8.248   6.652 -0.8480  0.2531  0.5964
13956SOL    HW242919   4.643   8.143   6.570 -0.7195  0.5448  0.3349
13957SOL     OW42920   1.110   6.257   5.331  0.1413 -0.2650 -0.2858
13957SOL    HW142921   1.101   6.309   5.251 -0.9030 -0.2802 -0.1957
13957SOL    HW242922   1.020   6.248   5.363  0.7012  1.3911  1.9574
13958SOL     OW42923   2.998   2.808   5.256 -0.2185  0.1682  0.5969
13958SOL    HW142924   2.944   2.779   5.330 -1.1351  0.1664 -0.0557
13958SOL    HW242925   2.946   2.878   5.215 -1.6855 -2.4819 -2.4360
13959SOL     OW42926   2.822   4.833   2.658 -0.4496  0.1523 -0.1321
13959SOL    HW142927   2.751   4.849   2.721 -1.4690  2.5388 -1.7416
13959SOL    HW242928   2.890   4.896   2.682 -0.9346  1.2339 -1.4765
13960SOL     OW42929   3.404   4.292   2.819  0.2016  0.2404 -0.4376
13960SOL    HW142930   3.311   4.273   2.817  0.2043  0.2115 -0.2827
13960SOL    HW242931   3.443   4.228   2.760  0.3682 -1.1051  1.0644
13961SOL     OW42932   0.286   4.655   6.703 -0.2294 -0.5412  0.1098
13961SOL    HW142933   0.368   4.617   6.670 -0.4667 -2.1912  1.2960
13961SOL    HW242934   0.238   4.679   6.624  0.4936 -1.5469 -0.6707
13962SOL     OW42935   2.204   2.164   8.259  0.6372 -0.1968  0.1410
13962SOL    HW142936   2.200   2.091   8.196 -2.4301  0.3847 -0.5058
13962SOL    HW242937   2.207   2.242   8.204  0.2050  0.2603  0.7614
13963SOL     OW42938   2.048   4.001   4.463  0.4056 -0.1664 -0.4720
13963SOL    HW142939   1.996   3.966   4.391  1.3632 -1.8847 -0.3844
13963SOL    HW242940   2.006   4.084   4.485 -0.6477 -0.2084 -2.1680
13964SOL     OW42941   1.006   7.163   2.422  0.2762  0.1714  0.0187
13964SOL    HW142942   1.066   7.103   2.467 -0.1491 -0.5323 -0.3415
13964SOL    HW242943   1.014   7.141   2.330  2.0901  2.4503 -0.4799
13965SOL     OW42944   5.374   7.413   7.251 -0.1195  0.1557 -0.2056
13965SOL    HW142945   5.391   7.337   7.307  1.0805 -1.0290 -2.0925
13965SOL    HW242946   5.338   7.377   7.170 -0.0413  1.6414 -0.9525
13966SOL     OW42947   3.027   7.063   7.797 -0.0131  0.0714 -0.8687
13966SOL    HW142948   2.983   6.979   7.785 -1.3207  0.7469 -1.0791
13966SOL    HW242949   3.110   7.042   7.838 -1.6764 -1.0708  2.2061
13967SOL     OW42950   7.888   6.053   2.770 -0.1987 -0.0591 -0.6538
13967SOL    HW142951   7.892   6.141   2.809  0.8458 -0.0727 -0.6867
13967SOL    HW242952   7.881   6.068   2.676  1.9468  0.0391 -0.8414
13968SOL     OW42953   7.000   7.511   1.435 -0.1701  0.6002  0.2607
13968SOL    HW142954   6.928   7.571   1.414  0.6217  0.7932 -2.1432
13968SOL    HW242955   7.066   7.566   1.477 -0.3089  0.9815 -0.0222
13969SOL     OW42956   2.416   6.332   1.072 -0.3168  0.1738 -0.1749
13969SOL    HW142957   2.389   6.347   0.981 -0.6447 -1.1699 -0.3293
13969SOL    HW242958   2.334   6.325   1.120 -0.1576  2.9193  0.6465
13970SOL     OW42959   1.391   3.093   3.753  0.1682 -0.2832 -0.0400
13970SOL    HW142960   1.453   3.022   3.738  2.0354  1.3921 -0.7785
13970SOL    HW242961   1.433   3.148   3.819 -0.0367  1.3725 -1.2159
13971SOL     OW42962   6.188   7.001   2.357 -0.1918 -0.0083 -0.3981
13971SOL    HW142963   6.188   7.096   2.349 -1.8822  0.0851  0.2194
13971SOL    HW242964   6.096   6.976   2.342  0.1600 -1.4998 -0.2025
13972SOL     OW42965   1.637   6.394   2.112 -0.2774  0.2991 -0.1333
13972SOL    HW142966   1.563   6.357   2.161  0.8160  0.1977  1.4961
13972SOL    HW242967   1.696   6.320   2.099  0.4747  0.8077  0.3677
13973SOL     OW42968   2.510   1.472   1.273  0.1144 -0.0381  0.5407
13973SOL    HW142969   2.461   1.545   1.310  2.5404  3.1639 -1.9204
13973SOL    HW242970   2.591   1.470   1.325  0.6644  0.0187 -0.2999
13974SOL     OW42971   0.004   7.620   3.254  0.6493 -0.5145  0.8240
13974SOL    HW142972  -0.059   7.595   3.321 -1.4878  3.1409  0.4563
13974SOL    HW242973  -0.049   7.638   3.176  2.6839 -1.3686 -0.8478
13975SOL     OW42974   1.092   1.862   3.444 -0.9751 -0.3438 -0.0520
13975SOL    HW142975   1.073   1.945   3.488  0.6876 -0.6650  1.3526
13975SOL    HW242976   1.045   1.797   3.495  0.3904 -0.6334  0.8761
13976SOL     OW42977   1.680   2.363   1.733  0.3415  0.2253  0.0189
13976SOL    HW142978   1.648   2.299   1.797  1.4408  1.4118  1.8543
13976SOL    HW242979   1.603   2.415   1.712 -0.2481 -0.7880 -0.3957
13977SOL     OW42980   3.534   4.915   5.832 -0.0495 -0.2762  0.1574
13977SOL    HW142981   3.453   4.937   5.878  0.5756 -0.3201  1.3265
13977SOL    HW242982   3.602   4.964   5.879  0.9716 -2.3515  0.9518
13978SOL     OW42983   0.370   7.807   3.505 -0.2688 -0.7845  0.1492
13978SOL    HW142984   0.465   7.819   3.510 -0.1722 -1.0185 -0.8608
13978SOL    HW242985   0.353   7.727   3.554  0.1234 -1.0436 -0.1353
13979SOL     OW42986   3.762   3.852   4.279 -0.2505  0.2265  0.3087
13979SOL    HW142987   3.685   3.856   4.222 -0.0334 -1.9287 -0.2216
13979SOL    HW242988   3.737   3.789   4.347  1.1972 -0.8999 -0.1636
13980SOL     OW42989   1.674   2.449   4.763  0.0984  0.2147 -0.1820
13980SOL    HW142990   1.638   2.503   4.693 -0.6872 -0.2254 -0.1378
13980SOL    HW242991   1.728   2.509   4.815  1.5749  0.2978 -1.7658
13981SOL     OW42992   1.541   7.820   6.656 -0.1735  0.2340  0.0923
13981SOL    HW142993   1.623   7.843   6.612 -0.1553 -0.6077 -0.3360
13981SOL    HW242994   1.566   7.802   6.746  0.0624  0.3201  0.0459
13982SOL     OW42995   6.858   2.659   5.670  0.3515 -0.1526 -0.2353
13982SOL    HW142996   6.824   2.715   5.600 -0.8279 -0.4368  0.0955
13982SOL    HW242997   6.875   2.720   5.742  0.2950 -0.0442 -0.3130
13983SOL     OW42998   7.484   3.639   0.607  0.5643 -0.3902  0.1061
13983SOL    HW142999   7.424   3.617   0.536  0.3656  0.3885  0.0146
13983SOL    HW243000   7.571   3.635   0.567  0.3464  2.7032 -1.0220
13984SOL     OW43001   2.598   2.264   7.529  0.0269  0.2212 -0.2792
13984SOL    HW143002   2.566   2.344   7.570  1.0074  0.7807 -0.5585
13984SOL    HW243003   2.584   2.278   7.435 -2.2845 -1.0839 -0.2102
13985SOL     OW43004   5.439   0.430   4.660  0.1622  0.0821  0.0443
13985SOL    HW143005   5.448   0.509   4.713  2.1643  0.6924 -1.1211
13985SOL    HW243006   5.416   0.462   4.573  1.1288 -0.5879 -0.4753
13986SOL     OW43007   7.340   0.855   4.465 -0.9509 -0.4369  0.8313
13986SOL    HW143008   7.291   0.773   4.474  0.0134 -1.1837 -0.4751
13986SOL    HW243009   7.358   0.882   4.555  0.1933 -2.5677  1.2930
13987SOL     OW43010   5.064   5.135   7.655  0.5450  0.2544 -0.0322
13987SOL    HW143011   5.081   5.116   7.563  2.3726 -2.3443  0.7322
13987SOL    HW243012   4.983   5.088   7.675  0.3445  0.5190 -0.2228
13988SOL     OW43013   6.026   4.754   7.838  0.3683  0.0438 -0.4475
13988SOL    HW143014   5.990   4.688   7.778  0.2796 -0.2665 -0.0588
13988SOL    HW243015   5.950   4.804   7.866  0.4501  0.3883 -0.8291
13989SOL     OW43016   2.303   2.934   5.412  0.0631 -0.0154 -0.2099
13989SOL    HW143017   2.256   2.855   5.385 -0.2720 -0.0772  0.5222
13989SOL    HW243018   2.247   2.973   5.480  0.6601  0.3620  0.0719
13990SOL     OW43019   1.698   5.834   0.311  0.0395 -0.0622 -0.2360
13990SOL    HW143020   1.670   5.900   0.248 -0.2506 -0.0450 -0.0874
13990SOL    HW243021   1.671   5.751   0.273 -1.4657  0.0331  0.5424
13991SOL     OW43022   6.034   1.737   5.689 -0.4303 -0.6389 -0.1236
13991SOL    HW143023   6.088   1.797   5.740  0.9932 -2.6077  0.8155
13991SOL    HW243024   5.945   1.753   5.720 -0.0962  0.8809  0.1508
13992SOL     OW43025   4.055   5.693   4.921  0.4919 -0.4912  0.5262
13992SOL    HW143026   4.143   5.679   4.884  0.0582 -1.5619 -0.1691
13992SOL    HW243027   4.025   5.605   4.944 -0.5676 -0.1895  0.3478
13993SOL     OW43028   7.008   8.006   7.613 -0.0329  0.1706 -0.7358
13993SOL    HW143029   6.959   8.052   7.681 -1.4110 -0.6632 -1.1383
13993SOL    HW243030   6.995   8.059   7.534  0.0240  0.1512 -0.7584
13994SOL     OW43031   4.609   3.744   8.084 -0.4318 -0.1531 -0.2046
13994SOL    HW143032   4.555   3.808   8.130 -2.5411  0.3709 -3.1017
13994SOL    HW243033   4.577   3.659   8.113 -0.6849  0.1333  0.3658
13995SOL     OW43034   1.217   5.070   3.100  0.0597  0.2304 -0.1360
13995SOL    HW143035   1.265   5.145   3.135  0.8767 -0.8492  1.1434
13995SOL    HW243036   1.263   5.049   3.018 -0.1487  1.0867 -0.4755
13996SOL     OW43037   6.680   4.551   3.881  0.4082  0.2767  0.0943
13996SOL    HW143038   6.715   4.631   3.919  0.4619 -0.5105  1.7734
13996SOL    HW243039   6.726   4.542   3.798  0.7202  1.7361  0.0796
13997SOL     OW43040   8.003   3.462   3.719  0.3634  0.3918  0.1307
13997SOL    HW143041   7.911   3.437   3.728  1.0672 -2.0596  1.4158
13997SOL    HW243042   8.008   3.502   3.632 -1.9379  0.8645  0.1451
13998SOL     OW43043   3.537   3.431   4.698 -0.4393  0.0934  0.0071
13998SOL    HW143044   3.534   3.406   4.791 -0.3459  0.8051  0.2099
13998SOL    HW243045   3.591   3.510   4.696 -1.3801  0.7498 -0.4917
13999SOL     OW43046   7.999   4.342   0.792  0.1753  0.0520  0.2448
13999SOL    HW143047   8.052   4.377   0.863  0.8279  1.2595 -0.7904
13999SOL    HW243048   8.050   4.360   0.713 -0.8572 -0.5909 -0.5956
14000SOL     OW43049   6.581   2.667   0.214  0.2310 -0.3182 -0.0518
14000SOL    HW143050   6.554   2.587   0.258 -0.9448  0.4801  0.7595
14000SOL    HW243051   6.606   2.727   0.284 -0.7774  0.6609 -0.4779
14001SOL     OW43052   4.421   6.434   4.743 -0.2524 -0.2661  0.1613
14001SOL    HW143053   4.446   6.526   4.743 -4.1340  0.9403  0.6924
14001SOL    HW243054   4.499   6.388   4.776  1.0018  3.0499  2.2545
14002SOL     OW43055   6.986   0.129   4.422  0.3332  0.0948  0.0413
14002SOL    HW143056   7.004   0.204   4.479  2.0633  0.3511 -0.7688
14002SOL    HW243057   6.996   0.163   4.333  0.8450 -0.9996 -0.3395
14003SOL     OW43058   2.369   5.099   3.485  0.1311  0.2026 -0.4448
14003SOL    HW143059   2.315   5.062   3.415 -0.0837 -0.6317  0.1568
14003SOL    HW243060   2.424   5.026   3.514  0.1538  0.5220  0.3259
14004SOL     OW43061   0.449   0.565   1.259 -0.0475 -1.0025  0.1988
14004SOL    HW143062   0.450   0.659   1.276  0.4565 -0.9185 -0.2795
14004SOL    HW243063   0.376   0.552   1.199 -2.1874 -1.3713  2.6898
14005SOL     OW43064   7.804   5.212   5.124  0.0492 -0.7128  0.5313
14005SOL    HW143065   7.807   5.116   5.123  1.4949 -0.7033  1.3708
14005SOL    HW243066   7.765   5.234   5.209  0.4833 -0.5486  0.6876
14006SOL     OW43067   6.929   5.586   5.705 -0.4555  0.0636  0.1782
14006SOL    HW143068   6.931   5.514   5.642  0.3215  1.4756 -1.5139
14006SOL    HW243069   7.020   5.612   5.714 -0.8199  1.5947 -0.2241
14007SOL     OW43070   3.633   0.125   7.734  0.3585 -0.0942  0.3713
14007SOL    HW143071   3.681   0.205   7.713  0.0230 -0.0102 -0.0694
14007SOL    HW243072   3.568   0.116   7.664  0.2729 -0.6512  0.5177
14008SOL     OW43073   4.454   3.982   4.751  0.2431 -0.0641  0.9278
14008SOL    HW143074   4.434   3.987   4.658 -3.2949 -0.3244  1.5232
14008SOL    HW243075   4.478   3.891   4.767  0.4808 -0.1035  0.3372
14009SOL     OW43076   4.874   8.051   7.460 -0.3110 -0.1344 -0.4552
14009SOL    HW143077   4.937   8.029   7.528  0.2566 -1.7208 -1.4491
14009SOL    HW243078   4.899   8.140   7.433  0.3460 -0.0435  0.4079
14010SOL     OW43079   3.087   4.940   1.787 -0.0703 -0.4508  0.6248
14010SOL    HW143080   3.052   4.856   1.818 -2.2639 -0.1410 -0.7791
14010SOL    HW243081   3.107   4.924   1.694 -0.6583  0.5826  0.3033
14011SOL     OW43082   3.519   3.887   6.480  0.2662  0.0573  0.0804
14011SOL    HW143083   3.591   3.930   6.433 -1.2346  0.6647 -1.7513
14011SOL    HW243084   3.554   3.875   6.569  3.5157 -1.8434 -1.2666
14012SOL     OW43085   7.013   3.621   7.243 -0.4485  0.0067  0.1524
14012SOL    HW143086   7.088   3.628   7.185  1.0609 -1.1710  1.8317
14012SOL    HW243087   7.021   3.697   7.302 -0.3274 -0.3217  0.5691
14013SOL     OW43088   5.767   1.965   2.816 -0.1889  0.2832  0.0612
14013SOL    HW143089   5.812   1.958   2.732 -0.8805 -1.2243 -0.2161
14013SOL    HW243090   5.826   1.923   2.879 -0.2975  0.1343  0.0653
14014SOL     OW43091   2.069   7.068   0.359  0.5558  0.3192 -0.4836
14014SOL    HW143092   2.065   7.096   0.267 -0.9804  0.2082 -0.4719
14014SOL    HW243093   1.978   7.050   0.383  0.8677  0.7840  1.2061
14015SOL     OW43094   6.551   6.256   8.217 -0.3217 -0.1304  0.1618
14015SOL    HW143095   6.587   6.213   8.295  0.0328 -1.7413 -0.8447
14015SOL    HW243096   6.509   6.335   8.251  1.2512  0.0811  1.7879
14016SOL     OW43097   1.714   5.216   0.006  0.1834  0.1652 -0.1760
14016SOL    HW143098   1.650   5.286  -0.004 -2.5140 -2.0457  0.3886
14016SOL    HW243099   1.750   5.203  -0.082  0.9901  2.3508 -0.2413
14017SOL     OW43100   7.119   6.742   4.124  0.4100  0.7182  0.4743
14017SOL    HW143101   7.116   6.649   4.102 -0.1518  0.7488  0.4125
14017SOL    HW243102   7.115   6.745   4.220 -0.1658  0.7001  0.4514
14018SOL     OW43103   5.977   1.122   1.615 -0.4856  0.2879  0.4081
14018SOL    HW143104   6.004   1.050   1.672  0.4587  0.9163  0.7809
14018SOL    HW243105   5.950   1.191   1.675 -0.7674  0.4764  0.0666
14019SOL     OW43106   8.010   0.663   0.342  0.3255 -0.0984 -0.1684
14019SOL    HW143107   8.088   0.688   0.392  0.2629 -0.1293 -0.0547
14019SOL    HW243108   8.043   0.648   0.253  0.3262  0.5814 -0.2852
14020SOL     OW43109   3.292   7.181   0.077 -0.1306  0.4332  0.1615
14020SOL    HW143110   3.344   7.259   0.058  0.7288 -0.0459  0.5033
14020SOL    HW243111   3.308   7.123   0.002 -0.6028  0.5025  0.0068
14021SOL     OW43112   1.386   3.306   6.287  0.6133  0.3613 -0.7317
14021SOL    HW143113   1.329   3.383   6.292  0.7784  0.4916 -0.8588
14021SOL    HW243114   1.338   3.238   6.334  1.7991  1.3330  2.0830
14022SOL     OW43115   6.756   4.515   1.585  0.0654 -0.8086  0.1762
14022SOL    HW143116   6.804   4.463   1.521  3.4032  1.2256  0.7839
14022SOL    HW243117   6.789   4.486   1.670 -0.2597  0.2298  0.6773
14023SOL     OW43118   7.415   6.873   7.842 -0.1046 -0.0046 -0.7001
14023SOL    HW143119   7.352   6.903   7.907 -0.1947  2.9452 -1.9860
14023SOL    HW243120   7.495   6.921   7.863  0.4982 -0.6353 -1.4955
14024SOL     OW43121   4.970   6.795   3.668 -0.2601  0.0994  0.6663
14024SOL    HW143122   4.876   6.780   3.661  0.2282 -2.3581 -2.2458
14024SOL    HW243123   4.987   6.872   3.614 -0.3974 -0.7858 -0.6930
14025SOL     OW43124   2.282   5.936   5.514  0.4225 -0.0021  0.3559
14025SOL    HW143125   2.292   5.848   5.478 -1.1742 -0.3345  0.6600
14025SOL    HW243126   2.197   5.966   5.481  1.2959  1.7911 -0.4523
14026SOL     OW43127   5.959   6.967   2.210 -0.6186 -0.2534  0.7829
14026SOL    HW143128   6.002   6.920   2.138  0.2522 -2.1062  2.4009
14026SOL    HW243129   5.888   6.909   2.238 -1.5561  0.8820  0.8303
14027SOL     OW43130   0.014   6.529   3.929 -0.2708  0.5397  0.1741
14027SOL    HW143131   0.015   6.502   3.837  1.0327 -0.4409  0.4521
14027SOL    HW243132   0.001   6.448   3.978  0.6269  0.8226  0.9146
14028SOL     OW43133   8.147   7.259   1.579  0.2522 -0.2156 -0.2858
14028SOL    HW143134   8.115   7.258   1.489 -0.8603 -1.7119  0.0770
14028SOL    HW243135   8.191   7.343   1.588  1.1158 -0.3813 -2.4579
14029SOL     OW43136   2.223   4.766   0.909 -0.2571  0.2116  0.0216
14029SOL    HW143137   2.166   4.786   0.984 -0.5080 -0.1223 -0.0779
14029SOL    HW243138   2.164   4.763   0.834 -0.4822 -2.1813  0.2062
14030SOL     OW43139   5.519   4.942   7.912 -0.0599 -0.6373  0.0414
14030SOL    HW143140   5.531   5.006   7.842  0.8344  0.9522  1.5623
14030SOL    HW243141   5.428   4.913   7.903  0.2697 -1.1402 -2.2589
14031SOL     OW43142   0.814   5.818   4.558  0.3323  0.4210  0.5523
14031SOL    HW143143   0.743   5.881   4.546 -1.4334 -1.6013 -0.1340
14031SOL    HW243144   0.775   5.747   4.609  1.3874 -1.4458 -1.1160
14032SOL     OW43145   1.589   8.212   2.862  0.2465 -0.1338 -0.8692
14032SOL    HW143146   1.614   8.294   2.904 -0.0117 -0.9166  0.9185
14032SOL    HW243147   1.658   8.150   2.886 -0.3802 -0.8328 -0.8325
14033SOL     OW43148   6.431   7.589   4.909  0.4818 -0.1197  0.7229
14033SOL    HW143149   6.427   7.672   4.862 -1.1201 -0.2449  0.6060
14033SOL    HW243150   6.432   7.614   5.002 -0.6091  0.0325  0.7030
14034SOL     OW43151   6.702   3.518   2.228  0.2530  0.1667 -0.7675
14034SOL    HW143152   6.622   3.541   2.181  1.2118  2.5084 -1.4038
14034SOL    HW243153   6.688   3.550   2.317 -0.7705 -2.4739  0.1152
14035SOL     OW43154   3.239   7.958   0.326  0.1963 -0.0638 -0.4305
14035SOL    HW143155   3.148   7.940   0.304 -0.5298  0.7166  1.6565
14035SOL    HW243156   3.252   7.919   0.413  1.3836  1.1111 -0.0279
14036SOL     OW43157   7.155   4.074   5.344  0.2086  0.0089 -0.1609
14036SOL    HW143158   7.073   4.115   5.371  0.2250  2.4144 -3.1729
14036SOL    HW243159   7.223   4.129   5.384  0.2636  0.6407 -1.0909
14037SOL     OW43160   5.401   5.194   1.043  0.1854 -0.3292 -0.5791
14037SOL    HW143161   5.369   5.284   1.050 -1.8994 -0.8938 -1.9588
14037SOL    HW243162   5.452   5.180   1.123 -0.0023  1.8543 -0.0238
14038SOL     OW43163   3.234   1.703   6.900 -0.1215  0.0428 -0.0405
14038SOL    HW143164   3.298   1.723   6.832  0.8620  0.9974  1.1141
14038SOL    HW243165   3.240   1.777   6.961 -0.0270 -1.3794  1.7636
14039SOL     OW43166   6.422   8.169   7.541  0.0080 -0.0464  0.2036
14039SOL    HW143167   6.350   8.106   7.531  0.0852  0.0817 -1.4147
14039SOL    HW243168   6.483   8.126   7.601 -0.5515 -0.9598  0.1382
14040SOL     OW43169   7.015   8.265   1.285 -0.4219 -0.1218 -0.2339
14040SOL    HW143170   6.942   8.204   1.285 -0.1141 -0.5005 -0.5370
14040SOL    HW243171   7.063   8.245   1.205 -1.8256  2.3859 -1.8063
14041SOL     OW43172   1.389   4.837   2.440 -0.0179 -0.0293  0.7409
14041SOL    HW143173   1.470   4.838   2.491  0.6735  1.9728 -0.2661
14041SOL    HW243174   1.387   4.751   2.399  1.3095 -0.3304  1.2663
14042SOL     OW43175   5.989   3.314   4.480 -0.1330 -0.2396 -0.7029
14042SOL    HW143176   6.083   3.300   4.483 -0.3973 -2.2387 -0.3765
14042SOL    HW243177   5.979   3.408   4.464  1.8790  0.2462  0.6141
14043SOL     OW43178   0.573   4.388   1.562 -0.5219 -0.0400  0.5616
14043SOL    HW143179   0.543   4.348   1.644  0.1709  0.7993  1.2412
14043SOL    HW243180   0.524   4.341   1.493 -1.6160 -0.2930  1.4846
14044SOL     OW43181   4.506   1.061   2.509 -0.3688  0.3209  0.6229
14044SOL    HW143182   4.438   1.062   2.576  0.9123  2.3472  2.0002
14044SOL    HW243183   4.485   1.135   2.452  0.1361  0.3470  0.4638
14045SOL     OW43184   8.181   3.996   6.817 -0.0687  0.1785 -0.0348
14045SOL    HW143185   8.180   4.083   6.855  1.1346 -0.3868  1.4326
14045SOL    HW243186   8.272   3.983   6.789 -0.4002 -0.3268 -0.9317
14046SOL     OW43187   2.615   5.415   7.987 -0.0642  0.5523  0.4104
14046SOL    HW143188   2.599   5.403   8.080  0.3066  1.3382  0.5915
14046SOL    HW243189   2.630   5.327   7.953  0.4126  0.3118  1.2144
14047SOL     OW43190   6.750   3.865   3.001  0.4074 -0.8397 -0.1553
14047SOL    HW143191   6.660   3.859   2.969  0.1899 -2.1508  0.6453
14047SOL    HW243192   6.741   3.902   3.089  0.6126 -1.2864  0.0565
14048SOL     OW43193   0.796   1.948   5.616 -0.2675  0.2084 -0.2370
14048SOL    HW143194   0.732   1.975   5.550  0.9223  1.1916 -1.0447
14048SOL    HW243195   0.772   1.996   5.695 -0.8383  0.1575 -0.3793
14049SOL     OW43196   3.869   6.232   1.018  0.3248 -0.1649 -0.0093
14049SOL    HW143197   3.871   6.328   1.018  0.5200 -0.1654 -1.0990
14049SOL    HW243198   3.877   6.208   0.926  2.7341 -1.2620  0.4197
14050SOL     OW43199   3.838   0.319   2.334  0.7992  0.3001 -0.1297
14050SOL    HW143200   3.916   0.373   2.345  2.5337 -2.2231  1.1473
14050SOL    HW243201   3.795   0.321   2.419  2.1564 -1.9669  0.7180
14051SOL     OW43202   0.595   0.588   2.188  0.0320 -0.3951  0.3138
14051SOL    HW143203   0.676   0.537   2.177 -0.9616 -2.1575  0.8802
14051SOL    HW243204   0.555   0.553   2.267 -2.5029 -1.3195 -1.2514
14052SOL     OW43205   0.657   6.580   1.993 -0.3212 -0.2661  0.0106
14052SOL    HW143206   0.736   6.525   1.993  0.5808  0.9412 -1.6135
14052SOL    HW243207   0.629   6.583   1.901 -1.9314 -0.1730  0.4710
14053SOL     OW43208   0.930   8.276   0.465  0.3282 -0.1598 -0.0124
14053SOL    HW143209   0.938   8.203   0.527  1.3827 -0.1390 -0.1000
14053SOL    HW243210   0.948   8.237   0.380  2.2687  0.4139  0.0819
14054SOL     OW43211   2.339   5.948   0.300  0.1083  0.0295 -0.1563
14054SOL    HW143212   2.313   5.931   0.209 -2.4831  0.7736  0.3372
14054SOL    HW243213   2.364   6.040   0.301 -0.0583  0.0751 -0.0939
14055SOL     OW43214   1.055   2.925   3.606  0.3327 -0.0599  0.3762
14055SOL    HW143215   1.032   2.870   3.681  1.6806  2.0902  2.5071
14055SOL    HW243216   1.142   2.896   3.581 -0.0393 -0.6468 -0.2752
14056SOL     OW43217   3.161   0.309   2.098 -0.4823  0.8020 -0.1598
14056SOL    HW143218   3.208   0.310   2.015  0.1564  3.5473  0.1441
14056SOL    HW243219   3.069   0.308   2.074 -0.2985  0.2793 -0.8584
14057SOL     OW43220   6.263   6.360   5.828 -0.0556 -0.5306  0.2865
14057SOL    HW143221   6.320   6.420   5.780 -0.6972 -0.2812 -0.1854
14057SOL    HW243222   6.319   6.286   5.851  0.2765 -0.6411 -0.8211
14058SOL     OW43223   6.163   5.312   8.058  0.7700 -0.1014 -0.8343
14058SOL    HW143224   6.211   5.356   7.988  2.9100 -1.5883 -0.4067
14058SOL    HW243225   6.074   5.304   8.024  0.6193  3.1337 -1.5095
14059SOL     OW43226   6.267   6.856   2.588 -0.2269 -0.3775 -0.1377
14059SOL    HW143227   6.266   6.900   2.503  1.3034  0.5850  0.2907
14059SOL    HW243228   6.281   6.764   2.566  3.0218  0.1584 -0.9587
14060SOL     OW43229   6.126   6.882   7.672  0.0508 -0.3969  0.4569
14060SOL    HW143230   6.052   6.854   7.619 -0.1872  1.5582 -0.3170
14060SOL    HW243231   6.088   6.904   7.757 -0.5204  1.7246 -0.2894
14061SOL     OW43232   1.403   7.638   6.470 -0.1547  0.1029 -0.1194
14061SOL    HW143233   1.380   7.561   6.522  1.7417  0.2660  1.0488
14061SOL    HW243234   1.437   7.701   6.533  2.4517  0.2234 -1.4765
14062SOL     OW43235   7.321   8.256   8.116  0.5113 -0.3263 -0.4455
14062SOL    HW143236   7.349   8.167   8.137 -0.1874 -0.0794  1.8060
14062SOL    HW243237   7.318   8.300   8.201 -3.0390  0.6908 -0.9591
14063SOL     OW43238   7.196   7.681   1.499 -0.2709  0.0330  0.5110
14063SOL    HW143239   7.239   7.766   1.504  0.1901 -0.2500  1.3984
14063SOL    HW243240   7.266   7.619   1.478 -0.6761 -0.0857 -0.5907
14064SOL     OW43241   3.165   1.792   1.550 -0.2062 -0.1944 -0.2169
14064SOL    HW143242   3.072   1.783   1.570 -0.6632  1.5793 -1.3206
14064SOL    HW243243   3.170   1.868   1.492  1.6059 -1.8390 -2.4223
14065SOL     OW43244   1.674   0.428   5.500 -0.4183  0.2170 -0.5453
14065SOL    HW143245   1.736   0.389   5.439  0.5179 -1.5152  1.3888
14065SOL    HW243246   1.698   0.521   5.502  1.6600 -0.2593 -0.4585
14066SOL     OW43247   2.579   2.926   5.771  0.6615  0.2815  0.2347
14066SOL    HW143248   2.665   2.929   5.730  0.7790  2.2289  0.5002
14066SOL    HW243249   2.571   3.010   5.816 -1.3047  0.0790  0.3715
14067SOL     OW43250   4.689   1.401   2.592 -0.6025  0.1688 -0.6438
14067SOL    HW143251   4.730   1.481   2.560 -0.1087 -0.8142 -2.6070
14067SOL    HW243252   4.754   1.333   2.578 -1.1373 -0.6624  0.6988
14068SOL     OW43253   4.469   5.288   2.040 -0.1864 -0.0707 -0.0984
14068SOL    HW143254   4.409   5.358   2.066 -0.5517 -1.0224  1.8071
14068SOL    HW243255   4.532   5.331   1.982 -0.8536  1.6467  0.3863
14069SOL     OW43256   5.919   8.232   7.222  0.3584  0.1700 -0.2112
14069SOL    HW143257   5.859   8.190   7.285  1.1969  0.1062  0.5720
14069SOL    HW243258   5.948   8.161   7.166 -0.2199  0.1834 -0.5330
14070SOL     OW43259   1.476   6.870   2.680 -0.4528  0.6614  0.6329
14070SOL    HW143260   1.483   6.807   2.608  0.5665 -0.3507  1.5686
14070SOL    HW243261   1.519   6.949   2.646  0.1117  0.1630  0.1596
14071SOL     OW43262   2.800   5.577   3.720  0.4893 -0.7982  0.2486
14071SOL    HW143263   2.717   5.621   3.701 -0.0691 -1.8549  0.1956
14071SOL    HW243264   2.842   5.568   3.634 -0.4003 -2.3309 -0.0538
14072SOL     OW43265   3.935   3.350   3.968  0.1585 -0.2776 -0.2002
14072SOL    HW143266   3.848   3.314   3.951 -0.0895  0.6669 -0.9746
14072SOL    HW243267   3.919   3.433   4.013  0.7115 -0.8214  1.0596
14073SOL     OW43268   1.614   6.466   0.777  0.3876  0.3999  0.0574
14073SOL    HW143269   1.624   6.404   0.705 -0.4194  0.4151 -0.0673
14073SOL    HW243270   1.546   6.526   0.748  0.9648  1.1779  0.3007
14074SOL     OW43271   1.150   2.741   5.434 -0.4533 -0.1672 -0.2656
14074SOL    HW143272   1.223   2.722   5.374 -0.8970 -1.4735 -0.4285
14074SOL    HW243273   1.087   2.670   5.418 -1.3456  0.4184  0.5405
14075SOL     OW43274   2.756   6.726   7.355  0.0679 -0.6598 -0.3481
14075SOL    HW143275   2.760   6.724   7.259 -0.9787 -0.4718 -0.4106
14075SOL    HW243276   2.797   6.809   7.379 -0.2631 -0.3895 -0.6883
14076SOL     OW43277   0.583   5.924   6.393 -0.6999  0.0026 -0.1646
14076SOL    HW143278   0.528   5.852   6.361 -1.8278 -0.2202  2.0980
14076SOL    HW243279   0.588   5.985   6.319 -2.5456 -0.8004 -1.0192
14077SOL     OW43280   6.081   1.668   8.154  0.3532 -0.1575  0.0508
14077SOL    HW143281   6.096   1.679   8.060  2.1344  1.9392  0.4984
14077SOL    HW243282   6.000   1.717   8.171  0.1184 -0.3984 -0.3384
14078SOL     OW43283   6.271   4.583   8.258 -0.4436  0.4155  0.3984
14078SOL    HW143284   6.239   4.498   8.286 -1.5434  0.8808  0.5711
14078SOL    HW243285   6.208   4.612   8.192  0.2678  0.8285 -0.1220
14079SOL     OW43286   6.052   0.254   4.960  0.3740 -0.8920 -0.1400
14079SOL    HW143287   6.009   0.207   4.889  1.1425 -1.3539 -0.3196
14079SOL    HW243288   6.141   0.218   4.961  0.5185 -0.5275  0.7237
14080SOL     OW43289   0.417   2.269   4.410 -0.3589 -0.0336  0.0586
14080SOL    HW143290   0.454   2.275   4.322 -0.0324 -0.3969  0.1732
14080SOL    HW243291   0.335   2.320   4.404  1.4284  3.1664  0.5142
14081SOL     OW43292   4.311   2.471   7.257  0.6271  0.0568 -0.4938
14081SOL    HW143293   4.395   2.511   7.239  0.7347  0.3816  0.6172
14081SOL    HW243294   4.307   2.465   7.353 -0.3682 -0.4687 -0.5452
14082SOL     OW43295   5.097   1.922   5.462 -0.1154 -0.7820 -0.2058
14082SOL    HW143296   5.129   1.952   5.547  0.5279 -0.9875 -0.3671
14082SOL    HW243297   5.146   1.974   5.398 -2.9753  1.8690 -0.5002
14083SOL     OW43298   8.251   5.035   2.125 -0.2329  0.2563 -0.1780
14083SOL    HW143299   8.239   5.088   2.204  1.6609 -2.7643  2.3458
14083SOL    HW243300   8.208   4.952   2.145 -0.3500 -0.3843 -2.7076
14084SOL     OW43301   2.165   7.931   2.146  0.2082  0.0539  0.0916
14084SOL    HW143302   2.256   7.919   2.118  0.4753  0.5800  0.7032
14084SOL    HW243303   2.122   7.972   2.070  0.4541 -0.2915 -0.2368
14085SOL     OW43304   7.540   7.090   0.769  0.0831 -0.0512 -0.8335
14085SOL    HW143305   7.633   7.102   0.753 -0.2335  1.7715 -1.4488
14085SOL    HW243306   7.519   7.152   0.839 -0.8468  0.1728 -1.2993
14086SOL     OW43307   1.940   8.266   0.056  0.5708 -0.3852 -0.2652
14086SOL    HW143308   1.914   8.174   0.053  1.0799 -0.5213 -0.4882
14086SOL    HW243309   1.860   8.311   0.085  0.2939 -0.8818 -0.2276
14087SOL     OW43310   8.199   0.599   2.186 -0.8014  0.1467 -0.2499
14087SOL    HW143311   8.129   0.552   2.231  0.4358 -1.8041 -0.2543
14087SOL    HW243312   8.187   0.575   2.094  0.0814 -0.5201 -0.2007
14088SOL     OW43313   7.106   3.173   0.261  0.3540 -0.4893  0.7047
14088SOL    HW143314   7.103   3.231   0.337 -0.9531 -0.5630  0.7312
14088SOL    HW243315   7.199   3.164   0.241  0.6188  1.3720  0.9001
14089SOL     OW43316   3.976   4.246   2.327 -0.2532 -0.0896  0.6525
14089SOL    HW143317   4.048   4.188   2.301 -1.7240 -2.0961  0.7378
14089SOL    HW243318   4.018   4.328   2.352  1.9576 -1.0895  0.4349
14090SOL     OW43319   6.050   2.620   6.223 -0.1868  0.0994  0.3281
14090SOL    HW143320   5.988   2.618   6.296 -0.2578 -1.3184  0.2605
14090SOL    HW243321   6.011   2.565   6.156  0.9442 -0.4959  0.1301
14091SOL     OW43322   7.613   1.195   0.954 -0.0516 -0.1408 -0.2813
14091SOL    HW143323   7.604   1.198   0.859  1.5869 -1.1845 -0.4954
14091SOL    HW243324   7.631   1.104   0.974 -0.7333  0.0066  1.0775
14092SOL     OW43325   3.520   6.196   2.801  0.0635 -0.0005 -0.2301
14092SOL    HW143326   3.446   6.169   2.856 -0.1922 -0.3896 -0.7557
14092SOL    HW243327   3.569   6.116   2.785  1.7990  0.5831  1.8214
14093SOL     OW43328   7.513   3.677   6.639 -0.1603  0.0911  0.3342
14093SOL    HW143329   7.542   3.697   6.550  1.5219 -1.0128  0.5817
14093SOL    HW243330   7.578   3.721   6.695  0.3438 -1.3567  0.9392
14094SOL     OW43331   4.882   7.880   7.958  0.4419  0.5425 -0.0951
14094SOL    HW143332   4.907   7.960   7.912  0.5255  0.3219 -0.4345
14094SOL    HW243333   4.941   7.812   7.923  0.1767  0.2730 -0.0224
14095SOL     OW43334   1.994   7.628   3.328 -0.4281 -0.1464  0.1454
14095SOL    HW143335   2.064   7.618   3.263 -0.5036 -0.6301  0.1363
14095SOL    HW243336   1.919   7.660   3.278 -0.4284 -0.3310  0.0282
14096SOL     OW43337   3.472   4.015   1.770 -0.1078 -0.2556 -0.0339
14096SOL    HW143338   3.541   3.961   1.731  1.1200  0.9524  0.3952
14096SOL    HW243339   3.489   4.012   1.864  1.0991  2.2405 -0.0893
14097SOL     OW43340   4.142   5.037   4.494  0.5624 -0.1827 -0.6780
14097SOL    HW143341   4.118   5.106   4.432 -1.5817  0.8804  1.1804
14097SOL    HW243342   4.210   5.076   4.549  1.7293 -0.7745 -1.6435
14098SOL     OW43343   4.257   2.462   4.842 -0.1471  0.3278  0.4231
14098SOL    HW143344   4.276   2.459   4.936  2.3782 -0.9556 -0.0461
14098SOL    HW243345   4.248   2.370   4.817 -1.5971  0.6849 -0.5009
14099SOL     OW43346   5.429   0.294   1.409 -0.2984  0.3844  0.1573
14099SOL    HW143347   5.410   0.303   1.315  0.3292 -2.5653 -0.3367
14099SOL    HW243348   5.359   0.238   1.442  1.0925 -1.0369  0.7846
14100SOL     OW43349   2.279   2.311   4.913 -0.0427  0.2309 -0.4622
14100SOL    HW143350   2.234   2.261   4.980 -0.8392  1.1342 -0.3125
14100SOL    HW243351   2.323   2.381   4.960 -0.3813  0.7095 -0.8455
14101SOL     OW43352   5.300   1.767   5.131  0.5502 -0.5648  0.7911
14101SOL    HW143353   5.331   1.680   5.106  3.0402  0.4550 -0.0655
14101SOL    HW243354   5.306   1.769   5.227  0.6885 -1.2780  0.7974
14102SOL     OW43355   0.799   5.174   7.122  0.4251 -0.4007  0.2416
14102SOL    HW143356   0.773   5.265   7.140 -0.3198 -0.7773  1.1117
14102SOL    HW243357   0.802   5.133   7.208 -0.1275 -1.4378 -0.2231
14103SOL     OW43358   1.974   0.464   0.329 -0.4752  0.3129 -0.4266
14103SOL    HW143359   1.975   0.368   0.335  0.4135  0.3623  0.4697
14103SOL    HW243360   1.916   0.491   0.400 -0.7124  0.4460 -0.6701
14104SOL     OW43361   8.006   8.159   0.782  0.0333 -0.4543 -0.2621
14104SOL    HW143362   7.966   8.131   0.699  1.3727  0.5452 -1.2786
14104SOL    HW243363   8.064   8.231   0.758  3.4651 -2.6195  0.9013
14105SOL     OW43364   5.303   4.907   5.711 -0.5020  0.3994 -0.1191
14105SOL    HW143365   5.212   4.933   5.726 -0.3735  1.7189 -1.3654
14105SOL    HW243366   5.318   4.927   5.619  1.1652  0.5666  0.1602
14106SOL     OW43367   7.099   1.862   7.031  0.1481 -0.2188  0.1223
14106SOL    HW143368   7.033   1.920   6.994  0.0420 -0.8582 -0.7148
14106SOL    HW243369   7.063   1.774   7.021  1.4128 -0.6365 -1.0130
14107SOL     OW43370   5.246   5.936   7.260  0.9252 -0.1630 -0.2293
14107SOL    HW143371   5.261   5.980   7.343 -1.2388 -1.1586  0.7700
14107SOL    HW243372   5.261   5.843   7.279 -0.0465 -0.4522 -0.8036
14108SOL     OW43373   4.930   1.685   7.261  0.1307 -0.8113 -0.2409
14108SOL    HW143374   4.954   1.630   7.187 -0.3459  1.8712 -2.5444
14108SOL    HW243375   5.014   1.714   7.298  0.3911 -0.3856 -1.1579
14109SOL     OW43376   4.110   0.269   2.760  0.1157 -0.0267  0.5109
14109SOL    HW143377   4.076   0.350   2.798  0.5606  0.0985  0.6382
14109SOL    HW243378   4.158   0.227   2.831 -0.3263 -0.5288  0.5205
14110SOL     OW43379   5.193   7.770   0.299  0.6564 -0.2729  0.2068
14110SOL    HW143380   5.146   7.686   0.294  0.3245 -0.1734  1.3764
14110SOL    HW243381   5.183   7.808   0.212 -1.4840 -0.2442  0.4144
14111SOL     OW43382   7.412   5.700   0.083 -0.0333  0.6132 -0.2196
14111SOL    HW143383   7.503   5.730   0.088  0.7630 -1.6825  0.5026
14111SOL    HW243384   7.385   5.690   0.175  0.1672 -1.7890 -0.3478
14112SOL     OW43385   0.347   7.350   1.311  0.0289  0.7268  0.7081
14112SOL    HW143386   0.358   7.294   1.388 -0.7630 -1.7587 -0.8874
14112SOL    HW243387   0.426   7.336   1.259 -1.4457 -1.3499 -1.1237
14113SOL     OW43388   6.384   0.987   6.081  0.4384  0.0459 -0.2704
14113SOL    HW143389   6.313   1.029   6.129  0.4967 -0.5937  0.3882
14113SOL    HW243390   6.445   1.058   6.062 -1.0133  0.9199 -2.1214
14114SOL     OW43391   8.184   6.714   0.881 -0.3307 -0.2780 -0.3841
14114SOL    HW143392   8.280   6.708   0.877 -0.2628  0.9495 -1.0384
14114SOL    HW243393   8.154   6.624   0.871  0.7339 -0.5468 -1.4201
14115SOL     OW43394   1.778   4.822   1.354 -0.3067 -0.3703 -0.0324
14115SOL    HW143395   1.832   4.746   1.330 -0.3909  0.1420 -2.0769
14115SOL    HW243396   1.691   4.800   1.322 -0.5625  0.1774  0.2734
14116SOL     OW43397   5.815   1.420   7.018  0.4888  0.7046  0.4110
14116SOL    HW143398   5.759   1.350   6.984 -0.8314  1.7052  0.4840
14116SOL    HW243399   5.758   1.496   7.026  0.9974  0.9026  3.6753
14117SOL     OW43400   4.299   3.710   5.980  0.2820  0.2209 -0.4253
14117SOL    HW143401   4.317   3.794   6.021 -0.8568 -0.2556  1.1572
14117SOL    HW243402   4.363   3.649   6.019  1.2069  0.3473 -1.6793
14118SOL     OW43403   6.870   5.128   0.483  0.0299 -0.4688 -0.6895
14118SOL    HW143404   6.914   5.145   0.567 -0.0707 -0.0482 -0.7172
14118SOL    HW243405   6.778   5.148   0.500 -0.4110 -2.6516 -0.2579
14119SOL     OW43406   1.149   3.363   3.211 -0.5377 -0.0432  0.6904
14119SOL    HW143407   1.102   3.443   3.184  0.0628 -0.0480 -0.4563
14119SOL    HW243408   1.109   3.338   3.294 -1.1584  1.1080  0.7568
14120SOL     OW43409   3.341   3.644   0.554 -0.4480 -0.3951  0.3083
14120SOL    HW143410   3.437   3.646   0.557 -0.4311 -0.6274  0.0209
14120SOL    HW243411   3.321   3.579   0.487 -0.8011  0.8490 -0.8276
14121SOL     OW43412   2.890   3.703   4.210 -0.3429  0.4982  0.2895
14121SOL    HW143413   2.853   3.676   4.294 -1.5307  1.3954  0.0794
14121SOL    HW243414   2.974   3.742   4.233 -0.6217  0.6754  1.0503
14122SOL     OW43415   6.227   2.461   2.489 -0.1305  0.5709  0.1608
14122SOL    HW143416   6.193   2.510   2.564 -1.0630  1.7943 -1.0311
14122SOL    HW243417   6.322   2.463   2.502 -0.2845  0.3149  1.5628
14123SOL     OW43418   2.919   1.632   0.013 -0.0083  0.3800 -0.0794
14123SOL    HW143419   2.917   1.711  -0.040 -0.8645  0.1118 -0.4760
14123SOL    HW243420   2.953   1.659   0.097 -1.7979  1.5226  0.3293
14124SOL     OW43421   2.112   8.107   4.622  0.2371  0.4495  0.0712
14124SOL    HW143422   2.085   8.155   4.701  1.1401  1.1006  0.0009
14124SOL    HW243423   2.056   8.029   4.621 -0.1494  0.6985  1.0659
14125SOL     OW43424   3.346   6.382   4.469  0.0459 -0.1058 -0.9108
14125SOL    HW143425   3.300   6.393   4.386  1.0139 -0.7633 -1.5477
14125SOL    HW243426   3.418   6.323   4.449  1.8397  1.7271 -0.1973
14126SOL     OW43427   0.815   7.024   3.685 -0.5509  0.1085 -0.0432
14126SOL    HW143428   0.844   6.936   3.709 -0.4037  0.7924  2.6045
14126SOL    HW243429   0.843   7.079   3.758  1.0440  2.7619 -2.4326
14127SOL     OW43430   2.756   5.730   1.419  0.2856  0.1517  0.0624
14127SOL    HW143431   2.741   5.644   1.380  0.4627 -0.5686  1.5233
14127SOL    HW243432   2.676   5.749   1.467  0.5557  0.4483  0.4017
14128SOL     OW43433   4.047   6.411   6.598  0.5732  0.1231 -0.7586
14128SOL    HW143434   3.990   6.470   6.548 -0.6938 -2.1276 -2.1668
14128SOL    HW243435   4.134   6.424   6.560  0.9176  2.9493  0.7995
14129SOL     OW43436   6.514   4.017   3.994 -0.0300 -0.3743 -0.5222
14129SOL    HW143437   6.465   4.096   3.972 -1.9630 -1.5171 -0.5132
14129SOL    HW243438   6.457   3.968   4.052  1.9825 -0.8578  1.1606
14130SOL     OW43439   2.734   2.353   6.569 -0.1660 -0.2974 -0.2066
14130SOL    HW143440   2.753   2.362   6.476 -1.1825  1.1360 -0.3018
14130SOL    HW243441   2.819   2.330   6.609  1.6899  4.4731 -0.7620
14131SOL     OW43442   4.730   4.746   0.608 -0.0326  0.0588  0.2073
14131SOL    HW143443   4.770   4.833   0.601 -0.4879  0.1902 -0.9975
14131SOL    HW243444   4.674   4.752   0.685 -0.3789  0.9805 -0.0989
14132SOL     OW43445   6.537   4.153   0.571  0.1845 -0.4410  0.2146
14132SOL    HW143446   6.548   4.199   0.487  0.6996 -0.3895  0.3042
14132SOL    HW243447   6.490   4.074   0.548 -0.9285  0.2355  0.0927
14133SOL     OW43448   3.047   6.208   7.896 -0.3413 -0.1463  0.2234
14133SOL    HW143449   3.111   6.140   7.917  1.4265  1.0565 -0.9634
14133SOL    HW243450   3.040   6.206   7.800 -1.7409  0.0914  0.2886
14134SOL     OW43451   3.835   3.306   7.505  0.2867 -0.1983  0.0764
14134SOL    HW143452   3.808   3.278   7.418 -1.3128 -1.1819  0.8381
14134SOL    HW243453   3.771   3.373   7.530  1.6687  1.2335 -0.1005
14135SOL     OW43454   1.170   4.004   3.969  0.1176 -0.2001 -0.1277
14135SOL    HW143455   1.131   4.069   3.911 -1.3816 -1.7464 -0.9484
14135SOL    HW243456   1.102   3.989   4.036 -0.1191 -1.7637 -0.6575
14136SOL     OW43457   3.054   5.622   3.031 -0.1216 -0.1789  0.7972
14136SOL    HW143458   2.992   5.549   3.031  0.6188 -0.8403 -0.5519
14136SOL    HW243459   3.066   5.644   3.123 -0.8419 -1.3536  1.1824
14137SOL     OW43460   2.844   1.054   2.249  0.6470  0.0400 -0.0751
14137SOL    HW143461   2.749   1.054   2.264  1.0807  1.3918  3.8748
14137SOL    HW243462   2.857   1.117   2.178 -1.3570  0.3855 -0.1999
14138SOL     OW43463   3.765   5.909   7.981 -0.1928  0.5288  0.5789
14138SOL    HW143464   3.839   5.870   7.934 -0.4228 -0.4448  0.9874
14138SOL    HW243465   3.689   5.861   7.949 -0.4751  0.5707  1.1736
14139SOL     OW43466   3.854   2.829   3.361  0.2860 -0.0520 -0.3813
14139SOL    HW143467   3.818   2.852   3.275 -0.3256 -0.4502 -0.2410
14139SOL    HW243468   3.919   2.761   3.343 -2.0088 -2.3956 -0.2860
14140SOL     OW43469   0.890   1.679   7.136 -0.5267  0.2096 -0.2066
14140SOL    HW143470   0.948   1.703   7.208 -0.6692  0.2880 -0.1186
14140SOL    HW243471   0.813   1.735   7.147 -0.4089  0.4597 -0.6058
14141SOL     OW43472   7.344   1.063   2.793 -0.6206  0.3400  0.1948
14141SOL    HW143473   7.274   1.030   2.735 -2.2827 -0.0445  2.3037
14141SOL    HW243474   7.318   1.034   2.880  1.6517  1.1620  1.2127
14142SOL     OW43475   5.180   4.831   7.392 -0.3837  0.5415  0.7254
14142SOL    HW143476   5.201   4.823   7.299 -1.7976  0.5370  0.3776
14142SOL    HW243477   5.166   4.924   7.406 -0.6365  0.4899  0.8224
14143SOL     OW43478   2.216   4.071   2.741 -0.2054  0.0714 -0.0904
14143SOL    HW143479   2.175   4.146   2.697  0.5907 -0.2028 -1.3515
14143SOL    HW243480   2.144   4.009   2.754 -0.4495  0.1033 -1.1637
14144SOL     OW43481   0.270   2.611   4.225 -0.3955  0.4603  0.1626
14144SOL    HW143482   0.262   2.698   4.263  1.6388  0.3297  1.0293
14144SOL    HW243483   0.338   2.620   4.158 -0.1352 -0.4450  0.2877
14145SOL     OW43484   0.533   1.601   4.546 -0.9633  0.4793  0.2960
14145SOL    HW143485   0.624   1.602   4.515 -0.1266  0.9228  2.5347
14145SOL    HW243486   0.499   1.516   4.518 -0.2058  0.7007 -1.4153
14146SOL     OW43487   0.908   4.744   3.288  0.5100 -0.2720 -0.3595
14146SOL    HW143488   0.910   4.805   3.362 -1.6536  0.7761 -1.1137
14146SOL    HW243489   0.822   4.704   3.292  0.4200 -0.3366 -2.2056
14147SOL     OW43490   7.749   4.478   0.801 -0.7548 -0.7522 -0.9681
14147SOL    HW143491   7.822   4.417   0.814  0.5381  0.8671 -0.3007
14147SOL    HW243492   7.671   4.423   0.809  0.3595 -2.6765 -2.4166
14148SOL     OW43493   5.616   6.685   6.843  0.4812 -0.0158  0.3734
14148SOL    HW143494   5.531   6.655   6.811 -1.2086  3.0318  1.4739
14148SOL    HW243495   5.665   6.709   6.765 -0.3286 -0.2974 -0.2306
14149SOL     OW43496   7.405   1.893   7.333  0.2180  0.0219  0.0936
14149SOL    HW143497   7.426   1.843   7.413 -0.7279  0.8542  0.8921
14149SOL    HW243498   7.423   1.984   7.357 -1.7128  0.4686 -0.0616
14150SOL     OW43499   5.000   1.838   4.077  0.0333  0.1868  0.0532
14150SOL    HW143500   4.911   1.858   4.048  0.2633  1.6705  0.3158
14150SOL    HW243501   5.021   1.756   4.033 -1.6870 -0.5304  0.4695
14151SOL     OW43502   3.165   7.266   7.949  0.5613 -0.6451  0.4956
14151SOL    HW143503   3.231   7.247   7.882  0.8095  0.4987  0.4051
14151SOL    HW243504   3.201   7.226   8.029  2.8304  2.2758  1.1365
14152SOL     OW43505   1.452   0.555   5.122  0.2537  0.2788 -0.1494
14152SOL    HW143506   1.436   0.461   5.130 -0.1373  0.3132 -0.5252
14152SOL    HW243507   1.492   0.566   5.036 -0.0985  0.5074 -0.2843
14153SOL     OW43508   4.501   0.864   6.170 -0.5347  0.2771 -0.2215
14153SOL    HW143509   4.585   0.819   6.164 -1.0018 -0.7995  0.9183
14153SOL    HW243510   4.458   0.848   6.086 -0.3850 -0.7944 -0.1001
14154SOL     OW43511   6.129   1.529   6.250 -0.3870 -0.0589  0.3100
14154SOL    HW143512   6.121   1.433   6.252 -2.1047 -0.0197 -1.5948
14154SOL    HW243513   6.185   1.550   6.325  0.3451 -2.5758  0.5640
14155SOL     OW43514   1.803   6.037   4.574 -0.0244  0.9097  0.0862
14155SOL    HW143515   1.790   6.064   4.665  0.8135 -3.0802  1.6312
14155SOL    HW243516   1.872   6.095   4.541 -0.1122  2.2484  2.1081
14156SOL     OW43517   4.579   7.800   3.839  0.4114  0.4992 -0.3074
14156SOL    HW143518   4.604   7.746   3.764  2.1363  0.4362  0.2685
14156SOL    HW243519   4.483   7.799   3.838  0.3901 -1.4034 -1.1350
14157SOL     OW43520   8.022   1.224   1.034  0.2405  0.4606 -0.2361
14157SOL    HW143521   8.072   1.260   0.961 -0.9419  0.4866 -1.0587
14157SOL    HW243522   7.949   1.284   1.045 -0.3827 -0.3267  0.0238
14158SOL     OW43523   2.458   6.877   7.197 -0.3367 -0.7465  0.0214
14158SOL    HW143524   2.455   6.958   7.248  0.1559 -1.1534  0.7102
14158SOL    HW243525   2.375   6.876   7.149 -0.0262  0.5262 -0.5809
14159SOL     OW43526   7.585   0.742   5.273 -0.6755  0.5033 -0.4104
14159SOL    HW143527   7.520   0.677   5.299 -0.4731  0.5398  0.2097
14159SOL    HW243528   7.635   0.759   5.353 -0.3858  1.0291 -0.6976
14160SOL     OW43529   3.650   6.106   5.193 -0.2630 -0.2552 -0.6714
14160SOL    HW143530   3.609   6.114   5.279 -1.3694  0.8135 -1.2551
14160SOL    HW243531   3.742   6.085   5.211 -0.6661 -0.8947  0.7319
14161SOL     OW43532   6.336   5.325   3.393  0.0537 -0.1542  0.3054
14161SOL    HW143533   6.399   5.396   3.382  1.4282 -1.1984  1.1946
14161SOL    HW243534   6.256   5.358   3.353  1.1020  1.2713 -0.6962
14162SOL     OW43535   0.282   1.357   0.581  0.4496 -0.0301 -0.1592
14162SOL    HW143536   0.293   1.449   0.603  1.6298  0.4012 -2.2649
14162SOL    HW243537   0.232   1.358   0.499  0.3004 -1.2744 -0.1009
14163SOL     OW43538   3.678   4.071   5.568  0.4555 -0.0774 -0.3132
14163SOL    HW143539   3.624   4.025   5.632  1.5003 -2.0848 -0.7781
14163SOL    HW243540   3.625   4.074   5.489  0.8204 -1.7087 -0.6595
14164SOL     OW43541   2.441   0.540   3.115 -0.6273  0.1910  0.1307
14164SOL    HW143542   2.518   0.589   3.085 -0.5778  0.6356  0.9589
14164SOL    HW243543   2.422   0.479   3.044 -0.8920  1.6297 -1.0608
14165SOL     OW43544   0.148   8.110   3.296 -0.7857  0.3084 -0.2866
14165SOL    HW143545   0.099   8.185   3.263  1.2473  1.1622 -1.6354
14165SOL    HW243546   0.167   8.058   3.218  0.4774  0.0771  0.1363
14166SOL     OW43547   7.049   3.057   2.445 -0.3590 -0.3489  0.2103
14166SOL    HW143548   7.026   2.998   2.517 -0.4825 -0.5371  0.0155
14166SOL    HW243549   7.094   3.001   2.382 -1.6217 -0.5085 -0.5726
14167SOL     OW43550   1.572   5.388   7.226 -0.1776  0.4119 -0.4347
14167SOL    HW143551   1.576   5.354   7.315 -1.1521 -0.4771 -0.7110
14167SOL    HW243552   1.479   5.391   7.205 -0.0144  1.6334 -1.0463
14168SOL     OW43553   6.244   1.639   1.154 -0.3084 -0.0622  0.2331
14168SOL    HW143554   6.254   1.545   1.140  2.9923  0.2485 -0.1842
14168SOL    HW243555   6.191   1.669   1.080  2.0263 -1.0691 -1.9885
14169SOL     OW43556   3.090   1.983   6.234  0.3870 -0.2600  0.0968
14169SOL    HW143557   3.115   2.053   6.173 -0.3676 -0.9954 -1.0987
14169SOL    HW243558   3.171   1.934   6.248  0.3035 -0.8718 -1.4024
14170SOL     OW43559   4.322   6.100   7.298 -0.5997 -0.5954  0.0227
14170SOL    HW143560   4.342   6.115   7.206 -2.6313 -1.5142 -0.6271
14170SOL    HW243561   4.315   6.005   7.306  0.3624 -0.5856  1.3376
14171SOL     OW43562   5.232   4.999   0.393  0.8977 -0.1456  0.1854
14171SOL    HW143563   5.247   5.025   0.303 -0.3619  1.9005  0.5051
14171SOL    HW243564   5.314   4.957   0.420  0.8158 -2.1216 -2.2780
14172SOL     OW43565   3.353   6.888   0.125 -0.6239 -0.3163 -0.1206
14172SOL    HW143566   3.432   6.942   0.129  0.6131 -2.1166  3.4424
14172SOL    HW243567   3.295   6.925   0.192 -1.4086 -1.0861 -0.3545
14173SOL     OW43568   6.400   6.589   4.589  0.3210 -0.0031  0.1883
14173SOL    HW143569   6.326   6.529   4.591 -0.6372  0.9750 -2.1929
14173SOL    HW243570   6.361   6.676   4.596  1.4671  0.4800  1.0402
14174SOL     OW43571   1.666   6.595   7.655  0.4839  0.2417  0.1389
14174SOL    HW143572   1.590   6.585   7.598  0.2371 -0.9125  0.6522
14174SOL    HW243573   1.636   6.652   7.726  0.5150  0.8940 -0.3525
14175SOL     OW43574   1.790   7.547   5.068 -0.1364 -0.0319 -0.3041
14175SOL    HW143575   1.881   7.577   5.073 -0.2601  0.1490  2.0941
14175SOL    HW243576   1.779   7.492   5.146 -1.2370 -2.6514 -2.1735
14176SOL     OW43577   5.313   0.658   2.181  0.0018 -0.0220  0.2201
14176SOL    HW143578   5.269   0.738   2.209 -0.0673 -0.4005  1.2265
14176SOL    HW243579   5.396   0.657   2.229 -0.2667 -0.8551  0.6781
14177SOL     OW43580   4.606   3.867   3.260  0.2880  0.2928 -0.7317
14177SOL    HW143581   4.522   3.880   3.215  0.1131  1.4668 -0.1168
14177SOL    HW243582   4.583   3.823   3.342  0.0756  1.7755  0.0397
14178SOL     OW43583   7.898   7.203   3.720 -0.2637 -0.0906  0.0753
14178SOL    HW143584   7.835   7.143   3.759 -0.8300  0.1311 -0.4750
14178SOL    HW243585   7.844   7.274   3.684  0.4153  0.9163  0.9953
14179SOL     OW43586   7.462   4.277   1.896  0.1533 -0.0334  0.5283
14179SOL    HW143587   7.463   4.182   1.901 -0.1464 -0.0791 -0.1470
14179SOL    HW243588   7.443   4.296   1.804 -0.2199  0.6789  0.7427
14180SOL     OW43589   2.966   2.590   2.785  0.3612 -0.2726 -0.6562
14180SOL    HW143590   2.944   2.668   2.736 -2.8941 -0.7457 -0.1647
14180SOL    HW243591   2.919   2.599   2.868  1.2458 -1.9992  0.0991
14181SOL     OW43592   2.517   3.713   5.614  0.2466 -0.3079 -0.1204
14181SOL    HW143593   2.524   3.682   5.524 -0.8132  1.6742 -0.9339
14181SOL    HW243594   2.424   3.702   5.636  0.4604 -0.5991  0.6729
14182SOL     OW43595   2.397   0.402   2.879 -0.0078 -0.4147  0.3092
14182SOL    HW143596   2.467   0.406   2.813 -0.8436 -1.7045 -0.7017
14182SOL    HW243597   2.324   0.450   2.840 -0.0731 -0.0502  0.8720
14183SOL     OW43598   2.775   1.014   3.342  0.2300 -0.0624 -1.1015
14183SOL    HW143599   2.865   1.026   3.312  0.3009  0.5467 -0.6641
14183SOL    HW243600   2.783   0.986   3.433 -0.0202 -0.0901 -1.0857
14184SOL     OW43601   2.987   6.273   1.366 -0.8076  0.4673  0.4091
14184SOL    HW143602   3.054   6.334   1.338 -1.5773  0.5956 -1.2669
14184SOL    HW243603   2.918   6.327   1.405  0.9853  0.1973  4.5192
14185SOL     OW43604   5.787   3.062   4.751  0.1854 -0.6172  0.0474
14185SOL    HW143605   5.755   3.148   4.724 -0.6526 -1.2937 -1.2493
14185SOL    HW243606   5.838   3.031   4.676 -0.2800 -1.6158  0.1284
14186SOL     OW43607   7.765   4.195   2.383 -0.0718 -0.2098 -0.5614
14186SOL    HW143608   7.764   4.215   2.289  1.4271 -1.3580 -0.8564
14186SOL    HW243609   7.690   4.244   2.418 -2.0036 -1.4480 -2.6754
14187SOL     OW43610   4.915   6.703   2.266 -0.3379  0.4934 -0.0989
14187SOL    HW143611   4.925   6.649   2.344 -0.6189  0.6428  0.0408
14187SOL    HW243612   4.853   6.655   2.211  1.6511 -0.8472 -1.3336
14188SOL     OW43613   6.669   3.740   3.934  0.2095  0.0966  0.0244
14188SOL    HW143614   6.621   3.822   3.949  0.3735  0.1265  0.4032
14188SOL    HW243615   6.600   3.674   3.927  0.1148  0.1080  0.7791
14189SOL     OW43616   0.514   1.778   4.762 -0.2821  0.3591 -0.3833
14189SOL    HW143617   0.575   1.761   4.834 -1.4730 -0.9058  0.3769
14189SOL    HW243618   0.529   1.708   4.700 -1.4855 -0.4547  0.2009
14190SOL     OW43619   0.914   6.068   4.039 -0.6007 -0.6699 -0.7319
14190SOL    HW143620   0.828   6.108   4.026 -0.5575 -0.5172 -0.5467
14190SOL    HW243621   0.973   6.122   3.987 -0.3248  0.3197  0.5492
14191SOL     OW43622   2.840   1.120   6.686  0.1941  0.1394 -0.5413
14191SOL    HW143623   2.802   1.173   6.615  0.4409 -0.6877 -1.3095
14191SOL    HW243624   2.905   1.178   6.726 -0.8950  1.0962 -0.0850
14192SOL     OW43625   3.799   5.319   6.061  0.7182  0.0042 -0.3331
14192SOL    HW143626   3.778   5.251   5.996 -0.7378  0.2169 -0.1107
14192SOL    HW243627   3.844   5.272   6.131  2.2774 -0.2417 -1.4422
14193SOL     OW43628   6.344   3.097   5.534 -0.6982  0.2004  0.2290
14193SOL    HW143629   6.280   3.154   5.576 -1.6900 -0.0197 -0.9079
14193SOL    HW243630   6.307   3.009   5.543  0.0201 -0.0732  0.5619
14194SOL     OW43631   6.691   7.568   5.659 -0.9194 -0.5388 -0.4372
14194SOL    HW143632   6.613   7.623   5.651 -0.1673  0.4907 -0.9888
14194SOL    HW243633   6.764   7.628   5.643 -0.0787 -1.7733 -1.4011
14195SOL     OW43634   7.678   3.261   0.097  1.0098  0.6352 -0.2001
14195SOL    HW143635   7.713   3.304   0.175  1.7805 -0.2369 -0.0364
14195SOL    HW243636   7.698   3.168   0.111  0.3133  0.3568 -1.0082
14196SOL     OW43637   1.705   2.623   3.148 -0.4194  0.4294  0.1797
14196SOL    HW143638   1.776   2.560   3.144 -0.7262  0.1229 -0.5814
14196SOL    HW243639   1.735   2.697   3.095 -1.3912 -0.4668 -1.7170
14197SOL     OW43640   7.031   7.649   1.013 -0.0651 -0.4111  0.1116
14197SOL    HW143641   7.092   7.576   1.008  0.3604 -0.0093 -0.8642
14197SOL    HW243642   7.052   7.693   1.095  1.5736  0.2190 -0.5976
14198SOL     OW43643   1.301   2.117   7.304  0.1875  0.2541  0.5579
14198SOL    HW143644   1.297   2.050   7.372 -1.0457 -3.0385 -2.4628
14198SOL    HW243645   1.214   2.117   7.265  1.3841  0.3307 -2.4041
14199SOL     OW43646   1.883   6.035   3.297  0.0585  0.0645 -0.0856
14199SOL    HW143647   1.803   6.076   3.331  0.4388  1.0439 -0.3284
14199SOL    HW243648   1.941   6.028   3.373 -0.3757 -0.9769  0.1657
14200SOL     OW43649   7.507   8.116   5.251 -0.2884  0.4125  0.1589
14200SOL    HW143650   7.425   8.074   5.274 -0.4327  0.1734 -0.7582
14200SOL    HW243651   7.534   8.074   5.169  1.4079 -0.4278  1.0967
14201SOL     OW43652   1.377   3.667   4.113  0.2584 -0.3832  0.2231
14201SOL    HW143653   1.371   3.761   4.134 -1.9380 -0.7789  1.7019
14201SOL    HW243654   1.427   3.630   4.186  5.3810  0.0972 -2.5627
14202SOL     OW43655   4.400   6.614   7.933 -0.0754  0.0769 -0.1162
14202SOL    HW143656   4.419   6.574   7.849  0.7543  0.1851  0.0108
14202SOL    HW243657   4.405   6.541   7.996 -0.6549  0.0025 -0.1579
14203SOL     OW43658   7.068   4.267   0.889 -0.1670  0.0272  0.7692
14203SOL    HW143659   7.129   4.340   0.903  1.1225 -0.6243 -1.1199
14203SOL    HW243660   7.094   4.202   0.955 -1.7800  1.4665  2.9367
14204SOL     OW43661   4.127   2.485   3.158 -0.6442 -0.5119 -0.1197
14204SOL    HW143662   4.130   2.389   3.168 -0.1414 -0.2240  4.4260
14204SOL    HW243663   4.038   2.509   3.182 -0.8461  0.2090 -1.4917
14205SOL     OW43664   0.559   4.776   3.807 -0.6406  0.3090  0.0876
14205SOL    HW143665   0.477   4.733   3.781 -0.5948  0.4046 -0.2215
14205SOL    HW243666   0.619   4.703   3.825 -0.8185  0.2383  0.3975
14206SOL     OW43667   3.204   0.517   0.761 -0.0215  0.1404  0.1291
14206SOL    HW143668   3.240   0.456   0.697  0.4286  0.0495  0.4643
14206SOL    HW243669   3.151   0.463   0.820  0.6005  0.0282  0.5896
14207SOL     OW43670   3.490   0.489   2.015  0.0116 -0.3387 -0.6031
14207SOL    HW143671   3.558   0.554   2.033 -0.3395  0.5390 -2.2493
14207SOL    HW243672   3.534   0.422   1.963 -0.5732  0.7837 -2.6318
14208SOL     OW43673   1.204   6.074   1.437 -0.0903 -0.6801 -0.2624
14208SOL    HW143674   1.125   6.031   1.471 -0.2999  0.4597  0.7862
14208SOL    HW243675   1.244   6.115   1.514  0.8695 -0.2152 -0.9842
14209SOL     OW43676   5.747   5.415   1.699  0.0778  0.5696 -0.0334
14209SOL    HW143677   5.808   5.391   1.630  0.9782 -1.0093  1.2630
14209SOL    HW243678   5.703   5.494   1.666  0.3692 -0.2079 -2.4410
14210SOL     OW43679   5.894   4.392   6.632 -0.6702 -0.3875  0.0613
14210SOL    HW143680   5.962   4.412   6.568  0.2029  0.1930  1.1303
14210SOL    HW243681   5.921   4.309   6.670 -0.2616  0.0934  0.8465
14211SOL     OW43682   4.268   8.014   5.207 -0.3526  0.6532 -0.0863
14211SOL    HW143683   4.284   7.964   5.287  2.3147  0.9348 -0.3566
14211SOL    HW243684   4.257   7.948   5.139  0.3983  0.4185  0.0173
14212SOL     OW43685   4.230   3.224   3.220  0.7212 -0.3497  0.0540
14212SOL    HW143686   4.314   3.239   3.262  1.4274 -1.4056 -0.9115
14212SOL    HW243687   4.193   3.311   3.208  1.9833  0.1891 -0.0790
14213SOL     OW43688   3.656   3.463   2.521  0.3905 -0.2400  0.3435
14213SOL    HW143689   3.694   3.405   2.455  2.8426  1.1623  0.3911
14213SOL    HW243690   3.728   3.520   2.548 -1.1039  0.7836  2.5685
14214SOL     OW43691   4.947   1.435   0.427 -0.7321 -0.3892 -0.1350
14214SOL    HW143692   5.003   1.505   0.460 -1.7858  2.7100 -4.1314
14214SOL    HW243693   4.861   1.453   0.464 -0.5395 -1.0937  0.6965
14215SOL     OW43694   6.325   7.623   6.340  0.0656  0.0886  0.4193
14215SOL    HW143695   6.249   7.600   6.394  1.4299 -1.0264  1.9394
14215SOL    HW243696   6.357   7.705   6.378  0.1080  0.1358  0.2826
14216SOL     OW43697   2.042   0.162   1.737  0.1968  0.3281  0.3855
14216SOL    HW143698   1.985   0.167   1.814 -1.7587  0.8939 -1.0319
14216SOL    HW243699   2.038   0.071   1.710 -0.7280  0.5311 -0.1897
14217SOL     OW43700   8.033   3.031   8.008  0.3382 -0.4964 -0.2928
14217SOL    HW143701   8.061   2.956   7.955  1.7811 -0.0283 -0.2453
14217SOL    HW243702   8.109   3.050   8.064  0.4840  1.7483 -1.1563
14218SOL     OW43703   0.912   2.406   2.538  0.0999  0.4375  0.1621
14218SOL    HW143704   0.956   2.404   2.623 -0.8382  0.4831  0.6632
14218SOL    HW243705   0.977   2.371   2.476  0.1236 -1.4561  1.2059
14219SOL     OW43706   3.691   7.398   7.034 -0.0824  0.2060 -0.2950
14219SOL    HW143707   3.601   7.431   7.022 -0.7470 -1.3794  0.0697
14219SOL    HW243708   3.713   7.420   7.124 -0.3008  0.1380 -0.2247
14220SOL     OW43709   2.178   7.118   6.323 -0.2864 -1.3285 -0.4359
14220SOL    HW143710   2.186   7.048   6.388 -0.5766 -1.0798 -0.1262
14220SOL    HW243711   2.096   7.163   6.347  0.0447 -0.7068 -0.4503
14221SOL     OW43712   5.812   4.727   0.009 -0.1526  0.2479  0.0804
14221SOL    HW143713   5.734   4.689  -0.033  0.1324 -0.0430 -0.1916
14221SOL    HW243714   5.846   4.656   0.063 -1.3278  1.0449  1.9743
14222SOL     OW43715   8.203   3.060   1.235 -0.4775 -0.5372 -0.2066
14222SOL    HW143716   8.285   3.018   1.209 -1.3416 -2.5754  0.1310
14222SOL    HW243717   8.137   3.023   1.175 -1.1719  1.0397 -0.4578
14223SOL     OW43718   0.011   7.393   0.173 -0.0777  0.5979  0.1764
14223SOL    HW143719   0.094   7.437   0.190 -0.7216  2.7415 -1.7686
14223SOL    HW243720  -0.052   7.436   0.231 -0.1608  0.1249  0.4440
14224SOL     OW43721   0.261   3.146   1.550 -0.0006 -0.3058 -0.4215
14224SOL    HW143722   0.249   3.053   1.569 -1.0447 -0.3283 -1.0760
14224SOL    HW243723   0.269   3.150   1.455  0.9853  0.1909 -0.3285
14225SOL     OW43724   7.082   7.751   1.258  0.9877  0.1557 -0.5109
14225SOL    HW143725   7.131   7.723   1.336  1.2897  0.3386 -0.6308
14225SOL    HW243726   7.010   7.802   1.293  2.0357  1.6257 -0.4006
14226SOL     OW43727   0.448   2.280   6.621 -0.1895 -0.3168  0.1563
14226SOL    HW143728   0.447   2.329   6.539 -0.7159 -2.6156 -1.3143
14226SOL    HW243729   0.378   2.319   6.674 -2.4239 -1.0723 -2.0220
14227SOL     OW43730   3.090   0.538   3.999  0.1242 -0.4687  0.2797
14227SOL    HW143731   3.048   0.555   3.915  0.0629 -1.4497  0.0915
14227SOL    HW243732   3.083   0.620   4.047 -2.8780 -0.8248  0.6262
14228SOL     OW43733   5.290   4.623   6.563 -0.0105 -0.1929  0.2550
14228SOL    HW143734   5.226   4.554   6.546 -0.2365 -0.0688  0.5994
14228SOL    HW243735   5.240   4.692   6.606  0.3737 -0.1357  0.6182
14229SOL     OW43736   2.370   0.116   4.627  0.2395  0.5276 -0.8308
14229SOL    HW143737   2.328   0.202   4.626  0.5941  0.7709  0.9435
14229SOL    HW243738   2.346   0.076   4.544 -1.0641  1.8061 -1.1110
14230SOL     OW43739   3.468   2.992   5.627  0.0149  0.2882 -0.2066
14230SOL    HW143740   3.474   2.897   5.614  1.4419  0.4519 -0.9935
14230SOL    HW243741   3.546   3.027   5.583  0.0360  1.7459  0.9004
14231SOL     OW43742   6.424   1.606   7.307 -0.1577 -0.1718  0.8403
14231SOL    HW143743   6.509   1.646   7.287  0.0348 -0.3437  1.2861
14231SOL    HW243744   6.361   1.656   7.255  0.2096  0.0005  0.5549
14232SOL     OW43745   6.602   1.646   1.418 -0.1591  0.5467  0.3399
14232SOL    HW143746   6.688   1.639   1.377 -1.3642 -0.1331 -2.3201
14232SOL    HW243747   6.599   1.572   1.479  0.3713 -0.8230 -1.2091
14233SOL     OW43748   6.885   1.711   5.747  0.0299  0.4835  0.7497
14233SOL    HW143749   6.833   1.789   5.730  0.9903  0.9093 -0.3214
14233SOL    HW243750   6.957   1.714   5.684  0.3609 -1.0233  0.9950
14234SOL     OW43751   0.900   6.600   5.206  0.3102 -0.3998  0.3822
14234SOL    HW143752   0.870   6.611   5.116  0.7343 -1.8966  0.0436
14234SOL    HW243753   0.987   6.642   5.208  0.4918 -0.7490 -0.0311
14235SOL     OW43754   6.909   7.246   5.516  0.2497 -0.0833  0.0934
14235SOL    HW143755   6.821   7.210   5.527  0.3924 -0.0799  1.4479
14235SOL    HW243756   6.964   7.190   5.572  0.9830  0.3493 -0.1861
14236SOL     OW43757   0.158   6.861   2.026 -0.5547  0.0274 -0.2387
14236SOL    HW143758   0.243   6.823   2.050 -0.8301  0.8309  2.3694
14236SOL    HW243759   0.122   6.802   1.961  1.3533 -1.1715 -0.2794
14237SOL     OW43760   2.859   5.288   2.184  0.0402 -0.6135  0.3523
14237SOL    HW143761   2.876   5.259   2.094  1.1376  0.3008  0.2426
14237SOL    HW243762   2.764   5.295   2.190 -0.1011 -1.5889 -0.4328
14238SOL     OW43763   1.801   3.343   0.059 -0.3522 -0.1489 -0.2724
14238SOL    HW143764   1.879   3.333   0.005  2.0746  0.2913  2.8548
14238SOL    HW243765   1.811   3.277   0.128 -3.2499 -0.6559 -0.1840
14239SOL     OW43766   6.919   7.281   8.195  0.3267  0.1459  0.2453
14239SOL    HW143767   6.853   7.341   8.228  0.5654  1.0364 -0.8329
14239SOL    HW243768   6.958   7.327   8.121  1.3689 -0.8359  0.1561
14240SOL     OW43769   6.579   0.742   5.922  0.2185 -0.6301  0.1423
14240SOL    HW143770   6.547   0.820   5.878 -0.9694 -0.1199  1.8477
14240SOL    HW243771   6.669   0.764   5.947  0.2173 -0.1952 -0.2213
14241SOL     OW43772   5.812   8.036   4.899  0.4480  0.3536 -0.5101
14241SOL    HW143773   5.767   8.116   4.872 -0.7321 -0.7044 -1.8148
14241SOL    HW243774   5.834   7.991   4.818 -2.0905 -2.3248  0.1015
14242SOL     OW43775   5.030   5.611   2.418 -0.0246  0.0739 -0.3857
14242SOL    HW143776   4.972   5.688   2.418 -1.0511 -0.6763 -0.5592
14242SOL    HW243777   4.991   5.552   2.483  0.7813 -0.2857 -0.2190
14243SOL     OW43778   1.154   1.393   8.112  0.4311  0.3782 -0.2462
14243SOL    HW143779   1.086   1.336   8.148 -0.0188  0.2101 -1.3032
14243SOL    HW243780   1.201   1.338   8.050  1.6551  0.4506  0.5842
14244SOL     OW43781   6.540   5.397   7.519 -0.3849 -0.1891  0.3209
14244SOL    HW143782   6.610   5.428   7.462 -0.7149  0.8496  0.4681
14244SOL    HW243783   6.477   5.469   7.522  0.2712  0.3914  3.0684
14245SOL     OW43784   2.170   1.031   8.175  0.5189  0.0863 -0.6591
14245SOL    HW143785   2.141   0.940   8.185  1.0068 -0.1308 -1.1823
14245SOL    HW243786   2.259   1.032   8.211 -0.3445  0.9111  1.6318
14246SOL     OW43787   3.925   3.880   0.213 -0.3311 -0.0466  0.2677
14246SOL    HW143788   3.883   3.860   0.130 -3.8125 -0.9942  2.0389
14246SOL    HW243789   3.948   3.973   0.208 -2.2917  0.4140 -1.0830
14247SOL     OW43790   4.230   8.207   6.229  0.1788  0.1906 -0.4935
14247SOL    HW143791   4.203   8.223   6.139 -0.8951 -1.2997 -0.4622
14247SOL    HW243792   4.255   8.115   6.231 -3.3295 -0.8970  1.4848
14248SOL     OW43793   3.388   5.999   0.683  0.4270  0.4875  0.0754
14248SOL    HW143794   3.465   5.942   0.691  0.2005 -0.0803 -1.3729
14248SOL    HW243795   3.381   6.043   0.768  0.9480 -1.2105  1.0387
14249SOL     OW43796   7.959   7.034   7.664 -0.0900  0.6971 -0.3298
14249SOL    HW143797   7.870   7.044   7.631  0.5637 -2.2848 -3.5640
14249SOL    HW243798   7.962   6.946   7.701  1.2327  1.2210  0.9155
14250SOL     OW43799   4.898   6.533   5.112 -0.1722  0.1747 -0.4163
14250SOL    HW143800   4.949   6.581   5.178 -1.0509  0.5493  0.0122
14250SOL    HW243801   4.872   6.452   5.156  0.3624 -0.1828 -0.7575
14251SOL     OW43802   2.800   8.184   4.588 -1.0264 -0.7849  0.3847
14251SOL    HW143803   2.884   8.197   4.632  0.1021  1.3583 -2.1877
14251SOL    HW243804   2.803   8.093   4.557  0.1027 -0.8940  0.7713
14252SOL     OW43805   0.049   1.904   0.508 -0.4103 -0.3289  0.0766
14252SOL    HW143806  -0.000   1.843   0.563  2.0501 -1.0427  1.6407
14252SOL    HW243807   0.098   1.849   0.447  0.0354  0.2212 -0.0753
14253SOL     OW43808   4.497   3.973   8.185 -0.2352  0.5045  0.1910
14253SOL    HW143809   4.582   4.010   8.163  0.3405  0.1368  1.7399
14253SOL    HW243810   4.434   4.034   8.145  0.7363  1.2317 -0.2659
14254SOL     OW43811   6.069   0.346   3.688  0.0811  0.0913  0.7056
14254SOL    HW143812   5.982   0.357   3.651  1.3836  0.6647 -2.5034
14254SOL    HW243813   6.106   0.272   3.641  2.0895  1.2279  0.3815
14255SOL     OW43814   4.234   5.120   0.002 -0.2800 -0.0561  0.1569
14255SOL    HW143815   4.271   5.204  -0.025 -0.2923 -0.5031 -1.3326
14255SOL    HW243816   4.308   5.059  -0.001 -0.0863  0.0344  2.0279
14256SOL     OW43817   1.106   8.180   4.623 -0.4345 -0.8245 -0.4565
14256SOL    HW143818   1.062   8.196   4.539  0.6957  1.0196 -0.7550
14256SOL    HW243819   1.098   8.262   4.671 -0.6512 -1.7013  1.0702
14257SOL     OW43820   7.622   5.299   7.031 -0.5600  0.7029 -0.1546
14257SOL    HW143821   7.609   5.255   6.947  0.2701  0.8688 -0.3677
14257SOL    HW243822   7.685   5.368   7.014  0.9881 -0.3596  0.9614
14258SOL     OW43823   7.534   5.544   2.811 -0.1368 -1.5389  0.1242
14258SOL    HW143824   7.572   5.475   2.865  0.4828 -0.6241  0.8960
14258SOL    HW243825   7.487   5.600   2.873  0.9410 -0.2355 -0.1764
14259SOL     OW43826   0.938   2.173   7.353  0.1116 -0.1133  0.0828
14259SOL    HW143827   0.962   2.198   7.263 -1.8313  1.5292 -0.0649
14259SOL    HW243828   0.903   2.084   7.344 -0.0567  0.0235 -0.8116
14260SOL     OW43829   3.774   3.517   7.079 -0.3780  0.5003  0.2882
14260SOL    HW143830   3.757   3.442   7.023 -0.9479  2.8255 -2.9523
14260SOL    HW243831   3.688   3.539   7.116 -0.5063  0.4523  0.0190
14261SOL     OW43832   4.865   3.304   2.717  0.5044 -0.4653 -0.8565
14261SOL    HW143833   4.924   3.375   2.742 -0.3750  0.1674 -0.5526
14261SOL    HW243834   4.864   3.246   2.794 -1.3314  0.9071  0.2279
14262SOL     OW43835   4.221   4.281   6.455  0.3786  0.3391 -0.1039
14262SOL    HW143836   4.241   4.281   6.548  2.0940  1.0989 -0.4418
14262SOL    HW243837   4.126   4.287   6.451  0.3188  1.0328  1.5836
14263SOL     OW43838   0.560   4.373   3.430  0.0283 -0.1561  0.0641
14263SOL    HW143839   0.523   4.461   3.436  1.7709  0.7154 -1.0077
14263SOL    HW243840   0.655   4.387   3.433  0.3378 -2.0156 -0.0157
14264SOL     OW43841   4.205   7.147   1.561 -0.0037  0.0033 -0.3538
14264SOL    HW143842   4.234   7.232   1.595  0.8978 -0.6027  0.4033
14264SOL    HW243843   4.123   7.130   1.607 -0.4149  0.6474 -0.8217
14265SOL     OW43844   1.922   7.400   1.754  0.5335  0.1193  0.1479
14265SOL    HW143845   1.942   7.366   1.667  2.7285 -0.7792  0.9142
14265SOL    HW243846   1.955   7.332   1.814  1.0540  1.6514  1.6884
14266SOL     OW43847   2.901   2.172   2.431  0.4621  0.4478  0.6087
14266SOL    HW143848   2.842   2.120   2.487 -0.7329  0.9281 -0.1567
14266SOL    HW243849   2.878   2.263   2.449  0.7466  0.6360  0.0528
14267SOL     OW43850   2.966   2.976   7.452 -0.2327 -0.2217 -0.7380
14267SOL    HW143851   2.880   3.017   7.448 -0.6889 -1.1190 -0.3125
14267SOL    HW243852   2.948   2.882   7.453  0.6821 -0.4084  0.7452
14268SOL     OW43853   3.440   1.364   5.412 -0.1599  0.1032 -0.4628
14268SOL    HW143854   3.423   1.285   5.463 -0.0187  0.7922  0.6825
14268SOL    HW243855   3.432   1.436   5.475 -0.0690  0.9908 -1.4326
14269SOL     OW43856   0.435   7.158   3.504 -0.3408 -0.3271 -0.3674
14269SOL    HW143857   0.393   7.159   3.418  0.7672  1.2024 -0.9378
14269SOL    HW243858   0.525   7.130   3.487  0.1905  0.9971  0.1014
14270SOL     OW43859   2.682   0.616   2.750 -0.1597 -0.2037 -0.4464
14270SOL    HW143860   2.771   0.615   2.717 -0.4070 -2.3795 -1.1825
14270SOL    HW243861   2.688   0.657   2.836  1.2675  1.1090 -1.1339
14271SOL     OW43862   2.122   5.376   6.970  0.5229  0.3296 -0.2266
14271SOL    HW143863   2.215   5.400   6.970  0.7473 -0.5015  0.4010
14271SOL    HW243864   2.096   5.384   7.062 -0.3401  1.6609 -0.5528
14272SOL     OW43865   2.162   6.172   8.009  0.6179 -0.1471  0.4047
14272SOL    HW143866   2.239   6.117   8.022  0.6515 -0.0406  0.6554
14272SOL    HW243867   2.197   6.260   7.997  0.4534  0.2592  2.5515
14273SOL     OW43868   2.578   7.822   2.838 -0.3682 -0.0122 -0.0866
14273SOL    HW143869   2.567   7.873   2.758  1.5725 -1.2086 -1.1888
14273SOL    HW243870   2.499   7.768   2.843 -2.0160  2.2843  0.5974
14274SOL     OW43871   2.434   8.130   1.510  0.8937 -0.1225 -0.1598
14274SOL    HW143872   2.374   8.091   1.573  0.0160 -0.2005 -1.0225
14274SOL    HW243873   2.482   8.056   1.472 -0.3417 -0.3604 -1.3556
14275SOL     OW43874   7.134   2.127   6.413 -0.4083 -0.0288 -0.1445
14275SOL    HW143875   7.125   2.151   6.321 -1.5312 -3.4674 -1.1172
14275SOL    HW243876   7.212   2.071   6.416 -0.8841 -0.6863  0.7621
14276SOL     OW43877   3.618   1.044   7.985 -0.4217 -0.0517 -0.3051
14276SOL    HW143878   3.566   1.119   7.953 -0.2567  0.9663  1.6678
14276SOL    HW243879   3.709   1.073   7.976 -0.3520 -0.0924  0.2209
14277SOL     OW43880   8.114   0.864   1.736 -0.2973 -0.3909 -0.7876
14277SOL    HW143881   8.180   0.876   1.668  0.2539  2.8869  0.1679
14277SOL    HW243882   8.153   0.903   1.814 -2.3664 -0.6990  0.4577
14278SOL     OW43883   6.428   2.705   4.528 -0.7632  0.0321 -0.1422
14278SOL    HW143884   6.466   2.789   4.553  2.5092 -1.6604  1.0848
14278SOL    HW243885   6.384   2.674   4.608  0.2513 -0.5331  0.2063
14279SOL     OW43886   4.265   7.035   2.615 -0.7678  0.5327 -0.5800
14279SOL    HW143887   4.180   6.994   2.632  0.0338 -1.5785 -1.3563
14279SOL    HW243888   4.287   7.007   2.526  2.1156 -1.6502  0.6514
14280SOL     OW43889   2.055   1.109   7.719 -0.0252  0.1461  0.0573
14280SOL    HW143890   2.075   1.132   7.810  1.6754 -0.9206  0.0082
14280SOL    HW243891   1.960   1.098   7.717  0.0888 -2.3758  2.3931
14281SOL     OW43892   7.120   5.662   1.858 -0.1342  0.6911 -0.6713
14281SOL    HW143893   7.180   5.736   1.865 -0.8339  1.1482  1.1942
14281SOL    HW243894   7.038   5.700   1.829 -0.1101  0.4082 -1.1186
14282SOL     OW43895   0.222   1.684   6.029 -0.0734 -0.0989  0.3303
14282SOL    HW143896   0.272   1.702   6.108 -0.0489 -1.4600  0.6500
14282SOL    HW243897   0.271   1.615   5.984  0.7846  1.7171 -1.7307
14283SOL     OW43898   4.837   1.754   6.945  0.1887 -0.2121 -0.0608
14283SOL    HW143899   4.914   1.711   6.982  0.3697 -0.7002 -0.9977
14283SOL    HW243900   4.769   1.687   6.946  0.3174 -0.3687 -1.0071
14284SOL     OW43901   1.945   7.381   3.418 -0.3239  0.7322  0.1299
14284SOL    HW143902   1.853   7.388   3.443 -0.9055  1.9328 -2.0640
14284SOL    HW243903   1.972   7.472   3.401  1.2857  0.3975  0.7598
14285SOL     OW43904   6.614   4.082   0.082 -0.1210 -0.3969  0.1158
14285SOL    HW143905   6.694   4.128   0.108 -0.9376  0.5755  0.9826
14285SOL    HW243906   6.587   4.126   0.001 -0.2287 -0.1650  0.2765
14286SOL     OW43907   2.825   5.585   8.133 -0.3588  0.5652 -0.1826
14286SOL    HW143908   2.803   5.511   8.189 -1.1559 -1.2202 -2.6523
14286SOL    HW243909   2.913   5.566   8.100 -1.2344 -0.2910 -2.1919
14287SOL     OW43910   5.233   5.707   5.975 -0.2468  0.5127 -0.1310
14287SOL    HW143911   5.164   5.711   6.041  0.7791  0.5906  0.9860
14287SOL    HW243912   5.314   5.721   6.025  0.7591 -1.5084 -1.0806
14288SOL     OW43913   2.667   7.106   6.911 -0.3969 -0.2141 -0.0760
14288SOL    HW143914   2.653   7.175   6.976 -1.5646  0.1416 -0.6788
14288SOL    HW243915   2.760   7.084   6.919 -0.3619  0.3242  1.2072
14289SOL     OW43916   0.014   7.881   4.011  0.0995  0.3801  0.2758
14289SOL    HW143917   0.027   7.934   3.932 -2.8915  0.0368 -0.5823
14289SOL    HW243918  -0.016   7.944   4.077  1.4276  0.4747  0.8193
14290SOL     OW43919   3.839   4.126   7.445 -0.1129 -0.7618  0.3026
14290SOL    HW143920   3.839   4.210   7.492  1.8128 -1.4335  1.6220
14290SOL    HW243921   3.769   4.135   7.380 -1.2338  1.1495  1.6649
14291SOL     OW43922   7.463   4.282   6.426 -0.5294  0.1059 -0.0113
14291SOL    HW143923   7.448   4.193   6.458 -1.8469  0.5361  0.6486
14291SOL    HW243924   7.410   4.289   6.347 -0.6320  0.3846  0.0811
14292SOL     OW43925   5.412   4.745   6.185 -0.2978 -0.5240  0.2240
14292SOL    HW143926   5.328   4.739   6.230  0.5313 -1.4704  1.7468
14292SOL    HW243927   5.465   4.676   6.225  1.6075  0.8477  0.1932
14293SOL     OW43928   5.357   4.034   5.059 -0.0528  0.2557  0.0732
14293SOL    HW143929   5.405   4.049   4.977 -0.7076 -2.1525 -0.8292
14293SOL    HW243930   5.298   4.110   5.066 -0.2238  0.3612 -1.8974
14294SOL     OW43931   7.238   2.618   6.069  0.3514  0.5039 -0.0043
14294SOL    HW143932   7.214   2.544   6.126  0.8259  1.2230  1.1572
14294SOL    HW243933   7.286   2.677   6.126  0.6128  1.3771 -1.1110
14295SOL     OW43934   5.787   3.894   4.111 -0.4649 -0.1790 -0.1359
14295SOL    HW143935   5.861   3.838   4.084 -0.1930  0.5400 -0.9188
14295SOL    HW243936   5.818   3.983   4.097 -0.4489  0.2588  2.2746
14296SOL     OW43937   7.347   6.374   4.290 -0.3475 -0.1293  0.2638
14296SOL    HW143938   7.435   6.409   4.279 -0.6098  0.3604 -0.3310
14296SOL    HW243939   7.323   6.398   4.379 -0.7283  1.7206 -0.3043
14297SOL     OW43940   5.854   2.561   6.895  0.1326  0.3482  0.8413
14297SOL    HW143941   5.856   2.531   6.986  1.4238  0.5696  0.8921
14297SOL    HW243942   5.791   2.633   6.894 -0.0641  0.1858  1.5075
14298SOL     OW43943   7.716   1.838   6.208  0.9471 -0.4703 -0.6136
14298SOL    HW143944   7.799   1.865   6.169  2.2524 -0.9265  1.6644
14298SOL    HW243945   7.675   1.919   6.236  0.8196 -0.2785 -1.3330
14299SOL     OW43946   2.652   6.666   4.369 -0.8110 -0.2180  0.3656
14299SOL    HW143947   2.692   6.673   4.456 -2.3405  0.3482  1.0795
14299SOL    HW243948   2.719   6.625   4.315  0.0580 -0.9595  1.9076
14300SOL     OW43949   3.160   1.780   5.388  0.4377 -0.0359 -0.0693
14300SOL    HW143950   3.101   1.709   5.361  0.7627  0.7572 -3.3384
14300SOL    HW243951   3.116   1.822   5.461 -3.0938  0.3818 -2.1950
14301SOL     OW43952   6.185   4.164   2.813  0.2672  0.0764  0.4708
14301SOL    HW143953   6.229   4.087   2.849  1.6911 -0.7958 -2.7469
14301SOL    HW243954   6.249   4.204   2.754 -1.6799  1.5280 -0.8274
14302SOL     OW43955   7.068   3.063   8.022 -0.0342 -0.1868  0.1957
14302SOL    HW143956   7.087   3.126   7.952  0.4507  0.8914  1.2587
14302SOL    HW243957   7.131   2.992   8.008  0.7432  0.4996  0.1158
14303SOL     OW43958   1.800   5.121   4.753 -0.2688  0.0278 -0.2592
14303SOL    HW143959   1.750   5.052   4.797 -0.2488 -1.0033 -1.7692
14303SOL    HW243960   1.891   5.093   4.761 -0.3080 -0.4761 -1.4206
14304SOL     OW43961   4.561   4.675   6.314  0.0431 -0.0434 -0.3938
14304SOL    HW143962   4.593   4.709   6.398 -0.5245 -0.8946  0.1777
14304SOL    HW243963   4.466   4.670   6.324  0.1388 -3.0692  0.0994
14305SOL     OW43964   0.785   2.213   3.513 -0.5187  0.1344 -0.0467
14305SOL    HW143965   0.729   2.269   3.566 -0.6725 -0.3603  0.3273
14305SOL    HW243966   0.750   2.220   3.424  0.2406  1.6044 -0.2541
14306SOL     OW43967   1.618   1.696   7.688  0.6727  0.4275 -0.4492
14306SOL    HW143968   1.676   1.620   7.697  0.1922  0.1670  0.6606
14306SOL    HW243969   1.585   1.711   7.777 -0.0879  1.2668 -0.8602
14307SOL     OW43970   3.383   2.119   4.669 -0.3771 -0.3110  0.1219
14307SOL    HW143971   3.397   2.197   4.722  1.1575 -0.4767  0.0094
14307SOL    HW243972   3.365   2.050   4.732  0.1326 -0.2374  0.3581
14308SOL     OW43973   0.132   7.214   4.244 -0.0990 -0.2929 -0.0851
14308SOL    HW143974   0.089   7.209   4.159 -4.2477  1.8827  1.5964
14308SOL    HW243975   0.114   7.129   4.285  0.2034 -0.6206 -0.6168
14309SOL     OW43976   6.903   7.475   4.142 -0.0534  0.6720  0.5326
14309SOL    HW143977   6.876   7.567   4.137  0.3537  0.7586 -0.1019
14309SOL    HW243978   6.982   7.470   4.089  1.2783  0.4451  2.4352
14310SOL     OW43979   3.103   6.239   7.090  0.7234 -0.2128  0.1812
14310SOL    HW143980   3.060   6.319   7.120  1.5352  0.7682 -1.1630
14310SOL    HW243981   3.059   6.168   7.138 -0.1662  1.0093  1.2228
14311SOL     OW43982   3.722   1.972   1.454  0.2038 -0.3265  0.7234
14311SOL    HW143983   3.629   1.992   1.444  0.6393  2.0675  0.8678
14311SOL    HW243984   3.763   2.009   1.376  1.3062  0.9335  1.8460
14312SOL     OW43985   6.796   3.176   3.454  0.7738 -0.2841  0.3643
14312SOL    HW143986   6.830   3.162   3.366  0.3018  0.4958  0.0478
14312SOL    HW243987   6.715   3.124   3.457 -0.5952  1.6689 -0.5667
14313SOL     OW43988   0.361   2.246   6.972 -0.0540  0.4483  0.3346
14313SOL    HW143989   0.298   2.282   6.910 -1.1467 -1.3580  0.3322
14313SOL    HW243990   0.319   2.256   7.057 -0.6209 -1.2308  0.2803
14314SOL     OW43991   3.385   6.870   0.655 -0.6745 -0.5154 -0.5596
14314SOL    HW143992   3.342   6.862   0.740 -2.6750 -2.3743 -1.6409
14314SOL    HW243993   3.474   6.840   0.670 -1.3282 -1.9539  0.6680
14315SOL     OW43994   4.921   1.195   6.838  0.0341  0.7613 -0.1686
14315SOL    HW143995   4.860   1.262   6.808 -1.3965 -0.6402 -0.5312
14315SOL    HW243996   5.001   1.210   6.788 -0.8223  1.1620 -1.4449
14316SOL     OW43997   2.471   4.307   2.806 -0.3706  0.1994 -0.4582
14316SOL    HW143998   2.399   4.324   2.745 -2.0774 -0.2067  1.3344
14316SOL    HW243999   2.429   4.304   2.892  1.6073 -1.3606  0.5285
14317SOL     OW44000   3.094   2.603   7.999  0.7253  0.0398  0.2643
14317SOL    HW144001   2.998   2.603   7.994  0.7749 -0.0326 -0.7494
14317SOL    HW244002   3.123   2.652   7.923  1.5362 -1.3799 -0.3865
14318SOL     OW44003   6.746   2.602   6.535  0.1716  0.4556 -0.2267
14318SOL    HW144004   6.692   2.668   6.491  0.3151 -0.4225 -1.7753
14318SOL    HW244005   6.685   2.531   6.556  0.8639 -1.2184 -3.3395
14319SOL     OW44006   4.374   0.003   1.937 -0.0404  0.4534  0.2905
14319SOL    HW144007   4.452  -0.051   1.950  1.1736  1.6754 -1.4441
14319SOL    HW244008   4.310  -0.032   1.999  2.1325 -0.0652  2.4071
14320SOL     OW44009   0.380   1.239   7.680  0.0874  0.2433  0.0989
14320SOL    HW144010   0.475   1.249   7.690  0.5306 -1.6991 -1.5915
14320SOL    HW244011   0.368   1.151   7.644 -2.4728 -0.0523  1.3941
14321SOL     OW44012   6.567   1.852   4.409  0.1638 -0.0505  0.3363
14321SOL    HW144013   6.571   1.761   4.379  0.3631  0.2670 -0.6275
14321SOL    HW244014   6.636   1.859   4.475 -0.2663 -0.7545  0.8758
14322SOL     OW44015   7.974   0.209   0.911 -0.0597  0.4999  0.3102
14322SOL    HW144016   7.986   0.121   0.948 -0.7977  0.4577  0.4761
14322SOL    HW244017   7.898   0.200   0.853 -0.3894  1.1193  0.6382
14323SOL     OW44018   0.799   0.170   2.638 -0.2708 -0.7098 -0.3272
14323SOL    HW144019   0.839   0.219   2.710 -3.6525  1.6920  0.1742
14323SOL    HW244020   0.811   0.078   2.661  0.8206 -0.0328  2.0583
14324SOL     OW44021   2.735   0.993   8.142 -0.0301 -0.3111 -0.1935
14324SOL    HW144022   2.772   0.932   8.206 -0.6031 -1.6628 -1.0971
14324SOL    HW244023   2.643   0.968   8.136 -0.1286  0.2139 -1.0495
14325SOL     OW44024   4.141   7.751   3.599 -0.1656 -0.0461 -0.2110
14325SOL    HW144025   4.135   7.738   3.694  2.6811  2.3518  0.4480
14325SOL    HW244026   4.151   7.845   3.588  2.1787 -0.4699 -2.6558
14326SOL     OW44027   1.660   1.098   1.112 -0.1796  0.1513 -0.2419
14326SOL    HW144028   1.641   1.028   1.174  1.5630 -1.2466 -1.2184
14326SOL    HW244029   1.750   1.083   1.084 -0.4822  1.4784 -2.1601
14327SOL     OW44030   7.134   2.815   2.291  0.0368 -0.2716  0.0981
14327SOL    HW144031   7.226   2.829   2.267 -0.3228 -0.3681 -1.4025
14327SOL    HW244032   7.136   2.739   2.349  0.9586  0.1189  0.6092
14328SOL     OW44033   6.256   6.078   3.415  0.3622  0.3153 -0.6523
14328SOL    HW144034   6.259   6.007   3.479 -0.0475  0.2901 -0.6599
14328SOL    HW244035   6.327   6.136   3.441  0.2315  0.2802 -0.2003
14329SOL     OW44036   7.589   0.727   1.304  0.8549 -0.0817 -0.0624
14329SOL    HW144037   7.599   0.790   1.375  0.8124 -0.6001  0.4061
14329SOL    HW244038   7.642   0.652   1.331  0.9156 -0.2464 -0.6220
14330SOL     OW44039   5.152   0.181   2.259 -0.2335  0.9536  0.4493
14330SOL    HW144040   5.187   0.092   2.251 -0.1826  1.0422 -0.4646
14330SOL    HW244041   5.227   0.238   2.242 -0.3312  1.1658  0.7331
14331SOL     OW44042   4.970   4.056   8.101 -0.5514  0.0747 -0.1328
14331SOL    HW144043   5.000   4.024   8.016 -0.4626  1.2132 -0.5521
14331SOL    HW244044   5.049   4.061   8.154 -0.4947  0.0412 -0.2136
14332SOL     OW44045   6.747   4.691   3.142  0.2194 -0.4331 -0.3063
14332SOL    HW144046   6.803   4.617   3.119  1.3659 -0.8838  3.3745
14332SOL    HW244047   6.666   4.652   3.174  0.6137 -0.1282  1.1246
14333SOL     OW44048   6.818   8.076   6.574  0.2591  0.1237 -0.3691
14333SOL    HW144049   6.739   8.022   6.572 -0.6615  1.3954  0.1431
14333SOL    HW244050   6.886   8.021   6.536 -0.6817 -1.3033 -0.0431
14334SOL     OW44051   0.327   0.693   2.860 -0.2069 -0.0093 -0.6527
14334SOL    HW144052   0.418   0.666   2.847 -0.2498 -1.2031  1.0821
14334SOL    HW244053   0.325   0.785   2.836  1.6318  0.2226 -0.0644
14335SOL     OW44054   4.964   0.340   2.126  0.1616 -0.0904  0.0904
14335SOL    HW144055   4.915   0.268   2.085 -1.0168 -0.3885  1.8976
14335SOL    HW244056   5.045   0.299   2.156 -0.3873 -0.6292  0.8742
14336SOL     OW44057   0.706   1.197   4.892 -0.3153  0.1182 -0.6353
14336SOL    HW144058   0.641   1.248   4.844 -0.6448 -0.2932 -0.6385
14336SOL    HW244059   0.719   1.245   4.973 -0.3554  0.3947 -0.7925
14337SOL     OW44060   7.621   0.276   3.815  0.3963  0.3494 -0.2994
14337SOL    HW144061   7.710   0.255   3.845  0.0998 -0.0677  0.3063
14337SOL    HW244062   7.603   0.212   3.745  0.3377  0.0264  0.0092
14338SOL     OW44063   4.160   6.136   2.958  0.0505 -0.8831 -0.3970
14338SOL    HW144064   4.130   6.201   3.022 -0.1629 -1.9968  0.6699
14338SOL    HW244065   4.206   6.071   3.010  0.0964 -1.6868 -1.4203
14339SOL     OW44066   3.684   7.105   6.948 -0.2895 -0.1316 -0.5982
14339SOL    HW144067   3.634   7.175   6.906 -0.6102 -0.4326 -0.7309
14339SOL    HW244068   3.721   7.055   6.875  0.6392  0.3936 -0.4895
14340SOL     OW44069   4.665   6.578   0.312  0.3211  0.2624  0.1852
14340SOL    HW144070   4.742   6.620   0.273  1.2527 -0.9340  0.6604
14340SOL    HW244071   4.700   6.501   0.357 -1.3501 -1.2865 -1.0160
14341SOL     OW44072   3.944   6.397   1.553 -0.1732 -0.1071 -0.0300
14341SOL    HW144073   3.911   6.478   1.514  0.5653 -0.3648 -1.2570
14341SOL    HW244074   4.029   6.383   1.510 -0.6673 -1.9688 -0.4694
14342SOL     OW44075   3.834   1.692   7.307  0.3112  0.0747 -0.4075
14342SOL    HW144076   3.753   1.716   7.351 -0.7963  1.6302 -3.0705
14342SOL    HW244077   3.903   1.713   7.370 -1.2291  0.5479  1.1941
14343SOL     OW44078   0.710   8.198   6.785 -0.1114  0.2199  0.7677
14343SOL    HW144079   0.793   8.245   6.792  0.2137 -0.2855  0.3574
14343SOL    HW244080   0.728   8.125   6.726 -0.8419  0.0893  0.6904
14344SOL     OW44081   0.503   4.354   5.018 -0.0358 -0.5502  0.2412
14344SOL    HW144082   0.461   4.440   5.022 -0.2162 -0.5497 -1.1536
14344SOL    HW244083   0.588   4.371   4.978  0.0419 -0.9855  0.2161
14345SOL     OW44084   5.595   8.162   6.508 -0.3250 -0.0231 -0.5778
14345SOL    HW144085   5.597   8.156   6.413  0.1272 -1.2651 -0.5150
14345SOL    HW244086   5.527   8.100   6.534 -3.0496  2.8913 -0.2105
14346SOL     OW44087   0.122   4.555   3.357  0.2042 -0.1047 -0.0265
14346SOL    HW144088   0.090   4.502   3.430 -1.1874 -0.0244 -0.5537
14346SOL    HW244089   0.148   4.491   3.291 -0.4033 -0.1526 -0.2222
14347SOL     OW44090   1.219   0.699   7.360 -0.1783 -0.3278 -0.0337
14347SOL    HW144091   1.127   0.671   7.363 -0.1620 -0.4609 -0.7591
14347SOL    HW244092   1.217   0.780   7.309 -0.3631  1.5738  2.7373
14348SOL     OW44093   5.082   6.563   3.777 -0.2703 -0.2462  0.6780
14348SOL    HW144094   5.062   6.650   3.745 -0.8216 -0.7947 -0.5499
14348SOL    HW244095   5.175   6.566   3.800 -0.1746  0.5225  0.2043
14349SOL     OW44096   5.013   5.121   3.301  0.6098 -0.7560 -0.0002
14349SOL    HW144097   5.074   5.107   3.374  0.4639 -1.2295  0.0376
14349SOL    HW244098   4.931   5.083   3.332  0.2961 -0.1344 -0.0578
14350SOL     OW44099   5.069   2.407   4.784  0.3078 -0.2995 -0.0448
14350SOL    HW144100   5.048   2.316   4.805  0.4339  0.0738  1.8018
14350SOL    HW244101   5.021   2.459   4.848  0.2319  0.9648 -1.0684
14351SOL     OW44102   8.151   6.135   4.887 -0.1909 -0.3574 -0.3578
14351SOL    HW144103   8.101   6.208   4.850  0.3470 -1.3101 -3.2130
14351SOL    HW244104   8.087   6.066   4.901 -0.2245 -0.3938 -0.6825
14352SOL     OW44105   8.056   5.272   7.119  0.5503  0.1528  0.2100
14352SOL    HW144106   7.998   5.336   7.159 -1.5805 -1.4458 -0.1126
14352SOL    HW244107   8.056   5.295   7.026 -0.1283 -0.2231  0.1101
14353SOL     OW44108   4.282   4.055   4.014 -0.3708  0.1793 -0.2587
14353SOL    HW144109   4.229   3.981   4.043 -2.0812  1.7799  1.0076
14353SOL    HW244110   4.249   4.076   3.927  0.4230 -0.7803 -0.8057
14354SOL     OW44111   1.724   3.950   5.730  0.1512  0.6674 -0.1329
14354SOL    HW144112   1.686   4.035   5.709  0.9947  1.6624  2.0560
14354SOL    HW244113   1.674   3.919   5.806 -0.2644 -0.9298 -0.9960
14355SOL     OW44114   4.233   8.074   2.648  0.1321 -0.1578 -0.4642
14355SOL    HW144115   4.274   8.142   2.702  0.2847 -0.0877 -0.6692
14355SOL    HW244116   4.190   8.122   2.577 -0.0863 -0.2497 -0.3960
14356SOL     OW44117   5.750   3.542   3.150  0.2593 -0.4453  0.2443
14356SOL    HW144118   5.705   3.514   3.229 -2.3454 -1.4744 -1.4776
14356SOL    HW244119   5.842   3.553   3.177 -0.5926 -0.2773  3.4538
14357SOL     OW44120   6.354   5.884   5.842 -0.1900 -0.2414  0.1712
14357SOL    HW144121   6.364   5.804   5.893  0.2843 -1.4893 -1.7773
14357SOL    HW244122   6.406   5.869   5.763  1.5382  2.7782  0.5800
14358SOL     OW44123   6.930   4.046   4.962  0.5294  0.5125 -0.4172
14358SOL    HW144124   6.989   4.108   4.919  2.8995 -0.2494  1.4832
14358SOL    HW244125   6.966   3.960   4.939  0.0242  0.0140  0.6037
14359SOL     OW44126   6.414   2.753   2.539  0.0592  0.1457  0.3203
14359SOL    HW144127   6.463   2.705   2.471 -0.5272 -1.4901  0.9885
14359SOL    HW244128   6.400   2.840   2.502  1.2805 -0.1437 -0.9204
14360SOL     OW44129   0.447   2.130   5.071 -0.6800  0.3450 -0.1373
14360SOL    HW144130   0.501   2.204   5.100  0.5304 -1.3271  2.1802
14360SOL    HW244131   0.395   2.106   5.147 -1.3102 -0.9811 -0.9376
14361SOL     OW44132   3.509   2.450   7.406  0.0850  0.0255 -0.2656
14361SOL    HW144133   3.479   2.407   7.485  0.6089  1.8202  0.9780
14361SOL    HW244134   3.593   2.489   7.430  1.3027 -1.1448 -2.3424
14362SOL     OW44135   3.858   7.250   5.964 -0.0301  0.2043 -0.4768
14362SOL    HW144136   3.773   7.208   5.972 -0.7663  1.4677 -1.2155
14362SOL    HW244137   3.837   7.341   5.940  1.5294  0.4963 -0.8309
14363SOL     OW44138   4.198   4.079   0.048 -0.3513  0.0365 -0.2907
14363SOL    HW144139   4.174   4.157  -0.002 -1.4449  0.1253  0.3406
14363SOL    HW244140   4.149   4.008   0.008  0.7702 -0.3806 -0.9693
14364SOL     OW44141   0.291   1.622   4.290  0.2842 -0.1046  0.6854
14364SOL    HW144142   0.358   1.573   4.243  1.6605 -0.6517  3.0196
14364SOL    HW244143   0.276   1.700   4.237  1.0607 -1.0781 -1.0439
14365SOL     OW44144   0.870   5.742   2.933  0.0815  0.7888 -0.2429
14365SOL    HW144145   0.928   5.735   2.857 -0.8364  0.6265 -0.9521
14365SOL    HW244146   0.911   5.687   3.000  1.1235  1.2602 -0.4705
14366SOL     OW44147   4.948   2.642   4.346  0.6486 -0.4956  0.0896
14366SOL    HW144148   4.855   2.644   4.324  0.3018  0.3627  1.5038
14366SOL    HW244149   4.957   2.568   4.406  0.7771 -0.2881  0.3295
14367SOL     OW44150   4.574   3.266   1.132  0.4245 -0.4251 -0.3416
14367SOL    HW144151   4.571   3.174   1.157 -2.6278 -0.4369 -0.3011
14367SOL    HW244152   4.571   3.264   1.036 -2.6320 -0.5171 -0.3612
14368SOL     OW44153   3.454   7.781   0.122 -0.2259  0.2145  0.6295
14368SOL    HW144154   3.380   7.732   0.158 -0.7271  1.0567  0.7971
14368SOL    HW244155   3.438   7.871   0.151  0.6177  0.4888  0.2596
14369SOL     OW44156   0.906   4.124   0.128 -0.0405  0.2483 -0.1646
14369SOL    HW144157   0.935   4.065   0.059  0.4720  0.8686 -0.4892
14369SOL    HW244158   0.815   4.100   0.144  0.3306 -1.0552  0.1570
14370SOL     OW44159   4.164   6.931   7.622  0.0404  0.5288  0.3024
14370SOL    HW144160   4.201   6.911   7.708 -0.6869  1.2808  0.7985
14370SOL    HW244161   4.176   6.850   7.572  0.7453  0.1849  1.0025
14371SOL     OW44162   1.639   1.898   0.996 -0.2579  0.0409  0.2272
14371SOL    HW144163   1.605   1.869   1.081 -0.9327  0.4555  0.1069
14371SOL    HW244164   1.621   1.824   0.937 -1.0705  0.2989  0.1408
14372SOL     OW44165   4.879   2.802   3.917 -0.3648 -0.4611  0.2742
14372SOL    HW144166   4.856   2.870   3.980 -0.4639 -0.7590  0.5609
14372SOL    HW244167   4.818   2.815   3.844  0.0527  0.1731  0.0286
14373SOL     OW44168   3.172   3.517   2.198  0.5900  0.1806 -0.3409
14373SOL    HW144169   3.132   3.433   2.222  0.1773  0.0379 -1.4445
14373SOL    HW244170   3.235   3.494   2.129  0.6034  0.7560 -0.5210
14374SOL     OW44171   5.254   0.765   3.818  0.3148 -0.0992 -0.7301
14374SOL    HW144172   5.208   0.803   3.742 -0.8086 -0.2674 -0.1591
14374SOL    HW244173   5.346   0.767   3.794 -0.0174 -0.0861 -2.0802
14375SOL     OW44174   1.429   8.047   4.227 -0.2209 -0.1066 -0.2543
14375SOL    HW144175   1.458   8.134   4.255 -0.2467 -0.0972 -0.2580
14375SOL    HW244176   1.388   8.009   4.305 -0.0994 -0.1629 -0.2177
14376SOL     OW44177   7.010   6.970   6.091  0.6290 -0.0621 -0.4044
14376SOL    HW144178   6.968   6.885   6.082 -1.2331  0.7498  0.1888
14376SOL    HW244179   7.039   6.973   6.182  0.3898  0.0642 -0.3314
14377SOL     OW44180   5.409   1.654   7.828 -0.1187  0.7123  0.3893
14377SOL    HW144181   5.348   1.726   7.847 -1.1629 -0.2030  0.5732
14377SOL    HW244182   5.406   1.599   7.906  1.2626  0.8540  0.5621
14378SOL     OW44183   2.670   5.927   5.182 -0.1870 -0.1146  0.5371
14378SOL    HW144184   2.692   5.841   5.217 -1.3030 -0.3308  0.7455
14378SOL    HW244185   2.575   5.925   5.172  0.0113  0.2031 -1.8596
14379SOL     OW44186   7.634   4.404   6.172 -0.4087 -0.2902  0.0066
14379SOL    HW144187   7.574   4.471   6.207 -0.5707 -0.2726 -0.3041
14379SOL    HW244188   7.697   4.390   6.242  0.5146  1.2755 -0.4646
14380SOL     OW44189   8.272   8.029   2.292  0.4751  0.2531  0.1881
14380SOL    HW144190   8.316   8.111   2.314 -0.5794 -0.0238  3.9029
14380SOL    HW244191   8.343   7.965   2.285  1.1448  1.0773 -0.8751
14381SOL     OW44192   5.021   6.695   8.057  0.2224 -0.2941 -0.0467
14381SOL    HW144193   4.999   6.614   8.010 -0.8112 -0.1123  0.1092
14381SOL    HW244194   4.978   6.686   8.142  0.2487  0.3472  0.0386
14382SOL     OW44195   7.625   4.632   3.218 -0.6577 -0.3333 -0.3600
14382SOL    HW144196   7.670   4.685   3.284  3.6520 -1.7255 -1.7850
14382SOL    HW244197   7.584   4.561   3.268  0.7542 -0.2350  1.0404
14383SOL     OW44198   3.032   2.309   3.098 -0.5468 -0.3887 -0.1358
14383SOL    HW144199   3.014   2.322   3.005 -0.5665 -1.5973 -0.3174
14383SOL    HW244200   3.044   2.214   3.107 -0.3066 -0.2597  1.0499
14384SOL     OW44201   5.811   4.978   3.763 -0.4946 -0.3229  0.2637
14384SOL    HW144202   5.906   4.972   3.757 -0.5342 -0.9663  0.1891
14384SOL    HW244203   5.781   4.982   3.672 -0.5508 -0.3086  0.2828
14385SOL     OW44204   5.346   1.452   7.441 -0.2936 -0.6503  0.0958
14385SOL    HW144205   5.281   1.401   7.393 -0.3336 -0.7467  0.2560
14385SOL    HW244206   5.410   1.388   7.471 -0.9018 -0.7431  1.2143
14386SOL     OW44207   3.904   1.860   7.109  0.2790  0.1089 -0.1036
14386SOL    HW144208   3.862   1.941   7.137 -0.6712 -0.0107 -1.1220
14386SOL    HW244209   3.892   1.800   7.183  0.6090  0.7439  0.4798
14387SOL     OW44210   7.303   3.964   1.291 -0.4724  0.6329 -0.0428
14387SOL    HW144211   7.322   4.030   1.358  1.6102 -0.8498  0.9472
14387SOL    HW244212   7.250   3.899   1.336  0.2245  0.0537 -0.0383
14388SOL     OW44213   7.708   5.882   7.780  0.5434 -0.0207  0.4701
14388SOL    HW144214   7.695   5.969   7.818 -1.0447  0.3583 -0.8124
14388SOL    HW244215   7.695   5.822   7.853  1.5240  0.7905  1.3424
14389SOL     OW44216   6.935   4.383   7.011  0.0790  0.1426 -0.5951
14389SOL    HW144217   6.866   4.330   7.050 -0.0484  0.6343 -0.1412
14389SOL    HW244218   6.893   4.467   6.993  0.8275  0.8145  0.6877
14390SOL     OW44219   5.560   5.090   3.080  0.3265 -0.1140  0.0785
14390SOL    HW144220   5.617   5.049   3.014  0.3933 -0.3223  0.2627
14390SOL    HW244221   5.490   5.132   3.029  1.1930  1.0311 -0.2228
14391SOL     OW44222   3.858   5.153   6.290 -0.0734 -0.3691  0.2625
14391SOL    HW144223   3.838   5.062   6.309 -0.2591 -0.5980 -0.9637
14391SOL    HW244224   3.950   5.152   6.263  0.3114  0.0114  1.5040
14392SOL     OW44225   5.934   0.875   4.499 -0.7422  0.2959 -0.2641
14392SOL    HW144226   6.013   0.892   4.550  0.7949 -0.2086 -2.3379
14392SOL    HW244227   5.917   0.957   4.453  0.2377 -0.3656 -1.8945
14393SOL     OW44228   8.178   3.074   7.048  0.3486  0.5697  0.0322
14393SOL    HW144229   8.262   3.072   7.001  0.9928 -0.9328  1.1697
14393SOL    HW244230   8.186   3.004   7.113 -2.0864 -0.1048 -0.3206
14394SOL     OW44231   0.344   2.426   7.741 -0.0534 -0.6429  0.7226
14394SOL    HW144232   0.339   2.513   7.781  1.8317 -1.1204  2.1511
14394SOL    HW244233   0.355   2.366   7.815 -0.1262 -1.9713 -0.3062
14395SOL     OW44234   2.696   0.177   6.792  0.0537 -0.0023 -0.0038
14395SOL    HW144235   2.777   0.198   6.838 -0.0869 -0.7021  0.5825
14395SOL    HW244236   2.635   0.152   6.862 -0.4907 -0.0393 -0.4873
14396SOL     OW44237   4.374   5.322   3.439 -0.0029  0.0684 -0.3474
14396SOL    HW144238   4.424   5.380   3.497  0.7770  0.1414 -1.0736
14396SOL    HW244239   4.334   5.381   3.376 -0.6717 -0.0318 -0.0227
14397SOL     OW44240   1.776   4.341   3.284 -0.0391  0.3882 -0.0381
14397SOL    HW144241   1.790   4.427   3.246 -0.0434 -0.1222 -1.2456
14397SOL    HW244242   1.683   4.323   3.269  0.0415  0.0244 -0.1086
14398SOL     OW44243   1.806   6.349   8.180 -0.0469 -0.1681 -0.4751
14398SOL    HW144244   1.809   6.309   8.093 -0.4717 -0.6077 -0.2961
14398SOL    HW244245   1.741   6.297   8.228 -3.2683  2.7310 -1.2498
14399SOL     OW44246   0.942   4.476   5.974 -0.6505  0.1656  0.3937
14399SOL    HW144247   0.867   4.534   5.958 -0.0176  1.3774  1.5786
14399SOL    HW244248   0.904   4.398   6.014 -1.3384  0.5792  0.5662
14400SOL     OW44249   1.779   3.308   7.973  0.2882 -0.5492 -0.2360
14400SOL    HW144250   1.823   3.322   8.056  1.5801  1.8137 -1.2099
14400SOL    HW244251   1.718   3.382   7.965  0.4447 -0.5259 -1.5015
14401SOL     OW44252   6.352   7.003   6.050  0.0856  0.1132 -1.0003
14401SOL    HW144253   6.445   7.022   6.066 -0.1354  2.0897 -1.6820
14401SOL    HW244254   6.315   6.989   6.137  0.7387  0.9370 -0.5680
14402SOL     OW44255   6.034   2.566   1.654  0.1530 -0.0354  0.0319
14402SOL    HW144256   6.096   2.545   1.584  0.5866  3.6308 -0.8976
14402SOL    HW244257   6.090   2.590   1.728 -0.2551 -0.5179  0.5008
14403SOL     OW44258   3.891   3.294   5.295  0.6565  0.0844  0.4933
14403SOL    HW144259   3.866   3.269   5.206  1.2231 -3.3237  1.1639
14403SOL    HW244260   3.850   3.380   5.308 -2.5368 -0.9177 -1.7622
14404SOL     OW44261   4.300   4.156   2.519 -0.3754 -0.3159 -0.2822
14404SOL    HW144262   4.225   4.109   2.553  0.9123 -2.8944 -0.7517
14404SOL    HW244263   4.358   4.168   2.595  0.0945 -1.1670 -0.4943
14405SOL     OW44264   3.779   0.041   5.904 -0.4299  0.4007 -0.3421
14405SOL    HW144265   3.703   0.068   5.853  0.0221  0.3878 -1.0360
14405SOL    HW244266   3.742   0.001   5.983 -1.1345  0.6912 -0.5189
14406SOL     OW44267   1.318   6.356   5.515 -0.3073 -0.7471  0.0164
14406SOL    HW144268   1.270   6.325   5.438 -0.1411  0.5073 -0.6058
14406SOL    HW244269   1.392   6.296   5.523 -0.1945 -0.7404 -0.9424
14407SOL     OW44270   0.609   0.548   5.046  0.0450 -1.1814  0.3871
14407SOL    HW144271   0.612   0.574   5.138 -1.2896 -0.5606  0.2802
14407SOL    HW244272   0.617   0.630   4.998 -3.2050 -0.9240  0.0303
14408SOL     OW44273   7.386   3.125   7.417  0.0745 -0.3270  0.0604
14408SOL    HW144274   7.475   3.138   7.449  0.3188  0.8994 -1.0053
14408SOL    HW244275   7.364   3.208   7.373 -1.4474 -0.7444 -0.0339
14409SOL     OW44276   6.520   7.077   3.375 -0.2759  0.0770 -0.1454
14409SOL    HW144277   6.498   7.130   3.452  1.4786  0.2667  0.2678
14409SOL    HW244278   6.614   7.091   3.362 -0.0784 -1.6961 -0.9814
14410SOL     OW44279   1.925   6.753   4.032  0.1533 -0.3009 -0.0085
14410SOL    HW144280   1.841   6.709   4.023  0.9323 -1.5851 -1.5890
14410SOL    HW244281   1.982   6.688   4.074  0.8525 -0.1950 -0.7563
14411SOL     OW44282   3.904   5.339   5.230 -0.3906 -0.0272  0.3291
14411SOL    HW144283   3.899   5.430   5.259 -0.5364  1.6999 -4.2573
14411SOL    HW244284   3.963   5.341   5.155 -0.9721 -3.6140 -0.3884
14412SOL     OW44285   6.750   0.965   5.402 -0.5628  0.2969 -0.2040
14412SOL    HW144286   6.837   0.952   5.364 -0.5933 -1.6153  0.2829
14412SOL    HW244287   6.690   0.958   5.327 -0.3125  1.7204 -0.5551
14413SOL     OW44288   3.289   7.768   7.318 -0.2511 -0.7200 -1.0181
14413SOL    HW144289   3.366   7.727   7.280  1.3784 -0.0112  1.2483
14413SOL    HW244290   3.252   7.701   7.376 -0.6086 -0.6683 -1.1863
14414SOL     OW44291   5.039   0.081   4.236 -0.0996 -0.2245 -0.1742
14414SOL    HW144292   5.085   0.137   4.298 -1.8238  0.2646  0.7434
14414SOL    HW244293   5.082  -0.004   4.244 -0.3925 -0.2431  1.8963
14415SOL     OW44294   0.932   3.758   6.656  0.9000  0.6849 -0.0324
14415SOL    HW144295   0.904   3.840   6.697 -0.4006 -0.7145  2.0464
14415SOL    HW244296   0.992   3.718   6.719  0.3965 -0.6223 -0.3416
14416SOL     OW44297   4.032   6.693   4.762 -0.0500 -0.7176 -0.2141
14416SOL    HW144298   3.946   6.656   4.785 -0.2392  0.1292  0.4996
14416SOL    HW244299   4.012   6.759   4.696 -0.5872  2.5427  2.9128
14417SOL     OW44300   2.985   7.797   2.366 -0.1119  0.1207  0.3615
14417SOL    HW144301   2.966   7.720   2.313 -1.5931  0.1674  0.7959
14417SOL    HW244302   3.079   7.791   2.383 -0.1469 -1.4242  0.1374
14418SOL     OW44303   6.238   7.790   6.654 -0.2234 -0.2788 -0.0616
14418SOL    HW144304   6.275   7.844   6.584  0.9048 -0.3012  0.4908
14418SOL    HW244305   6.206   7.853   6.718  0.4435 -0.2468  0.2514
14419SOL     OW44306   2.796   2.875   1.345 -0.2255 -0.0338  0.0035
14419SOL    HW144307   2.716   2.822   1.342  0.1448 -0.6639  1.0746
14419SOL    HW244308   2.855   2.828   1.403  0.9943  0.3538 -0.8805
14420SOL     OW44309   0.455   6.840   1.791  0.1015  0.0163  0.3146
14420SOL    HW144310   0.374   6.868   1.748  1.0826  0.7446 -1.1203
14420SOL    HW244311   0.514   6.819   1.719  1.2303 -0.4443  1.3440
14421SOL     OW44312   3.946   5.799   0.290 -0.3031  0.4022  0.6073
14421SOL    HW144313   3.898   5.880   0.306 -0.0108  0.5055  0.9613
14421SOL    HW244314   3.927   5.777   0.199  1.9201  2.3964 -0.4237
14422SOL     OW44315   5.008   1.441   8.220 -0.5755 -0.1763  0.1831
14422SOL    HW144316   4.926   1.450   8.171 -0.3550  1.0994  0.0273
14422SOL    HW244317   5.063   1.512   8.189  0.8710 -1.3971 -0.1977
14423SOL     OW44318   4.604   2.121   7.884 -0.1937 -0.0009 -0.1027
14423SOL    HW144319   4.562   2.074   7.812 -0.9867  0.0317  0.3368
14423SOL    HW244320   4.609   2.057   7.955 -0.7697  0.4100  0.3116
14424SOL     OW44321   6.715   2.420   5.748  0.1045 -0.3217 -0.1644
14424SOL    HW144322   6.698   2.510   5.718  0.1197 -0.7031 -1.3837
14424SOL    HW244323   6.649   2.405   5.816  0.3767  0.7536  0.3655
14425SOL     OW44324   8.200   5.183   2.824  0.2134  0.1070  0.0832
14425SOL    HW144325   8.251   5.263   2.807  0.3648 -0.0586 -0.2570
14425SOL    HW244326   8.262   5.124   2.866 -0.1915  0.5583  1.3768
14426SOL     OW44327   4.722   0.779   4.134  0.3679 -0.2004  0.5016
14426SOL    HW144328   4.650   0.792   4.195 -0.5609  1.0644 -0.7782
14426SOL    HW244329   4.681   0.779   4.047  1.8108 -0.1755 -0.2280
14427SOL     OW44330   7.125   5.676   8.127  0.2194 -0.0866  0.3817
14427SOL    HW144331   7.110   5.768   8.151 -0.9171 -0.0258 -0.4761
14427SOL    HW244332   7.170   5.681   8.043  0.5859 -0.3188  0.5631
14428SOL     OW44333   4.439   1.294   3.664  0.2462  0.1561  0.0585
14428SOL    HW144334   4.453   1.371   3.718  0.3121  0.2005 -0.0214
14428SOL    HW244335   4.457   1.220   3.722  0.4759  0.2059  0.0510
14429SOL     OW44336   0.891   6.332   8.114 -0.0161 -0.0083 -0.2202
14429SOL    HW144337   0.834   6.377   8.051  1.4319  1.1254 -0.7758
14429SOL    HW244338   0.890   6.389   8.191  1.8839  1.1198 -0.9528
14430SOL     OW44339   5.601   4.927   4.398 -0.5276 -1.0999  0.7066
14430SOL    HW144340   5.538   4.965   4.460  0.4960  0.7281  0.6852
14430SOL    HW244341   5.682   4.919   4.449 -0.0479 -0.8672 -0.0175
14431SOL     OW44342   4.930   0.906   7.295  0.3620 -0.8136 -1.0278
14431SOL    HW144343   4.997   0.916   7.363 -2.7453  0.5920  2.1682
14431SOL    HW244344   4.880   0.829   7.321 -0.8999 -0.2456 -1.6646
14432SOL     OW44345   0.203   4.778   6.436 -0.0645  0.1225  0.1207
14432SOL    HW144346   0.245   4.848   6.486  0.2198 -0.6076  0.9364
14432SOL    HW244347   0.138   4.822   6.382  0.4426  1.0629  0.2575
14433SOL     OW44348   5.335   5.062   2.625 -0.3797  0.2669  0.4652
14433SOL    HW144349   5.264   5.013   2.583 -0.4959 -0.0110  0.9763
14433SOL    HW244350   5.303   5.153   2.626 -1.0854  0.0212  1.4135
14434SOL     OW44351   7.501   0.143   1.158 -0.0239  0.0657  0.2579
14434SOL    HW144352   7.569   0.100   1.209 -1.1219 -1.4251  0.5505
14434SOL    HW244353   7.494   0.090   1.078 -0.8574  0.1724  0.2498
14435SOL     OW44354   6.655   5.456   5.597 -0.1389  0.0882  0.1755
14435SOL    HW144355   6.744   5.472   5.566 -0.4798  0.3698 -0.6745
14435SOL    HW244356   6.632   5.370   5.562 -0.9171  0.8630 -1.3325
14436SOL     OW44357   3.594   1.752   6.312 -0.1814  0.0793 -0.0820
14436SOL    HW144358   3.634   1.668   6.337 -0.9332 -0.8572 -1.8541
14436SOL    HW244359   3.666   1.801   6.272 -0.0491 -0.2883 -0.3037
14437SOL     OW44360   5.889   5.333   7.935 -0.6038  0.1608  0.5544
14437SOL    HW144361   5.806   5.326   7.888  0.0151 -1.4889 -0.3806
14437SOL    HW244362   5.870   5.299   8.022 -0.6983 -1.2622  0.0085
14438SOL     OW44363   3.815   1.367   7.280  0.0139  0.3834  0.8319
14438SOL    HW144364   3.871   1.400   7.350 -0.9704  1.2170  1.2447
14438SOL    HW244365   3.839   1.419   7.203  0.7020 -0.1528  0.6700
14439SOL     OW44366   4.731   5.372   0.916  0.0959 -0.9059 -0.2890
14439SOL    HW144367   4.783   5.377   0.837 -0.5645  0.3724 -0.6764
14439SOL    HW244368   4.783   5.418   0.982  0.8164 -2.2926  0.1510
14440SOL     OW44369   4.105   7.164   2.225 -0.5345  0.8999  0.2127
14440SOL    HW144370   4.046   7.171   2.300  0.1375  0.3441  0.8031
14440SOL    HW244371   4.138   7.253   2.212 -0.6265  0.9924  0.5991
14441SOL     OW44372   0.092   5.646   5.425 -1.1825 -0.4118  0.0325
14441SOL    HW144373   0.128   5.735   5.431 -0.8797 -0.6193  3.4159
14441SOL    HW244374   0.168   5.589   5.418 -1.2931 -0.5063 -0.4535
14442SOL     OW44375   2.149   2.601   1.856  0.0065 -0.3674  0.1167
14442SOL    HW144376   2.079   2.573   1.798 -0.2128 -2.4390  1.2839
14442SOL    HW244377   2.218   2.536   1.844  0.3244 -0.3203  1.4400
14443SOL     OW44378   6.307   6.631   2.454 -0.2440 -0.1123 -0.1626
14443SOL    HW144379   6.286   6.554   2.507  0.4894 -1.0268 -1.1559
14443SOL    HW244380   6.398   6.616   2.425 -0.7426  0.1196 -2.0055
14444SOL     OW44381   2.684   7.203   4.496 -0.4858  0.3657  0.1582
14444SOL    HW144382   2.633   7.127   4.521 -1.6779  1.2840  0.6377
14444SOL    HW244383   2.620   7.264   4.459  0.3495  1.2988  0.2037
14445SOL     OW44384   3.925   0.675   0.229  0.4599 -0.4846 -0.5999
14445SOL    HW144385   3.964   0.597   0.190 -1.5290 -1.3438 -0.9887
14445SOL    HW244386   3.831   0.663   0.218  0.0760  1.8779 -0.4790
14446SOL     OW44387   5.237   6.029   2.419  0.2544  0.5087  0.4766
14446SOL    HW144388   5.181   6.051   2.344  1.0801  1.2562  0.0610
14446SOL    HW244389   5.326   6.041   2.386  0.6338  0.4149  1.4581
14447SOL     OW44390   4.571   7.241   7.387 -0.5944 -0.0360  0.0311
14447SOL    HW144391   4.575   7.146   7.393 -2.2356 -0.0826  1.0435
14447SOL    HW244392   4.484   7.264   7.419 -0.2260  1.8231 -0.1424
14448SOL     OW44393   0.273   1.735   6.477 -0.3654 -0.0864  0.3779
14448SOL    HW144394   0.284   1.707   6.568 -0.2983  2.0331  1.0769
14448SOL    HW244395   0.178   1.732   6.462 -0.2351 -3.5910 -0.6411
14449SOL     OW44396   6.897   0.079   3.962 -0.5181  0.2063  0.0215
14449SOL    HW144397   6.961   0.017   3.996  0.4004  1.0639 -0.1163
14449SOL    HW244398   6.927   0.098   3.873 -1.8806 -0.6238 -0.6570
14450SOL     OW44399   7.503   3.403   6.042 -0.4042  0.3907  0.3507
14450SOL    HW144400   7.547   3.402   6.127 -0.7036  0.0097  0.5058
14450SOL    HW244401   7.574   3.395   5.978 -0.1132  1.4037  0.5254
14451SOL     OW44402   6.112   7.377   7.258 -0.3047 -0.7924  0.4202
14451SOL    HW144403   6.159   7.305   7.300  0.1866 -0.3756  0.5905
14451SOL    HW244404   6.110   7.353   7.165 -0.2093 -1.0580  0.4843
14452SOL     OW44405   4.482   7.260   8.259  0.2248 -0.1255 -0.1545
14452SOL    HW144406   4.464   7.353   8.272  0.9702  0.1949 -1.2924
14452SOL    HW244407   4.576   7.252   8.274  0.0985 -0.7897  0.3525
14453SOL     OW44408   5.632   5.377   7.815  0.7781  0.7303 -0.0389
14453SOL    HW144409   5.607   5.318   7.745 -1.0731 -0.3806  1.4580
14453SOL    HW244410   5.552   5.390   7.865  1.3221  3.8929  0.1903
14454SOL     OW44411   7.453   1.885   0.200 -0.2992  0.1651  0.1129
14454SOL    HW144412   7.389   1.944   0.241 -0.1015 -0.2286  1.0182
14454SOL    HW244413   7.531   1.894   0.254 -0.1604 -0.6817  0.0693
14455SOL     OW44414   8.195   6.005   2.788 -0.3747  0.1318 -0.9331
14455SOL    HW144415   8.211   5.990   2.695  0.2064 -1.4601 -0.6080
14455SOL    HW244416   8.102   5.986   2.800 -0.0010 -1.8010 -0.8372
14456SOL     OW44417   3.195   4.895   4.294 -0.0497 -0.4210 -0.3889
14456SOL    HW144418   3.151   4.876   4.211 -1.6485  0.7664  0.1364
14456SOL    HW244419   3.130   4.875   4.361  1.1870 -1.2644  0.6078
14457SOL     OW44420   4.150   6.010   2.038 -0.1140  0.0413  0.5608
14457SOL    HW144421   4.107   6.047   2.115 -0.2744  1.5590 -0.2240
14457SOL    HW244422   4.084   5.951   2.000  0.2225 -1.2899  1.9402
14458SOL     OW44423   4.353   8.101   5.686  0.4134  0.3443  0.2831
14458SOL    HW144424   4.421   8.038   5.709  0.3823  0.6189  1.1560
14458SOL    HW244425   4.272   8.050   5.683  0.7654 -0.1895 -1.7630
14459SOL     OW44426   5.916   7.750   3.436 -0.0071 -0.1843 -0.2598
14459SOL    HW144427   5.939   7.834   3.475  0.7767 -0.0998 -0.8706
14459SOL    HW244428   5.842   7.718   3.488  1.0683 -0.1274  1.3757
14460SOL     OW44429   1.262   7.004   7.791  0.4292 -0.0104  0.0602
14460SOL    HW144430   1.171   7.011   7.821  0.5663 -1.4321  0.8963
14460SOL    HW244431   1.285   7.093   7.763 -0.9494  0.5477  0.6167
14461SOL     OW44432   2.236   6.343   1.310  0.8399  0.0491 -0.2379
14461SOL    HW144433   2.269   6.431   1.330 -0.2317  0.3898  0.0671
14461SOL    HW244434   2.161   6.358   1.252  0.2637 -0.6263  0.3177
14462SOL     OW44435   6.061   0.588   1.713 -0.5841 -0.0209  0.1324
14462SOL    HW144436   5.978   0.574   1.667 -0.4165 -1.0264  0.1125
14462SOL    HW244437   6.039   0.647   1.785 -1.4150 -0.6651  0.4132
14463SOL     OW44438   5.268   3.101   5.311  0.0922 -0.0507  0.0000
14463SOL    HW144439   5.282   3.176   5.370 -1.0537  0.2356 -0.0712
14463SOL    HW244440   5.354   3.085   5.273  0.6685  0.3238  1.0843
14464SOL     OW44441   7.586   7.013   0.278  0.0151 -0.4977 -0.3779
14464SOL    HW144442   7.491   7.002   0.281 -0.3188  2.1500  1.1683
14464SOL    HW244443   7.607   7.017   0.184 -1.5444  0.0256 -0.7179
14465SOL     OW44444   0.460   6.192   8.003  0.5423  0.0343 -0.0341
14465SOL    HW144445   0.429   6.256   7.939 -0.4993 -0.9691 -0.5818
14465SOL    HW244446   0.384   6.173   8.058  1.4435  0.9431  1.6096
14466SOL     OW44447   0.667   2.246   4.764  0.2506  0.0419  0.2244
14466SOL    HW144448   0.747   2.224   4.716  0.6838  0.0103  0.9591
14466SOL    HW244449   0.624   2.311   4.708  0.6967 -0.0651 -0.2601
14467SOL     OW44450   7.519   5.650   5.687 -0.0717  0.2337 -0.2620
14467SOL    HW144451   7.471   5.731   5.671  0.9063  0.8376 -0.1919
14467SOL    HW244452   7.552   5.624   5.601  0.8564  0.7141 -0.0608
14468SOL     OW44453   6.991   2.412   6.023 -0.1727 -0.0784 -0.0970
14468SOL    HW144454   7.010   2.417   5.929 -0.2554  1.0817 -0.0603
14468SOL    HW244455   6.912   2.358   6.029  0.6978 -1.4618 -0.5605
14469SOL     OW44456   0.862   0.341   6.561 -0.0444 -0.0228  0.1910
14469SOL    HW144457   0.931   0.321   6.624  1.3291  0.8322 -0.9858
14469SOL    HW244458   0.837   0.256   6.526  0.3609 -0.3463  0.6722
14470SOL     OW44459   6.054   8.195   3.418 -0.7966  0.3203  0.1413
14470SOL    HW144460   6.135   8.209   3.370 -1.4948 -1.3854 -1.6478
14470SOL    HW244461   6.021   8.283   3.435  1.6390  1.0913  1.4154
14471SOL     OW44462   0.450   4.632   1.193  0.0785  0.1320  0.2525
14471SOL    HW144463   0.378   4.585   1.236 -0.2255  0.7094  0.3925
14471SOL    HW244464   0.509   4.564   1.162 -0.0032 -0.3152  1.0603
14472SOL     OW44465   3.911   0.414   3.061  0.1136  0.1420  0.1795
14472SOL    HW144466   3.874   0.455   2.983 -1.6293 -2.5451 -0.5312
14472SOL    HW244467   3.854   0.444   3.132  0.3640  0.8631  0.0831
14473SOL     OW44468   1.622   3.906   2.313 -0.0441  0.7173 -0.5207
14473SOL    HW144469   1.556   3.914   2.382  0.8142  1.3594  0.2589
14473SOL    HW244470   1.576   3.864   2.240 -0.9983  0.1084  0.4014
14474SOL     OW44471   0.508   1.981   2.598 -0.2198  0.2987  0.3622
14474SOL    HW144472   0.567   2.007   2.527 -2.3461  1.2215 -1.1563
14474SOL    HW244473   0.508   2.055   2.658 -0.0676  0.4081  0.2285
14475SOL     OW44474   7.988   5.130   0.524 -0.5975  0.5567 -0.3449
14475SOL    HW144475   7.916   5.155   0.466 -1.4780 -0.5465  0.2345
14475SOL    HW244476   7.955   5.150   0.612  0.0005  0.5181 -0.1128
14476SOL     OW44477   3.492   7.833   1.280  0.4005 -0.0154 -0.0304
14476SOL    HW144478   3.459   7.916   1.313  0.4825  0.1470 -0.3567
14476SOL    HW244479   3.511   7.782   1.359 -1.3654 -0.4120  0.1806
14477SOL     OW44480   4.980   8.245   5.160 -0.4752  0.3172  0.6339
14477SOL    HW144481   4.917   8.269   5.093  0.9124 -2.2311 -1.7884
14477SOL    HW244482   4.943   8.168   5.202 -0.4215  0.7435  1.5021
14478SOL     OW44483   2.287   5.103   4.616 -0.0530 -0.0556  0.5391
14478SOL    HW144484   2.242   5.186   4.630  2.1275  1.5444 -1.1922
14478SOL    HW244485   2.217   5.038   4.614 -1.8044  1.6313  2.3564
14479SOL     OW44486   7.615   5.811   1.888  0.7116  0.0248  0.3415
14479SOL    HW144487   7.702   5.833   1.924  2.1525 -2.6391 -1.2234
14479SOL    HW244488   7.577   5.751   1.953 -0.3994  1.7756  1.4054
14480SOL     OW44489   4.294   4.356   0.520 -0.1723  0.2857  0.4012
14480SOL    HW144490   4.251   4.384   0.439 -2.6272 -2.5124  0.5615
14480SOL    HW244491   4.315   4.438   0.565 -3.1984  1.9576 -0.8830
14481SOL     OW44492   1.878   2.226   3.772 -0.6943  0.2849 -0.4862
14481SOL    HW144493   1.945   2.288   3.802  1.0465 -1.7028 -0.0017
14481SOL    HW244494   1.822   2.212   3.849 -0.6772  0.7153 -0.3923
14482SOL     OW44495   1.920   0.853   2.143 -0.1211 -0.4136 -0.3985
14482SOL    HW144496   1.907   0.805   2.224  1.3191 -1.0443 -0.5226
14482SOL    HW244497   2.014   0.869   2.138 -0.0479 -1.0743 -2.3084
14483SOL     OW44498   7.543   3.833   5.891 -0.0625  0.1061 -0.2456
14483SOL    HW144499   7.448   3.843   5.881  0.0348  2.4356  0.6159
14483SOL    HW244500   7.578   3.921   5.876  1.8079 -0.3438  1.1322
14484SOL     OW44501   3.322   5.636   7.847  0.0407  0.9840 -0.0735
14484SOL    HW144502   3.230   5.645   7.822 -0.2520  1.3825  1.0778
14484SOL    HW244503   3.363   5.592   7.773 -1.4682 -1.0289  0.2030
14485SOL     OW44504   7.590   4.572   5.739 -0.4448  0.5264  0.8601
14485SOL    HW144505   7.583   4.665   5.717 -0.8005  0.5820  1.1915
14485SOL    HW244506   7.555   4.526   5.663  4.6979  0.3726 -1.8178
14486SOL     OW44507   2.521   6.936   6.278  0.6629 -0.5434  0.0848
14486SOL    HW144508   2.464   6.934   6.201  1.5037  0.6504 -0.6068
14486SOL    HW244509   2.461   6.931   6.352 -0.3413  0.4181 -0.6318
14487SOL     OW44510   1.159   0.281   2.988 -0.3207 -0.6213 -0.0226
14487SOL    HW144511   1.182   0.330   3.067  0.4766 -2.2254  0.7699
14487SOL    HW244512   1.232   0.297   2.928  0.9389 -2.3719  0.9681
14488SOL     OW44513   6.959   4.854   3.198  0.6352 -0.3513  0.5118
14488SOL    HW144514   6.863   4.860   3.199  0.6524  0.4702  2.6119
14488SOL    HW244515   6.978   4.770   3.157 -0.9857 -0.6034  0.2187
14489SOL     OW44516   6.842   3.860   6.000  0.0493 -0.4232  0.0382
14489SOL    HW144517   6.810   3.951   5.998  0.7138 -0.1422 -3.2836
14489SOL    HW244518   6.870   3.847   6.091 -0.8560  2.3999  0.8349
14490SOL     OW44519   0.356   6.694   0.015  0.1642  0.5175 -0.2413
14490SOL    HW144520   0.273   6.680  -0.030 -0.7470  0.8267  1.2874
14490SOL    HW244521   0.342   6.662   0.104  1.8057  0.2409 -0.0394
14491SOL     OW44522   6.577   2.351   1.203 -0.0661 -0.5647  0.1322
14491SOL    HW144523   6.504   2.320   1.257 -0.0958  0.4521  0.7003
14491SOL    HW244524   6.538   2.418   1.146  0.1591 -0.9702 -0.5175
14492SOL     OW44525   4.666   5.006   1.816  0.3040 -0.4127  0.1586
14492SOL    HW144526   4.760   5.002   1.832  0.5040  2.2510  0.1732
14492SOL    HW244527   4.628   5.022   1.902 -0.1613 -1.2776  0.1212
14493SOL     OW44528   5.174   5.567   2.818  0.0915  0.5745  0.0051
14493SOL    HW144529   5.122   5.487   2.811 -0.1614  0.6597  0.8138
14493SOL    HW244530   5.119   5.636   2.780  0.4211  0.3315 -0.9468
14494SOL     OW44531   4.090   6.355   4.969 -0.7020  0.3511  0.1652
14494SOL    HW144532   4.155   6.424   4.982 -0.0791 -0.2749  0.4093
14494SOL    HW244533   4.091   6.339   4.875  1.3408 -1.3929  0.4219
14495SOL     OW44534   2.039   0.440   0.740  0.3817 -0.2009  0.0530
14495SOL    HW144535   2.100   0.372   0.709  1.8255  1.2578 -0.4335
14495SOL    HW244536   2.065   0.456   0.831 -0.9489 -1.3258  0.6634
14496SOL     OW44537   1.808   7.210   3.847 -0.2492 -0.3754 -0.1235
14496SOL    HW144538   1.811   7.142   3.914 -0.9174  2.4636  3.0592
14496SOL    HW244539   1.721   7.248   3.856 -0.2723  0.2790 -2.5373
14497SOL     OW44540   5.357   6.330   0.155 -0.6060  0.6242 -0.1715
14497SOL    HW144541   5.365   6.424   0.173  0.5057  0.1039  2.6847
14497SOL    HW244542   5.302   6.297   0.226 -2.1787 -0.7328 -1.9325
14498SOL     OW44543   2.768   6.561   3.938 -0.4038 -0.1862  0.3560
14498SOL    HW144544   2.808   6.637   3.979 -1.4954  1.8439 -2.0826
14498SOL    HW244545   2.840   6.520   3.889  0.0578 -0.4307  1.2161
14499SOL     OW44546   6.911   7.132   0.317  0.2718  0.4505  0.2492
14499SOL    HW144547   6.878   7.221   0.302  1.4155  0.5416 -2.1101
14499SOL    HW244548   7.006   7.142   0.323  0.3532 -0.5391  0.8277
14500SOL     OW44549   0.145   0.824   1.807  0.1783  0.0705  0.1326
14500SOL    HW144550   0.229   0.868   1.794  0.5954 -0.3891  1.2533
14500SOL    HW244551   0.122   0.791   1.720  2.1893 -1.6358  0.1779
14501SOL     OW44552   2.617   5.016   3.830  0.0042  0.0866  0.3267
14501SOL    HW144553   2.563   4.943   3.798 -0.6005  0.8412 -0.4310
14501SOL    HW244554   2.661   4.982   3.907 -1.7234 -0.5044  1.0988
14502SOL     OW44555   7.310   6.361   2.643 -0.1192  0.0117 -0.1023
14502SOL    HW144556   7.253   6.343   2.718 -2.9157 -0.1231 -2.0880
14502SOL    HW244557   7.359   6.439   2.668 -0.0445 -0.7109  2.2796
14503SOL     OW44558   1.596   3.826   0.812 -0.4722  0.9230  0.2524
14503SOL    HW144559   1.513   3.848   0.769 -1.1591  1.0677  1.6113
14503SOL    HW244560   1.615   3.737   0.782 -1.0945  0.9033 -0.1153
14504SOL     OW44561   3.462   7.659   0.410 -0.5641 -0.0367  0.0241
14504SOL    HW144562   3.512   7.736   0.434  0.3602 -0.1903 -1.2560
14504SOL    HW244563   3.380   7.693   0.374  0.3068  0.4668 -1.6247
14505SOL     OW44564   6.880   1.205   2.937 -0.3875 -0.1589 -0.2715
14505SOL    HW144565   6.842   1.269   2.876  0.1818 -0.1990 -0.6753
14505SOL    HW244566   6.873   1.121   2.892 -0.9632 -0.3625  0.1808
14506SOL     OW44567   5.364   3.450   5.653  0.1072 -0.3724  0.5832
14506SOL    HW144568   5.445   3.454   5.705  0.2339 -0.1850  0.3772
14506SOL    HW244569   5.336   3.541   5.645  0.5432 -0.3056 -0.3674
14507SOL     OW44570   7.511   0.053   4.030 -0.4548  0.3913  0.7615
14507SOL    HW144571   7.457   0.098   3.965 -1.0590  0.0623  1.0252
14507SOL    HW244572   7.484   0.091   4.113 -0.2580  0.2432  0.8943
14508SOL     OW44573   4.629   8.020   7.598 -0.5692  0.2499  0.1382
14508SOL    HW144574   4.706   8.008   7.543  1.0384 -0.0693  2.2942
14508SOL    HW244575   4.631   7.946   7.659 -2.3489  0.4777  0.5305
14509SOL     OW44576   4.040   5.776   7.543  0.2874  0.6431 -0.1393
14509SOL    HW144577   4.097   5.807   7.472  1.6137  0.5255  0.8411
14509SOL    HW244578   4.099   5.733   7.604 -0.8941  0.3742  0.8447
14510SOL     OW44579   0.720   5.099   4.133  1.0218 -0.3462  0.2085
14510SOL    HW144580   0.701   5.183   4.176  1.1705 -0.3217  0.2271
14510SOL    HW244581   0.641   5.079   4.084  0.1335 -1.2845  1.9359
14511SOL     OW44582   6.436   5.906   0.308 -0.3314  0.5196 -0.3649
14511SOL    HW144583   6.416   5.998   0.291 -1.5455  0.5270  0.9219
14511SOL    HW244584   6.352   5.867   0.330  0.3498 -0.6043  0.3664
14512SOL     OW44585   7.939   3.368   5.212  0.2403  0.0933  0.7136
14512SOL    HW144586   7.857   3.358   5.261 -0.1153  0.4807  0.2083
14512SOL    HW244587   8.001   3.401   5.276 -0.3922  1.2437  0.7792
14513SOL     OW44588   1.699   4.912   7.694 -0.0491 -0.3941  0.0370
14513SOL    HW144589   1.773   4.957   7.653  0.4364 -0.6000  0.6693
14513SOL    HW244590   1.671   4.848   7.629  1.8199 -1.9160  0.6461
14514SOL     OW44591   4.377   7.106   2.062 -0.5059  0.2679  0.2248
14514SOL    HW144592   4.360   7.041   1.994 -1.0860  0.7937 -0.1386
14514SOL    HW244593   4.438   7.063   2.122 -1.8508 -1.0738  0.6777
14515SOL     OW44594   1.130   5.757   0.342  0.3463  0.0220  0.0290
14515SOL    HW144595   1.156   5.690   0.279 -1.0636  0.4115 -1.0147
14515SOL    HW244596   1.135   5.714   0.427  0.7820 -0.9883 -0.4962
14516SOL     OW44597   6.141   1.312   2.055  0.5255 -0.8471 -0.1753
14516SOL    HW144598   6.109   1.227   2.085  2.6482 -1.4853  0.4910
14516SOL    HW244599   6.092   1.376   2.105 -0.2180 -1.7218  0.2379
14517SOL     OW44600   6.829   0.698   2.891 -0.3178 -0.5927 -0.2291
14517SOL    HW144601   6.773   0.667   2.962  0.5485 -1.1356  0.2457
14517SOL    HW244602   6.786   0.670   2.811 -0.9382 -0.6121  0.1087
14518SOL     OW44603   0.618   6.289   1.870 -0.1836  0.2991  0.5404
14518SOL    HW144604   0.602   6.372   1.824 -0.3115  0.4625  0.8785
14518SOL    HW244605   0.537   6.271   1.917 -0.6251 -0.6721 -0.5339
14519SOL     OW44606   4.063   6.912   5.169  0.4470  0.2002  0.2623
14519SOL    HW144607   3.973   6.929   5.197  1.1418  0.8649  2.2596
14519SOL    HW244608   4.090   6.992   5.124 -0.1998 -0.3212 -1.1121
14520SOL     OW44609   1.223   0.423   7.441 -0.1193  0.0304 -0.0964
14520SOL    HW144610   1.232   0.505   7.391 -1.1788 -0.3653 -0.9846
14520SOL    HW244611   1.167   0.368   7.386 -0.3594 -0.8673  1.0139
14521SOL     OW44612   6.283   2.545   1.505  0.1701  0.3032 -0.1823
14521SOL    HW144613   6.292   2.461   1.460  0.6142 -1.2281  2.5029
14521SOL    HW244614   6.367   2.588   1.495  1.0919 -1.0958  1.0570
14522SOL     OW44615   5.234   6.152   1.705 -0.3487 -0.0151  0.0299
14522SOL    HW144616   5.274   6.208   1.773 -0.2381  0.6261 -0.5500
14522SOL    HW244617   5.260   6.063   1.729  1.1831  0.3485 -0.1532
14523SOL     OW44618   6.323   0.202   7.071 -0.1449  0.3476  0.9541
14523SOL    HW144619   6.339   0.142   7.143  0.2841 -0.8576 -0.1208
14523SOL    HW244620   6.282   0.148   7.003 -1.9121  1.7556  0.8107
14524SOL     OW44621   5.101   1.187   0.134 -0.3394 -0.2134  0.0093
14524SOL    HW144622   5.053   1.202   0.052 -1.6649  0.4499  0.8855
14524SOL    HW244623   5.162   1.260   0.140 -0.0519 -0.4033 -0.5000
14525SOL     OW44624   3.601   1.094   0.942 -0.2038  0.5050 -0.0989
14525SOL    HW144625   3.508   1.072   0.949 -0.5442  2.4267  2.7052
14525SOL    HW244626   3.646   1.024   0.989 -0.1611 -0.3704 -1.3703
14526SOL     OW44627   5.223   3.452   6.764  0.2101 -0.0597 -0.1748
14526SOL    HW144628   5.302   3.430   6.813 -1.1692 -0.5103  1.9378
14526SOL    HW244629   5.211   3.546   6.778  0.5974  0.1084 -0.8957
14527SOL     OW44630   7.118   5.544   0.728  0.1439  0.1264 -0.0098
14527SOL    HW144631   7.114   5.509   0.817 -1.1105  0.4005  0.0548
14527SOL    HW244632   7.142   5.636   0.738 -1.9454  0.6950  0.2189
14528SOL     OW44633   0.669   7.105   2.499  0.4945  0.2812 -0.2499
14528SOL    HW144634   0.737   7.080   2.562  1.8257  0.8122 -1.4265
14528SOL    HW244635   0.694   7.192   2.469 -1.6319  1.2109  0.4805
14529SOL     OW44636   3.863   3.656   1.180 -0.4145 -0.1591  0.1249
14529SOL    HW144637   3.917   3.585   1.143  1.3812  0.4469  1.4432
14529SOL    HW244638   3.889   3.734   1.131  1.5252  0.5311  2.1041
14530SOL     OW44639   0.231   5.563   7.098 -0.2908 -0.2086 -0.7353
14530SOL    HW144640   0.183   5.481   7.100  1.3907 -1.2584 -1.5090
14530SOL    HW244641   0.226   5.596   7.188  0.1085 -1.8261 -0.0862
14531SOL     OW44642   0.462   0.048   6.744 -0.2004 -0.2489 -0.6368
14531SOL    HW144643   0.550   0.010   6.751 -0.4699 -0.5563  1.9273
14531SOL    HW244644   0.430   0.019   6.659  2.0155 -0.4463 -1.4698
14532SOL     OW44645   4.870   7.873   3.754  0.7204  0.0221  0.5932
14532SOL    HW144646   4.852   7.967   3.760 -0.5101 -0.1057 -0.6013
14532SOL    HW244647   4.792   7.837   3.711  1.4600 -1.4492  0.4486
14533SOL     OW44648   0.746   7.218   6.517  0.0621  0.1989 -0.2909
14533SOL    HW144649   0.777   7.127   6.521  1.1296  0.4771 -1.6676
14533SOL    HW244650   0.650   7.210   6.520  0.0682 -1.1237 -1.9551
14534SOL     OW44651   4.513   4.819   6.812  0.4041  0.0746 -0.0786
14534SOL    HW144652   4.593   4.807   6.863 -0.0141 -0.0235  0.5770
14534SOL    HW244653   4.444   4.783   6.868 -0.5334  2.8475  0.7051
14535SOL     OW44654   4.710   6.104   1.312 -0.1897 -0.1883 -0.0916
14535SOL    HW144655   4.701   6.076   1.221 -1.4183 -0.7327  0.1800
14535SOL    HW244656   4.620   6.112   1.344  0.2167  0.3703  0.9696
14536SOL     OW44657   3.100   3.688   8.078  0.2397 -0.2435  0.2026
14536SOL    HW144658   3.184   3.650   8.050  1.5499  2.0315  0.6970
14536SOL    HW244659   3.125   3.771   8.120 -2.3036  0.6766  0.0668
14537SOL     OW44660   2.311   8.066   3.463 -0.0890  0.0222  0.0283
14537SOL    HW144661   2.329   7.972   3.467  3.0971  0.5614  1.3906
14537SOL    HW244662   2.270   8.086   3.547 -0.8797 -0.1609 -0.3115
14538SOL     OW44663   1.649   0.069   5.012 -0.3022 -0.0429  0.4614
14538SOL    HW144664   1.656  -0.002   5.076 -1.0197  1.5745  2.4216
14538SOL    HW244665   1.555   0.077   4.994 -0.3892  1.3415  1.4044
14539SOL     OW44666   5.171   0.206   6.294 -0.4011  0.2658 -0.1059
14539SOL    HW144667   5.264   0.225   6.305 -0.1745 -1.2994  1.0017
14539SOL    HW244668   5.129   0.293   6.290  1.0496  0.9820 -0.3019
14540SOL     OW44669   4.511   6.561   2.634  0.1675  0.3473  0.7394
14540SOL    HW144670   4.597   6.572   2.675  0.2207  0.8174  0.5068
14540SOL    HW244671   4.473   6.485   2.678  0.0809  1.0521  1.8950
14541SOL     OW44672   5.532   6.119   3.870 -0.1206 -0.0208 -0.2260
14541SOL    HW144673   5.581   6.178   3.813  1.5467 -0.5797  0.5495
14541SOL    HW244674   5.561   6.031   3.843 -2.0172 -0.4920 -0.8876
14542SOL     OW44675   3.232   6.947   0.413  0.3771  0.2644 -0.1957
14542SOL    HW144676   3.219   7.041   0.401  0.6670  0.3396  0.0809
14542SOL    HW244677   3.302   6.941   0.477 -0.7352 -0.1276  1.0298
14543SOL     OW44678   6.317   0.766   0.539 -0.4696 -0.2342 -0.6516
14543SOL    HW144679   6.356   0.795   0.622 -1.0754  1.0390 -0.7839
14543SOL    HW244680   6.305   0.672   0.550  0.2712 -0.2303  0.3689
14544SOL     OW44681   5.649   4.779   4.997 -0.1068 -0.6751 -0.4787
14544SOL    HW144682   5.635   4.750   4.907  0.9433  1.6501 -1.4774
14544SOL    HW244683   5.729   4.831   4.993 -0.2610 -0.1896  1.7236
14545SOL     OW44684   7.203   2.463   4.715 -0.0419  0.3665  0.5741
14545SOL    HW144685   7.160   2.431   4.795 -2.2718  1.7373  0.0291
14545SOL    HW244686   7.148   2.536   4.687  1.1354  0.4136 -1.8131
14546SOL     OW44687   3.645   7.353   4.558 -0.1544  0.8912 -0.9279
14546SOL    HW144688   3.565   7.406   4.562 -0.5068  0.3659 -0.9517
14546SOL    HW244689   3.622   7.272   4.603 -0.0097  0.2614 -1.9596
14547SOL     OW44690   2.857   4.964   4.656 -0.3520  0.2968 -0.0658
14547SOL    HW144691   2.933   5.011   4.691 -1.4502  1.5907  0.6404
14547SOL    HW244692   2.813   4.928   4.733 -0.4860 -0.4501 -0.4735
14548SOL     OW44693   2.164   7.871   7.141  0.2276  0.3612 -0.1278
14548SOL    HW144694   2.086   7.903   7.188 -0.3871 -0.8136 -0.3027
14548SOL    HW244695   2.152   7.902   7.052  0.5854  1.2257  0.1163
14549SOL     OW44696   6.373   1.328   0.570  0.4380 -0.2694  0.7252
14549SOL    HW144697   6.430   1.251   0.565 -2.1229 -2.2478  0.3896
14549SOL    HW244698   6.381   1.370   0.484  1.5183 -0.3619  0.7625
14550SOL     OW44699   2.781   0.422   0.433  0.7525  0.4267  0.3125
14550SOL    HW144700   2.764   0.328   0.428  3.6390 -0.1794  0.1398
14550SOL    HW244701   2.798   0.449   0.343 -0.4053  1.2302  0.3125
14551SOL     OW44702   5.739   6.865   5.402 -0.3979  0.3828  0.3018
14551SOL    HW144703   5.671   6.804   5.429  1.1625 -1.7299 -0.3549
14551SOL    HW244704   5.741   6.860   5.307  1.8610 -1.0184  0.3613
14552SOL     OW44705   1.580   4.488   3.472  0.0552 -0.5405  0.3106
14552SOL    HW144706   1.518   4.489   3.545  0.8068  1.5252  0.9675
14552SOL    HW244707   1.608   4.396   3.467 -1.6393 -1.1567  1.1756
14553SOL     OW44708   4.990   2.318   7.468  0.1418 -0.1491 -0.2421
14553SOL    HW144709   5.019   2.396   7.516 -0.5105  1.9344 -3.0116
14553SOL    HW244710   5.069   2.286   7.424  0.3396 -0.9120  0.6307
14554SOL     OW44711   4.122   3.528   1.002 -0.7164 -0.4234 -0.5914
14554SOL    HW144712   4.077   3.456   1.046 -0.0338 -1.5659 -1.6760
14554SOL    HW244713   4.089   3.525   0.912 -0.5836  0.5421 -0.6807
14555SOL     OW44714   2.239   0.397   2.088  0.1705  0.3106  0.2210
14555SOL    HW144715   2.158   0.363   2.127 -0.1538 -0.5529 -1.1290
14555SOL    HW244716   2.278   0.321   2.044  0.1618  1.3623 -1.6957
14556SOL     OW44717   2.830   2.750   3.746  0.1150 -0.2188  0.1345
14556SOL    HW144718   2.914   2.758   3.701  0.6864 -0.8290  1.0436
14556SOL    HW244719   2.849   2.777   3.836 -1.3619  2.6167 -0.2823
14557SOL     OW44720   2.154   5.179   2.780 -0.2688 -0.0850  0.9402
14557SOL    HW144721   2.143   5.171   2.875 -1.6608 -0.3812  0.7688
14557SOL    HW244722   2.158   5.089   2.749 -0.6599  0.0101  0.6212
14558SOL     OW44723   5.965   7.363   2.569 -0.4691  0.0303  0.5756
14558SOL    HW144724   6.051   7.404   2.563  0.1416 -1.3885 -1.4554
14558SOL    HW244725   5.980   7.282   2.618 -0.9532  0.4637  1.4603
14559SOL     OW44726   7.356   4.361   7.983  0.0321  0.4166  0.3765
14559SOL    HW144727   7.452   4.364   7.987  0.0637  0.4969 -0.2714
14559SOL    HW244728   7.330   4.310   8.060  0.6991 -1.4842 -0.6005
14560SOL     OW44729   3.186   0.858   6.897 -0.2831  0.1133 -0.0787
14560SOL    HW144730   3.179   0.846   6.802 -0.8686  0.7679 -0.1212
14560SOL    HW244731   3.212   0.950   6.907 -1.5086  0.4093  0.4377
14561SOL     OW44732   6.477   4.998   6.189 -0.2385  0.2817  0.5067
14561SOL    HW144733   6.572   5.002   6.200 -0.3226  1.7919  0.8802
14561SOL    HW244734   6.450   4.922   6.240  0.6683  0.4169  1.2093
14562SOL     OW44735   4.010   6.034   3.353  0.3937  0.2085 -0.6151
14562SOL    HW144736   3.975   5.982   3.426  1.7987 -0.7240 -0.5647
14562SOL    HW244737   3.933   6.068   3.309 -0.5170 -0.0234  0.7295
14563SOL     OW44738   3.240   3.526   0.225  0.0340  0.7909  0.5061
14563SOL    HW144739   3.206   3.442   0.255 -0.5360  0.9756  0.3777
14563SOL    HW244740   3.332   3.508   0.204 -0.0110  0.2682  0.7497
14564SOL     OW44741   5.763   5.229   7.260 -0.3608  0.0205  0.2434
14564SOL    HW144742   5.811   5.301   7.219 -3.8427  0.5376 -3.6102
14564SOL    HW244743   5.751   5.256   7.350  0.5063  3.1460 -0.4667
14565SOL     OW44744   7.436   2.118   0.913  0.4419  0.7315  0.3248
14565SOL    HW144745   7.401   2.125   0.824  1.8779  1.4009 -0.2216
14565SOL    HW244746   7.525   2.084   0.901 -0.1031 -1.3266  1.6906
14566SOL     OW44747   4.596   0.429   1.454 -0.5835  0.5785  0.5438
14566SOL    HW144748   4.619   0.378   1.377 -1.0797 -1.1514  1.5026
14566SOL    HW244749   4.542   0.501   1.421 -0.3018  0.1966 -0.7710
14567SOL     OW44750   8.248   4.826   4.927  0.6653 -0.4931 -0.1520
14567SOL    HW144751   8.199   4.748   4.954 -1.8930  1.3460  0.9150
14567SOL    HW244752   8.261   4.814   4.833 -2.2268 -1.0011 -0.5760
14568SOL     OW44753   0.385   0.248   2.336 -0.0144  0.0322 -0.6767
14568SOL    HW144754   0.316   0.315   2.340  0.2490  0.2352  1.0658
14568SOL    HW244755   0.456   0.284   2.389  0.5470 -1.1598 -0.6021
14569SOL     OW44756   7.610   6.895   4.250  0.0108  0.0570  0.4788
14569SOL    HW144757   7.518   6.905   4.228 -0.5353 -0.5956  2.3074
14569SOL    HW244758   7.643   6.830   4.187 -0.9255 -0.1790  0.2199
14570SOL     OW44759   4.439   7.630   1.881 -0.0956  0.0759 -0.3155
14570SOL    HW144760   4.344   7.636   1.891  0.0389  1.1166  0.5679
14570SOL    HW244761   4.453   7.547   1.835 -1.4282 -0.0639 -0.5185
14571SOL     OW44762   4.199   0.604   5.086 -0.5005  0.2037  0.3807
14571SOL    HW144763   4.213   0.691   5.049 -0.9017  0.0871 -0.0469
14571SOL    HW244764   4.128   0.567   5.034  1.4026 -1.4124 -1.1961
14572SOL     OW44765   1.697   0.701   3.460  0.1104  0.2199 -0.1605
14572SOL    HW144766   1.619   0.719   3.409 -0.5180 -0.8347  0.3758
14572SOL    HW244767   1.727   0.786   3.491 -1.9231  0.5032  1.1787
14573SOL     OW44768   3.704   7.205   6.225  0.2531  0.2796 -0.0346
14573SOL    HW144769   3.660   7.169   6.148 -2.7858  1.5437  0.9715
14573SOL    HW244770   3.729   7.127   6.276 -0.1071 -0.5121 -1.0278
14574SOL     OW44771   4.080   3.851   4.012  0.0637 -0.0547 -0.5630
14574SOL    HW144772   4.065   3.799   4.091  0.3073 -1.2296 -1.2695
14574SOL    HW244773   3.993   3.881   3.986  0.0490  0.8554  0.4794
14575SOL     OW44774   4.642   7.366   6.708  0.1030  0.1452 -0.0653
14575SOL    HW144775   4.592   7.362   6.627  0.1201 -1.9175 -0.0289
14575SOL    HW244776   4.698   7.288   6.705  0.2669  0.1554  1.8298
14576SOL     OW44777   0.584   4.204   0.458  0.1360 -0.1881 -0.0814
14576SOL    HW144778   0.640   4.153   0.516  0.2813 -0.8376 -0.7887
14576SOL    HW244779   0.644   4.263   0.413  0.2273 -0.7318 -0.6776
14577SOL     OW44780   0.372   4.191   6.661 -0.4986  0.0731 -0.4330
14577SOL    HW144781   0.285   4.153   6.673 -0.2906 -0.2026  0.2848
14577SOL    HW244782   0.356   4.286   6.660 -0.7653  0.0404  0.1432
14578SOL     OW44783   7.188   4.771   6.207  0.5427 -0.0612 -0.2593
14578SOL    HW144784   7.105   4.804   6.174  0.5209  2.0574  1.6776
14578SOL    HW244785   7.170   4.745   6.297  1.7484 -0.6191 -0.1557
14579SOL     OW44786   6.957   7.158   7.260  0.3193 -0.7815 -0.3625
14579SOL    HW144787   7.022   7.088   7.258  0.4020 -0.7212 -2.4853
14579SOL    HW244788   7.001   7.231   7.303  0.9624 -1.3810  0.0026
14580SOL     OW44789   2.233   3.775   1.030  0.3307 -0.5881 -0.1641
14580SOL    HW144790   2.213   3.698   1.082 -0.9639 -0.7502 -0.8660
14580SOL    HW244791   2.325   3.764   1.005  0.4682 -1.3434  0.6460
14581SOL     OW44792   1.322   7.107   0.112  0.4896  0.0224  0.0640
14581SOL    HW144793   1.262   7.169   0.069  0.6753  0.3394  0.2593
14581SOL    HW244794   1.267   7.031   0.132  0.3066  0.0387 -0.3616
14582SOL     OW44795   6.551   0.133   3.713 -0.5930 -0.2116  0.4020
14582SOL    HW144796   6.506   0.088   3.784  0.2596 -0.3591  0.8628
14582SOL    HW244797   6.594   0.207   3.756  0.8100 -0.9063  0.2412
14583SOL     OW44798   0.713   0.114   0.327 -0.3049 -0.0618 -0.3998
14583SOL    HW144799   0.716   0.111   0.231  1.6211 -0.2855 -0.3779
14583SOL    HW244800   0.805   0.114   0.353 -0.7472  1.6362  1.4165
14584SOL     OW44801   3.925   3.185   6.762  0.0686 -0.5442 -0.0434
14584SOL    HW144802   3.982   3.222   6.694 -1.1421 -0.1877 -0.8938
14584SOL    HW244803   3.842   3.169   6.717  0.3009 -3.7268  0.4171
14585SOL     OW44804   3.500   0.989   1.385 -0.0260  0.1973  0.6475
14585SOL    HW144805   3.457   0.989   1.471 -1.3700  0.8018  0.0079
14585SOL    HW244806   3.428   0.995   1.322  1.0195  1.6493 -0.4729
14586SOL     OW44807   5.195   5.429   5.181  0.4162  0.0125  0.3758
14586SOL    HW144808   5.133   5.501   5.187  1.2135  0.7675 -0.3229
14586SOL    HW244809   5.150   5.363   5.127 -0.4365 -0.1788  1.2805
14587SOL     OW44810   2.089   1.181   2.147 -0.3515 -0.2160 -0.0607
14587SOL    HW144811   2.137   1.258   2.178 -1.0182  0.1329  0.1266
14587SOL    HW244812   2.098   1.117   2.218  2.3284 -1.2821 -1.2344
14588SOL     OW44813   6.569   2.707   4.122  0.1519 -0.5240 -0.1706
14588SOL    HW144814   6.610   2.772   4.178 -2.4854  0.4412  0.8065
14588SOL    HW244815   6.564   2.628   4.175 -1.1938  0.0202  0.5675
14589SOL     OW44816   7.978   3.723   1.527  0.4214 -0.0929  0.0014
14589SOL    HW144817   7.887   3.749   1.541 -0.0529 -1.8511  0.4071
14589SOL    HW244818   7.986   3.714   1.432 -0.0166 -0.5057 -0.0004
14590SOL     OW44819   5.421   0.127   0.227 -0.8112  0.0300  0.0306
14590SOL    HW144820   5.371   0.161   0.153 -1.0514  0.7480  0.5108
14590SOL    HW244821   5.513   0.138   0.202 -0.8910  0.1382 -0.2163
14591SOL     OW44822   2.820   6.489   8.183 -0.1088  0.2375 -0.5550
14591SOL    HW144823   2.796   6.451   8.099  0.0724 -1.8057  0.2570
14591SOL    HW244824   2.916   6.491   8.182 -0.1189  0.7313 -0.6150
14592SOL     OW44825   5.651   7.490   2.282 -0.6841 -0.2078 -0.2457
14592SOL    HW144826   5.616   7.571   2.247 -0.8605 -0.1280  0.1102
14592SOL    HW244827   5.736   7.480   2.240  0.1676  1.1091  1.0584
14593SOL     OW44828   7.933   1.026   5.482 -0.5429 -0.1560 -0.1958
14593SOL    HW144829   8.006   1.053   5.537 -1.1332  1.9433 -0.3614
14593SOL    HW244830   7.971   0.966   5.419  1.2525  1.5468 -0.8155
14594SOL     OW44831   4.756   2.093   2.643  0.3749 -0.6332  0.3645
14594SOL    HW144832   4.688   2.026   2.652  1.0347 -1.4644 -0.5855
14594SOL    HW244833   4.809   2.063   2.569  1.8117 -0.0506  1.1287
14595SOL     OW44834   7.727   3.624   5.252  0.0167 -0.9866  0.0996
14595SOL    HW144835   7.802   3.636   5.195 -0.0491 -3.7029 -0.6771
14595SOL    HW244836   7.761   3.642   5.340  1.3280 -1.2123 -0.3386
14596SOL     OW44837   7.607   2.224   7.832 -0.1513 -0.3640 -0.1865
14596SOL    HW144838   7.689   2.180   7.809  0.5116  1.6788 -2.0826
14596SOL    HW244839   7.624   2.264   7.918  1.0057  0.3592 -0.7312
14597SOL     OW44840   0.659   7.454   4.815 -0.2155  0.5348  0.7432
14597SOL    HW144841   0.603   7.380   4.839 -0.6817  1.5859  3.1984
14597SOL    HW244842   0.734   7.414   4.770 -0.1938 -1.5156  2.4628
14598SOL     OW44843   6.359   3.527   6.327  0.0164 -0.0697 -0.1666
14598SOL    HW144844   6.345   3.563   6.239  0.1826  2.4959  0.7767
14598SOL    HW244845   6.385   3.436   6.312 -0.7760  0.0493 -2.7158
14599SOL     OW44846   7.472   2.168   7.403 -0.4091  0.2796 -0.6757
14599SOL    HW144847   7.424   2.251   7.407 -0.4226  0.2615 -0.4400
14599SOL    HW244848   7.514   2.161   7.489 -2.2895 -1.0963  0.2145
14600SOL     OW44849   3.079   2.013   2.157 -0.1930 -0.4371  0.4377
14600SOL    HW144850   3.167   1.982   2.137 -0.6127 -1.5648  0.2582
14600SOL    HW244851   3.035   2.018   2.072  0.0593  1.3254  0.3904
14601SOL     OW44852   8.250   3.910   6.214 -0.3205 -0.2508 -0.7695
14601SOL    HW144853   8.322   3.967   6.242  0.2412  0.6374 -3.6180
14601SOL    HW244854   8.292   3.828   6.191 -0.8093 -1.0702  1.0920
14602SOL     OW44855   6.365   7.503   7.139  0.2967 -0.1635  0.4869
14602SOL    HW144856   6.347   7.496   7.045  1.2681 -2.2502  0.4007
14602SOL    HW244857   6.384   7.413   7.167 -0.1799  0.3732  2.7392
14603SOL     OW44858   2.803   6.130   2.694  0.4168 -0.4775 -0.4635
14603SOL    HW144859   2.898   6.136   2.704  0.4148 -0.1487 -0.6419
14603SOL    HW244860   2.781   6.194   2.627 -0.0473  0.1863  0.3009
14604SOL     OW44861   6.018   5.479   3.807 -0.4450 -0.1569 -0.2604
14604SOL    HW144862   6.089   5.521   3.759  0.4139 -0.9080  0.3046
14604SOL    HW244863   5.981   5.415   3.745 -0.7658  0.3706 -0.6195
14605SOL     OW44864   4.730   6.634   2.053  0.1818 -0.3666 -0.7092
14605SOL    HW144865   4.769   6.573   1.990 -0.2868  1.6859 -3.1855
14605SOL    HW244866   4.638   6.607   2.060  0.3207 -0.8163 -0.6472
14606SOL     OW44867   7.404   0.832   4.743  0.3565 -0.1377  0.7437
14606SOL    HW144868   7.367   0.744   4.749  2.6364 -1.0985  1.8407
14606SOL    HW244869   7.483   0.829   4.798  1.7777  1.8913 -1.0115
14607SOL     OW44870   4.315   1.527   0.374  0.1424 -0.0481 -0.0242
14607SOL    HW144871   4.313   1.432   0.390 -0.2250 -0.2249 -1.0120
14607SOL    HW244872   4.399   1.541   0.331 -0.1397 -0.0628 -0.5936
14608SOL     OW44873   7.828   5.189   1.642  0.6717  0.1443 -0.7257
14608SOL    HW144874   7.811   5.276   1.604  1.7007  0.7312  0.1010
14608SOL    HW244875   7.743   5.160   1.673  0.7225  2.1253  1.5546
14609SOL     OW44876   6.542   2.225   4.421 -0.5304  0.5861 -0.0306
14609SOL    HW144877   6.477   2.170   4.379 -1.0743  1.8725 -0.9360
14609SOL    HW244878   6.537   2.202   4.514 -0.7234 -0.8739 -0.3864
14610SOL     OW44879   3.455   2.132   6.902 -0.0841  0.0723  0.2212
14610SOL    HW144880   3.543   2.098   6.892 -0.7557 -1.9637  0.7813
14610SOL    HW244881   3.406   2.096   6.829 -0.1970  2.3455 -0.9203
14611SOL     OW44882   3.447   2.797   0.718 -0.2463  0.2234 -0.3335
14611SOL    HW144883   3.541   2.790   0.730 -0.4351 -1.2418  0.4687
14611SOL    HW244884   3.434   2.793   0.623  0.4521 -0.2421 -0.4131
14612SOL     OW44885   1.814   2.830   3.015 -0.2716  0.1833 -0.3408
14612SOL    HW144886   1.730   2.853   2.975 -0.0343  2.0064  0.0917
14612SOL    HW244887   1.875   2.827   2.941 -0.2125  1.5991 -0.3844
14613SOL     OW44888   3.487   4.804   6.408 -0.0755  0.3243 -0.1987
14613SOL    HW144889   3.437   4.761   6.478  0.4356  0.7329  0.4317
14613SOL    HW244890   3.429   4.875   6.379 -1.5431 -1.5714 -2.2336
14614SOL     OW44891   2.732   3.126   7.438 -0.0102  0.3656 -0.2567
14614SOL    HW144892   2.664   3.078   7.391  1.4962 -1.3604 -0.7622
14614SOL    HW244893   2.686   3.164   7.514 -1.3865 -1.4065 -0.1360
14615SOL     OW44894   1.342   1.628   1.311  0.6553  0.0980 -0.3748
14615SOL    HW144895   1.320   1.623   1.218  0.0233 -2.0197 -0.1688
14615SOL    HW244896   1.418   1.686   1.314  1.1281 -0.3277 -2.2971
14616SOL     OW44897   4.168   8.246   2.096  0.3088  0.1379 -0.2172
14616SOL    HW144898   4.124   8.164   2.071  0.4928 -0.1866  0.5049
14616SOL    HW244899   4.116   8.315   2.055  0.3452 -0.3492 -1.1248
14617SOL     OW44900   2.386   1.294   4.680 -0.1315 -0.3366  0.0500
14617SOL    HW144901   2.472   1.253   4.692 -0.0824  0.1139  1.4587
14617SOL    HW244902   2.330   1.223   4.650  0.6802 -0.6753 -0.7276
14618SOL     OW44903   7.004   1.900   2.402 -0.1761 -0.4138  0.1957
14618SOL    HW144904   7.058   1.884   2.325 -0.1700 -2.0129  0.4994
14618SOL    HW244905   6.926   1.845   2.388 -0.9779  0.5983  0.5355
14619SOL     OW44906   1.055   5.236   5.794  0.5568 -0.7999 -0.1380
14619SOL    HW144907   1.025   5.285   5.871  1.6779 -0.9303  0.4071
14619SOL    HW244908   0.977   5.226   5.740  0.4195  2.2771 -0.6741
14620SOL     OW44909   4.717   6.883   7.157  0.7007  0.4595  0.2096
14620SOL    HW144910   4.643   6.827   7.180  1.4522 -0.9555 -0.6887
14620SOL    HW244911   4.734   6.934   7.237  0.2410 -0.8712  1.1853
14621SOL     OW44912   2.289   4.371   5.332  0.2249 -0.2656  0.1106
14621SOL    HW144913   2.374   4.398   5.366 -0.0156  0.1655  0.3732
14621SOL    HW244914   2.295   4.387   5.237  1.2017 -2.2802 -0.2235
14622SOL     OW44915   5.775   0.609   1.010 -0.1007  0.0841  0.3904
14622SOL    HW144916   5.794   0.694   1.050  0.6241 -0.0011  0.2450
14622SOL    HW244917   5.815   0.614   0.923 -1.8337  0.3470 -0.4317
14623SOL     OW44918   6.374   5.964   4.755 -0.0605 -0.1388  0.1916
14623SOL    HW144919   6.381   5.990   4.847  0.0545 -0.0908  0.1692
14623SOL    HW244920   6.280   5.965   4.737 -0.1600 -1.1610  0.6029
14624SOL     OW44921   5.834   0.304   6.519  0.6671 -0.2702 -0.6835
14624SOL    HW144922   5.885   0.288   6.598 -1.4101 -1.2399  0.5325
14624SOL    HW244923   5.791   0.388   6.535  1.7342  0.4976 -1.6644
14625SOL     OW44924   7.047   5.791   7.652 -0.2748  0.0817 -0.2866
14625SOL    HW144925   7.010   5.759   7.734  0.9260  1.0018  0.6505
14625SOL    HW244926   7.007   5.877   7.639  0.0988  0.2622 -0.2629
14626SOL     OW44927   2.521   0.051   4.135  0.3157 -0.1311 -0.2099
14626SOL    HW144928   2.492   0.045   4.044  1.9796 -0.6901 -0.7525
14626SOL    HW244929   2.555  -0.036   4.155 -2.2620 -0.7866  1.8244
14627SOL     OW44930   1.676   4.045   1.882  0.3095 -0.5270  0.4170
14627SOL    HW144931   1.595   4.002   1.858  0.4092 -1.5619  1.7718
14627SOL    HW244932   1.652   4.137   1.896 -0.1012 -0.2933 -1.5782
14628SOL     OW44933   3.500   7.145   7.606 -0.3080 -0.2726  0.2393
14628SOL    HW144934   3.429   7.081   7.593  0.1190 -0.6737 -0.1904
14628SOL    HW244935   3.558   7.131   7.531 -1.7936  2.7873 -1.6951
14629SOL     OW44936   2.645   5.209   1.082 -0.4993  0.0090  0.0754
14629SOL    HW144937   2.712   5.142   1.068 -1.2393 -0.6843 -0.2653
14629SOL    HW244938   2.650   5.266   1.006 -1.5349 -1.1445 -0.8940
14630SOL     OW44939   0.337   5.749   4.566 -0.8364  0.4047 -0.4256
14630SOL    HW144940   0.407   5.727   4.504  0.0714 -0.0731  0.7306
14630SOL    HW244941   0.331   5.673   4.623 -2.1635  0.5341 -0.3492
14631SOL     OW44942   1.393   1.601   0.799 -0.0325  0.9741 -0.4205
14631SOL    HW144943   1.367   1.691   0.818 -3.2107 -0.1094  0.9267
14631SOL    HW244944   1.413   1.602   0.705 -0.7472  2.9308 -0.6073
14632SOL     OW44945   0.932   2.958   2.980 -0.1380 -0.1850 -0.1754
14632SOL    HW144946   0.853   3.009   3.003 -1.3798  0.2924 -4.6292
14632SOL    HW244947   1.005   3.016   3.002 -1.1857  0.8465  0.7441
14633SOL     OW44948   0.270   3.682   0.204 -0.1617  0.1808  0.1423
14633SOL    HW144949   0.335   3.650   0.141  0.0328  0.7705  0.0443
14633SOL    HW244950   0.208   3.731   0.151 -0.9253 -0.7101  0.1736
14634SOL     OW44951   0.243   2.383   5.366  0.3371 -0.0950  0.3541
14634SOL    HW144952   0.197   2.309   5.406 -0.3294 -1.7785 -3.1675
14634SOL    HW244953   0.185   2.414   5.297  2.2254  1.2338 -0.7532
14635SOL     OW44954   3.328   7.155   1.840  0.2409 -0.1100 -0.0154
14635SOL    HW144955   3.401   7.210   1.811 -0.3414  0.0860 -1.1613
14635SOL    HW244956   3.277   7.139   1.761 -2.4317  1.9151  1.1633
14636SOL     OW44957   4.326   5.262   0.627 -0.0660 -0.2348  0.3265
14636SOL    HW144958   4.325   5.282   0.534 -0.3128 -0.7601  0.2129
14636SOL    HW244959   4.410   5.217   0.641 -0.0054 -0.1098  0.3679
14637SOL     OW44960   3.807   5.353   3.823 -0.0264  0.0544  0.2671
14637SOL    HW144961   3.878   5.400   3.781 -0.8509  0.8043 -0.3386
14637SOL    HW244962   3.739   5.346   3.755 -1.2789  1.0567  1.3569
14638SOL     OW44963   7.652   0.872   6.936  0.7768  0.1940 -0.0375
14638SOL    HW144964   7.736   0.894   6.976  1.0485 -0.6459 -0.1412
14638SOL    HW244965   7.602   0.829   7.006  0.2267  1.1391  0.1770
14639SOL     OW44966   0.750   2.334   1.545 -0.2965  0.0941  0.2007
14639SOL    HW144967   0.731   2.424   1.518 -2.5068 -1.1972 -3.2909
14639SOL    HW244968   0.671   2.305   1.590 -0.4343 -0.6779 -0.5143
14640SOL     OW44969   7.457   6.787   6.676  0.1439  0.2857  0.1305
14640SOL    HW144970   7.460   6.806   6.582  0.3676  0.1432  0.1079
14640SOL    HW244971   7.367   6.759   6.692  0.5554 -1.4674 -0.3982
14641SOL     OW44972   1.796   2.658   6.930 -0.5421 -0.0250  0.2005
14641SOL    HW144973   1.716   2.659   6.982 -1.7962  1.2542 -1.6516
14641SOL    HW244974   1.777   2.599   6.857  0.3682 -0.0519 -0.0364
14642SOL     OW44975   3.743   7.361   0.825  0.0660  0.3407 -0.3242
14642SOL    HW144976   3.822   7.402   0.790  0.8278  1.9516  2.9180
14642SOL    HW244977   3.774   7.280   0.866 -0.4945 -0.4496 -1.3753
14643SOL     OW44978   5.102   1.623   0.730  0.5301  0.1053  0.5518
14643SOL    HW144979   5.085   1.532   0.754 -0.6019  0.1991  0.1505
14643SOL    HW244980   5.140   1.619   0.642  1.4433 -0.0250  0.9375
14644SOL     OW44981   1.686   4.818   0.638  0.1019 -0.1651 -0.3020
14644SOL    HW144982   1.676   4.879   0.565 -1.2913 -0.5514 -0.4526
14644SOL    HW244983   1.622   4.750   0.621  0.4083 -0.7435  0.8058
14645SOL     OW44984   0.155   7.389   1.085  0.1868  0.1656 -0.0364
14645SOL    HW144985   0.076   7.436   1.112  0.4043  1.7029 -1.8933
14645SOL    HW244986   0.220   7.413   1.151 -0.4498  0.1738  0.6115
14646SOL     OW44987   3.070   1.070   1.581 -0.0510  0.3843  0.1824
14646SOL    HW144988   2.999   1.049   1.641 -0.7805  0.5077 -0.6194
14646SOL    HW244989   3.078   0.994   1.524 -2.1279  1.7688 -2.1731
14647SOL     OW44990   3.278   4.858   2.062 -0.0410 -0.2416 -0.3304
14647SOL    HW144991   3.312   4.912   1.991 -0.4021 -0.8459 -0.9930
14647SOL    HW244992   3.332   4.879   2.138  0.3746  0.4006 -0.7973
14648SOL     OW44993   6.238   4.889   0.079 -0.0267  0.2123  0.1211
14648SOL    HW144994   6.296   4.914   0.008 -0.7077  2.4207  0.2582
14648SOL    HW244995   6.189   4.814   0.046  0.3928  0.5609 -1.3407
14649SOL     OW44996   6.441   0.751   0.815  0.0149  0.2258  0.3479
14649SOL    HW144997   6.403   0.670   0.849 -1.5595 -0.3148 -2.4038
14649SOL    HW244998   6.529   0.726   0.786 -0.3637 -0.4959 -0.2382
14650SOL     OW44999   7.604   4.814   7.140 -0.1596  0.2097 -0.0058
14650SOL    HW145000   7.648   4.897   7.155  0.3543  0.0871 -0.7529
14650SOL    HW245001   7.537   4.833   7.075 -0.3531  0.1330  0.1694
14651SOL     OW45002   5.412   6.434   4.437  0.1922 -0.6568  0.0415
14651SOL    HW145003   5.382   6.421   4.347  1.0239 -1.6937 -0.1009
14651SOL    HW245004   5.504   6.407   4.436  1.2023  2.3659  0.4744
14652SOL     OW45005   3.081   3.672   6.302  0.3431 -0.2351 -0.0283
14652SOL    HW145006   3.090   3.764   6.328  1.3598  0.2254 -1.7804
14652SOL    HW245007   3.087   3.674   6.206 -1.0187 -1.9988 -0.2016
14653SOL     OW45008   4.422   5.414   7.386  0.0106  0.5110  0.5916
14653SOL    HW145009   4.376   5.470   7.323 -0.4041 -0.5339 -0.0536
14653SOL    HW245010   4.515   5.435   7.372 -0.0710  0.2687 -0.4157
14654SOL     OW45011   3.814   1.302   3.244  0.1530 -0.0201 -0.0227
14654SOL    HW145012   3.725   1.273   3.225 -0.1230  1.2846 -0.8622
14654SOL    HW245013   3.806   1.350   3.326 -0.7602  3.3574 -1.8572
14655SOL     OW45014   1.988   5.730   5.209  0.3728  0.3144 -0.1943
14655SOL    HW145015   1.980   5.639   5.179  1.8402 -0.3311  1.2030
14655SOL    HW245016   1.988   5.724   5.305 -0.3884  1.8989 -0.0657
14656SOL     OW45017   4.724   4.889   4.998  0.5754  0.6195 -0.1501
14656SOL    HW145018   4.782   4.879   5.073 -0.2375  0.4673  0.4780
14656SOL    HW245019   4.665   4.814   5.003  1.1420  0.0508 -1.5417
14657SOL     OW45020   6.074   6.264   0.295 -0.1076  0.1424 -0.0849
14657SOL    HW145021   6.010   6.317   0.248 -0.0762 -0.8142 -1.2426
14657SOL    HW245022   6.123   6.327   0.348  0.6620  1.4449 -2.2258
14658SOL     OW45023   1.896   7.447   3.985 -0.0417 -0.1558  0.0925
14658SOL    HW145024   1.987   7.445   3.954  0.4036  0.0947  1.3256
14658SOL    HW245025   1.889   7.372   4.044 -0.7110 -0.3217 -0.1994
14659SOL     OW45026   1.709   1.787   6.019 -0.0061 -0.2492 -0.1295
14659SOL    HW145027   1.679   1.818   6.105  0.1476  0.8149 -0.4423
14659SOL    HW245028   1.656   1.710   6.001 -0.7476  0.1041  0.4779
14660SOL     OW45029   0.214   7.579   3.528 -0.2144 -0.3524 -0.4632
14660SOL    HW145030   0.148   7.625   3.475 -0.2937  1.0894  0.8181
14660SOL    HW245031   0.273   7.540   3.463 -0.8841  0.4980 -1.6324
14661SOL     OW45032   6.086   7.988   0.433  0.2859 -0.1366  0.3506
14661SOL    HW145033   6.057   8.041   0.358  1.3398  0.0265  0.0528
14661SOL    HW245034   6.036   7.907   0.425 -0.1377  0.1619 -0.1160
14662SOL     OW45035   7.759   4.485   1.088  0.8548  0.0249 -0.3796
14662SOL    HW145036   7.726   4.420   1.026  1.3804 -1.5152  0.8858
14662SOL    HW245037   7.682   4.539   1.109 -0.0165 -1.2594 -0.1811
14663SOL     OW45038   7.269   1.011   7.710  0.0352  0.7909 -0.2473
14663SOL    HW145039   7.199   0.949   7.689 -0.9793  1.2705  1.5254
14663SOL    HW245040   7.350   0.964   7.693 -0.7130 -0.3203 -0.8316
14664SOL     OW45041   4.168   1.618   6.026  0.1285 -0.4297  0.1796
14664SOL    HW145042   4.230   1.608   6.098  0.3660 -2.7287 -0.2926
14664SOL    HW245043   4.208   1.683   5.969  0.3141  0.8423  1.6670
14665SOL     OW45044   4.161   0.186   2.489 -0.1522 -0.3912 -0.2256
14665SOL    HW145045   4.152   0.091   2.481  0.1281 -0.4253 -0.1415
14665SOL    HW245046   4.149   0.204   2.582 -0.2353 -0.3386 -0.2454
14666SOL     OW45047   0.893   0.719   4.727  0.3621 -0.2037  0.2297
14666SOL    HW145048   0.863   0.690   4.813 -2.1792 -1.0783 -0.8747
14666SOL    HW245049   0.849   0.803   4.713  1.3188  0.2884  0.0143
14667SOL     OW45050   2.349   0.355   6.881 -0.4493 -0.4486 -0.1208
14667SOL    HW145051   2.366   0.302   6.803  1.3706  0.6523 -0.5321
14667SOL    HW245052   2.302   0.296   6.940  0.3343 -2.1010 -1.0639
14668SOL     OW45053   0.905   1.778   3.015 -0.5581 -0.5370  0.3252
14668SOL    HW145054   0.904   1.785   3.110  3.2569 -0.6149  0.5458
14668SOL    HW245055   0.866   1.860   2.984  0.7517  0.8290  2.0514
14669SOL     OW45056   4.525   3.566   2.977  0.3662  0.7062 -0.2812
14669SOL    HW145057   4.559   3.481   2.949 -0.1475 -0.2764  1.8769
14669SOL    HW245058   4.598   3.607   3.024 -0.4389 -0.1953  1.8913
14670SOL     OW45059   4.237   7.861   3.025 -0.3017 -0.0008  0.2765
14670SOL    HW145060   4.193   7.805   3.090 -1.0893 -0.6575 -0.7909
14670SOL    HW245061   4.183   7.854   2.947  0.9212  0.3539 -0.6334
14671SOL     OW45062   1.949   1.632   0.954  0.2654 -0.9516 -0.4065
14671SOL    HW145063   1.953   1.538   0.938 -0.2962 -1.1697  0.6079
14671SOL    HW245064   1.872   1.661   0.905 -0.8831 -1.4412  1.0321
14672SOL     OW45065   1.867   0.013   4.571 -0.6525 -0.4107  0.0674
14672SOL    HW145066   1.932  -0.026   4.630  0.3565  0.6452 -0.2929
14672SOL    HW245067   1.897   0.103   4.560 -1.8720 -0.0682 -0.5902
14673SOL     OW45068   6.365   0.945   0.338  0.3922 -0.6149 -0.4708
14673SOL    HW145069   6.360   0.868   0.281 -2.9390 -0.9761  0.1141
14673SOL    HW245070   6.329   0.915   0.421  0.9697  1.0659  0.4237
14674SOL     OW45071   0.524   6.591   1.243  0.3855  0.2099 -0.2743
14674SOL    HW145072   0.611   6.606   1.280  0.1091 -0.1944  0.5532
14674SOL    HW245073   0.541   6.534   1.167  0.7674 -0.5603  0.3694
14675SOL     OW45074   8.267   7.891   7.141  0.3497  0.8050  0.1456
14675SOL    HW145075   8.317   7.823   7.095  1.7071  1.4941  0.5605
14675SOL    HW245076   8.193   7.910   7.082  1.5789  1.0640 -1.3774
14676SOL     OW45077   3.976   0.769   1.807  0.6168  0.2662 -0.0334
14676SOL    HW145078   3.970   0.844   1.867  1.6889 -0.9935  1.7673
14676SOL    HW245079   3.890   0.728   1.811  0.8794 -0.2423  1.3513
14677SOL     OW45080   2.801   1.328   3.707  0.4381 -0.3765 -0.3388
14677SOL    HW145081   2.880   1.277   3.691 -0.2146 -1.4511 -0.2176
14677SOL    HW245082   2.815   1.368   3.793  0.1501 -1.9445  0.4654
14678SOL     OW45083   1.436   7.183   7.494  0.8596  0.1128  0.2103
14678SOL    HW145084   1.429   7.153   7.403  0.1056 -1.0211  0.6233
14678SOL    HW245085   1.522   7.152   7.523  0.2981 -1.2997  0.4744
14679SOL     OW45086   4.470   0.009   4.803  0.2123  0.0329 -0.1068
14679SOL    HW145087   4.531  -0.036   4.746 -2.1503 -3.2834 -0.3238
14679SOL    HW245088   4.502  -0.009   4.892 -0.1980 -1.3300 -0.2259
14680SOL     OW45089   7.364   3.518   1.354 -0.2130 -0.1059 -0.0848
14680SOL    HW145090   7.361   3.538   1.260 -0.2044  0.3901  0.0181
14680SOL    HW245091   7.447   3.472   1.366  0.3258  0.8219 -0.1379
14681SOL     OW45092   1.213   4.015   5.584  0.1166  0.2627 -0.1826
14681SOL    HW145093   1.277   4.085   5.590  0.5672 -0.0882 -0.7641
14681SOL    HW245094   1.220   3.968   5.667 -0.6223  1.2590  0.4647
14682SOL     OW45095   3.460   6.533   2.091  0.6202 -0.1868 -0.4219
14682SOL    HW145096   3.551   6.559   2.077  0.5589 -0.5913 -1.7055
14682SOL    HW245097   3.409   6.598   2.042  0.2382 -0.2597 -0.1261
14683SOL     OW45098   0.856   5.783   2.331  0.4464 -0.1037  0.5667
14683SOL    HW145099   0.800   5.769   2.407  1.4935 -0.5078  1.2836
14683SOL    HW245100   0.945   5.778   2.366  0.9738 -1.6583 -0.9104
14684SOL     OW45101   4.458   0.903   7.983 -0.7232 -0.1472  0.2151
14684SOL    HW145102   4.391   0.963   8.016 -0.7937 -0.8792  1.4853
14684SOL    HW245103   4.491   0.859   8.061  2.1003  1.0257 -0.2028
14685SOL     OW45104   8.018   2.268   0.286  0.2647 -0.3149  0.3793
14685SOL    HW145105   8.084   2.202   0.266  1.7362  1.1610  0.1862
14685SOL    HW245106   7.948   2.252   0.222 -0.4677 -3.0271  1.7146
14686SOL     OW45107   0.717   2.705   4.180  0.4935  0.3156 -0.3557
14686SOL    HW145108   0.689   2.774   4.240  0.0894 -0.9957  1.0271
14686SOL    HW245109   0.663   2.630   4.202  1.3886 -0.6709 -1.3486
14687SOL     OW45110   0.158   3.877   2.767 -0.1888 -0.2484  0.1149
14687SOL    HW145111   0.088   3.817   2.744  1.7474 -2.9240  0.7626
14687SOL    HW245112   0.210   3.830   2.832  3.2235  0.7768 -1.6232
14688SOL     OW45113   2.107   1.031   2.371  0.1943 -0.4627 -0.0738
14688SOL    HW145114   2.095   1.113   2.418 -2.3643 -0.2350 -0.9246
14688SOL    HW245115   2.181   0.989   2.414  0.4500  1.4703  1.5450
14689SOL     OW45116   6.373   1.692   0.333 -0.1678  0.2165 -0.2375
14689SOL    HW145117   6.354   1.673   0.241 -0.3517 -0.1621 -0.1245
14689SOL    HW245118   6.456   1.739   0.331  0.8472 -1.4867 -0.4820
14690SOL     OW45119   6.167   6.707   8.063 -0.4469 -0.1284  0.1788
14690SOL    HW145120   6.147   6.793   8.027  1.5013 -0.2502 -1.3122
14690SOL    HW245121   6.200   6.724   8.151 -0.9828  0.5447  0.2554
14691SOL     OW45122   6.065   2.507   0.100  0.0146 -0.1825 -0.1940
14691SOL    HW145123   6.155   2.475   0.106 -0.0373 -0.5806 -1.2317
14691SOL    HW245124   6.014   2.429   0.081 -0.4689  0.1420 -0.2377
14692SOL     OW45125   2.547   1.217   7.723 -0.3350  0.4972 -0.7198
14692SOL    HW145126   2.509   1.195   7.638 -0.2729  2.5442 -1.3417
14692SOL    HW245127   2.606   1.144   7.743 -2.8757 -1.6911 -0.7660
14693SOL     OW45128   2.056   1.839   1.128  0.1901  0.2112  0.4105
14693SOL    HW145129   2.019   1.752   1.114 -1.0975  0.8369 -0.2307
14693SOL    HW245130   2.123   1.848   1.061  0.9024 -0.5826  0.9934
14694SOL     OW45131   1.353   5.861   1.877 -0.2137  0.3528 -0.5367
14694SOL    HW145132   1.383   5.839   1.789 -0.1667  0.8486 -0.6445
14694SOL    HW245133   1.408   5.935   1.904  1.8019 -1.5474  1.0330
14695SOL     OW45134   2.265   6.817   2.937  0.4095  0.3304 -0.3045
14695SOL    HW145135   2.332   6.794   3.001  0.1207  0.4205  0.0298
14695SOL    HW245136   2.190   6.761   2.958  1.1115 -1.3622 -2.0345
14696SOL     OW45137   1.965   2.999   7.449 -0.1244  0.6024 -0.3341
14696SOL    HW145138   1.993   2.935   7.384  0.7034 -0.7890  1.3390
14696SOL    HW245139   2.034   2.998   7.515 -1.2470  1.5194  0.8926
14697SOL     OW45140   7.594   0.288   2.066 -0.1957 -0.2705 -0.2968
14697SOL    HW145141   7.505   0.316   2.088 -0.9528 -0.8352 -2.4490
14697SOL    HW245142   7.583   0.213   2.009  1.7195 -1.1379  0.3731
14698SOL     OW45143   5.684   1.435   8.258  0.1049 -0.1517 -0.5394
14698SOL    HW145144   5.599   1.475   8.240  0.1802 -0.0308 -0.6250
14698SOL    HW245145   5.663   1.350   8.297 -0.0547 -0.5671 -1.5158
14699SOL     OW45146   7.984   4.337   1.396  0.2775  0.1639  0.6889
14699SOL    HW145147   8.000   4.339   1.302  0.1133 -0.3089  0.6505
14699SOL    HW245148   7.950   4.424   1.416  0.3262  0.2706  0.3126
14700SOL     OW45149   5.863   3.147   5.180  0.1062 -0.1099  0.2208
14700SOL    HW145150   5.939   3.134   5.124  0.0208  0.9195 -0.1493
14700SOL    HW245151   5.812   3.215   5.136 -1.1247 -0.8952  0.3739
14701SOL     OW45152   3.586   1.885   6.539 -0.0001 -0.6038 -0.3938
14701SOL    HW145153   3.576   1.973   6.504 -0.3104 -1.1239 -1.6768
14701SOL    HW245154   3.582   1.828   6.462  1.3742 -1.6569  0.2694
14702SOL     OW45155   4.252   7.618   7.708  0.1969 -0.0400  0.4033
14702SOL    HW145156   4.190   7.597   7.777 -1.1738 -0.4642 -0.8899
14702SOL    HW245157   4.298   7.535   7.692 -0.1479 -0.1972  0.1933
14703SOL     OW45158   4.427   2.464   5.454  0.0220  0.5257  0.2479
14703SOL    HW145159   4.465   2.522   5.388 -0.0638 -1.2156 -1.4033
14703SOL    HW245160   4.419   2.519   5.532 -1.1838  3.0815 -1.5385
14704SOL     OW45161   8.220   1.152   5.325 -0.3618 -0.7868 -0.3792
14704SOL    HW145162   8.184   1.175   5.411  0.5617  0.1140 -0.2155
14704SOL    HW245163   8.183   1.218   5.266 -1.6830 -1.9135 -0.8594
14705SOL     OW45164   0.301   4.625   2.853 -0.0269  0.2282 -0.5690
14705SOL    HW145165   0.302   4.664   2.940  2.5219 -2.4241  0.7825
14705SOL    HW245166   0.227   4.563   2.855  0.4413 -0.3337  0.0284
14706SOL     OW45167   5.407   0.494   4.361 -0.1183  0.5274 -0.6298
14706SOL    HW145168   5.493   0.504   4.401  0.2615 -1.8822 -0.6834
14706SOL    HW245169   5.383   0.582   4.332  0.5676  2.0144  2.8288
14707SOL     OW45170   6.281   5.951   7.738 -0.0703  0.2167  0.0611
14707SOL    HW145171   6.373   5.934   7.716 -0.4813 -2.3557  0.0325
14707SOL    HW245172   6.272   5.923   7.829 -0.4689  2.1077  0.6398
14708SOL     OW45173   5.723   5.467   0.154  0.1735  0.0270  0.1002
14708SOL    HW145174   5.787   5.537   0.147  0.6564 -0.1805  1.9449
14708SOL    HW245175   5.774   5.390   0.178 -0.6561 -0.3461  0.7107
14709SOL     OW45176   7.222   4.381   4.484  0.3617 -0.5789 -0.4924
14709SOL    HW145177   7.289   4.334   4.434  0.1193  0.0476 -1.4482
14709SOL    HW245178   7.232   4.472   4.456  0.1940 -0.2147  0.6086
14710SOL     OW45179   2.438   3.241   8.088  0.4861  0.5392 -0.5022
14710SOL    HW145180   2.485   3.160   8.066 -1.9430 -1.2859  0.4652
14710SOL    HW245181   2.394   3.221   8.170 -0.4921  2.7653 -0.4190
14711SOL     OW45182   8.096   7.234   4.739  0.0357  0.0049  0.0563
14711SOL    HW145183   8.061   7.287   4.811  0.4093  1.3369 -0.7110
14711SOL    HW245184   8.020   7.217   4.683  0.1617  0.9659 -0.4304
14712SOL     OW45185   7.310   5.232   0.027  0.2846 -0.4301 -0.1027
14712SOL    HW145186   7.320   5.312  -0.025 -0.6766  1.0604  1.8884
14712SOL    HW245187   7.343   5.255   0.114 -3.2664 -0.9756  1.5547
14713SOL     OW45188   2.184   5.473   4.282  0.2418  0.0068 -0.4727
14713SOL    HW145189   2.255   5.447   4.342 -0.5055 -2.7586 -0.6602
14713SOL    HW245190   2.110   5.490   4.339  0.7501  2.1209 -0.3421
14714SOL     OW45191   4.803   3.214   7.309  0.5437  0.3722 -0.0804
14714SOL    HW145192   4.880   3.158   7.314  0.6956  0.3025 -2.2057
14714SOL    HW245193   4.839   3.302   7.291  0.1565  0.3718 -0.8970
14715SOL     OW45194   3.983   7.086   3.358 -0.4150  0.0018 -0.2830
14715SOL    HW145195   4.058   7.027   3.350 -2.4648 -2.8611  0.0978
14715SOL    HW245196   3.956   7.102   3.268  0.5840  0.9893 -0.4185
14716SOL     OW45197   7.807   5.448   1.574 -0.3257  0.3522  1.0223
14716SOL    HW145198   7.886   5.496   1.547 -0.9347  2.1753  2.2824
14716SOL    HW245199   7.754   5.513   1.619 -2.3362 -0.9650  0.6811
14717SOL     OW45200   5.381   4.219   2.781  0.0973 -0.3174 -0.0484
14717SOL    HW145201   5.381   4.134   2.824  2.9375 -1.4203 -1.8985
14717SOL    HW245202   5.309   4.214   2.717  0.8186 -1.7657 -0.7917
14718SOL     OW45203   2.714   2.775   2.205 -0.0425 -0.1041 -0.0335
14718SOL    HW145204   2.678   2.854   2.165  0.3150  0.0561 -0.0480
14718SOL    HW245205   2.639   2.717   2.216 -0.7299  1.0847  2.0422
14719SOL     OW45206   6.053   7.366   5.953 -0.1285  0.2605  0.6434
14719SOL    HW145207   6.089   7.278   5.955 -1.5047 -0.3784 -0.4840
14719SOL    HW245208   6.042   7.385   5.859 -2.6036  0.3985  0.8951
14720SOL     OW45209   1.761   0.479   2.054  0.1002  0.3424 -0.2204
14720SOL    HW145210   1.805   0.527   1.983  1.0174 -0.4829 -0.2307
14720SOL    HW245211   1.833   0.440   2.104 -0.4772  1.4795  1.6094
14721SOL     OW45212   1.446   0.239   7.340 -0.0632 -0.5137  0.0041
14721SOL    HW145213   1.531   0.282   7.347 -0.2905  0.0049 -0.3464
14721SOL    HW245214   1.385   0.301   7.381 -0.2617 -0.9239  0.3358
14722SOL     OW45215   6.941   0.367   1.880 -0.4532 -0.2921  0.2416
14722SOL    HW145216   6.887   0.442   1.855 -1.3261 -0.8320  0.4823
14722SOL    HW245217   6.992   0.346   1.801 -0.2576  0.4922  0.1493
14723SOL     OW45218   5.254   3.127   2.465 -0.2059  0.3299  0.1849
14723SOL    HW145219   5.306   3.061   2.419  0.9036  1.3401 -0.0757
14723SOL    HW245220   5.297   3.136   2.550 -0.0370  1.0601  0.0280
14724SOL     OW45221   7.864   2.273   7.225  0.5783 -0.5029  0.2705
14724SOL    HW145222   7.812   2.288   7.304 -1.5356 -0.3540 -1.0718
14724SOL    HW245223   7.802   2.236   7.162  2.0810 -0.1890 -1.4764
14725SOL     OW45224   6.322   7.190   7.368 -0.3961 -0.1182 -0.2088
14725SOL    HW145225   6.282   7.105   7.350 -2.6079  1.1251 -1.5644
14725SOL    HW245226   6.300   7.209   7.459 -2.1962  0.1154 -0.6589
14726SOL     OW45227   4.166   6.289   7.446 -0.1044 -0.3874  0.0310
14726SOL    HW145228   4.208   6.374   7.453  0.4440 -0.6046 -0.4874
14726SOL    HW245229   4.224   6.238   7.389  0.8434 -1.8837  2.1885
14727SOL     OW45230   3.250   0.794   8.114  0.4027  0.2385 -0.2391
14727SOL    HW145231   3.198   0.784   8.194  0.3713 -1.5751 -0.4429
14727SOL    HW245232   3.252   0.888   8.098  0.1344  0.6144  1.7097
14728SOL     OW45233   8.161   2.044   8.133 -0.1974 -0.3418 -0.2853
14728SOL    HW145234   8.250   2.079   8.135 -0.3128 -0.0744  1.0876
14728SOL    HW245235   8.165   1.973   8.068  0.5869  0.7351 -1.4616
14729SOL     OW45236   1.390   4.992   5.799 -0.7229  0.1452  0.4176
14729SOL    HW145237   1.303   4.995   5.837 -1.5030  0.5503 -1.2971
14729SOL    HW245238   1.411   5.083   5.780  0.1133  0.0577  0.8727
14730SOL     OW45239   7.006   5.547   7.268  0.1208  0.7448 -0.0022
14730SOL    HW145240   6.919   5.561   7.306 -0.4757 -1.2963 -0.4871
14730SOL    HW245241   7.065   5.545   7.343 -0.2886  1.6764  0.3659
14731SOL     OW45242   2.822   5.772   2.782 -0.4762 -0.3354  0.6658
14731SOL    HW145243   2.908   5.791   2.819  0.3456  0.8960 -1.6003
14731SOL    HW245244   2.829   5.803   2.691 -3.3210 -0.1875  0.4165
14732SOL     OW45245   0.544   2.049   4.503  0.3810 -0.1535 -0.1838
14732SOL    HW145246   0.490   2.121   4.471  0.3896  0.2707  0.7134
14732SOL    HW245247   0.493   2.012   4.576  0.3749 -1.0575 -0.6343
14733SOL     OW45248   6.175   8.012   6.823 -0.4608 -0.5220  0.0393
14733SOL    HW145249   6.084   8.015   6.853 -0.3182 -1.8531  0.6557
14733SOL    HW245250   6.223   7.973   6.896  0.9414  1.7810  0.4615
14734SOL     OW45251   4.340   7.693   4.580 -0.3262 -0.2172  0.3479
14734SOL    HW145252   4.339   7.782   4.616 -0.6898 -0.3109  0.5779
14734SOL    HW245253   4.366   7.704   4.489 -0.3874  0.1266  0.3697
14735SOL     OW45254   2.700   4.089   1.814  0.5229 -0.3040  0.6228
14735SOL    HW145255   2.656   4.166   1.852  0.3094  2.0601 -3.7347
14735SOL    HW245256   2.793   4.105   1.832  0.5678  1.5576 -0.9095
14736SOL     OW45257   1.195   3.870   5.789  0.6897  0.2917  0.2758
14736SOL    HW145258   1.249   3.795   5.762  0.2858  0.1419 -0.1399
14736SOL    HW245259   1.180   3.857   5.882 -1.4907 -1.5588 -0.2373
14737SOL     OW45260   8.011   6.168   1.785 -0.6048 -0.3348 -0.1409
14737SOL    HW145261   8.070   6.095   1.766 -0.2327 -0.6909  2.1052
14737SOL    HW245262   7.962   6.181   1.703 -0.2870 -2.7160 -0.7865
14738SOL     OW45263   1.575   3.553   0.799  0.2252 -0.9619  0.3234
14738SOL    HW145264   1.491   3.510   0.779 -0.3000  0.0109  0.3555
14738SOL    HW245265   1.602   3.515   0.883 -0.0204 -1.5192  0.1544
14739SOL     OW45266   4.366   5.134   6.720  0.0553  0.1002 -0.4715
14739SOL    HW145267   4.449   5.104   6.684 -0.5582  0.3354 -2.1899
14739SOL    HW245268   4.304   5.065   6.699 -0.1853 -0.1417  0.9228
14740SOL     OW45269   1.453   8.053   2.655 -0.3103  0.0143  0.0992
14740SOL    HW145270   1.436   8.104   2.576  0.1437 -0.5669 -0.3888
14740SOL    HW245271   1.513   8.107   2.706  1.8685 -0.8718 -1.3769
14741SOL     OW45272   7.495   4.060   7.314 -0.0541  0.1012  0.4715
14741SOL    HW145273   7.523   4.063   7.223 -1.1856  0.3585  0.1085
14741SOL    HW245274   7.413   4.010   7.313 -1.0199  1.5892  1.0604
14742SOL     OW45275   0.916   4.622   4.046  0.4345  0.8715 -0.1457
14742SOL    HW145276   1.006   4.591   4.039  0.6270  0.3423  2.9883
14742SOL    HW245277   0.924   4.717   4.060  0.6084  0.6843  1.1131
14743SOL     OW45278   1.133   0.320   2.572 -0.5321 -0.1341  0.0005
14743SOL    HW145279   1.053   0.293   2.617  0.7576 -2.0798  1.2874
14743SOL    HW245280   1.172   0.385   2.630  0.2729 -1.3877  0.9104
14744SOL     OW45281   5.962   7.630   3.751 -0.1756 -0.0696  0.1721
14744SOL    HW145282   5.889   7.669   3.799 -0.1066 -1.6062  1.6558
14744SOL    HW245283   6.014   7.704   3.720 -1.5510  1.0196  0.3884
14745SOL     OW45284   3.938   6.119   2.182 -0.2791 -0.2339 -0.0387
14745SOL    HW145285   3.898   6.129   2.269 -0.8203  0.9718 -0.4098
14745SOL    HW245286   3.865   6.132   2.121  0.4751  1.0199 -0.7058
14746SOL     OW45287   5.711   5.718   0.775  0.3460  0.2704 -0.1013
14746SOL    HW145288   5.699   5.625   0.794  0.0084  0.5606  1.1773
14746SOL    HW245289   5.622   5.754   0.774  0.5582  0.8509  0.9180
14747SOL     OW45290   2.245   3.769   3.553  0.0332  0.1360 -0.1603
14747SOL    HW145291   2.336   3.796   3.560  0.5270 -1.4284 -0.1616
14747SOL    HW245292   2.195   3.843   3.588  1.2101  1.4969 -1.2185
14748SOL     OW45293   5.278   0.265   0.022 -0.4555 -0.0636 -0.0388
14748SOL    HW145294   5.206   0.208   0.052 -0.7874  0.4181  0.0930
14748SOL    HW245295   5.234   0.336  -0.024  0.0196 -0.5190 -1.2368
14749SOL     OW45296   2.972   4.752   1.279  0.4179  0.5904 -0.3764
14749SOL    HW145297   2.922   4.694   1.221 -1.8991  0.8040  1.2615
14749SOL    HW245298   2.945   4.840   1.254  3.1157  1.0571 -2.1234
14750SOL     OW45299   5.436   3.979   5.667  0.1638 -0.5222 -0.4661
14750SOL    HW145300   5.351   3.937   5.677 -0.4326  0.9755  1.2852
14750SOL    HW245301   5.420   4.071   5.688  2.2502 -0.2466  0.1536
14751SOL     OW45302   1.894   3.898   3.492  0.3597  0.1635 -0.0300
14751SOL    HW145303   1.811   3.939   3.467  0.1604  0.2510  0.7480
14751SOL    HW245304   1.908   3.831   3.426  0.5366  1.2594 -1.1533
14752SOL     OW45305   7.181   2.900   1.764  0.3848 -0.1227  0.0766
14752SOL    HW145306   7.099   2.932   1.802  1.0154  0.3736  1.0464
14752SOL    HW245307   7.160   2.884   1.672 -0.6185  0.6366  0.1602
14753SOL     OW45308   3.732   2.801   2.254 -0.1469  0.5571  0.0810
14753SOL    HW145309   3.729   2.757   2.168 -0.4787  1.3398 -0.3175
14753SOL    HW245310   3.766   2.888   2.235  0.0629  0.6324  0.7994
14754SOL     OW45311   5.359   2.182   7.630 -0.9892 -0.1916 -0.0506
14754SOL    HW145312   5.433   2.181   7.690 -0.4571 -0.0549 -0.6910
14754SOL    HW245313   5.380   2.114   7.565  0.9065  2.8486 -2.9537
14755SOL     OW45314   0.054   6.950   4.318 -0.1658  0.4819 -0.5826
14755SOL    HW145315   0.028   6.870   4.272  0.8945 -0.3598  0.2240
14755SOL    HW245316  -0.027   6.984   4.356 -0.6072 -0.2844 -0.8209
14756SOL     OW45317   3.630   3.127   2.755 -0.0467 -0.4644 -0.3807
14756SOL    HW145318   3.547   3.135   2.801  0.3784 -1.2468  0.5694
14756SOL    HW245319   3.609   3.142   2.663 -1.1115  0.0313 -0.0672
14757SOL     OW45320   3.864   4.363   6.972  0.0277  0.0230  0.2429
14757SOL    HW145321   3.775   4.330   6.959  0.5177 -2.3821  2.1691
14757SOL    HW245322   3.902   4.367   6.885 -2.1151  1.7697 -0.7078
14758SOL     OW45323   7.059   4.186   2.191 -0.1984  0.0800 -0.6751
14758SOL    HW145324   7.056   4.099   2.151  1.6835 -1.0510  1.3668
14758SOL    HW245325   7.152   4.199   2.212 -0.8397  1.2514  1.7761
14759SOL     OW45326   0.921   1.633   3.301  0.4139  0.3064 -0.4528
14759SOL    HW145327   0.953   1.721   3.318  1.1872  0.0845 -0.7185
14759SOL    HW245328   0.840   1.626   3.352  1.2408  0.5717  0.9163
14760SOL     OW45329   6.266   7.348   1.458 -0.5982  0.4223  0.3763
14760SOL    HW145330   6.209   7.418   1.427 -0.9374 -0.1139 -0.2023
14760SOL    HW245331   6.281   7.293   1.382  1.6783  1.1918  0.1736
14761SOL     OW45332   5.633   4.492   4.283 -0.3500 -0.3953 -0.5650
14761SOL    HW145333   5.720   4.512   4.249  0.0158 -0.8043  0.1137
14761SOL    HW245334   5.578   4.565   4.253  0.9252  1.6684  1.7289
14762SOL     OW45335   7.459   3.193   1.371  0.3727 -0.1303 -0.0478
14762SOL    HW145336   7.437   3.242   1.291 -1.2697  1.6549  1.3893
14762SOL    HW245337   7.551   3.214   1.387  0.7646 -0.6144 -1.5081
14763SOL     OW45338   5.930   0.241   3.158 -0.1900  0.4338  0.5891
14763SOL    HW145339   5.989   0.208   3.091  1.4591 -0.6017  2.4353
14763SOL    HW245340   5.843   0.233   3.120  0.7629  1.7190 -2.1350
14764SOL     OW45341   7.893   5.289   6.875 -0.1662 -0.5058 -0.4392
14764SOL    HW145342   7.980   5.318   6.847  0.1463 -0.8588  0.1603
14764SOL    HW245343   7.882   5.203   6.835  0.0211 -0.7344 -0.0046
14765SOL     OW45344   2.080   0.145   5.411  0.4486 -0.1370  0.0628
14765SOL    HW145345   2.107   0.126   5.501  1.4495 -2.8912 -0.7022
14765SOL    HW245346   2.162   0.163   5.365  0.0799 -0.0047 -0.5521
14766SOL     OW45347   2.833   4.553   0.837  0.4252 -0.1383 -0.1007
14766SOL    HW145348   2.819   4.550   0.743 -3.4214 -0.9548  0.3554
14766SOL    HW245349   2.898   4.485   0.854  0.3445 -0.7422 -2.0151
14767SOL     OW45350   5.067   7.920   5.970 -0.2733  0.4892 -0.8601
14767SOL    HW145351   5.149   7.909   6.018 -0.4704  3.0956  0.2805
14767SOL    HW245352   4.999   7.893   6.032 -0.3746  0.4125 -1.0031
14768SOL     OW45353   1.603   4.658   2.151 -0.2645 -0.1500 -0.4401
14768SOL    HW145354   1.513   4.658   2.184 -1.1207  1.7558 -2.5624
14768SOL    HW245355   1.627   4.750   2.145  1.9682 -0.6212  0.3088
14769SOL     OW45356   0.517   6.123   1.548  0.2793  0.0219 -0.2484
14769SOL    HW145357   0.485   6.073   1.623 -2.9808  1.2647 -0.6075
14769SOL    HW245358   0.567   6.060   1.497 -0.1779 -1.7363  1.3333
14770SOL     OW45359   1.627   7.278   4.818 -0.2907 -0.2850 -0.0145
14770SOL    HW145360   1.556   7.216   4.835  0.4630 -0.4507  2.9714
14770SOL    HW245361   1.705   7.224   4.808  0.0802  0.0834  0.8479
14771SOL     OW45362   3.662   2.266   1.134  0.5085  0.6278  0.0586
14771SOL    HW145363   3.714   2.327   1.082 -0.2544  0.8731 -0.4374
14771SOL    HW245364   3.571   2.286   1.110  0.2971 -2.0865 -1.7029
14772SOL     OW45365   7.595   0.262   7.381  0.0257 -0.3657  0.2858
14772SOL    HW145366   7.572   0.173   7.410  0.6873 -0.7635 -0.3929
14772SOL    HW245367   7.555   0.319   7.447 -1.4059 -1.1079  0.0856
14773SOL     OW45368   2.027   7.700   6.485 -0.0918  0.5740 -0.0516
14773SOL    HW145369   1.974   7.641   6.539 -0.9432  1.1485 -0.2510
14773SOL    HW245370   2.096   7.730   6.544 -0.9069  1.0562  0.6704
14774SOL     OW45371   4.228   1.160   6.613  0.5124 -0.7372 -0.3386
14774SOL    HW145372   4.163   1.195   6.674 -1.3571 -1.5259 -1.7966
14774SOL    HW245373   4.278   1.097   6.664 -0.3841 -0.6865  0.6183
14775SOL     OW45374   1.816   0.939   0.242  0.1519  0.4220 -0.2257
14775SOL    HW145375   1.803   0.860   0.189  0.1790 -0.7009  1.3740
14775SOL    HW245376   1.748   0.934   0.309 -0.6439  2.4352 -0.8060
14776SOL     OW45377   0.620   3.751   5.123  0.0120  0.0028  0.1705
14776SOL    HW145378   0.679   3.676   5.117  0.0677  0.0328  0.3394
14776SOL    HW245379   0.664   3.820   5.072  1.4433  0.8777  2.4280
14777SOL     OW45380   5.301   2.950   4.379 -0.1122  0.0813  0.3972
14777SOL    HW145381   5.328   3.024   4.433  0.0106  0.4021 -0.0968
14777SOL    HW245382   5.364   2.881   4.399 -0.4528 -0.0190  1.1414
14778SOL     OW45383   7.244   0.981   3.053  0.0193  0.8366  0.0766
14778SOL    HW145384   7.173   0.919   3.032 -1.2397  1.8548  1.1552
14778SOL    HW245385   7.323   0.927   3.054 -1.0793 -0.8661  1.3639
14779SOL     OW45386   4.496   1.033   3.772 -0.1604 -0.5833 -0.3230
14779SOL    HW145387   4.588   1.033   3.745 -0.2703  0.0694 -0.7089
14779SOL    HW245388   4.498   1.049   3.866  0.0234  2.0048 -0.7154
14780SOL     OW45389   1.391   3.624   7.002 -0.2482 -0.3991  0.3891
14780SOL    HW145390   1.388   3.624   7.097 -0.8251 -0.0488  0.3752
14780SOL    HW245391   1.424   3.537   6.979 -1.6297 -1.0701  0.8713
14781SOL     OW45392   5.737   1.794   4.050 -0.0031 -0.4748 -0.2411
14781SOL    HW145393   5.796   1.857   4.093 -1.2095 -0.3180  1.3016
14781SOL    HW245394   5.681   1.762   4.121  0.6398 -3.4264 -0.9347
14782SOL     OW45395   2.242   0.655   4.948  0.4992  0.4179 -0.5565
14782SOL    HW145396   2.335   0.639   4.964  0.8199 -0.1419 -2.6639
14782SOL    HW245397   2.217   0.718   5.015  1.9511 -0.7004  1.1576
14783SOL     OW45398   3.917   1.402   0.845  0.8124 -0.1528  0.6573
14783SOL    HW145399   3.982   1.470   0.825 -0.5679  0.4089 -2.3668
14783SOL    HW245400   3.923   1.340   0.773 -3.7127  1.3306 -1.3170
14784SOL     OW45401   4.610   4.542   6.069  0.0385 -0.2392  0.1585
14784SOL    HW145402   4.523   4.539   6.028 -0.9207 -1.3657  2.1388
14784SOL    HW245403   4.599   4.599   6.144  1.6357  1.3525 -0.7516
14785SOL     OW45404   7.121   5.823   0.459  0.5145 -0.3726  0.2767
14785SOL    HW145405   7.116   5.891   0.392  0.0719 -0.1135  0.5662
14785SOL    HW245406   7.085   5.864   0.537  1.4395 -0.5255  0.8024
14786SOL     OW45407   0.854   5.923   0.053 -0.1300 -0.2454  0.4233
14786SOL    HW145408   0.812   5.878   0.127 -0.9031 -1.7307 -0.8773
14786SOL    HW245409   0.806   6.006   0.046 -0.7189 -0.5306  0.9582
14787SOL     OW45410   6.986   7.472   3.278 -0.1849  0.0581  0.2650
14787SOL    HW145411   7.022   7.400   3.226 -0.2807  1.2251 -1.5039
14787SOL    HW245412   6.920   7.431   3.334  0.5531 -1.3855  0.1198
14788SOL     OW45413   7.083   1.029   6.125 -0.1882 -0.3246  0.1046
14788SOL    HW145414   7.105   1.085   6.051  1.7178  1.1060  1.6513
14788SOL    HW245415   7.080   1.088   6.201 -0.3307 -1.9765  1.4579
14789SOL     OW45416   0.878   7.704   5.647  0.2441  0.5811 -0.2630
14789SOL    HW145417   0.817   7.747   5.707 -0.6230 -2.0421  0.8756
14789SOL    HW245418   0.869   7.753   5.565 -0.7611  2.4129  0.8674
14790SOL     OW45419   1.396   3.037   7.024  1.4971 -0.1727 -0.3224
14790SOL    HW145420   1.400   3.126   6.989 -0.2728 -0.7729 -2.2749
14790SOL    HW245421   1.343   3.044   7.103 -0.4456  0.2725 -1.5994
14791SOL     OW45422   3.915   6.905   4.930 -0.4632 -0.6908 -0.6379
14791SOL    HW145423   3.976   6.979   4.930 -0.1619 -0.9373 -0.2047
14791SOL    HW245424   3.876   6.907   4.843 -0.4646 -0.0171 -0.6312
14792SOL     OW45425   1.715   7.263   5.535 -0.0797 -0.5463 -0.0123
14792SOL    HW145426   1.747   7.187   5.583 -1.8064 -0.3268  1.6017
14792SOL    HW245427   1.620   7.258   5.543 -0.3096  0.8316 -1.4063
14793SOL     OW45428   3.780   0.541   3.281  0.6027  0.1418 -0.2727
14793SOL    HW145429   3.721   0.548   3.356  0.9611  1.9526 -0.1020
14793SOL    HW245430   3.866   0.562   3.317  1.0375 -0.5236 -0.9019
14794SOL     OW45431   0.477   0.923   7.868  0.1152 -0.0986 -0.1686
14794SOL    HW145432   0.565   0.951   7.894 -0.4502  0.6763  0.9971
14794SOL    HW245433   0.459   0.974   7.789  0.2160  0.7260  0.3274
14795SOL     OW45434   6.514   7.035   6.372 -0.2511  0.0578 -0.1305
14795SOL    HW145435   6.456   6.973   6.328  0.0570  0.6662 -1.4395
14795SOL    HW245436   6.498   7.118   6.328  1.6978  0.2167 -0.6487
14796SOL     OW45437   0.095   7.732   7.351  0.2379 -0.3738 -0.1112
14796SOL    HW145438   0.036   7.699   7.419  0.2902 -3.3561 -1.3139
14796SOL    HW245439   0.038   7.784   7.293 -0.2668  0.3311  0.9915
14797SOL     OW45440   6.433   0.914   1.033 -0.1599 -0.5486 -0.0013
14797SOL    HW145441   6.423   0.872   0.947  1.1376 -2.0148  0.5152
14797SOL    HW245442   6.521   0.890   1.061 -0.3725  0.3281  1.5330
14798SOL     OW45443   3.476   7.912   7.065  0.0632  0.0138 -0.2798
14798SOL    HW145444   3.411   7.926   6.996 -0.4211  1.7074  0.4608
14798SOL    HW245445   3.461   7.822   7.094 -0.4611 -0.3579 -1.6134
14799SOL     OW45446   3.517   1.402   2.256  0.3857 -0.1551 -0.2939
14799SOL    HW145447   3.526   1.429   2.164  1.4141 -1.1975 -0.5147
14799SOL    HW245448   3.511   1.484   2.304 -3.7734  0.5119 -1.5492
14800SOL     OW45449   3.637   0.301   3.457 -0.0435  0.4109 -0.1050
14800SOL    HW145450   3.631   0.338   3.545 -0.2985  1.7590 -0.6529
14800SOL    HW245451   3.680   0.370   3.406  0.3223 -0.4537 -0.9798
14801SOL     OW45452   3.073   4.969   2.743  0.2486 -0.0948  0.1872
14801SOL    HW145453   3.082   5.055   2.703 -1.6416  0.8387  1.6305
14801SOL    HW245454   3.133   4.971   2.817  0.8834 -0.3984 -0.3026
14802SOL     OW45455   0.561   3.237   1.998  0.8806 -0.7456  0.2434
14802SOL    HW145456   0.593   3.164   1.945 -0.2767 -1.1327  0.0423
14802SOL    HW245457   0.549   3.308   1.936 -1.1066 -1.3954 -0.2052
14803SOL     OW45458   6.734   2.938   7.249 -0.0459 -0.4250 -0.5191
14803SOL    HW145459   6.719   2.956   7.342  0.1043  0.0800 -0.5886
14803SOL    HW245460   6.794   2.863   7.248  1.5849  0.8269 -0.1684
14804SOL     OW45461   5.827   0.955   3.858 -0.4915 -0.1369 -0.1698
14804SOL    HW145462   5.754   0.998   3.902 -0.8401 -0.7618 -0.1295
14804SOL    HW245463   5.891   0.939   3.928 -0.1749  0.6983 -0.2632
14805SOL     OW45464   2.274   5.526   4.041 -0.0462 -0.5824 -0.1369
14805SOL    HW145465   2.253   5.527   4.135  1.2749 -1.7435  0.2011
14805SOL    HW245466   2.230   5.604   4.006  0.2931  0.4714  1.6395
14806SOL     OW45467   2.423   4.271   0.889 -0.1916  0.4629 -0.4457
14806SOL    HW145468   2.365   4.282   0.964 -1.2991  0.2869 -1.2519
14806SOL    HW245469   2.454   4.360   0.870 -0.1467  0.5512  0.0221
14807SOL     OW45470   0.468   7.652   7.639 -0.7103 -0.2644 -0.3660
14807SOL    HW145471   0.479   7.638   7.733  0.3124 -0.2654 -0.4792
14807SOL    HW245472   0.473   7.747   7.628 -0.6865 -0.2732 -0.4346
14808SOL     OW45473   0.501   3.926   6.929 -0.1572 -0.1557  0.1895
14808SOL    HW145474   0.564   3.880   6.985 -0.4191  0.0264  0.6449
14808SOL    HW245475   0.432   3.953   6.989 -0.8428 -0.6514 -0.3533
14809SOL     OW45476   4.427   5.999   0.630 -0.0200 -0.0588  0.0482
14809SOL    HW145477   4.421   5.947   0.550 -0.5942  0.2370 -0.1019
14809SOL    HW245478   4.419   5.935   0.701 -0.9127 -0.1602 -0.1372
14810SOL     OW45479   5.548   6.484   7.035  0.7230 -0.6696  0.1162
14810SOL    HW145480   5.558   6.539   7.113 -1.2424 -0.0085 -0.0283
14810SOL    HW245481   5.565   6.543   6.962  3.0045 -1.3964  0.0032
14811SOL     OW45482   7.220   0.213   0.512 -0.1527 -0.2998  0.2505
14811SOL    HW145483   7.286   0.144   0.519 -0.3762 -0.5010  0.3476
14811SOL    HW245484   7.210   0.226   0.417  3.2707  2.8072  0.0342
14812SOL     OW45485   1.684   3.954   6.119 -0.5715  0.2718  0.8636
14812SOL    HW145486   1.663   3.864   6.144  0.0534 -0.2285 -0.3231
14812SOL    HW245487   1.603   3.987   6.079  0.1284 -0.9790 -1.8706
14813SOL     OW45488   1.730   7.870   0.214 -0.1221  0.1082 -0.7751
14813SOL    HW145489   1.715   7.785   0.253 -0.7370  0.2809 -0.6273
14813SOL    HW245490   1.761   7.851   0.125  0.8127 -0.2755 -0.3730
14814SOL     OW45491   1.026   7.850   4.011 -0.6988  0.0847 -0.2059
14814SOL    HW145492   1.072   7.878   3.931 -0.2439  0.4316  0.1722
14814SOL    HW245493   1.003   7.759   3.994 -1.1997  0.3502 -1.0012
14815SOL     OW45494   1.995   3.676   8.048 -0.3489 -0.0868  0.3963
14815SOL    HW145495   2.079   3.708   8.016 -0.7112  0.1027 -0.3988
14815SOL    HW245496   1.966   3.743   8.110  0.2802 -0.3692  1.0078
14816SOL     OW45497   7.950   0.429   3.672 -0.9902  0.4372  0.1769
14816SOL    HW145498   7.976   0.341   3.644 -1.1151  0.6161 -0.4978
14816SOL    HW245499   7.940   0.421   3.767 -0.2226 -0.0786  0.2261
14817SOL     OW45500   3.467   7.878   4.975  0.4113  0.4137 -0.8095
14817SOL    HW145501   3.433   7.791   4.998  0.4290  0.7037  0.3882
14817SOL    HW245502   3.390   7.935   4.979  0.1996  0.3003 -2.6052
14818SOL     OW45503   3.480   1.683   3.771 -0.5836  0.0650 -0.3620
14818SOL    HW145504   3.411   1.654   3.831 -0.8716  0.4540 -0.5004
14818SOL    HW245505   3.556   1.699   3.827 -1.2194  1.6421  0.0749
14819SOL     OW45506   0.886   8.202   7.653 -0.2163 -0.6820  0.2959
14819SOL    HW145507   0.880   8.159   7.739 -0.1034  0.1463  0.7225
14819SOL    HW245508   0.831   8.148   7.596 -1.7309 -0.2359  1.2844
14820SOL     OW45509   4.835   0.788   1.434 -0.6077  0.0012 -0.2951
14820SOL    HW145510   4.880   0.845   1.372 -0.3882 -0.1167 -0.2418
14820SOL    HW245511   4.887   0.708   1.436  0.3739  0.6387  1.3587
14821SOL     OW45512   6.585   3.257   3.833 -0.1478  0.1884 -0.1355
14821SOL    HW145513   6.501   3.242   3.876 -0.4485  0.7265 -0.5262
14821SOL    HW245514   6.564   3.310   3.756  0.8012  2.4024  1.0098
14822SOL     OW45515   3.603   3.661   0.107  0.0861 -0.0438 -0.6813
14822SOL    HW145516   3.567   3.597   0.168 -0.3941  1.4951  0.7342
14822SOL    HW245517   3.676   3.615   0.064 -0.7414 -1.7651 -0.3321
14823SOL     OW45518   6.457   2.128   1.987 -0.0223  0.3982  0.0784
14823SOL    HW145519   6.386   2.189   1.970 -0.5152 -0.4340 -0.9793
14823SOL    HW245520   6.414   2.044   2.002  0.7407 -0.4755 -2.1962
14824SOL     OW45521   3.757   6.005   6.634  0.5800 -0.0307 -0.2908
14824SOL    HW145522   3.770   5.925   6.685  1.8505  1.3100  1.6227
14824SOL    HW245523   3.844   6.044   6.628  0.0066  1.1533 -1.3054
14825SOL     OW45524   4.797   0.140   1.985 -0.5235 -0.0943  0.1850
14825SOL    HW145525   4.705   0.165   1.992 -0.2697  0.6083  1.1862
14825SOL    HW245526   4.823   0.172   1.898 -1.2214 -0.3523 -0.1339
14826SOL     OW45527   8.274   6.177   0.079  0.2857  0.3621 -0.5395
14826SOL    HW145528   8.195   6.126   0.061 -0.8384  2.4684 -2.0723
14826SOL    HW245529   8.243   6.256   0.124  2.1252 -0.7549  3.0735
14827SOL     OW45530   1.411   3.080   7.974 -0.4486 -0.0916 -0.0715
14827SOL    HW145531   1.495   3.034   7.970 -0.0795  0.5474  0.1473
14827SOL    HW245532   1.432   3.171   7.949 -1.1539 -0.0267 -0.4626
14828SOL     OW45533   8.076   7.091   1.315  0.4452  0.1655  0.1137
14828SOL    HW145534   8.148   7.113   1.255 -0.2754  1.2362 -0.3924
14828SOL    HW245535   8.085   6.997   1.329  2.7913  0.4538  1.1767
14829SOL     OW45536   6.441   5.653   5.065 -0.1964 -0.0775 -0.2148
14829SOL    HW145537   6.376   5.625   5.001  0.1926 -1.4422 -0.0480
14829SOL    HW245538   6.525   5.642   5.021  0.2141 -2.8016  1.0641
14830SOL     OW45539   4.313   6.714   1.657 -0.2907  0.0174  0.1585
14830SOL    HW145540   4.266   6.744   1.579  0.5707 -0.2822 -0.4810
14830SOL    HW245541   4.393   6.675   1.624 -0.6618 -1.6183  1.0727
14831SOL     OW45542   7.219   5.084   7.433  0.3474 -0.0652  0.8019
14831SOL    HW145543   7.278   5.113   7.364 -1.9349 -0.0983 -1.2867
14831SOL    HW245544   7.231   5.148   7.504  2.6314  0.0593  0.3709
14832SOL     OW45545   3.340   5.989   2.567 -0.2193 -0.0147 -0.6468
14832SOL    HW145546   3.355   5.995   2.472 -0.3955  0.7086 -0.6350
14832SOL    HW245547   3.400   5.920   2.596  1.7590  1.4997 -0.8825
14833SOL     OW45548   7.194   7.165   0.319 -0.0644 -0.2645  0.3403
14833SOL    HW145549   7.250   7.175   0.396 -0.2629 -1.2660  0.6272
14833SOL    HW245550   7.220   7.080   0.282 -1.5607 -0.8782  0.6321
14834SOL     OW45551   7.102   0.659   0.749  0.0839  0.6869  0.0789
14834SOL    HW145552   7.022   0.711   0.761 -0.6146 -0.2878 -0.1525
14834SOL    HW245553   7.140   0.690   0.667 -0.2807  0.8919 -0.0136
14835SOL     OW45554   1.009   3.288   4.048 -0.4794 -0.2570  0.8666
14835SOL    HW145555   1.060   3.366   4.068 -2.6220  1.8890 -1.2530
14835SOL    HW245556   0.946   3.281   4.119 -1.6157  1.2881  0.0724
14836SOL     OW45557   0.113   0.003   1.982 -0.1271 -0.0424 -0.3766
14836SOL    HW145558   0.148  -0.013   1.895 -0.8698 -0.5964 -0.5883
14836SOL    HW245559   0.115   0.098   1.992  0.6508 -0.0199 -0.6972
14837SOL     OW45560   6.833   1.856   7.273 -1.0711 -0.5201  0.0160
14837SOL    HW145561   6.798   1.784   7.220 -1.0308  0.7806 -1.8855
14837SOL    HW245562   6.928   1.842   7.270 -1.1258 -1.1624  0.8618
14838SOL     OW45563   3.277   5.217   5.689 -0.2046 -0.3484 -0.7916
14838SOL    HW145564   3.298   5.296   5.740 -1.5708  1.5034 -2.9140
14838SOL    HW245565   3.183   5.204   5.702  0.0658 -1.9270 -0.1606
14839SOL     OW45566   6.112   7.744   6.131 -1.2430  0.2551  0.0323
14839SOL    HW145567   6.191   7.784   6.169 -0.2467 -0.7997 -0.8343
14839SOL    HW245568   6.124   7.753   6.036 -1.2233 -1.5412 -0.1873
14840SOL     OW45569   5.391   2.298   0.215  0.2350 -0.0705 -0.3020
14840SOL    HW145570   5.342   2.367   0.258 -0.0740  0.5397 -1.5737
14840SOL    HW245571   5.381   2.221   0.272  1.0115  1.0269  1.3927
14841SOL     OW45572   5.834   0.745   6.832  0.5794 -0.0459 -0.1903
14841SOL    HW145573   5.828   0.838   6.854 -1.8210 -0.4926  1.3583
14841SOL    HW245574   5.926   0.733   6.806  1.0332  2.6616 -0.1234
14842SOL     OW45575   5.608   3.528   4.205  0.5808 -0.6420 -0.0642
14842SOL    HW145576   5.651   3.452   4.165  1.9809 -0.3257  0.7724
14842SOL    HW245577   5.652   3.603   4.166 -1.7674 -0.1345 -1.9870
14843SOL     OW45578   5.574   0.943   4.192 -0.0152  0.0281  0.4019
14843SOL    HW145579   5.531   1.019   4.232 -2.2028 -0.1216 -1.4162
14843SOL    HW245580   5.619   0.980   4.116 -0.9944 -0.4171 -0.4246
14844SOL     OW45581   3.563   1.876   1.037  0.0046  0.4661 -0.3057
14844SOL    HW145582   3.584   1.801   0.982  2.6984  0.5780  0.4419
14844SOL    HW245583   3.569   1.843   1.126  2.0560  1.6614  0.0719
14845SOL     OW45584   8.177   2.430   0.104  0.2443  0.5410 -1.3217
14845SOL    HW145585   8.264   2.391   0.109 -0.0904 -0.0439  0.4590
14845SOL    HW245586   8.117   2.356   0.102 -0.2844  0.9390 -0.7068
14846SOL     OW45587   0.730   1.743   3.885 -0.1026  0.3227  0.6374
14846SOL    HW145588   0.651   1.693   3.905  0.7724 -2.3804 -1.8603
14846SOL    HW245589   0.797   1.707   3.943 -0.1145  0.7373  0.9126
14847SOL     OW45590   5.186   7.326   2.794 -0.2948 -0.3767  0.5121
14847SOL    HW145591   5.181   7.399   2.855 -0.5000 -0.6231  0.7880
14847SOL    HW245592   5.247   7.357   2.726  0.0717 -0.1725  0.9298
14848SOL     OW45593   4.028   4.648   7.828 -0.1833  0.4484  0.3903
14848SOL    HW145594   4.085   4.571   7.828  0.4444  0.9021  0.6366
14848SOL    HW245595   4.050   4.694   7.747  0.9996  1.4816  1.2763
14849SOL     OW45596   2.582   2.836   1.610  0.0899 -0.2146  0.2282
14849SOL    HW145597   2.499   2.802   1.642  0.8537 -3.2044 -0.6754
14849SOL    HW245598   2.646   2.809   1.676  0.7737 -0.9241 -0.6903
14850SOL     OW45599   2.798   7.477   6.463  0.1218 -0.8205  0.6707
14850SOL    HW145600   2.760   7.511   6.382 -1.4716 -1.4529  1.1101
14850SOL    HW245601   2.867   7.418   6.434 -1.2693 -2.0341 -0.3174
14851SOL     OW45602   6.898   8.038   3.125  0.4955 -0.2335  0.2981
14851SOL    HW145603   6.902   7.989   3.043  1.9078  0.0773  0.1592
14851SOL    HW245604   6.985   8.029   3.163  0.0752  0.2313  1.4214
14852SOL     OW45605   7.363   7.424   1.614  0.0620  0.3582 -0.3981
14852SOL    HW145606   7.453   7.420   1.648  0.5984  0.5844 -1.7248
14852SOL    HW245607   7.316   7.480   1.676  1.2257  1.4828 -0.4944
14853SOL     OW45608   6.213   7.957   3.495 -0.3756  0.6913  0.1767
14853SOL    HW145609   6.212   7.862   3.492  2.0164  0.6279 -0.7287
14853SOL    HW245610   6.170   7.984   3.414 -2.2379  0.4763  1.0310
14854SOL     OW45611   5.628   8.045   1.950  0.4309 -0.5727  0.2970
14854SOL    HW145612   5.588   7.961   1.970 -0.8112 -0.1393 -0.2622
14854SOL    HW245613   5.627   8.093   2.033  1.1565 -1.1039  0.6193
14855SOL     OW45614   4.823   6.414   3.301 -0.5120  0.5101 -0.3163
14855SOL    HW145615   4.912   6.385   3.287 -0.7229 -1.3338  1.6803
14855SOL    HW245616   4.827   6.467   3.381 -1.2175  0.2897 -0.1232
14856SOL     OW45617   5.518   3.799   4.606 -0.4875 -0.1069 -0.1200
14856SOL    HW145618   5.609   3.775   4.590 -0.4271  1.3154 -2.2154
14856SOL    HW245619   5.492   3.745   4.681  2.0426 -0.5718  0.5047
14857SOL     OW45620   7.927   1.512   3.884  0.6995  0.2377 -0.2653
14857SOL    HW145621   7.889   1.539   3.801 -1.1940  1.8024  1.0090
14857SOL    HW245622   7.942   1.594   3.931 -0.7243 -0.6543  1.9034
14858SOL     OW45623   2.916   4.063   5.744  0.0988  0.2769  0.1363
14858SOL    HW145624   2.931   4.112   5.664  0.7595  2.3004  1.4218
14858SOL    HW245625   2.823   4.077   5.764  0.1243  0.4547  0.1332
14859SOL     OW45626   0.479   5.406   7.073  0.2280  0.3669 -0.3869
14859SOL    HW145627   0.413   5.473   7.090 -1.0384 -1.2872  1.8783
14859SOL    HW245628   0.429   5.324   7.068  1.7877 -0.5590 -2.2443
14860SOL     OW45629   5.923   0.276   7.262 -0.6142  0.6716  0.7002
14860SOL    HW145630   5.833   0.249   7.275 -0.8627  0.7708 -0.6598
14860SOL    HW245631   5.937   0.270   7.167  1.3589 -1.1321  1.0031
14861SOL     OW45632   4.937   0.252   5.369  0.0335 -0.3156  0.2906
14861SOL    HW145633   4.864   0.309   5.390  1.3623  1.9498 -0.8625
14861SOL    HW245634   4.922   0.227   5.278  1.3802  1.3979 -0.4546
14862SOL     OW45635   0.833   6.359   0.439 -0.2638 -0.2526  1.3749
14862SOL    HW145636   0.842   6.423   0.509  0.1413  0.2435  0.8759
14862SOL    HW245637   0.921   6.349   0.404 -0.4745 -0.4320  0.8831
14863SOL     OW45638   2.277   5.808   6.790  0.0781 -0.1515  0.3009
14863SOL    HW145639   2.359   5.767   6.816 -0.1897 -0.5054  0.6107
14863SOL    HW245640   2.287   5.900   6.813  0.2730 -0.2530  0.6240
14864SOL     OW45641   6.613   4.286   6.878  0.3392 -0.2772  0.5075
14864SOL    HW145642   6.622   4.358   6.940 -0.6076  1.1133 -0.9143
14864SOL    HW245643   6.675   4.306   6.808  1.2177 -1.7018  0.8342
14865SOL     OW45644   6.960   2.677   6.129  0.2009 -0.4437  0.1629
14865SOL    HW145645   6.867   2.682   6.106  0.4661 -0.1445 -0.8929
14865SOL    HW245646   6.992   2.599   6.084  1.1442  1.1576 -2.1226
14866SOL     OW45647   0.804   7.257   3.405  0.0541 -0.1739 -0.7989
14866SOL    HW145648   0.766   7.307   3.333 -0.6737  0.9559  0.3275
14866SOL    HW245649   0.871   7.315   3.441 -0.8684  0.0867  0.5871
14867SOL     OW45650   0.177   1.973   1.753 -0.2400  0.2801  0.5160
14867SOL    HW145651   0.166   2.058   1.710  0.3144  0.6634  1.0958
14867SOL    HW245652   0.252   1.986   1.811  0.0504 -0.7043  0.3849
14868SOL     OW45653   7.218   3.129   1.460  0.2895 -0.6377 -0.3019
14868SOL    HW145654   7.180   3.116   1.373 -0.0179  0.5801 -0.3582
14868SOL    HW245655   7.311   3.141   1.445  0.2367 -0.4314 -0.4665
14869SOL     OW45656   8.143   5.622   7.098 -0.8755 -0.8115  0.2209
14869SOL    HW145657   8.064   5.633   7.045 -1.1029 -0.4167  0.6268
14869SOL    HW245658   8.110   5.610   7.187 -0.5017 -1.6106  0.2510
14870SOL     OW45659   0.654   0.596   6.695 -0.1343  0.3862  0.1882
14870SOL    HW145660   0.627   0.506   6.678  1.1456 -0.2914  1.4909
14870SOL    HW245661   0.707   0.620   6.618 -2.2327  0.8530 -1.1874
14871SOL     OW45662   4.838   1.595   6.537 -0.2763  0.1401  0.1197
14871SOL    HW145663   4.887   1.615   6.457 -1.3169  0.3677 -0.4790
14871SOL    HW245664   4.849   1.674   6.591 -2.4099  1.4837 -1.2560
14872SOL     OW45665   0.830   8.093   7.921  0.3513  0.3563  0.2790
14872SOL    HW145666   0.850   8.050   8.004 -0.6823 -2.8132 -0.9789
14872SOL    HW245667   0.738   8.074   7.905  0.9374 -0.6720 -2.3727
14873SOL     OW45668   7.285   0.960   8.041 -0.3412  0.4857 -0.2645
14873SOL    HW145669   7.334   0.892   7.995 -0.9499  0.2208 -0.5209
14873SOL    HW245670   7.260   1.023   7.973 -0.2775  0.6694 -0.1200
14874SOL     OW45671   5.178   5.586   7.838  0.3610  0.3961 -0.2207
14874SOL    HW145672   5.233   5.524   7.885 -0.2588  1.2446  1.7583
14874SOL    HW245673   5.232   5.665   7.832 -0.7007  1.3952  2.1706
14875SOL     OW45674   2.490   5.325   5.388  0.0774 -1.1758 -0.2247
14875SOL    HW145675   2.399   5.313   5.416 -0.0721  0.7214  0.1788
14875SOL    HW245676   2.488   5.402   5.332  1.5794 -0.5240  0.5777
14876SOL     OW45677   5.132   1.314   5.042 -0.2972 -0.0085 -0.5112
14876SOL    HW145678   5.064   1.252   5.014  0.4260 -0.3234 -1.6215
14876SOL    HW245679   5.083   1.386   5.083 -1.2277 -0.7367 -0.3112
14877SOL     OW45680   4.877   6.466   5.533  0.0884  0.2228 -0.7124
14877SOL    HW145681   4.835   6.552   5.522 -1.8206 -0.7649 -1.6202
14877SOL    HW245682   4.811   6.412   5.575  0.6578 -1.2593 -1.6540
14878SOL     OW45683   0.167   1.076   6.957  0.4807  0.0826  0.1822
14878SOL    HW145684   0.125   1.095   6.873  1.1744 -0.0643 -0.2106
14878SOL    HW245685   0.243   1.022   6.934  0.3433 -0.4544  0.9697
14879SOL     OW45686   4.470   5.842   5.604  0.4562 -0.0556 -0.0953
14879SOL    HW145687   4.530   5.773   5.632 -0.3661 -0.6056  0.3700
14879SOL    HW245688   4.527   5.912   5.573  1.3298 -0.6317  0.1551
14880SOL     OW45689   2.742   3.143   5.246 -0.1188 -0.0483  0.2455
14880SOL    HW145690   2.749   3.146   5.151  1.1090  1.3165  0.3459
14880SOL    HW245691   2.660   3.096   5.263 -0.9081  0.6295 -1.4839
14881SOL     OW45692   6.516   3.879   2.829  0.2780  0.1589 -0.7293
14881SOL    HW145693   6.492   3.804   2.775  2.4111  0.0880 -1.6683
14881SOL    HW245694   6.518   3.953   2.768 -0.3664  0.7022 -0.1045
14882SOL     OW45695   7.021   1.546   4.430 -0.2243  0.8890 -0.1801
14882SOL    HW145696   6.944   1.539   4.485 -0.8639 -0.4414 -1.1701
14882SOL    HW245697   7.095   1.535   4.490 -0.8566  0.7016  0.5745
14883SOL     OW45698   1.403   2.107   1.037  0.2900 -0.2324  0.3170
14883SOL    HW145699   1.498   2.101   1.038  0.2392 -1.2499  0.7254
14883SOL    HW245700   1.384   2.192   0.998  1.3652  0.0909  0.4743
14884SOL     OW45701   1.055   1.071   2.535 -0.2334 -0.2798  0.4884
14884SOL    HW145702   0.979   1.021   2.505 -0.7642  0.2001  0.9982
14884SOL    HW245703   1.043   1.077   2.630  1.1706 -1.3765  0.7655
14885SOL     OW45704   4.489   7.941   0.158 -0.1013  0.0791  0.6164
14885SOL    HW145705   4.556   7.959   0.091 -1.0969  0.3092 -0.3363
14885SOL    HW245706   4.491   7.846   0.168  1.5777  0.1914  1.9051
14886SOL     OW45707   2.983   3.399   0.950 -0.5825 -0.1283  0.4495
14886SOL    HW145708   2.948   3.447   0.875  1.5044  0.2930 -0.3337
14886SOL    HW245709   3.020   3.319   0.913 -0.6671 -0.5416  1.2311
14887SOL     OW45710   1.508   7.522   4.693  0.0739  0.1534 -0.0488
14887SOL    HW145711   1.557   7.441   4.685 -1.0742 -0.5643 -0.0827
14887SOL    HW245712   1.562   7.578   4.749  0.4613 -0.9670  0.7265
14888SOL     OW45713   2.895   3.923   8.044 -0.0093 -0.0626 -0.1567
14888SOL    HW145714   2.873   3.869   8.119  0.7409 -1.2855 -0.7930
14888SOL    HW245715   2.815   3.972   8.026 -0.8021 -1.1599  0.2655
14889SOL     OW45716   4.022   4.646   1.271  0.4950 -0.0126 -0.2357
14889SOL    HW145717   4.092   4.663   1.334 -1.2805  2.7429  1.1801
14889SOL    HW245718   4.017   4.550   1.267  3.2935 -0.3017  0.7144
14890SOL     OW45719   2.231   0.920   1.897 -0.0307  0.0918 -0.1814
14890SOL    HW145720   2.196   0.841   1.937  2.0639 -1.0157 -0.4037
14890SOL    HW245721   2.253   0.977   1.971  0.2130 -0.3231  0.0684
14891SOL     OW45722   1.289   2.496   3.126 -0.3712  0.4070 -0.7121
14891SOL    HW145723   1.220   2.459   3.071 -0.9621  0.2898  0.0872
14891SOL    HW245724   1.245   2.567   3.174 -0.4712 -0.8856  1.2345
14892SOL     OW45725   3.504   8.170   3.446  0.4550 -0.0793  0.0173
14892SOL    HW145726   3.580   8.228   3.447 -1.2539  2.3122 -0.4489
14892SOL    HW245727   3.478   8.163   3.538 -0.3710  1.4460 -0.0634
14893SOL     OW45728   6.964   0.913   5.244 -0.1831 -0.2152 -0.1588
14893SOL    HW145729   7.030   0.860   5.201 -2.0883 -0.8976 -2.4491
14893SOL    HW245730   6.995   1.003   5.235  1.7013 -0.6639  1.2701
14894SOL     OW45731   5.010   7.057   0.475  0.0711 -0.2448 -0.7264
14894SOL    HW145732   5.049   7.011   0.401  0.3120  1.5857 -1.7696
14894SOL    HW245733   4.919   7.027   0.476  0.2058 -0.6980 -1.4181
14895SOL     OW45734   2.439   5.574   7.862 -0.1848  0.1366 -0.2439
14895SOL    HW145735   2.388   5.598   7.939  2.3728 -0.5514  1.8477
14895SOL    HW245736   2.501   5.508   7.895  0.6843 -0.5696 -3.0469
14896SOL     OW45737   5.130   4.512   4.746  0.3625  0.7114 -0.1961
14896SOL    HW145738   5.216   4.502   4.787  0.0841 -1.4551 -0.0223
14896SOL    HW245739   5.142   4.483   4.656 -0.0681  0.9244 -0.3281
14897SOL     OW45740   0.237   1.632   0.692 -0.3522 -0.1305 -0.4598
14897SOL    HW145741   0.159   1.655   0.742  0.0056 -0.2890  0.1886
14897SOL    HW245742   0.310   1.649   0.752 -0.0228 -2.1077 -0.2521
14898SOL     OW45743   7.895   1.465   7.415  0.5375  0.5189 -0.5282
14898SOL    HW145744   7.806   1.500   7.424  0.9981  1.9160 -1.0198
14898SOL    HW245745   7.940   1.493   7.495  0.0063 -2.0532  0.7722
14899SOL     OW45746   3.207   7.227   2.967  0.5965 -0.1762 -0.5730
14899SOL    HW145747   3.246   7.199   2.885  1.4337  0.0454 -0.2648
14899SOL    HW245748   3.124   7.268   2.942  0.3700 -1.0090 -1.2093
14900SOL     OW45749   7.252   4.597   5.510 -0.0762  0.2374 -0.3407
14900SOL    HW145750   7.314   4.552   5.452 -0.7196 -0.9985 -0.1154
14900SOL    HW245751   7.249   4.542   5.588  0.5414  1.7215  0.7600
14901SOL     OW45752   4.551   3.832   3.888 -0.0087 -0.4656 -0.2237
14901SOL    HW145753   4.581   3.755   3.840  1.6349 -0.5363  0.8315
14901SOL    HW245754   4.547   3.901   3.822 -0.7904 -1.2715 -1.0394
14902SOL     OW45755   3.115   1.352   1.623  0.1625  0.5110  0.0183
14902SOL    HW145756   3.207   1.349   1.598 -0.3041 -0.1344 -1.7990
14902SOL    HW245757   3.089   1.260   1.631 -0.4308  0.6743  0.0580
14903SOL     OW45758   1.965   0.125   7.206 -0.0688 -0.1159  0.4904
14903SOL    HW145759   1.985   0.209   7.164 -2.2622  0.4620  0.4672
14903SOL    HW245760   1.962   0.145   7.299 -1.0365 -0.0454  0.4523
14904SOL     OW45761   6.806   6.783   2.496  0.6350  0.0157 -0.3685
14904SOL    HW145762   6.771   6.856   2.445 -0.9254 -1.1441 -1.0311
14904SOL    HW245763   6.754   6.782   2.576  1.0254 -0.0521 -0.1122
14905SOL     OW45764   3.255   1.345   4.164  0.4050 -0.5345  0.0399
14905SOL    HW145765   3.226   1.419   4.218 -0.0128  0.8728 -1.9793
14905SOL    HW245766   3.280   1.278   4.227  0.1472  1.0704  1.9714
14906SOL     OW45767   8.045   2.196   4.854  0.5473  0.2436  0.4270
14906SOL    HW145768   7.958   2.158   4.862 -0.4878  1.8192 -1.9580
14906SOL    HW245769   8.054   2.251   4.932 -1.3862  1.3879 -0.0772
14907SOL     OW45770   2.738   7.142   6.571 -0.4111 -0.2299  0.5426
14907SOL    HW145771   2.756   7.195   6.493 -1.5577  0.4947  0.7515
14907SOL    HW245772   2.824   7.112   6.599  0.0698 -0.1435 -0.7452
14908SOL     OW45773   3.846   7.614   8.177 -0.7009 -0.2222 -0.4433
14908SOL    HW145774   3.814   7.664   8.102  0.2410 -0.0921 -0.7682
14908SOL    HW245775   3.789   7.537   8.179 -0.2059 -0.6621 -1.8320
14909SOL     OW45776   1.347   6.336   0.627  0.0317 -0.0393 -0.1437
14909SOL    HW145777   1.442   6.331   0.614 -0.0157 -0.1901 -0.4374
14909SOL    HW245778   1.325   6.427   0.610  0.1526  0.0400  0.1210
14910SOL     OW45779   5.380   2.208   0.833  0.4582  0.2912 -0.2606
14910SOL    HW145780   5.332   2.205   0.916 -0.4287  2.0699 -0.6667
14910SOL    HW245781   5.336   2.142   0.779  0.3711 -0.1447  0.3233
14911SOL     OW45782   0.024   1.245   4.246  0.2789 -0.2687 -0.1965
14911SOL    HW145783   0.103   1.283   4.209  0.2708  0.1602  0.2222
14911SOL    HW245784  -0.015   1.194   4.174  1.3719 -1.1792 -0.1670
14912SOL     OW45785   3.800   6.136   3.200  0.9204  0.3716  0.1387
14912SOL    HW145786   3.777   6.180   3.118  0.3157 -0.9471 -0.4258
14912SOL    HW245787   3.742   6.060   3.204 -0.3093  1.2950  2.6461
14913SOL     OW45788   3.940   2.909   1.631  0.5808 -0.4996 -0.2966
14913SOL    HW145789   3.891   2.827   1.644  0.0080 -0.0347  0.6013
14913SOL    HW245790   3.991   2.919   1.712 -0.3201  0.6594  0.1646
14914SOL     OW45791   1.199   3.886   6.201  0.1793  0.1533 -0.2120
14914SOL    HW145792   1.246   3.848   6.127  0.8124  0.5873 -0.0437
14914SOL    HW245793   1.202   3.981   6.185 -1.6695  0.1513 -0.8046
14915SOL     OW45794   3.351   0.412   4.526  0.2148 -0.3368 -0.1667
14915SOL    HW145795   3.311   0.460   4.599  0.5240 -0.1160 -0.1401
14915SOL    HW245796   3.403   0.343   4.568  0.1139 -0.4288 -0.1915
14916SOL     OW45797   6.698   7.260   5.089 -0.7306 -0.2285 -0.3207
14916SOL    HW145798   6.608   7.270   5.121 -0.7077  1.1178 -0.5866
14916SOL    HW245799   6.696   7.299   5.001  0.2302  0.3807 -0.0900
14917SOL     OW45800   0.789   1.801   0.414 -0.2881  0.1909 -0.3850
14917SOL    HW145801   0.861   1.858   0.387 -0.3389  0.9359  0.9711
14917SOL    HW245802   0.717   1.861   0.435 -1.0882 -0.5031 -1.0702
14918SOL     OW45803   1.155   6.627   6.763  0.0785 -0.0240 -0.1351
14918SOL    HW145804   1.103   6.547   6.752  0.2542 -0.4232  1.7285
14918SOL    HW245805   1.244   6.601   6.740 -0.0710 -0.0178 -0.7511
14919SOL     OW45806   0.250   6.932   1.592  0.1328 -0.1734 -0.4487
14919SOL    HW145807   0.206   6.890   1.517  0.4506 -3.2219  0.9145
14919SOL    HW245808   0.179   6.948   1.654 -0.2830  3.2217 -1.6098
14920SOL     OW45809   6.898   0.572   4.479 -0.2935 -0.2325 -0.4846
14920SOL    HW145810   6.958   0.621   4.535 -1.3809 -1.1668  1.5823
14920SOL    HW245811   6.890   0.626   4.400 -0.0537  2.0013  0.9454
14921SOL     OW45812   1.233   3.229   5.394 -0.2959  0.2222 -0.3557
14921SOL    HW145813   1.277   3.226   5.309 -0.1791 -0.7023 -0.2732
14921SOL    HW245814   1.263   3.151   5.440 -0.0587  0.9037  0.7026
14922SOL     OW45815   2.264   5.653   8.067 -0.4097  0.2993 -0.3772
14922SOL    HW145816   2.170   5.659   8.052 -0.4195  0.2611 -0.3298
14922SOL    HW245817   2.275   5.668   8.161 -0.0614  3.9253 -0.8745
14923SOL     OW45818   2.328   7.777   0.446 -0.0402 -0.0079  0.0869
14923SOL    HW145819   2.293   7.694   0.478  2.0312 -0.9087  0.2109
14923SOL    HW245820   2.336   7.832   0.523  0.8975 -0.6317  0.4638
14924SOL     OW45821   1.067   5.949   6.567  0.4180  0.0582  0.5732
14924SOL    HW145822   0.979   5.918   6.544  0.7491 -0.7172  0.2918
14924SOL    HW245823   1.080   5.918   6.656  0.8719 -0.9471  0.1821
14925SOL     OW45824   6.532   7.271   0.321 -0.1724  0.1539 -0.3294
14925SOL    HW145825   6.484   7.348   0.291 -1.8033 -0.4357  0.6769
14925SOL    HW245826   6.479   7.196   0.294  0.4036 -0.5430  0.3919
14926SOL     OW45827   6.550   1.998   0.130  0.1772  0.5097  0.1431
14926SOL    HW145828   6.575   2.023   0.041 -1.0290  1.2013 -0.0276
14926SOL    HW245829   6.456   1.979   0.124  0.2266 -0.1000  1.1302
14927SOL     OW45830   0.044   7.129   3.979  0.8513  0.0590 -0.2006
14927SOL    HW145831  -0.014   7.053   3.981  1.0978 -0.1256  0.8016
14927SOL    HW245832  -0.011   7.201   3.951 -0.0602  0.0145  1.3559
14928SOL     OW45833   2.152   8.055   1.245 -0.1337 -0.1275  0.3022
14928SOL    HW145834   2.236   8.058   1.199  0.9195 -0.4429  2.1238
14928SOL    HW245835   2.128   8.147   1.257 -0.1371 -0.0377 -0.3441
14929SOL     OW45836   1.506   7.606   5.069 -0.4373 -0.3042  0.1506
14929SOL    HW145837   1.441   7.537   5.055  0.2698 -1.0415  0.3544
14929SOL    HW245838   1.585   7.558   5.096  0.3538  0.5120 -0.6324
14930SOL     OW45839   4.931   3.604   1.221  0.1745  0.5782  0.5373
14930SOL    HW145840   4.893   3.656   1.292  0.6226  1.0748  0.4208
14930SOL    HW245841   4.955   3.521   1.263 -0.1101  0.6377  0.8301
14931SOL     OW45842   7.748   4.035   6.838 -0.3171  0.0309 -0.2040
14931SOL    HW145843   7.791   4.067   6.918 -3.9875  2.5767  1.0173
14931SOL    HW245844   7.788   4.086   6.767 -0.4643  1.4907  0.7210
14932SOL     OW45845   0.699   0.853   2.218  0.0323  0.0310  0.7866
14932SOL    HW145846   0.682   0.760   2.204  3.3813 -0.4169 -1.3906
14932SOL    HW245847   0.668   0.895   2.139  1.3362  0.2720  0.3772
14933SOL     OW45848   3.414   6.615   5.897  0.1450  0.7048  0.0748
14933SOL    HW145849   3.358   6.547   5.859  0.5441  0.7262 -0.5675
14933SOL    HW245850   3.503   6.580   5.889  0.2471  0.7028  1.0129
14934SOL     OW45851   4.040   3.753   4.258 -0.0923  0.4216 -0.6341
14934SOL    HW145852   3.976   3.813   4.295 -0.8787 -1.5617  1.5237
14934SOL    HW245853   4.019   3.668   4.297  1.8702 -0.9876 -2.3540
14935SOL     OW45854   6.919   3.562   3.475  0.1829  0.2549 -0.0212
14935SOL    HW145855   6.844   3.509   3.448  1.7350 -1.6277 -0.8150
14935SOL    HW245856   6.976   3.565   3.398  1.0431  1.4888  0.6169
14936SOL     OW45857   0.124   4.219   2.292 -0.2085  0.3143 -0.6853
14936SOL    HW145858   0.150   4.230   2.201 -1.4672  0.6627 -1.0227
14936SOL    HW245859   0.028   4.218   2.290 -0.2587  0.3524  0.6330
14937SOL     OW45860   3.645   4.824   1.546 -0.2356 -0.6713 -0.2711
14937SOL    HW145861   3.727   4.786   1.516 -0.1726  0.8960 -2.2371
14937SOL    HW245862   3.579   4.790   1.485 -0.5660  0.4113 -0.5287
14938SOL     OW45863   2.237   4.335   1.704  0.3947  0.0196 -0.4114
14938SOL    HW145864   2.248   4.351   1.798 -0.1240  2.4658 -0.7000
14938SOL    HW245865   2.152   4.291   1.697 -0.4234  1.4441  0.1650
14939SOL     OW45866   2.392   7.895   4.552  0.0572  0.6343 -0.6251
14939SOL    HW145867   2.331   7.939   4.493  0.2113  1.7794  0.0325
14939SOL    HW245868   2.475   7.892   4.503  0.4345  2.4052 -0.1838
14940SOL     OW45869   6.630   3.346   7.594  0.4107 -0.1428 -0.2157
14940SOL    HW145870   6.565   3.342   7.664  0.5275  2.7275  0.1870
14940SOL    HW245871   6.579   3.371   7.517  0.6954 -0.4349 -0.5014
14941SOL     OW45872   7.345   6.847   4.807  0.1599  0.1315 -0.4858
14941SOL    HW145873   7.276   6.780   4.811  0.2239  0.0187 -1.1342
14941SOL    HW245874   7.301   6.928   4.831 -0.3667  0.1731 -1.5238
14942SOL     OW45875   6.659   7.002   0.165  0.1890  0.3232  0.2000
14942SOL    HW145876   6.737   7.007   0.221  0.0231 -0.5674  0.5274
14942SOL    HW245877   6.694   7.008   0.076  0.3426  3.0173  0.3779
14943SOL     OW45878   3.911   6.685   2.751  0.5007 -0.3181  0.3025
14943SOL    HW145879   3.873   6.635   2.678 -0.4543  1.0018 -0.1406
14943SOL    HW245880   3.844   6.749   2.773  1.5828  0.5876  1.0417
14944SOL     OW45881   4.300   0.766   3.980  0.9301 -0.6876 -0.1872
14944SOL    HW145882   4.270   0.721   4.059 -2.7384  1.6935  0.0194
14944SOL    HW245883   4.237   0.740   3.913  1.2298  0.8232 -1.1013
14945SOL     OW45884   7.587   1.624   1.421  0.2305  0.2762 -0.4243
14945SOL    HW145885   7.508   1.669   1.392  0.6230  0.5837 -1.0465
14945SOL    HW245886   7.557   1.537   1.449 -0.5188  0.8769  0.6948
14946SOL     OW45887   1.505   1.876   6.228  0.4373 -0.5257  0.3211
14946SOL    HW145888   1.547   1.934   6.291  1.6836 -0.1474 -0.8079
14946SOL    HW245889   1.511   1.789   6.267  3.2896 -0.6741 -0.2147
14947SOL     OW45890   6.561   6.182   1.420 -0.9906 -0.3173 -0.1912
14947SOL    HW145891   6.639   6.195   1.474  1.2302 -0.6694 -3.1071
14947SOL    HW245892   6.582   6.106   1.365 -4.0559 -1.4157 -0.0471
14948SOL     OW45893   0.229   4.993   8.227  0.0938  0.0886  0.3318
14948SOL    HW145894   0.173   5.008   8.151 -0.7557 -0.0082  0.9255
14948SOL    HW245895   0.289   5.068   8.228 -0.5730  0.6361  0.1614
14949SOL     OW45896   5.631   3.707   2.955 -0.2488 -0.2735 -0.6269
14949SOL    HW145897   5.565   3.737   3.018  0.6977  2.2465 -0.7019
14949SOL    HW245898   5.679   3.639   3.001 -0.1585  0.8736  1.0869
14950SOL     OW45899   4.985   1.412   2.707  0.0084  0.5694  0.4233
14950SOL    HW145900   5.068   1.455   2.687  0.1227  0.9083  1.5708
14950SOL    HW245901   4.919   1.465   2.663  0.3168  0.7948  0.2294
14951SOL     OW45902   4.463   1.724   5.468  0.3400 -0.4097 -0.1793
14951SOL    HW145903   4.543   1.704   5.517 -0.1335 -2.2683 -0.1070
14951SOL    HW245904   4.397   1.667   5.506 -0.7664  0.2918 -0.9965
14952SOL     OW45905   5.382   5.440   8.006  0.0609 -0.0208  0.4580
14952SOL    HW145906   5.400   5.347   8.019  0.5295 -0.2501 -1.4643
14952SOL    HW245907   5.436   5.484   8.070  2.8486 -0.9651 -1.0764
14953SOL     OW45908   3.233   4.876   0.598  0.7098 -0.1842  0.5313
14953SOL    HW145909   3.322   4.909   0.586  1.0031 -0.8314  0.8726
14953SOL    HW245910   3.224   4.861   0.692 -0.8226  2.7431  0.9611
14954SOL     OW45911   2.049   1.009   6.626 -0.1091 -0.5084 -0.2608
14954SOL    HW145912   2.002   0.987   6.545  0.8376  1.1272 -1.3165
14954SOL    HW245913   2.117   0.942   6.634 -0.7474 -1.1760 -0.3334
14955SOL     OW45914   7.084   4.068   5.915  0.3590 -0.1868 -0.1710
14955SOL    HW145915   7.076   4.122   5.994  1.0160 -0.0707 -0.1712
14955SOL    HW245916   7.171   4.029   5.922 -0.0731 -1.1898 -0.2163
14956SOL     OW45917   2.085   7.689   1.353 -0.0110 -0.8275 -0.1964
14956SOL    HW145918   2.136   7.631   1.297  0.5989  1.0001 -1.6032
14956SOL    HW245919   2.093   7.775   1.313  0.4604  0.5979  2.7105
14957SOL     OW45920   5.405   3.542   4.656 -0.0806  0.0595 -0.0474
14957SOL    HW145921   5.413   3.482   4.731 -1.1896 -0.8383 -0.6083
14957SOL    HW245922   5.327   3.594   4.676 -0.5059 -0.3306 -0.6577
14958SOL     OW45923   7.573   5.471   1.007 -0.1167 -0.0020  0.5942
14958SOL    HW145924   7.647   5.425   0.968  0.6344  1.0742  0.7360
14958SOL    HW245925   7.564   5.433   1.094  1.2659  0.9172  1.1665
14959SOL     OW45926   1.292   5.847   4.979  0.1852 -0.3076 -0.4839
14959SOL    HW145927   1.206   5.804   4.983  0.3547 -0.5502  0.6807
14959SOL    HW245928   1.300   5.893   5.062  1.6103 -1.1039 -0.1544
14960SOL     OW45929   5.050   5.598   0.302 -0.6770  0.2715  0.0027
14960SOL    HW145930   5.084   5.604   0.391 -1.5914 -1.4835  0.5173
14960SOL    HW245931   5.087   5.517   0.267 -1.7143  0.0134 -0.5611
14961SOL     OW45932   4.305   0.759   2.003  0.1156 -0.4107 -0.0691
14961SOL    HW145933   4.256   0.809   1.938 -1.0076 -0.7232  0.5004
14961SOL    HW245934   4.322   0.822   2.074 -0.0081 -0.4586  0.0035
14962SOL     OW45935   3.766   7.700   1.824 -0.3035 -0.2785 -0.3376
14962SOL    HW145936   3.837   7.746   1.780  0.7160 -0.7566  0.7544
14962SOL    HW245937   3.706   7.769   1.852  0.2943  0.2304 -0.2981
14963SOL     OW45938   2.980   2.013   3.837 -0.2330 -0.7101 -0.1318
14963SOL    HW145939   2.904   2.060   3.805  0.8452  2.9064  1.9481
14963SOL    HW245940   3.048   2.080   3.844  3.1736 -3.6659 -1.6619
14964SOL     OW45941   2.491   5.044   5.544  0.7211 -0.1005  0.1282
14964SOL    HW145942   2.420   5.086   5.592 -0.2877 -2.3799  0.7567
14964SOL    HW245943   2.524   5.112   5.485 -3.6574  0.4519 -2.0676
14965SOL     OW45944   4.392   5.948   6.742 -0.0512  0.3486  0.2640
14965SOL    HW145945   4.384   5.854   6.724 -1.0403  0.7416 -1.6821
14965SOL    HW245946   4.412   5.987   6.657 -0.0104  1.9446  0.9703
14966SOL     OW45947   3.059   7.462   0.319 -0.1551 -0.0976  0.0196
14966SOL    HW145948   3.035   7.394   0.382 -1.5364 -0.8691 -1.2474
14966SOL    HW245949   3.032   7.426   0.234  1.8765  0.7858 -1.0603
14967SOL     OW45950   6.984   0.890   5.598  0.2024 -0.9025 -0.0531
14967SOL    HW145951   6.974   0.879   5.504  0.9432  0.0388 -0.2577
14967SOL    HW245952   7.060   0.948   5.607 -0.5989  0.0243  1.0751
14968SOL     OW45953   1.595   1.797   4.645 -0.0069  0.2133 -0.2129
14968SOL    HW145954   1.625   1.832   4.730 -0.5392  3.2529 -1.1413
14968SOL    HW245955   1.508   1.761   4.664 -0.5857  1.8242  0.4058
14969SOL     OW45956   0.610   6.547   8.172 -0.1056  0.1593 -0.1905
14969SOL    HW145957   0.529   6.592   8.147 -1.0426 -0.6567  1.2371
14969SOL    HW245958   0.640   6.594   8.249 -0.6964 -1.1429  0.8767
14970SOL     OW45959   0.989   5.719   7.386 -0.0989 -0.5778 -0.0024
14970SOL    HW145960   0.944   5.705   7.303 -1.6256 -1.5247  0.9232
14970SOL    HW245961   0.988   5.633   7.429  1.2373 -0.2565  0.7261
14971SOL     OW45962   6.703   6.527   3.435  0.4395  0.1100 -0.9016
14971SOL    HW145963   6.708   6.576   3.517  1.8674 -0.1194 -0.8215
14971SOL    HW245964   6.611   6.534   3.409 -0.8411 -2.4133  2.2886
14972SOL     OW45965   5.115   4.238   5.481 -0.0387  0.7809  0.4529
14972SOL    HW145966   5.192   4.194   5.518 -0.6598 -1.2173 -0.4668
14972SOL    HW245967   5.077   4.285   5.555  0.1516 -1.0460  1.7876
14973SOL     OW45968   3.676   3.359   6.188  0.1600  0.0776 -0.3753
14973SOL    HW145969   3.663   3.328   6.099 -0.4760  1.5402 -0.8216
14973SOL    HW245970   3.742   3.428   6.180 -1.4553  1.7281 -0.0830
14974SOL     OW45971   4.475   3.444   2.209  0.3273  0.4201 -0.3865
14974SOL    HW145972   4.549   3.477   2.159  0.4244 -1.0438 -1.2663
14974SOL    HW245973   4.500   3.455   2.301  0.8195  1.6798 -0.6602
14975SOL     OW45974   7.688   3.470   4.907 -0.3001  0.1680 -0.3085
14975SOL    HW145975   7.765   3.413   4.907 -1.1653 -1.0786 -1.6979
14975SOL    HW245976   7.717   3.549   4.863  0.3963  0.0590 -0.0686
14976SOL     OW45977   7.132   0.456   2.052  0.2756  0.5181  0.2237
14976SOL    HW145978   7.066   0.470   2.119 -0.4767  1.2177 -0.6216
14976SOL    HW245979   7.085   0.468   1.969  0.9397 -1.3255 -0.4660
14977SOL     OW45980   4.261   2.251   5.563  0.3936  0.5327  0.1765
14977SOL    HW145981   4.282   2.202   5.484  1.5503  1.0656  0.1357
14977SOL    HW245982   4.334   2.312   5.574  0.0223  0.7909  1.3956
14978SOL     OW45983   6.374   7.043   1.188  0.4113 -0.5151 -0.6939
14978SOL    HW145984   6.327   7.121   1.218  0.8613 -0.5689  0.1620
14978SOL    HW245985   6.432   7.076   1.119  0.1830 -0.1902 -0.7333
14979SOL     OW45986   0.537   1.462   0.195 -0.1293  0.1928 -0.2148
14979SOL    HW145987   0.587   1.381   0.188  0.0925  0.1635  1.3765
14979SOL    HW245988   0.465   1.452   0.133  1.1649 -0.2385 -1.7268
14980SOL     OW45989   5.297   4.163   3.432 -0.3377 -0.1181  0.6345
14980SOL    HW145990   5.253   4.225   3.374  2.2883 -0.9820 -2.6249
14980SOL    HW245991   5.330   4.216   3.505  0.1912  2.0194 -1.0757
14981SOL     OW45992   1.483   5.230   5.986  0.1098 -0.0753  0.1208
14981SOL    HW145993   1.428   5.298   5.948  0.2733  0.4552  0.8081
14981SOL    HW245994   1.535   5.198   5.913  0.0688  0.5809 -0.2060
14982SOL     OW45995   4.306   0.630   0.061 -0.3934 -0.2914 -0.9110
14982SOL    HW145996   4.292   0.536   0.063 -0.1539 -0.3226  0.1329
14982SOL    HW245997   4.304   0.656   0.153  0.9079  0.5026 -1.0811
14983SOL     OW45998   7.434   1.824   2.301 -0.0103 -0.6617 -0.8144
14983SOL    HW145999   7.353   1.772   2.296  0.5509 -1.5609 -0.7164
14983SOL    HW246000   7.478   1.794   2.380 -0.8504  1.7696  0.7046
14984SOL     OW46001   5.731   8.083   2.715 -0.3040  0.0103 -0.2654
14984SOL    HW146002   5.763   8.088   2.625  0.1891 -0.2407 -0.1101
14984SOL    HW246003   5.769   8.159   2.759 -2.0228  1.1724 -0.7045
14985SOL     OW46004   4.119   4.099   4.788 -0.2037  0.0045  0.0713
14985SOL    HW146005   4.198   4.143   4.756  0.2873 -0.1388  1.0416
14985SOL    HW246006   4.065   4.086   4.710 -0.5889  2.7114 -0.1808
14986SOL     OW46007   7.932   6.220   7.676 -0.5219  0.0602 -0.4144
14986SOL    HW146008   8.020   6.190   7.653  0.4780  2.4325 -0.0194
14986SOL    HW246009   7.877   6.142   7.669  1.4821 -1.3554 -1.3055
14987SOL     OW46010   4.251   5.053   0.991 -0.0482  0.1613  0.2700
14987SOL    HW146011   4.204   4.971   0.975  1.3836 -0.4149 -1.5001
14987SOL    HW246012   4.233   5.106   0.913  0.8538  0.5922  0.3434
14988SOL     OW46013   7.632   4.733   0.871 -0.0862  0.3281  0.0359
14988SOL    HW146014   7.695   4.795   0.834  0.8640  0.3427  1.6309
14988SOL    HW246015   7.675   4.648   0.866 -0.5770  0.0915 -0.2874
14989SOL     OW46016   3.566   2.683   3.702  0.4500  0.2363 -0.0174
14989SOL    HW146017   3.555   2.756   3.763 -0.6250  0.1861 -0.1230
14989SOL    HW246018   3.588   2.724   3.618  2.2820  0.2886  0.4462
14990SOL     OW46019   5.965   2.058   7.747  0.0731  0.0804 -0.6712
14990SOL    HW146020   6.006   2.113   7.813 -0.8352  0.6570 -0.5690
14990SOL    HW246021   5.962   1.971   7.787  0.4324  0.2081 -0.3564
14991SOL     OW46022   7.994   0.864   7.730 -0.3629 -0.3260 -0.1406
14991SOL    HW146023   8.053   0.848   7.656  0.7433 -2.1814  1.0439
14991SOL    HW246024   8.007   0.956   7.752  2.7878 -0.8182  0.5372
14992SOL     OW46025   2.422   3.447   0.066  0.2227 -0.1848  0.0766
14992SOL    HW146026   2.424   3.351   0.059  0.5071 -0.2492  0.9128
14992SOL    HW246027   2.407   3.464   0.159  1.6870  0.5917  0.1998
14993SOL     OW46028   5.563   0.744   1.475  0.4932  0.2322  0.3103
14993SOL    HW146029   5.507   0.783   1.408  1.6450 -0.0882 -0.8719
14993SOL    HW246030   5.595   0.818   1.526 -0.2848  0.4890  0.4405
14994SOL     OW46031   3.999   5.278   0.985  0.0109 -0.4084 -0.9987
14994SOL    HW146032   3.947   5.254   0.909  0.4417 -0.0081 -1.4312
14994SOL    HW246033   4.087   5.293   0.950  0.1269  0.1623 -0.4902
14995SOL     OW46034   5.335   6.471   5.375  0.5884 -0.1103  0.6022
14995SOL    HW146035   5.338   6.376   5.390  3.4728 -0.3139 -0.6721
14995SOL    HW246036   5.415   6.490   5.327 -0.8967  2.6972 -0.9999
14996SOL     OW46037   4.536   7.772   6.795  0.2414 -0.0160  0.1516
14996SOL    HW146038   4.525   7.738   6.707  1.1007 -3.2292  1.1623
14996SOL    HW246039   4.491   7.857   6.794 -0.5864 -0.3803 -3.0542
14997SOL     OW46040   7.880   0.541   3.446  0.1634 -0.1526  0.3563
14997SOL    HW146041   7.786   0.526   3.455  0.2030 -2.0929 -1.4965
14997SOL    HW246042   7.919   0.497   3.522 -0.3788  0.7544  1.1904
14998SOL     OW46043   4.595   0.304   0.550  0.2164 -0.0051 -0.7214
14998SOL    HW146044   4.664   0.290   0.485 -0.9289 -1.0992 -1.7651
14998SOL    HW246045   4.528   0.353   0.503 -0.9812 -1.5076 -0.6315
14999SOL     OW46046   5.755   6.724   6.636 -0.2607 -0.6379  0.4430
14999SOL    HW146047   5.804   6.642   6.636 -0.1504 -0.5709 -0.2746
14999SOL    HW246048   5.770   6.762   6.550 -1.0242 -0.2902  0.4525
15000SOL     OW46049   4.638   7.012   5.259  0.1024 -0.6881  0.2505
15000SOL    HW146050   4.684   6.995   5.176 -0.3492 -0.5629 -0.0294
15000SOL    HW246051   4.553   7.046   5.232  0.1493 -0.1435  0.7780
15001SOL     OW46052   6.299   2.779   0.083  0.1400 -0.3192  0.5941
15001SOL    HW146053   6.374   2.719   0.083  0.9870  0.7115  0.1787
15001SOL    HW246054   6.298   2.815   0.172 -0.6213 -1.2308  0.9703
15002SOL     OW46055   2.023   2.425   2.184  0.3387 -0.0432 -0.5014
15002SOL    HW146056   1.955   2.454   2.123 -0.3204 -0.1841  0.1566
15002SOL    HW246057   2.014   2.483   2.259 -0.7678 -1.6548  0.6780
15003SOL     OW46058   4.173   1.244   4.577 -0.6735  1.1475 -0.0731
15003SOL    HW146059   4.239   1.269   4.514  1.0025 -1.3805  0.5213
15003SOL    HW246060   4.153   1.153   4.556 -2.1828  1.1143  1.2854
15004SOL     OW46061   7.707   1.842   0.391  0.1516 -0.4110  0.3617
15004SOL    HW146062   7.780   1.867   0.447 -0.7872  2.0693  0.6402
15004SOL    HW246063   7.740   1.770   0.338  2.9635  0.9290  0.1049
15005SOL     OW46064   3.902   4.322   3.455 -0.3267 -0.5924 -0.4170
15005SOL    HW146065   3.994   4.319   3.430 -0.0686 -0.2440  0.4382
15005SOL    HW246066   3.854   4.319   3.373  0.4855  2.3116 -1.1085
15006SOL     OW46067   1.026   3.996   6.415  0.3017  0.2237 -0.4978
15006SOL    HW146068   0.959   3.939   6.377  0.2964 -0.7786  0.9532
15006SOL    HW246069   1.107   3.970   6.373  0.6963 -2.4497  1.6190
15007SOL     OW46070   8.039   5.598   1.589  0.3020 -0.0708 -0.1416
15007SOL    HW146071   8.107   5.580   1.525  0.0464 -1.7527  0.0149
15007SOL    HW246072   8.077   5.573   1.673 -0.5683 -1.3554 -0.0862
15008SOL     OW46073   6.232   5.489   4.298 -0.4779  0.5201  0.0825
15008SOL    HW146074   6.154   5.493   4.353 -0.2002 -0.2288  0.5503
15008SOL    HW246075   6.210   5.543   4.221 -2.1807 -1.1336 -0.6853
15009SOL     OW46076   3.732   5.001   3.676  0.1616  0.3759 -0.6037
15009SOL    HW146077   3.759   4.913   3.650  0.5151  0.2059  0.2693
15009SOL    HW246078   3.652   4.987   3.727  1.2808  0.3139  1.2394
15010SOL     OW46079   1.956   7.604   6.868 -0.5694 -0.3227  0.0771
15010SOL    HW146080   1.991   7.607   6.957  2.4059  0.6094 -1.0112
15010SOL    HW246081   1.934   7.695   6.849  0.8303 -0.1568 -0.8386
15011SOL     OW46082   6.399   1.834   7.580  0.1850  0.7290  0.3501
15011SOL    HW146083   6.466   1.846   7.514 -0.4360  1.7990 -0.1038
15011SOL    HW246084   6.407   1.742   7.606  0.2327  0.1997 -1.4339
15012SOL     OW46085   6.596   1.041   3.088 -0.3540  0.1185  0.0133
15012SOL    HW146086   6.688   1.059   3.106 -0.5812  0.8992  0.4023
15012SOL    HW246087   6.554   1.041   3.174  0.0237 -4.9672  0.5286
15013SOL     OW46088   0.482   2.783   6.095  0.1650  0.5554  0.2293
15013SOL    HW146089   0.524   2.789   6.009  0.1832  0.3886  0.2256
15013SOL    HW246090   0.518   2.703   6.134  0.0596  0.5606  0.3387
15014SOL     OW46091   8.277   2.963   0.418 -0.5393 -0.0776 -0.1469
15014SOL    HW146092   8.247   2.962   0.509 -0.0431 -0.8911  0.0148
15014SOL    HW246093   8.198   2.953   0.366 -0.5371 -3.3766  0.2918
15015SOL     OW46094   0.184   4.818   5.816 -0.1505 -0.1042  0.3226
15015SOL    HW146095   0.165   4.867   5.896 -0.0120 -0.6612  0.7034
15015SOL    HW246096   0.128   4.857   5.750 -1.0732 -0.3538  0.9438
15016SOL     OW46097   4.321   5.836   7.242 -0.6191  0.1494  0.4987
15016SOL    HW146098   4.402   5.829   7.192 -0.7125  1.1427  0.1813
15016SOL    HW246099   4.255   5.793   7.188 -0.5753  0.5803  0.0988
15017SOL     OW46100   3.729   6.962   6.735  0.3796  0.0917  0.5430
15017SOL    HW146101   3.674   6.885   6.717 -1.8550  1.8582 -0.7458
15017SOL    HW246102   3.817   6.935   6.707 -0.4817 -1.7405 -0.6381
15018SOL     OW46103   7.595   1.722   2.044 -0.4299  0.0786  0.0156
15018SOL    HW146104   7.659   1.666   2.088 -0.9657 -0.5383  0.0265
15018SOL    HW246105   7.533   1.746   2.113 -0.3556  0.4709 -0.0498
15019SOL     OW46106   2.582   6.782   2.165  0.8086  0.2449  0.3676
15019SOL    HW146107   2.583   6.802   2.259 -1.1735  0.3887  0.3896
15019SOL    HW246108   2.646   6.843   2.128 -1.2195  3.0625  1.1489
15020SOL     OW46109   1.098   4.561   5.535 -0.2159 -0.7807 -0.0725
15020SOL    HW146110   1.112   4.650   5.569  0.0444 -0.7087 -0.3671
15020SOL    HW246111   1.022   4.569   5.477 -0.7141 -0.9202  0.5509
15021SOL     OW46112   0.969   2.333   6.439 -0.3196  0.4404  0.1123
15021SOL    HW146113   0.920   2.251   6.436 -0.3158  0.4192  0.5511
15021SOL    HW246114   0.953   2.373   6.354 -1.2108  0.4872  0.2835
15022SOL     OW46115   0.376   4.146   0.154 -0.0413 -0.2584 -0.2656
15022SOL    HW146116   0.453   4.116   0.203  1.1737  1.7022 -0.8884
15022SOL    HW246117   0.374   4.241   0.167 -2.8065 -0.3024  0.3141
15023SOL     OW46118   4.737   3.863   4.658  0.3414  0.7074 -0.0846
15023SOL    HW146119   4.703   3.789   4.709  0.9687  2.1841  2.6783
15023SOL    HW246120   4.673   3.874   4.587  0.1502 -2.3211 -0.5280
15024SOL     OW46121   2.178   5.429   0.373 -0.0571  0.6692 -0.3565
15024SOL    HW146122   2.111   5.435   0.440  0.3802  0.9581  0.0564
15024SOL    HW246123   2.239   5.363   0.406  0.3357  1.0503 -0.3063
15025SOL     OW46124   3.880   5.757   5.987  0.5073  0.2298 -0.2573
15025SOL    HW146125   3.834   5.791   5.911  1.8075 -0.3565 -1.3531
15025SOL    HW246126   3.892   5.664   5.968  2.3961  0.4207 -0.1887
15026SOL     OW46127   2.725   7.871   3.066 -0.0399 -0.4137 -0.4800
15026SOL    HW146128   2.652   7.902   3.120  0.6398 -0.5045  0.5070
15026SOL    HW246129   2.683   7.843   2.984 -0.9847  0.5133 -0.3374
15027SOL     OW46130   0.670   2.674   5.671 -0.2111 -0.4462 -0.2911
15027SOL    HW146131   0.600   2.713   5.722 -0.8431  0.8684 -2.0424
15027SOL    HW246132   0.749   2.688   5.724 -0.7704  1.2182  0.1888
15028SOL     OW46133   0.390   3.456   5.775  0.1933 -0.2581 -0.0613
15028SOL    HW146134   0.394   3.536   5.827 -0.3685  0.9399 -1.7594
15028SOL    HW246135   0.400   3.385   5.838  0.6921  1.1457  1.4944
15029SOL     OW46136   7.200   1.251   0.828  0.5286 -0.5137 -0.0352
15029SOL    HW146137   7.198   1.156   0.820 -0.7517 -0.3951 -1.8419
15029SOL    HW246138   7.247   1.281   0.749  0.5161  0.3713  0.2753
15030SOL     OW46139   4.676   5.550   7.373  0.4695  0.3149  0.3903
15030SOL    HW146140   4.711   5.539   7.462  0.1419 -0.2433  0.4561
15030SOL    HW246141   4.704   5.638   7.347  1.3415  0.1381  0.6963
15031SOL     OW46142   5.437   6.971   3.173  0.2578  0.1670 -0.1490
15031SOL    HW146143   5.347   6.986   3.198  0.2904  3.4390 -1.5076
15031SOL    HW246144   5.434   6.959   3.078  1.1048 -1.9091  0.0224
15032SOL     OW46145   1.043   6.334   4.486  0.2521  0.1885  0.5520
15032SOL    HW146146   1.041   6.356   4.392 -0.6713 -2.6575 -0.1970
15032SOL    HW246147   1.105   6.395   4.523  0.5876  1.4875 -1.9108
15033SOL     OW46148   1.954   7.327   2.543 -0.5385  0.3456  0.4589
15033SOL    HW146149   1.882   7.305   2.602 -1.5778  2.0661 -0.0628
15033SOL    HW246150   2.018   7.257   2.554 -0.9776  0.2953  3.1460
15034SOL     OW46151   5.669   0.382   4.811 -0.0739 -0.1133  0.3222
15034SOL    HW146152   5.711   0.465   4.790 -0.9153  0.7921  1.9321
15034SOL    HW246153   5.578   0.393   4.783  0.1941 -1.1769 -1.0439
15035SOL     OW46154   5.443   0.387   3.356  0.5409 -0.0434  0.1352
15035SOL    HW146155   5.434   0.307   3.407 -0.4244 -0.8477 -1.2219
15035SOL    HW246156   5.402   0.455   3.409  0.9072 -0.5485  1.0726
15036SOL     OW46157   6.430   3.575   5.710  0.1503 -0.4496  0.2059
15036SOL    HW146158   6.518   3.609   5.696 -0.8217  1.7205 -1.3229
15036SOL    HW246159   6.391   3.573   5.622 -1.9929  0.7497  1.0412
15037SOL     OW46160   1.856   2.605   5.699  0.1558 -0.2798  0.1416
15037SOL    HW146161   1.872   2.627   5.791 -0.6795  1.6390 -0.1127
15037SOL    HW246162   1.858   2.509   5.696  1.0565 -0.3583  1.9820
15038SOL     OW46163   3.850   4.769   3.345 -0.5201 -0.3983 -0.3820
15038SOL    HW146164   3.757   4.766   3.326 -0.5740  1.6792 -0.7230
15038SOL    HW246165   3.880   4.851   3.304  1.2219 -0.5008  0.5983
15039SOL     OW46166   5.967   6.639   4.678  0.1084  0.0175  0.0973
15039SOL    HW146167   5.983   6.631   4.584 -0.2044  0.3691  0.0132
15039SOL    HW246168   6.007   6.722   4.702 -2.4061  1.4529 -0.3184
15040SOL     OW46169   4.455   5.941   4.941 -0.0672  0.1191  0.3285
15040SOL    HW146170   4.444   5.914   4.849 -1.7267  1.6814  0.0053
15040SOL    HW246171   4.370   5.978   4.965  0.3716 -0.1548  2.4894
15041SOL     OW46172   0.617   3.495   1.057 -0.2196  0.3111  0.9754
15041SOL    HW146173   0.569   3.541   1.126 -0.6918  1.1333  0.1146
15041SOL    HW246174   0.557   3.427   1.027 -0.8317  1.2588 -0.0141
15042SOL     OW46175   0.189   6.260   4.377  1.1708 -0.0383  0.6759
15042SOL    HW146176   0.159   6.266   4.468  2.8626  1.0559  1.2248
15042SOL    HW246177   0.186   6.350   4.345 -0.0492 -0.4983 -0.6212
15043SOL     OW46178   4.233   6.793   5.845 -0.0641  0.2189  0.6608
15043SOL    HW146179   4.166   6.764   5.783 -0.8401  0.3639  1.4244
15043SOL    HW246180   4.270   6.872   5.806  0.8057 -0.7434 -0.5545
15044SOL     OW46181   7.996   3.835   6.666  0.0410 -0.2059  0.0043
15044SOL    HW146182   8.008   3.858   6.574  1.2442  1.0523  0.4467
15044SOL    HW246183   8.061   3.887   6.713 -1.2356 -0.0210  1.6800
15045SOL     OW46184   1.353   4.280   2.796  0.1000 -0.3242 -0.0305
15045SOL    HW146185   1.316   4.277   2.884 -1.0841 -0.7145 -0.5076
15045SOL    HW246186   1.434   4.231   2.801 -1.2169 -2.6033  0.3116
15046SOL     OW46187   5.081   6.059   7.767 -0.5167  0.1948  0.5425
15046SOL    HW146188   5.130   6.049   7.849 -0.5903  0.2832  0.5974
15046SOL    HW246189   5.057   5.970   7.743  0.2368  0.0922  0.1658
15047SOL     OW46190   5.752   7.012   7.549  0.1978 -0.0017  0.3483
15047SOL    HW146191   5.675   6.970   7.511  0.3217  0.9506 -0.9961
15047SOL    HW246192   5.826   6.958   7.521  0.0521 -0.9312  1.6607
15048SOL     OW46193   4.521   4.664   3.832 -0.1743 -0.3468  1.0967
15048SOL    HW146194   4.487   4.635   3.747  2.1846  2.7610 -1.1512
15048SOL    HW246195   4.550   4.583   3.875 -0.5082 -1.9697 -1.5016
15049SOL     OW46196   4.391   1.357   4.388  0.5241  0.0345  0.1075
15049SOL    HW146197   4.338   1.334   4.311 -1.6342  0.3785  1.4064
15049SOL    HW246198   4.449   1.427   4.357  1.9776 -1.9705 -1.9739
15050SOL     OW46199   1.919   8.055   0.277  0.2249 -0.0247 -0.0557
15050SOL    HW146200   1.868   8.095   0.348  0.9505 -1.1394  1.1366
15050SOL    HW246201   1.876   7.971   0.261  0.9219 -0.4247  0.1028
15051SOL     OW46202   7.026   6.293   1.007 -0.2519  0.1935  0.4339
15051SOL    HW146203   6.981   6.221   1.051  1.5153 -1.4616 -0.3466
15051SOL    HW246204   7.108   6.303   1.055  0.1518  0.7232 -0.3424
15052SOL     OW46205   7.688   7.297   0.996 -0.6247  0.0472 -0.8827
15052SOL    HW146206   7.734   7.365   1.045 -2.3039 -0.3861  1.4874
15052SOL    HW246207   7.742   7.219   1.007 -2.1172 -0.7074  2.7095
15053SOL     OW46208   2.189   0.875   5.091 -0.0153  0.1352  0.3923
15053SOL    HW146209   2.107   0.903   5.131 -0.6275  0.7236 -1.1759
15053SOL    HW246210   2.251   0.944   5.113 -0.6944  1.1604 -0.7455
15054SOL     OW46211   3.522   4.894   7.495  0.3311  0.4844 -0.5691
15054SOL    HW146212   3.482   4.812   7.464  1.2916 -0.6809  1.0814
15054SOL    HW246213   3.471   4.916   7.573  2.0854 -0.3923  0.8933
15055SOL     OW46214   3.365   7.470   2.197  0.0442  0.1748 -0.0488
15055SOL    HW146215   3.388   7.485   2.105  1.0144 -0.2702  0.1072
15055SOL    HW246216   3.338   7.378   2.201  3.4214 -0.9214  0.6950
15056SOL     OW46217   7.059   0.107   6.690 -0.1586 -0.1025  0.2056
15056SOL    HW146218   7.040   0.155   6.609  1.6495  0.4043  0.0410
15056SOL    HW246219   6.974   0.100   6.733 -1.2829 -0.8284 -1.9392
15057SOL     OW46220   1.113   2.933   1.663  0.4064 -0.6459  0.4298
15057SOL    HW146221   1.030   2.932   1.615  0.8953  0.1166 -0.4700
15057SOL    HW246222   1.088   2.935   1.755 -0.5671 -0.9970  0.1849
15058SOL     OW46223   5.534   2.714   6.000 -0.3972  0.1655  0.5933
15058SOL    HW146224   5.552   2.808   5.997  0.7685 -0.0455 -0.1573
15058SOL    HW246225   5.589   2.681   6.071 -0.3009 -0.0305  0.4318
15059SOL     OW46226   7.911   6.895   2.291  0.1004 -0.2040  0.2852
15059SOL    HW146227   7.920   6.945   2.372 -0.3985  0.4211 -0.0313
15059SOL    HW246228   7.938   6.806   2.314  2.1679  0.4459  0.5672
15060SOL     OW46229   4.931   0.403   6.053  0.3854 -0.3631 -0.1139
15060SOL    HW146230   4.990   0.469   6.017  0.5482 -0.5001 -0.0969
15060SOL    HW246231   4.964   0.387   6.142 -1.0552  1.2872  0.7906
15061SOL     OW46232   7.882   3.166   7.443 -0.9033 -0.8636  0.2610
15061SOL    HW146233   7.890   3.071   7.433 -0.5340 -0.7434 -0.6721
15061SOL    HW246234   7.909   3.202   7.358  0.0587  0.1351  0.9614
15062SOL     OW46235   2.307   4.146   2.124 -0.2828  0.2152 -0.6956
15062SOL    HW146236   2.267   4.233   2.121 -0.6889  0.0527 -0.2393
15062SOL    HW246237   2.242   4.089   2.081 -0.3403  0.0226 -0.3543
15063SOL     OW46238   2.873   2.321   0.359  0.0795 -0.5660 -0.2132
15063SOL    HW146239   2.853   2.245   0.304 -0.2379 -1.3936  1.0029
15063SOL    HW246240   2.966   2.337   0.344  0.3328 -1.6668  0.0687
15064SOL     OW46241   7.722   0.106   0.461 -0.0266 -0.3207 -0.1864
15064SOL    HW146242   7.747   0.198   0.471  2.5640 -1.1597  2.1734
15064SOL    HW246243   7.782   0.073   0.395 -0.6371 -0.4781 -0.6760
15065SOL     OW46244   1.649   5.129   1.231 -0.3354 -0.0721  0.1783
15065SOL    HW146245   1.648   5.224   1.218  0.7466 -0.0718  0.0109
15065SOL    HW246246   1.558   5.103   1.219 -0.8331  1.0710  1.2352
15066SOL     OW46247   7.478   3.770   2.763 -0.0943  0.0993 -0.4381
15066SOL    HW146248   7.402   3.713   2.771 -0.2907  0.1012 -2.0287
15066SOL    HW246249   7.442   3.858   2.762 -0.0736  0.1004 -1.2011
15067SOL     OW46250   7.693   5.033   2.567 -0.1770  0.2461  0.4401
15067SOL    HW146251   7.629   5.082   2.617 -0.3858 -0.5222  0.9480
15067SOL    HW246252   7.691   4.945   2.605  0.7300  0.0458  0.0552
15068SOL     OW46253   4.547   2.772   6.723  0.0561  0.0726  0.3901
15068SOL    HW146254   4.492   2.700   6.753 -0.7775  1.1813  1.6481
15068SOL    HW246255   4.491   2.822   6.664 -0.0061  0.6980  0.9625
15069SOL     OW46256   0.619   4.131   1.833  0.0826  0.1463  0.0703
15069SOL    HW146257   0.670   4.053   1.816 -0.0430 -0.1144  0.8830
15069SOL    HW246258   0.534   4.113   1.792 -0.1268 -0.3702  0.7129
15070SOL     OW46259   2.604   0.939   0.207 -0.0865  0.2466  0.3378
15070SOL    HW146260   2.596   1.028   0.173 -0.0255 -0.6310 -2.1787
15070SOL    HW246261   2.577   0.945   0.298  1.2994  3.0989  0.6579
15071SOL     OW46262   3.876   3.628   2.529 -0.6089  0.5810  0.1323
15071SOL    HW146263   3.959   3.675   2.519 -0.9220  0.8042 -1.8991
15071SOL    HW246264   3.836   3.630   2.442 -0.8878 -3.0511  0.0066
15072SOL     OW46265   4.270   5.793   5.402 -0.6104  0.0979 -0.4287
15072SOL    HW146266   4.194   5.832   5.446  0.6737  0.1534  1.8619
15072SOL    HW246267   4.343   5.809   5.461  1.1781 -0.2347 -2.4209
15073SOL     OW46268   7.731   1.952   7.158 -0.0714  0.1534 -0.0624
15073SOL    HW146269   7.692   1.869   7.132 -0.3211 -0.5668  2.3035
15073SOL    HW246270   7.825   1.935   7.161 -0.2306 -0.6537  2.0900
15074SOL     OW46271   7.679   2.928   0.521 -0.2170 -0.5182  0.0718
15074SOL    HW146272   7.737   2.859   0.553  1.6499  0.6591 -0.5838
15074SOL    HW246273   7.608   2.932   0.586  1.1103 -1.1676  1.6326
15075SOL     OW46274   0.722   5.519   0.896 -0.0189  0.3564  0.4050
15075SOL    HW146275   0.674   5.463   0.835  0.6507 -0.6323  0.7537
15075SOL    HW246276   0.812   5.486   0.892  0.2470  0.9692  1.1330
15076SOL     OW46277   3.034   3.409   5.912 -0.2060  0.7386  0.2934
15076SOL    HW146278   2.975   3.415   5.837 -0.1860  1.1479  0.3082
15076SOL    HW246279   3.075   3.495   5.917  2.0372 -0.1715 -1.0689
15077SOL     OW46280   3.612   3.926   6.781 -0.2411 -0.0306 -0.5960
15077SOL    HW146281   3.635   3.836   6.805 -0.1757  0.2975  0.6505
15077SOL    HW246282   3.695   3.965   6.754  0.2641  0.3840  1.3739
15078SOL     OW46283   7.587   3.002   4.210 -0.2830  0.2895 -0.2500
15078SOL    HW146284   7.515   3.065   4.212 -0.4558  0.0752  0.6617
15078SOL    HW246285   7.665   3.056   4.196 -0.5924  0.5352 -1.0989
15079SOL     OW46286   6.379   0.332   0.310  0.1003  0.0934 -0.1018
15079SOL    HW146287   6.361   0.418   0.349  0.1750  0.5306 -0.9918
15079SOL    HW246288   6.384   0.272   0.384 -1.7133  0.5420  0.4190
15080SOL     OW46289   2.193   2.778   3.793 -0.2532 -0.1814  0.6551
15080SOL    HW146290   2.158   2.844   3.733  1.7735 -0.0070 -0.4363
15080SOL    HW246291   2.287   2.795   3.795  0.4600 -3.3551 -0.1360
15081SOL     OW46292   6.225   4.949   2.913 -0.4539 -0.6983  0.3414
15081SOL    HW146293   6.246   5.036   2.879  2.0613 -0.0887  3.0254
15081SOL    HW246294   6.133   4.936   2.890 -0.6028  2.1521 -1.1493
15082SOL     OW46295   7.807   1.538   0.473  0.8104  0.2745 -0.2001
15082SOL    HW146296   7.855   1.609   0.429  0.2802  0.5361 -0.3689
15082SOL    HW246297   7.734   1.520   0.414  0.0484  0.6706  0.5972
15083SOL     OW46298   0.270   3.796   4.286 -0.3319  0.2400  0.0301
15083SOL    HW146299   0.325   3.834   4.353  0.9063  2.0960 -1.9112
15083SOL    HW246300   0.209   3.866   4.262 -0.4330 -0.2069 -1.0917
15084SOL     OW46301   5.936   0.084   6.977  0.4886 -0.3032  0.0884
15084SOL    HW146302   5.948   0.071   7.071 -0.9739 -1.8025  0.1078
15084SOL    HW246303   5.842   0.096   6.966  0.1579 -3.3322 -1.4645
15085SOL     OW46304   4.577   2.672   5.371  0.1626 -0.2832  0.6211
15085SOL    HW146305   4.549   2.747   5.320 -2.4175 -0.3601  1.7771
15085SOL    HW246306   4.647   2.706   5.427 -0.9484  1.2796  1.1115
15086SOL     OW46307   3.073   5.967   2.659 -0.0618 -0.5904  0.1533
15086SOL    HW146308   3.166   5.978   2.641 -0.5034  0.3266 -1.7950
15086SOL    HW246309   3.069   5.947   2.753  2.0451 -0.2114  0.3698
15087SOL     OW46310   0.651   6.194   3.590 -0.5901  0.1053  0.3267
15087SOL    HW146311   0.582   6.191   3.656 -0.1466  1.1095  0.8447
15087SOL    HW246312   0.728   6.157   3.634 -0.4548  0.2060  0.1764
15088SOL     OW46313   3.326   3.347   1.328 -0.2245  0.9402  0.2762
15088SOL    HW146314   3.310   3.353   1.233  2.4531 -0.3239 -0.3583
15088SOL    HW246315   3.259   3.286   1.359 -0.3013  0.2878 -1.0692
15089SOL     OW46316   1.795   6.383   1.605 -0.3719  0.3884 -0.2857
15089SOL    HW146317   1.790   6.322   1.531 -0.5643 -0.0403  0.0703
15089SOL    HW246318   1.727   6.448   1.588  1.1214  1.6723 -1.6709
15090SOL     OW46319   1.704   2.279   0.474  0.0718 -0.0773 -0.4503
15090SOL    HW146320   1.741   2.315   0.555 -2.8804  1.6717  0.2765
15090SOL    HW246321   1.686   2.188   0.495  1.9021 -0.4174 -0.1614
15091SOL     OW46322   1.347   5.096   2.494  0.0499  0.2330  0.3528
15091SOL    HW146323   1.260   5.089   2.534  1.0021  0.8442  2.7288
15091SOL    HW246324   1.371   5.005   2.476 -1.3842  0.0997 -1.1949
15092SOL     OW46325   6.650   5.701   7.103 -0.3021  0.1179  0.6738
15092SOL    HW146326   6.633   5.643   7.029  0.1472  0.3122  0.4166
15092SOL    HW246327   6.566   5.705   7.149 -0.3236 -0.7844  0.7356
15093SOL     OW46328   3.361   2.912   1.912  0.1937  0.7879 -0.0753
15093SOL    HW146329   3.296   2.930   1.979 -0.7696 -0.3056 -0.6820
15093SOL    HW246330   3.335   2.828   1.875  1.5911  0.6276 -0.7697
15094SOL     OW46331   5.103   2.370   5.988  0.1614 -0.5114 -0.4443
15094SOL    HW146332   5.127   2.459   6.013 -1.8110 -0.2511  0.7737
15094SOL    HW246333   5.156   2.314   6.045 -3.3166  0.0541  3.9585
15095SOL     OW46334   3.031   5.182   2.544  0.0685  0.8428 -0.3587
15095SOL    HW146335   3.083   5.165   2.466  1.0310 -1.3497  0.6966
15095SOL    HW246336   2.942   5.196   2.511  0.7365  1.6292 -1.9338
15096SOL     OW46337   1.971   3.705   1.603 -0.0642  0.0621 -0.0157
15096SOL    HW146338   2.010   3.692   1.517  0.8274  0.2953  0.3429
15096SOL    HW246339   2.029   3.658   1.663  0.5909  1.7321  0.7236
15097SOL     OW46340   1.358   6.938   2.937 -0.0196  0.0160  0.7465
15097SOL    HW146341   1.322   7.019   2.902  0.1338 -0.8046 -1.4849
15097SOL    HW246342   1.389   6.890   2.860 -0.4438 -2.3277  1.9419
15098SOL     OW46343   4.007   6.182   2.515 -0.4276 -0.1739 -0.0773
15098SOL    HW146344   3.916   6.212   2.524 -0.0576  0.3544  3.2559
15098SOL    HW246345   4.009   6.097   2.558  0.5865 -0.3794 -0.5013
15099SOL     OW46346   7.119   3.765   6.493 -0.1424 -0.3291  0.0268
15099SOL    HW146347   7.078   3.836   6.542  0.4533  0.9224 -1.2222
15099SOL    HW246348   7.200   3.803   6.458 -0.2306 -1.3450 -1.3769
15100SOL     OW46349   6.546   5.835   7.657  0.3873 -0.6316  0.5228
15100SOL    HW146350   6.590   5.902   7.604 -0.2884  0.0091  0.7613
15100SOL    HW246351   6.612   5.766   7.668  1.6163  0.6384  1.4924
15101SOL     OW46352   3.348   3.603   7.901  0.0460  0.0685 -0.3152
15101SOL    HW146353   3.333   3.511   7.883 -0.8161  0.1829 -0.2073
15101SOL    HW246354   3.345   3.646   7.815  1.8395 -0.1702 -0.5389
15102SOL     OW46355   7.724   8.007   0.366  0.8772  0.0213 -0.3369
15102SOL    HW146356   7.788   8.057   0.316  1.8115 -1.6211 -0.8746
15102SOL    HW246357   7.686   7.946   0.302 -1.7884  1.3931 -0.2045
15103SOL     OW46358   4.514   3.151   6.571 -0.7164  0.2722  0.2075
15103SOL    HW146359   4.521   3.176   6.479 -1.9318  0.1635  0.0668
15103SOL    HW246360   4.463   3.070   6.571  0.3795 -0.4466  0.9000
15104SOL     OW46361   0.144   3.569   2.526 -0.5460 -0.3196  0.4623
15104SOL    HW146362   0.088   3.591   2.452  0.9455  1.2833 -0.2615
15104SOL    HW246363   0.226   3.613   2.508 -0.0588 -0.0429  2.9778
15105SOL     OW46364   8.099   7.916   3.171 -0.2217  0.5480 -0.0286
15105SOL    HW146365   8.066   7.937   3.258 -1.0159  2.6100 -0.7469
15105SOL    HW246366   8.187   7.955   3.169 -0.0952  0.2633 -0.0632
15106SOL     OW46367   0.148   4.631   7.105  0.1132  0.2381  0.2795
15106SOL    HW146368   0.145   4.536   7.094  0.4447  0.2313  0.2212
15106SOL    HW246369   0.059   4.656   7.129 -0.1568  0.0117 -0.4746
15107SOL     OW46370   4.529   1.406   5.231 -0.0755 -0.5633 -0.4184
15107SOL    HW146371   4.591   1.478   5.242 -1.3525  0.3761  1.1982
15107SOL    HW246372   4.508   1.406   5.138  0.8811  0.3534 -0.6516
15108SOL     OW46373   6.166   3.385   1.526  0.0132  0.1341  0.1054
15108SOL    HW146374   6.117   3.372   1.445  0.4669  1.2941 -0.3693
15108SOL    HW246375   6.218   3.305   1.535  0.2892  0.1814 -0.9869
15109SOL     OW46376   6.572   0.437   5.380  0.2830  0.3957  0.1077
15109SOL    HW146377   6.491   0.488   5.370  0.1384  0.1586  0.0586
15109SOL    HW246378   6.636   0.500   5.414  0.1254  0.6271 -0.0194
15110SOL     OW46379   3.288   4.779   1.467 -0.6499  0.7550 -0.3382
15110SOL    HW146380   3.198   4.806   1.485 -0.5885  0.6309  0.1853
15110SOL    HW246381   3.332   4.859   1.438 -0.6352  1.0948  0.5651
15111SOL     OW46382   6.540   3.264   2.607 -0.3461 -0.4110 -0.7461
15111SOL    HW146383   6.475   3.302   2.548  0.5437  0.4439 -1.2045
15111SOL    HW246384   6.582   3.196   2.555 -0.5030 -0.5975 -0.6301
15112SOL     OW46385   2.208   7.287   3.594  0.5522 -0.1181 -0.6486
15112SOL    HW146386   2.303   7.288   3.586  0.5060 -0.3116 -1.3680
15112SOL    HW246387   2.190   7.311   3.685  1.3718 -2.4099  0.1873
15113SOL     OW46388   7.640   0.489   8.005 -0.3669 -0.5774  0.2674
15113SOL    HW146389   7.693   0.564   7.976 -1.2531 -0.0703 -0.0910
15113SOL    HW246390   7.595   0.521   8.083 -0.8910 -0.6716  0.0049
15114SOL     OW46391   7.571   3.905   2.320 -0.0834  0.8160 -0.0789
15114SOL    HW146392   7.638   3.847   2.284  0.6935  1.3290  0.5081
15114SOL    HW246393   7.609   3.938   2.401 -2.3761 -1.6321  2.2486
15115SOL     OW46394   4.166   4.140   7.852  0.2277  0.0999  0.1954
15115SOL    HW146395   4.077   4.132   7.818  0.1967 -0.2706  0.3565
15115SOL    HW246396   4.217   4.079   7.798 -0.4132 -3.1511  2.8996
15116SOL     OW46397   2.445   6.071   1.107 -0.3596 -0.3086 -0.2706
15116SOL    HW146398   2.465   6.156   1.067 -0.2960 -0.6462 -0.9840
15116SOL    HW246399   2.432   6.090   1.200  1.8595  0.1744  0.0120
15117SOL     OW46400   3.184   7.083   5.744 -0.2420 -0.0744  0.0454
15117SOL    HW146401   3.099   7.046   5.719 -0.9130  1.5757 -0.1927
15117SOL    HW246402   3.240   7.006   5.758 -2.0106 -1.2380  1.1448
15118SOL     OW46403   6.143   5.899   7.205  0.4483 -0.1535  0.4812
15118SOL    HW146404   6.151   5.814   7.249  0.9169 -0.6814 -0.5929
15118SOL    HW246405   6.229   5.915   7.167  0.1368  0.4270  0.0026
15119SOL     OW46406   4.928   6.995   7.721 -0.3068 -0.3934 -0.0427
15119SOL    HW146407   4.881   6.923   7.763  0.2888 -0.2244  0.9331
15119SOL    HW246408   5.012   6.999   7.767 -0.6007  1.3888  0.3944
15120SOL     OW46409   7.685   5.123   4.714 -0.5492 -0.3300  0.3700
15120SOL    HW146410   7.615   5.058   4.716  0.5015 -1.5323 -0.5298
15120SOL    HW246411   7.710   5.133   4.806 -0.9333 -0.9760  0.5536
15121SOL     OW46412   6.469   4.953   1.363 -0.5481  0.0979  0.0038
15121SOL    HW146413   6.427   4.963   1.448 -0.7434  0.9583 -0.1861
15121SOL    HW246414   6.401   4.917   1.306 -2.0058  3.9256 -1.0044
15122SOL     OW46415   6.061   7.607   5.752 -0.1553 -0.2702  0.4844
15122SOL    HW146416   6.010   7.574   5.678  1.1899  2.3222 -1.7413
15122SOL    HW246417   6.123   7.536   5.771  0.0344 -0.6904 -1.4711
15123SOL     OW46418   0.143   6.184   7.228 -0.6567 -0.4583 -0.0820
15123SOL    HW146419   0.235   6.187   7.257 -0.6611  2.1843 -0.1367
15123SOL    HW246420   0.148   6.159   7.136  0.1714  1.1463 -0.5067
15124SOL     OW46421   3.024   6.133   3.624 -0.3194 -0.0430  0.2779
15124SOL    HW146422   3.018   6.102   3.533  1.3995 -1.6018  0.6316
15124SOL    HW246423   2.991   6.059   3.676 -0.5186  0.5249  0.9722
15125SOL     OW46424   3.914   1.780   1.468 -0.5872  0.5671 -0.3957
15125SOL    HW146425   3.830   1.823   1.455  0.0944  1.9394 -0.4923
15125SOL    HW246426   3.979   1.849   1.453  0.6557 -0.9021 -2.2900
15126SOL     OW46427   2.344   5.424   7.672 -0.2144 -0.6907 -0.1899
15126SOL    HW146428   2.376   5.487   7.736  2.0142  1.1855 -2.9107
15126SOL    HW246429   2.363   5.338   7.710 -2.1747  0.1457  3.0668
15127SOL     OW46430   0.076   2.995   3.691 -0.3643 -0.1832 -0.5999
15127SOL    HW146431   0.147   3.039   3.738  0.6797  0.5496 -2.7200
15127SOL    HW246432   0.069   2.909   3.732  0.1628  0.5666  1.1486
15128SOL     OW46433   5.671   5.656   1.588 -0.3999  0.0732  0.1532
15128SOL    HW146434   5.590   5.684   1.631 -0.4068 -2.5850  2.1210
15128SOL    HW246435   5.729   5.732   1.594 -3.1532  2.8148 -3.0471
15129SOL     OW46436   7.290   5.410   5.609  0.0613  0.1293 -0.0919
15129SOL    HW146437   7.292   5.436   5.517  0.2630  1.7219  0.3322
15129SOL    HW246438   7.308   5.490   5.657  0.6838 -0.8140  1.3277
15130SOL     OW46439   2.641   4.834   2.868 -0.4103  0.1015 -0.1430
15130SOL    HW146440   2.628   4.744   2.839  1.3500 -0.1650 -0.2039
15130SOL    HW246441   2.553   4.869   2.879 -1.1181 -1.3052 -1.1084
15131SOL     OW46442   5.933   6.263   4.426 -0.2297  0.2870  0.0609
15131SOL    HW146443   5.957   6.329   4.361  0.0025  1.2593  1.0869
15131SOL    HW246444   6.005   6.200   4.424 -0.6788 -0.2151 -1.2669
15132SOL     OW46445   3.130   0.491   5.160  0.3672  0.0380  0.7751
15132SOL    HW146446   3.221   0.521   5.157  0.1124  0.7628 -1.2017
15132SOL    HW246447   3.083   0.548   5.099 -1.5807  0.1466  2.2801
15133SOL     OW46448   6.260   6.408   3.238 -1.2771 -0.1997 -0.9287
15133SOL    HW146449   6.196   6.352   3.283 -0.1699 -0.2844  0.6070
15133SOL    HW246450   6.327   6.347   3.207 -0.2922  0.1927  0.3616
15134SOL     OW46451   5.510   5.301   5.530 -0.2453  0.6659 -0.1755
15134SOL    HW146452   5.576   5.281   5.463 -0.4723  1.6360 -0.7000
15134SOL    HW246453   5.551   5.273   5.612  0.6712  0.9024 -0.5393
15135SOL     OW46454   2.009   5.334   4.132 -0.4309  0.1577 -0.6475
15135SOL    HW146455   2.090   5.374   4.163  0.7345 -0.5542 -2.5699
15135SOL    HW246456   1.955   5.408   4.104 -1.5595  0.8277  2.8701
15136SOL     OW46457   0.419   7.178   2.463 -0.1324  0.4663  0.7375
15136SOL    HW146458   0.507   7.148   2.484  0.9078  1.9819 -1.0573
15136SOL    HW246459   0.426   7.274   2.465 -1.6693  0.6072  0.2967
15137SOL     OW46460   0.679   7.376   2.724  0.3478  0.3357 -1.0111
15137SOL    HW146461   0.678   7.472   2.720 -0.5306  0.4367  0.8455
15137SOL    HW246462   0.770   7.355   2.744  0.1816  0.9189  0.4917
15138SOL     OW46463   2.118   6.858   0.758 -0.2022 -0.9823  0.5667
15138SOL    HW146464   2.188   6.801   0.726 -0.6453 -1.2374  0.0412
15138SOL    HW246465   2.164   6.934   0.794  0.2923  0.3739 -2.6273
15139SOL     OW46466   2.379   2.062   5.183  0.0878 -0.1793 -0.1897
15139SOL    HW146467   2.296   2.109   5.174  2.0573  3.6982 -0.1203
15139SOL    HW246468   2.388   2.047   5.278 -0.4573 -0.5531 -0.1919
15140SOL     OW46469   1.912   5.997   6.675  0.2857 -0.1294  0.5414
15140SOL    HW146470   1.861   6.076   6.691 -1.1594 -0.9577  0.1823
15140SOL    HW246471   1.954   5.978   6.759  0.0435  0.5905  0.8328
15141SOL     OW46472   7.814   4.387   0.380  0.5324 -0.1575  0.0503
15141SOL    HW146473   7.905   4.372   0.406  0.7143  1.7095  0.6048
15141SOL    HW246474   7.820   4.438   0.300 -0.0218  0.5400  0.4461
15142SOL     OW46475   6.163   4.172   7.521 -0.1862  0.5710  0.1369
15142SOL    HW146476   6.082   4.122   7.532  0.5396 -0.6222  0.1262
15142SOL    HW246477   6.146   4.254   7.568 -0.7749 -0.3788  1.6745
15143SOL     OW46478   2.802   1.740   1.195 -0.0740 -0.0030 -0.6435
15143SOL    HW146479   2.755   1.775   1.271  1.7524  2.6018 -0.5904
15143SOL    HW246480   2.862   1.676   1.231  0.4403  0.8661  0.0826
15144SOL     OW46481   6.242   6.363   4.589  0.5536 -0.0522 -0.6937
15144SOL    HW146482   6.233   6.283   4.537 -0.0777 -0.7502  0.4503
15144SOL    HW246483   6.154   6.382   4.620  0.0242  2.9125 -3.4656
15145SOL     OW46484   5.337   5.755   2.160  0.5664 -0.1304 -0.0270
15145SOL    HW146485   5.318   5.699   2.235  0.1918 -0.5912 -0.4641
15145SOL    HW246486   5.388   5.699   2.101  2.4912  0.7645  0.6762
15146SOL     OW46487   1.374   2.941   4.405 -0.3978  0.0011  0.1179
15146SOL    HW146488   1.351   2.937   4.312  2.5111 -0.8050 -0.6610
15146SOL    HW246489   1.419   2.858   4.422 -2.2680 -0.6244  2.7481
15147SOL     OW46490   4.079   5.258   6.165  0.0898 -0.2851  0.3491
15147SOL    HW146491   4.090   5.329   6.101  0.5999  0.0745  0.8213
15147SOL    HW246492   4.150   5.197   6.146 -3.0070 -3.2881 -3.2547
15148SOL     OW46493   4.877   4.513   3.264 -0.0181  0.2212  0.0808
15148SOL    HW146494   4.932   4.575   3.312  0.4048  0.0270 -0.1458
15148SOL    HW246495   4.862   4.556   3.179 -0.5039  0.4261  0.2694
15149SOL     OW46496   1.475   5.476   0.906  0.3379  0.3332 -0.6885
15149SOL    HW146497   1.566   5.491   0.930 -0.0268 -0.0959  1.0349
15149SOL    HW246498   1.479   5.404   0.843  1.1408 -0.0386 -0.2228
15150SOL     OW46499   6.932   5.794   6.625 -0.6310 -0.1217 -0.0657
15150SOL    HW146500   6.918   5.724   6.689 -3.4596 -1.5395 -2.0014
15150SOL    HW246501   6.848   5.839   6.620 -0.8303 -0.6124 -3.2435
15151SOL     OW46502   1.681   2.406   2.697 -0.1167 -0.3170 -0.4141
15151SOL    HW146503   1.681   2.491   2.652  0.2487 -0.6263 -1.0119
15151SOL    HW246504   1.629   2.421   2.776  0.8559  0.7499  0.0488
15152SOL     OW46505   1.773   7.699   3.677  0.0785 -0.2877 -1.2751
15152SOL    HW146506   1.838   7.630   3.666  0.4333 -0.4522  1.4089
15152SOL    HW246507   1.823   7.775   3.706 -0.8259 -0.3340  0.5349
15153SOL     OW46508   5.899   4.130   7.562 -0.0705  0.3790 -0.2076
15153SOL    HW146509   5.879   4.209   7.613 -0.0909 -0.2052  0.7294
15153SOL    HW246510   5.815   4.085   7.554 -0.2777  0.9908 -1.7273
15154SOL     OW46511   3.597   2.078   5.103  0.4605 -0.0214 -0.2272
15154SOL    HW146512   3.674   2.050   5.053  1.4865  2.5590 -0.2544
15154SOL    HW246513   3.633   2.118   5.182 -0.6386  3.0851 -1.1568
15155SOL     OW46514   2.568   7.051   3.648  0.1868  0.0915 -0.4008
15155SOL    HW146515   2.481   7.013   3.662  0.5498 -0.5659  0.0635
15155SOL    HW246516   2.612   7.044   3.732  1.1352 -0.7086 -0.9354
15156SOL     OW46517   5.350   6.608   0.252  0.3747  0.0531 -0.6110
15156SOL    HW146518   5.283   6.676   0.242 -1.0586 -1.4616 -1.9308
15156SOL    HW246519   5.359   6.596   0.346 -2.5068 -0.8615 -0.3797
15157SOL     OW46520   5.920   0.919   0.497  0.1874  0.2673  0.0519
15157SOL    HW146521   5.848   0.894   0.554  0.4013 -0.1580  0.1336
15157SOL    HW246522   5.896   1.007   0.466 -0.8857 -0.2950 -0.7777
15158SOL     OW46523   8.225   8.103   0.181  0.0609 -0.2686  0.0500
15158SOL    HW146524   8.236   8.010   0.167 -1.0994 -0.2519 -1.2231
15158SOL    HW246525   8.131   8.114   0.198  0.4611  0.4682  2.1312
15159SOL     OW46526   3.393   6.132   3.715 -0.6269 -0.0867  0.0389
15159SOL    HW146527   3.416   6.103   3.626 -1.2880 -0.5008 -0.0041
15159SOL    HW246528   3.410   6.056   3.770 -0.3148  0.1393  0.2597
15160SOL     OW46529   6.955   5.639   0.965  0.2679 -0.3251 -0.0210
15160SOL    HW146530   6.910   5.556   0.951  0.4810 -0.6953  1.3761
15160SOL    HW246531   7.047   5.615   0.976  0.3330  0.0894  0.3726
15161SOL     OW46532   1.399   0.515   5.965 -0.5976  1.0241 -0.4134
15161SOL    HW146533   1.415   0.538   5.873 -1.0857  0.4674 -0.6419
15161SOL    HW246534   1.422   0.422   5.971 -0.7213  1.0202 -0.0076
15162SOL     OW46535   6.194   6.229   0.984 -0.3996  1.3131  0.4082
15162SOL    HW146536   6.259   6.188   1.042 -0.0798  0.4711 -0.5220
15162SOL    HW246537   6.116   6.239   1.039 -0.4565 -0.4614  0.7311
15163SOL     OW46538   5.516   7.801   1.972 -0.1959 -0.1693  0.3274
15163SOL    HW146539   5.509   7.756   1.888 -1.3239 -0.1509  0.3973
15163SOL    HW246540   5.438   7.774   2.021  0.6806 -0.5650  1.5696
15164SOL     OW46541   2.818   2.989   6.626 -0.0148  0.3247  0.0265
15164SOL    HW146542   2.905   2.987   6.665 -0.1405 -1.4462  0.2953
15164SOL    HW246543   2.835   2.981   6.532  0.1133  0.3904  0.0425
15165SOL     OW46544   3.040   2.138   4.844  0.3144 -0.3982  0.6245
15165SOL    HW146545   2.970   2.087   4.884 -1.6925  0.7918 -1.1941
15165SOL    HW246546   3.106   2.145   4.913  0.2843 -4.4567  1.3102
15166SOL     OW46547   7.539   2.202   1.603 -0.8443  0.0573 -0.0160
15166SOL    HW146548   7.462   2.147   1.614 -1.2635  0.4465 -0.8698
15166SOL    HW246549   7.613   2.142   1.606 -1.1939 -0.3504  0.5740
15167SOL     OW46550   0.130   5.338   3.170 -0.4798  0.7025  0.6665
15167SOL    HW146551   0.047   5.291   3.182  0.4835 -0.9363  1.1329
15167SOL    HW246552   0.165   5.348   3.258  0.8472 -0.5990  0.3324
15168SOL     OW46553   3.537   3.612   2.152 -0.4136 -0.2147 -0.2838
15168SOL    HW146554   3.481   3.577   2.221  0.6845  0.5927  1.0664
15168SOL    HW246555   3.476   3.648   2.088 -1.4583 -0.4188  0.5704
15169SOL     OW46556   2.092   7.214   0.038 -0.4237  0.0606  0.7416
15169SOL    HW146557   2.132   7.300   0.047 -0.4591  0.4085 -1.8597
15169SOL    HW246558   2.166   7.152   0.044 -0.1777  0.3626  0.8486
15170SOL     OW46559   5.639   5.653   8.013 -0.0917  0.0435 -0.2624
15170SOL    HW146560   5.680   5.677   8.096 -0.5645  0.3088 -0.1008
15170SOL    HW246561   5.634   5.558   8.016  0.5561  0.0047 -0.3076
15171SOL     OW46562   0.042   1.891   0.135 -0.6367  0.1117 -0.0517
15171SOL    HW146563   0.097   1.867   0.210 -0.5577  1.5754  0.3946
15171SOL    HW246564   0.089   1.856   0.059 -1.4723 -2.7337  0.6260
15172SOL     OW46565   3.188   8.042   2.608  0.2850  0.9188  0.1862
15172SOL    HW146566   3.160   8.106   2.673  0.1760 -0.2849  1.3663
15172SOL    HW246567   3.109   8.023   2.557 -1.1943 -2.0428  3.1393
15173SOL     OW46568   5.692   1.503   3.627  0.1927 -0.0258 -0.2209
15173SOL    HW146569   5.616   1.540   3.583  0.0437  0.9075  0.7915
15173SOL    HW246570   5.726   1.574   3.681  1.5716 -0.5361 -0.3609
15174SOL     OW46571   0.959   6.515   2.269 -0.4772 -0.0844  0.0056
15174SOL    HW146572   0.869   6.547   2.274 -0.6304 -0.5310  0.0856
15174SOL    HW246573   1.006   6.586   2.225 -0.4451  1.0539  1.7775
15175SOL     OW46574   2.653   1.204   4.720  0.0706 -0.3853  0.1754
15175SOL    HW146575   2.672   1.153   4.799  2.6470  0.1960  0.0303
15175SOL    HW246576   2.694   1.154   4.649 -1.6920 -0.5965 -0.7295
15176SOL     OW46577   7.198   3.278   6.514 -0.2324  0.3987 -0.3230
15176SOL    HW146578   7.209   3.330   6.593  0.8766  0.6851 -0.6483
15176SOL    HW246579   7.175   3.191   6.546  0.8027  0.3530  0.3508
15177SOL     OW46580   2.494   7.424   6.023 -0.3410 -0.0934  0.3745
15177SOL    HW146581   2.445   7.394   6.100 -0.5930 -0.5394  0.0462
15177SOL    HW246582   2.426   7.451   5.961 -0.1264  1.9642  0.9537
15178SOL     OW46583   1.560   5.596   6.236  0.1106  0.0325  0.3829
15178SOL    HW146584   1.568   5.521   6.295  0.9695 -1.1181 -1.1225
15178SOL    HW246585   1.466   5.603   6.219  0.0712 -1.1692 -0.0033
15179SOL     OW46586   4.768   7.629   0.608 -0.7100  0.1949 -0.5871
15179SOL    HW146587   4.747   7.697   0.544  1.6426  2.8570  1.2224
15179SOL    HW246588   4.697   7.634   0.672 -1.6443 -0.5996 -1.5183
15180SOL     OW46589   0.598   6.699   7.827 -0.5100 -0.0323 -0.5980
15180SOL    HW146590   0.516   6.745   7.847 -1.0785 -0.8663 -0.9413
15180SOL    HW246591   0.599   6.693   7.732  0.8474  1.5354 -0.7132
15181SOL     OW46592   1.754   3.444   6.898  0.0464 -0.6178 -0.2015
15181SOL    HW146593   1.674   3.392   6.896  0.0575 -0.6159 -0.8298
15181SOL    HW246594   1.746   3.504   6.824  0.9952 -1.1710 -0.7687
15182SOL     OW46595   7.629   7.195   5.120 -0.4166 -0.3915 -0.1647
15182SOL    HW146596   7.540   7.225   5.138 -0.2679 -0.1535  0.1946
15182SOL    HW246597   7.673   7.199   5.205  0.5233  1.4918 -0.6833
15183SOL     OW46598   0.720   8.269   4.691  0.1552 -0.2353 -0.3810
15183SOL    HW146599   0.764   8.290   4.774  0.2102  3.0827 -1.1352
15183SOL    HW246600   0.630   8.248   4.716  0.3656 -0.0289  0.5835
15184SOL     OW46601   5.591   3.171   0.469  0.2209 -0.3985 -0.1155
15184SOL    HW146602   5.573   3.085   0.508 -0.3161 -0.1891  0.1078
15184SOL    HW246603   5.685   3.184   0.481  0.2992 -0.9435 -0.1220
15185SOL     OW46604   0.706   1.205   1.638 -0.0636 -0.4616  0.2375
15185SOL    HW146605   0.788   1.166   1.610 -0.6903 -2.0133  0.4391
15185SOL    HW246606   0.639   1.143   1.610 -1.2254  0.9708 -0.3105
15186SOL     OW46607   3.474   7.969   2.362 -0.7656 -0.1963  0.0906
15186SOL    HW146608   3.439   8.056   2.340 -1.2143 -0.5920 -0.7949
15186SOL    HW246609   3.548   7.987   2.419  0.2729  0.8743 -1.5265
15187SOL     OW46610   3.725   2.723   5.439 -0.6561 -0.0836  0.0894
15187SOL    HW146611   3.777   2.666   5.383 -1.1985  1.6187 -2.2884
15187SOL    HW246612   3.786   2.752   5.507  0.4432 -1.0316 -0.4687
15188SOL     OW46613   5.419   5.543   3.543 -0.4929  0.2272 -0.0712
15188SOL    HW146614   5.456   5.457   3.524  0.5400  1.0479 -2.0619
15188SOL    HW246615   5.324   5.529   3.542 -0.3525 -1.1102  1.0432
15189SOL     OW46616   3.624   8.001   4.748  0.2962 -0.0060 -0.1287
15189SOL    HW146617   3.612   7.977   4.841 -0.5425 -1.0785 -0.4870
15189SOL    HW246618   3.718   7.991   4.733  0.6109  1.1813  0.8543
15190SOL     OW46619   7.118   0.928   1.053 -0.3773  0.4423 -0.3574
15190SOL    HW146620   7.133   0.950   0.961 -0.5656 -0.8195 -0.7121
15190SOL    HW246621   7.080   0.840   1.050 -0.6442  0.5013  0.9171
15191SOL     OW46622   4.048   7.906   1.466  0.8944  0.2450  1.4592
15191SOL    HW146623   4.080   7.995   1.482  0.8752  0.5128  0.1072
15191SOL    HW246624   4.061   7.892   1.373 -1.8744 -0.0478  1.0237
15192SOL     OW46625   3.192   3.161   5.600 -0.4987 -0.1495  0.1527
15192SOL    HW146626   3.275   3.114   5.604 -0.4971 -0.0830  1.6174
15192SOL    HW246627   3.164   3.166   5.691 -1.9696  0.0925 -0.2952
15193SOL     OW46628   6.003   5.577   1.359 -0.0923  0.3262 -0.7887
15193SOL    HW146629   6.040   5.533   1.282  0.3614  0.7559 -0.8244
15193SOL    HW246630   5.909   5.568   1.348  0.0009 -1.2548 -0.4168
15194SOL     OW46631   3.323   5.000   5.525 -0.4821 -0.0234  0.1523
15194SOL    HW146632   3.321   5.088   5.563  0.0599 -0.3971  1.0928
15194SOL    HW246633   3.406   4.963   5.556 -0.2275 -0.5075 -1.0581
15195SOL     OW46634   3.062   7.909   7.291  0.2761 -0.5321 -0.0296
15195SOL    HW146635   3.085   8.002   7.283  0.2496 -0.4489  0.7326
15195SOL    HW246636   3.146   7.865   7.307  0.1315 -0.4520  1.0088
15196SOL     OW46637   7.360   1.441   7.754 -0.0745 -0.2748  0.7795
15196SOL    HW146638   7.446   1.469   7.784 -0.1032  0.0395  0.5766
15196SOL    HW246639   7.305   1.519   7.762  0.0324 -0.0455 -0.5069
15197SOL     OW46640   5.270   3.619   3.224 -0.5264  0.4526 -0.2463
15197SOL    HW146641   5.216   3.572   3.161  0.7671 -0.9610 -0.3374
15197SOL    HW246642   5.317   3.551   3.271  1.7410  1.6529 -0.6629
15198SOL     OW46643   5.705   1.782   0.299 -0.4334 -0.2630  0.3264
15198SOL    HW146644   5.734   1.749   0.384  1.0932  1.4053  0.5000
15198SOL    HW246645   5.723   1.710   0.238  1.0254 -0.4766  0.9783
15199SOL     OW46646   7.003   3.742   5.421  0.0053 -0.3284 -0.3202
15199SOL    HW146647   7.064   3.731   5.348  0.9221  1.8174  0.0566
15199SOL    HW246648   7.049   3.703   5.496 -0.3363 -1.2657 -0.5828
15200SOL     OW46649   0.870   4.256   6.936  0.4484  0.1898  0.4605
15200SOL    HW146650   0.774   4.255   6.941  0.2712 -1.0501 -1.7921
15200SOL    HW246651   0.896   4.169   6.966  0.7016 -0.1475 -0.6994
15201SOL     OW46652   0.401   0.892   1.804  0.4037 -0.1640 -0.0017
15201SOL    HW146653   0.463   0.840   1.854  0.9044  1.7913  1.4926
15201SOL    HW246654   0.455   0.949   1.750 -0.1437 -0.8553 -1.3392
15202SOL     OW46655   2.232   4.642   0.101  0.6205  0.5630 -0.2672
15202SOL    HW146656   2.189   4.636   0.016 -0.6747  1.3329  0.3049
15202SOL    HW246657   2.267   4.554   0.117 -1.4618 -0.3435 -0.4122
15203SOL     OW46658   5.821   6.933   3.836 -0.0455 -0.7068  0.1097
15203SOL    HW146659   5.863   7.016   3.858 -1.1199 -0.7165  2.3949
15203SOL    HW246660   5.882   6.891   3.775  1.9835  0.4192  1.2733
15204SOL     OW46661   2.359   4.367   4.928 -0.7263 -0.4670  0.0899
15204SOL    HW146662   2.424   4.303   4.958 -0.7798 -0.0512  1.1388
15204SOL    HW246663   2.410   4.429   4.876 -0.1862  0.0567  1.2032
15205SOL     OW46664   1.963   1.411   5.308 -0.1509  0.1335  0.9322
15205SOL    HW146665   1.917   1.411   5.392 -1.7191  4.1358  0.3219
15205SOL    HW246666   2.027   1.482   5.315  0.9615 -0.6384 -0.6646
15206SOL     OW46667   4.539   3.913   1.662 -0.0949  0.1521  0.4854
15206SOL    HW146668   4.529   3.865   1.579 -2.2756  0.6064  0.4329
15206SOL    HW246669   4.546   4.005   1.635 -1.4179  0.3610  0.8071
15207SOL     OW46670   1.270   0.162   4.074 -0.5910 -0.1711  0.2912
15207SOL    HW146671   1.291   0.103   4.001  1.0684  2.7335 -1.8537
15207SOL    HW246672   1.175   0.161   4.080 -1.0419  0.9233 -3.4905
15208SOL     OW46673   4.718   7.001   1.007  0.0360 -0.8881  0.1710
15208SOL    HW146674   4.740   7.082   0.960  0.8402 -1.1186  0.1351
15208SOL    HW246675   4.802   6.958   1.021 -0.3053 -1.3355  0.8986
15209SOL     OW46676   2.626   0.303   3.549 -0.0515 -0.6028  0.8111
15209SOL    HW146677   2.594   0.213   3.539  0.4284 -0.7926  0.9534
15209SOL    HW246678   2.549   0.353   3.574 -0.6297 -0.7014 -0.6506
15210SOL     OW46679   1.924   0.617   6.585  0.6801 -0.5275  0.5090
15210SOL    HW146680   1.960   0.705   6.589 -0.7177  0.1326 -0.4220
15210SOL    HW246681   1.847   0.620   6.642 -1.7000  0.1138 -2.4574
15211SOL     OW46682   8.000   1.724   6.579  0.1876 -0.6888  0.5340
15211SOL    HW146683   7.973   1.724   6.671  0.2067  3.3364  0.7146
15211SOL    HW246684   7.919   1.711   6.530  0.0896 -2.2442  1.0499
15212SOL     OW46685   4.648   5.161   4.647  0.9000  0.2198 -0.1907
15212SOL    HW146686   4.690   5.236   4.688  0.8237  0.3813 -0.4077
15212SOL    HW246687   4.644   5.183   4.554 -0.1911  0.4702 -0.1060
15213SOL     OW46688   5.402   7.636   1.500 -0.4665  0.5206  0.4437
15213SOL    HW146689   5.469   7.572   1.522 -1.7830 -1.2441 -0.4452
15213SOL    HW246690   5.363   7.660   1.584 -0.2242 -0.1604  0.7594
15214SOL     OW46691   2.898   7.393   3.218  0.4394 -0.1873 -0.0681
15214SOL    HW146692   2.948   7.456   3.270 -0.1973  0.9630 -0.8093
15214SOL    HW246693   2.901   7.426   3.129  0.3150 -1.3695 -0.5381
15215SOL     OW46694   2.342   0.512   1.680 -0.1388 -0.1768  0.6893
15215SOL    HW146695   2.368   0.603   1.697  1.5385 -0.0223 -2.0008
15215SOL    HW246696   2.249   0.517   1.657 -0.0533  0.8883  0.5388
15216SOL     OW46697   3.118   6.876   2.593 -0.3523  0.2095 -0.2549
15216SOL    HW146698   3.187   6.899   2.655  0.9508 -0.5252 -1.3753
15216SOL    HW246699   3.039   6.915   2.629  0.6198  0.9536  1.1469
15217SOL     OW46700   5.080   7.050   4.961 -0.0555 -0.0374  0.3108
15217SOL    HW146701   5.001   7.084   5.004 -1.1172 -1.3459 -0.5488
15217SOL    HW246702   5.059   6.959   4.940  1.3460 -0.1394 -0.7695
15218SOL     OW46703   2.001   1.238   0.433 -0.3443 -0.0008  0.3929
15218SOL    HW146704   2.088   1.241   0.393 -0.2015  0.8973  0.7437
15218SOL    HW246705   2.003   1.159   0.487  0.0205 -0.3472 -0.1087
15219SOL     OW46706   2.926   7.735   7.519  0.1638 -0.0195 -0.1115
15219SOL    HW146707   2.942   7.811   7.576 -1.6808  0.8756 -0.6871
15219SOL    HW246708   2.989   7.745   7.448 -0.2481  1.1624 -0.3324
15220SOL     OW46709   2.343   3.717   8.116 -0.0632  0.1638 -0.4038
15220SOL    HW146710   2.409   3.656   8.083 -0.2361 -0.1918 -0.0911
15220SOL    HW246711   2.270   3.662   8.142  0.7140  0.2599  2.2134
15221SOL     OW46712   0.164   7.908   3.096  0.1193 -0.1274 -0.2028
15221SOL    HW146713   0.212   7.849   3.155 -1.2169 -0.0370  1.0188
15221SOL    HW246714   0.138   7.852   3.023  0.9475 -0.4662 -0.2549
15222SOL     OW46715   7.724   7.060   3.493  0.1784  0.1311  0.1141
15222SOL    HW146716   7.794   7.124   3.481 -0.8055  1.2039 -0.0605
15222SOL    HW246717   7.752   6.983   3.444  0.7906  0.8959 -0.7488
15223SOL     OW46718   2.900   3.312   6.599  0.0177  0.1754  0.2863
15223SOL    HW146719   2.901   3.236   6.542 -0.2560  0.0646  0.4314
15223SOL    HW246720   2.882   3.386   6.540 -1.4859 -0.0829  0.4018
15224SOL     OW46721   1.927   3.285   1.271 -0.3806 -0.4316 -0.2113
15224SOL    HW146722   1.960   3.270   1.360  0.0022 -0.1354 -0.2982
15224SOL    HW246723   1.930   3.200   1.229  0.1775 -0.4304 -0.1802
15225SOL     OW46724   0.807   7.585   5.305 -0.6195 -0.5607  0.2809
15225SOL    HW146725   0.864   7.508   5.302 -1.4733 -1.1803 -0.2254
15225SOL    HW246726   0.721   7.550   5.330 -1.1586  0.1370 -0.5714
15226SOL     OW46727   2.189   0.655   6.851  0.7718 -0.1814  0.6337
15226SOL    HW146728   2.097   0.671   6.874  0.1240  1.5531 -2.5567
15226SOL    HW246729   2.239   0.690   6.924 -1.0690  2.4884  0.7430
15227SOL     OW46730   3.900   3.139   3.192 -0.5303 -0.0938  0.3915
15227SOL    HW146731   3.986   3.106   3.165 -1.4733 -2.5518  0.0922
15227SOL    HW246732   3.903   3.141   3.287 -0.1045 -0.1287  0.3785
15228SOL     OW46733   6.273   7.256   1.728  0.1168 -0.2021 -0.4913
15228SOL    HW146734   6.224   7.270   1.647  0.0273  2.6287 -0.0294
15228SOL    HW246735   6.206   7.241   1.795 -0.0256  1.0729 -0.3283
15229SOL     OW46736   4.332   5.396   4.052  0.0380  0.4445  0.2442
15229SOL    HW146737   4.274   5.449   4.107 -1.7673 -1.2948  0.1240
15229SOL    HW246738   4.302   5.306   4.064  1.5898 -0.3316 -1.2244
15230SOL     OW46739   4.178   0.721   7.191 -0.0093 -0.1434  0.0818
15230SOL    HW146740   4.132   0.803   7.175  1.5646  0.7778  0.0923
15230SOL    HW246741   4.184   0.679   7.105  0.4191  0.4428 -0.1800
15231SOL     OW46742   2.646   3.721   4.660  0.4049 -0.0127 -0.3089
15231SOL    HW146743   2.646   3.643   4.716 -1.0522 -0.4719 -0.9182
15231SOL    HW246744   2.624   3.793   4.719  1.0208 -0.1564  0.1116
15232SOL     OW46745   4.831   6.424   0.673 -0.5415  0.0157  0.4193
15232SOL    HW146746   4.845   6.403   0.765 -0.1551 -1.7901 -0.0244
15232SOL    HW246747   4.747   6.384   0.651 -2.0769  2.8252  0.6479
15233SOL     OW46748   7.833   1.108   7.075 -0.7443  0.4312  0.6962
15233SOL    HW146749   7.893   1.050   7.121 -1.0182 -0.4622 -0.0573
15233SOL    HW246750   7.785   1.154   7.145  0.4154  0.7643  1.3022
15234SOL     OW46751   4.390   7.829   0.602  0.0534  0.0933 -0.4173
15234SOL    HW146752   4.472   7.876   0.622  0.9497 -0.1630 -3.0293
15234SOL    HW246753   4.348   7.883   0.535 -0.9670 -0.7826 -0.5041
15235SOL     OW46754   4.289   0.486   3.621 -0.0572  0.4808  0.0411
15235SOL    HW146755   4.206   0.517   3.657  0.4369 -0.0724  1.7290
15235SOL    HW246756   4.264   0.438   3.542 -1.1769  1.7322 -0.4192
15236SOL     OW46757   0.025   3.358   5.811  0.3526 -0.0274 -0.0138
15236SOL    HW146758  -0.007   3.271   5.786  1.8405 -0.7268  0.3957
15236SOL    HW246759   0.075   3.387   5.735  0.6445  0.0515  0.2073
15237SOL     OW46760   0.311   5.782   5.301 -0.2448 -0.3688  0.4052
15237SOL    HW146761   0.320   5.861   5.249 -2.3442 -0.3067  0.0254
15237SOL    HW246762   0.398   5.743   5.303  0.3057  0.6651 -1.4732
15238SOL     OW46763   3.709   6.566   3.010  0.0546 -0.4153  0.0836
15238SOL    HW146764   3.732   6.613   2.931 -0.2963  0.9966  0.7977
15238SOL    HW246765   3.620   6.595   3.031  0.3556 -0.3151  1.3052
15239SOL     OW46766   0.473   3.758   7.522 -0.4056  0.1389  0.1309
15239SOL    HW146767   0.464   3.825   7.590 -0.7245  1.1580 -0.8946
15239SOL    HW246768   0.567   3.746   7.513 -0.2811 -2.4279  3.0219
15240SOL     OW46769   6.281   2.973   1.859  0.5394  0.2765  0.0188
15240SOL    HW146770   6.193   3.000   1.836  0.4282  0.3736  0.5445
15240SOL    HW246771   6.286   2.983   1.954  2.0703  3.1431 -0.2542
15241SOL     OW46772   3.468   3.734   6.251  0.4193  0.3675 -0.0717
15241SOL    HW146773   3.465   3.795   6.325  0.1804 -0.9271  1.0274
15241SOL    HW246774   3.376   3.719   6.229  0.3515 -1.2430  1.1187
15242SOL     OW46775   5.604   7.859   2.625 -0.6760 -0.0371 -0.1109
15242SOL    HW146776   5.641   7.793   2.683 -5.6943 -0.5390  3.1392
15242SOL    HW246777   5.639   7.942   2.656  0.4230 -0.6771  0.3815
15243SOL     OW46778   2.332   4.874   8.028 -0.4212 -0.3067 -0.1939
15243SOL    HW146779   2.278   4.888   7.951  0.9218  2.7042 -0.7186
15243SOL    HW246780   2.382   4.795   8.008  1.8732  1.7710 -3.7635
15244SOL     OW46781   7.635   0.638   3.505 -0.4038  0.6229 -0.0997
15244SOL    HW146782   7.626   0.622   3.599 -2.4571  1.5564 -0.0964
15244SOL    HW246783   7.621   0.732   3.495  1.1951  0.7855 -1.2225
15245SOL     OW46784   2.845   1.967   4.939  0.3584 -0.6347 -0.5172
15245SOL    HW146785   2.888   1.916   5.007  1.7458 -1.2780 -1.8329
15245SOL    HW246786   2.826   1.904   4.870 -1.1706 -0.0207 -0.6950
15246SOL     OW46787   2.885   5.927   0.514 -0.1119  0.2831 -0.6190
15246SOL    HW146788   2.943   5.861   0.551 -1.4985 -1.3524 -1.2315
15246SOL    HW246789   2.921   5.945   0.427 -2.5224 -3.8036 -2.8036
15247SOL     OW46790   0.414   2.050   4.748  0.1313 -0.1015 -0.0945
15247SOL    HW146791   0.435   1.967   4.791  1.5336 -0.2106 -0.9243
15247SOL    HW246792   0.482   2.110   4.777 -0.3844  0.5279 -0.1703
15248SOL     OW46793   6.954   5.620   4.822 -0.0135  0.5644 -0.2601
15248SOL    HW146794   7.020   5.678   4.861  0.3301 -0.6401  1.0145
15248SOL    HW246795   6.918   5.671   4.749  0.4951  2.2610  0.6156
15249SOL     OW46796   3.451   5.507   7.644 -0.2280 -0.2147  0.1803
15249SOL    HW146797   3.540   5.542   7.638 -0.3826  0.0560 -0.6036
15249SOL    HW246798   3.432   5.474   7.556 -1.2018  0.4541  0.1273
15250SOL     OW46799   4.439   0.653   0.884 -0.5156  0.2070  0.8598
15250SOL    HW146800   4.411   0.608   0.964 -1.6539  0.6391  0.7175
15250SOL    HW246801   4.513   0.601   0.852  1.0100  0.8898  3.0354
15251SOL     OW46802   1.896   0.123   0.602 -0.4687  0.1189  0.1580
15251SOL    HW146803   1.856   0.095   0.520 -3.6149 -0.1908  1.6491
15251SOL    HW246804   1.847   0.201   0.628  0.6986  0.4236  1.5954
15252SOL     OW46805   6.141   3.666   0.048 -0.5418  0.2604 -0.0226
15252SOL    HW146806   6.148   3.727  -0.026 -0.6477  2.6322  1.7974
15252SOL    HW246807   6.209   3.695   0.109  0.3895 -2.4357  0.3277
15253SOL     OW46808   3.357   5.844   4.034 -0.1045  0.2368  0.4179
15253SOL    HW146809   3.435   5.838   3.979 -1.2073  0.8664 -1.2886
15253SOL    HW246810   3.372   5.922   4.088  0.2292  0.6515 -0.2562
15254SOL     OW46811   3.398   4.466   3.266 -0.2577  0.3573  0.3094
15254SOL    HW146812   3.481   4.459   3.314 -0.6295 -1.0054  0.7966
15254SOL    HW246813   3.331   4.470   3.334 -0.6632  0.4940 -0.0912
15255SOL     OW46814   1.319   5.949   2.466  0.4010 -0.8328  0.4725
15255SOL    HW146815   1.235   5.971   2.507 -0.0339  0.4480 -1.0003
15255SOL    HW246816   1.315   5.854   2.454 -1.4883 -0.6499 -0.8407
15256SOL     OW46817   8.015   8.154   2.310 -0.1815  0.2363  0.4660
15256SOL    HW146818   8.051   8.212   2.377  1.3470  0.1701 -0.2443
15256SOL    HW246819   8.091   8.106   2.278 -1.1477 -0.8786 -0.1968
15257SOL     OW46820   3.690   3.099   6.641 -0.1488 -0.0944  0.0391
15257SOL    HW146821   3.709   3.104   6.547 -1.0845  0.3749 -0.1350
15257SOL    HW246822   3.600   3.067   6.645  0.3077 -1.3701  0.8152
15258SOL     OW46823   5.616   1.386   3.243 -0.0118  0.0514  0.2616
15258SOL    HW146824   5.546   1.354   3.300 -0.9288  0.6630 -0.4808
15258SOL    HW246825   5.577   1.462   3.199  1.8349  1.8234  1.4777
15259SOL     OW46826   3.885   5.559   1.950 -0.0728 -0.0152  0.0608
15259SOL    HW146827   3.853   5.511   2.026  0.6014 -0.3041  0.1723
15259SOL    HW246828   3.855   5.649   1.964 -0.7290 -0.2487  0.2054
15260SOL     OW46829   5.866   8.095   5.330  0.1225 -0.2928  0.0115
15260SOL    HW146830   5.895   8.119   5.418 -0.2673 -0.5922  0.2267
15260SOL    HW246831   5.826   8.175   5.296  1.5259  0.2522 -0.4483
15261SOL     OW46832   3.388   5.204   6.313  0.0780  0.2059 -0.2371
15261SOL    HW146833   3.387   5.290   6.269  0.3456  0.0221 -0.6101
15261SOL    HW246834   3.416   5.224   6.403 -1.6624  0.7436  0.2244
15262SOL     OW46835   0.723   5.579   8.259 -0.3726 -0.2013 -0.1450
15262SOL    HW146836   0.755   5.535   8.337  1.6664  1.4446  0.0231
15262SOL    HW246837   0.726   5.511   8.191 -0.8132 -1.2705  0.8793
15263SOL     OW46838   4.639   3.585   1.004  0.6925 -0.0821 -0.3025
15263SOL    HW146839   4.668   3.657   0.948 -1.2166  1.5332  0.6379
15263SOL    HW246840   4.545   3.577   0.986  0.5475 -1.2255  0.8135
15264SOL     OW46841   5.466   5.153   3.904  0.0763  0.3283 -0.8591
15264SOL    HW146842   5.526   5.081   3.921  0.6088  1.5224  3.2558
15264SOL    HW246843   5.522   5.223   3.871 -0.0284 -0.2171 -2.2795
15265SOL     OW46844   6.845   3.305   1.431 -0.7150  0.1957 -0.5298
15265SOL    HW146845   6.929   3.302   1.386  0.4039 -1.0296  1.4640
15265SOL    HW246846   6.824   3.398   1.439  0.8831  0.5576 -0.3280
15266SOL     OW46847   4.895   0.932   6.223 -0.0944  0.2642  0.2102
15266SOL    HW146848   4.910   0.987   6.300 -0.5541  1.4419 -0.5273
15266SOL    HW246849   4.899   0.992   6.149 -0.4744 -0.7184 -0.6301
15267SOL     OW46850   3.863   3.541   6.162  0.8495 -0.2075 -0.1438
15267SOL    HW146851   3.880   3.622   6.211 -0.5643  0.2540 -0.3764
15267SOL    HW246852   3.918   3.549   6.084  2.5425 -0.5972  0.9466
15268SOL     OW46853   6.915   0.734   1.581  1.1282  0.4239 -0.0933
15268SOL    HW146854   6.977   0.673   1.541  0.3984  0.7501 -1.7958
15268SOL    HW246855   6.938   0.819   1.545 -0.2129  0.5678 -0.6936
15269SOL     OW46856   5.964   6.810   5.078  0.4707 -0.3752  0.1402
15269SOL    HW146857   5.957   6.715   5.073 -0.1100 -0.3634  0.7655
15269SOL    HW246858   5.875   6.842   5.067  0.8922  0.2129 -2.2239
15270SOL     OW46859   0.628   2.775   4.603  0.1832 -0.7202 -0.5458
15270SOL    HW146860   0.625   2.788   4.698 -0.2737 -0.0720 -0.6436
15270SOL    HW246861   0.711   2.730   4.588  0.3643 -0.6263  0.1405
15271SOL     OW46862   3.691   0.410   5.014  0.4794  0.4569 -0.1266
15271SOL    HW146863   3.621   0.401   4.950  0.6194  0.2871 -0.2556
15271SOL    HW246864   3.694   0.326   5.059  2.7413 -0.7854 -2.3035
15272SOL     OW46865   7.789   5.407   1.251  0.4005 -0.3815  0.3733
15272SOL    HW146866   7.869   5.362   1.280 -0.5910 -1.7667  1.0343
15272SOL    HW246867   7.730   5.337   1.224  0.4421  0.7105 -3.1051
15273SOL     OW46868   7.073   1.592   1.103  0.0445 -0.5112 -0.3374
15273SOL    HW146869   7.140   1.537   1.146  1.0789 -0.5088 -1.8711
15273SOL    HW246870   7.042   1.538   1.030 -2.6869 -1.0728  1.1113
15274SOL     OW46871   3.422   5.266   5.363 -0.5357 -0.0779 -0.0180
15274SOL    HW146872   3.503   5.304   5.395 -1.7465  1.8656  0.8992
15274SOL    HW246873   3.449   5.211   5.289  1.5076  1.1774 -0.2890
15275SOL     OW46874   3.700   2.017   4.663  0.1076  0.0626  0.2399
15275SOL    HW146875   3.739   1.933   4.636 -0.4411 -0.0902 -0.1152
15275SOL    HW246876   3.617   2.020   4.614 -0.6175  0.0797  1.4403
15276SOL     OW46877   7.016   0.783   7.149  0.3009 -0.0143  0.0282
15276SOL    HW146878   7.069   0.863   7.147  0.6561 -0.2490  0.1231
15276SOL    HW246879   7.074   0.715   7.182  0.2264 -0.4813 -0.7551
15277SOL     OW46880   4.543   8.158   6.187  0.6299 -0.4229 -0.1053
15277SOL    HW146881   4.556   8.230   6.249 -0.7911  2.6236 -3.0938
15277SOL    HW246882   4.631   8.136   6.157  1.0767  0.2002  0.7033
15278SOL     OW46883   2.727   7.727   6.550 -0.3707  0.0200 -0.0017
15278SOL    HW146884   2.798   7.762   6.604  0.0495 -0.6108 -0.1399
15278SOL    HW246885   2.747   7.634   6.540 -1.6309 -0.3360  0.5903
15279SOL     OW46886   2.383   5.395   4.448 -0.2860 -0.1862  0.0630
15279SOL    HW146887   2.458   5.336   4.436  1.3172  1.9448 -0.9724
15279SOL    HW246888   2.367   5.394   4.543 -0.0323 -1.8772  0.1312
15280SOL     OW46889   3.663   7.908   7.920  0.5551 -0.4049 -0.2359
15280SOL    HW146890   3.642   7.989   7.873 -0.5298 -1.0024 -0.8099
15280SOL    HW246891   3.603   7.906   7.994 -1.8650 -2.2768 -2.0622
15281SOL     OW46892   5.296   5.040   5.458 -0.1067  0.1864 -0.1524
15281SOL    HW146893   5.336   5.018   5.374 -0.1279 -0.2130 -0.0573
15281SOL    HW246894   5.303   5.135   5.463  0.0902  0.1925 -0.5088
15282SOL     OW46895   3.708   4.446   6.106  0.4777 -0.4008  0.6129
15282SOL    HW146896   3.801   4.423   6.101  0.3438 -0.7625 -0.2831
15282SOL    HW246897   3.688   4.482   6.021  0.1423  1.0580  1.2867
15283SOL     OW46898   0.724   3.444   5.768 -0.2845  0.4323  0.0804
15283SOL    HW146899   0.631   3.466   5.767  0.4696  4.0867 -0.4007
15283SOL    HW246900   0.756   3.477   5.852  1.1959  2.4800 -1.2109
15284SOL     OW46901   5.859   4.189   2.936  0.9057 -0.7336 -0.0316
15284SOL    HW146902   5.838   4.192   2.842 -0.6725  1.1203  0.3193
15284SOL    HW246903   5.849   4.097   2.959  0.2081 -1.0543 -1.4574
15285SOL     OW46904   4.174   0.823   2.900  0.1849  0.4349 -0.4605
15285SOL    HW146905   4.145   0.914   2.905  1.2753  0.7339  2.4163
15285SOL    HW246906   4.172   0.793   2.991 -0.6278 -2.6064 -1.3833
15286SOL     OW46907   6.593   1.195   3.695 -0.1425 -0.4501 -0.0878
15286SOL    HW146908   6.579   1.125   3.632  1.3045  0.3164 -1.3373
15286SOL    HW246909   6.680   1.229   3.674 -0.7060  1.5632  0.6178
15287SOL     OW46910   3.166   4.842   2.499 -0.1176 -0.3662 -0.0925
15287SOL    HW146911   3.122   4.890   2.569  0.7307 -0.1211  0.2845
15287SOL    HW246912   3.185   4.756   2.536  2.0556  0.3920  0.6825
15288SOL     OW46913   3.961   2.315   0.225  0.0240 -0.1375  0.0394
15288SOL    HW146914   3.903   2.389   0.207 -0.5603 -0.0960  1.9144
15288SOL    HW246915   3.903   2.248   0.261  0.8599 -0.7861  0.1887
15289SOL     OW46916   7.200   4.930   1.312  0.4007 -0.0412 -0.6064
15289SOL    HW146917   7.208   4.956   1.404  0.2791  0.2929 -0.6898
15289SOL    HW246918   7.134   4.990   1.276  2.5831  1.8481 -1.6658
15290SOL     OW46919   3.707   4.461   7.376 -0.4210 -0.2942  0.4360
15290SOL    HW146920   3.762   4.530   7.414  0.7863 -2.3227  2.6417
15290SOL    HW246921   3.767   4.412   7.320 -1.0461 -0.1001 -0.4088
15291SOL     OW46922   1.329   5.945   2.835  0.3438 -0.1159 -0.1043
15291SOL    HW146923   1.280   5.950   2.917  1.0917  0.1049  0.3405
15291SOL    HW246924   1.263   5.956   2.766 -0.0739  1.2872  0.5023
15292SOL     OW46925   0.742   5.872   3.620 -0.5285  0.0236 -0.3916
15292SOL    HW146926   0.705   5.900   3.703 -0.6384 -1.4392  0.0947
15292SOL    HW246927   0.808   5.807   3.644 -1.2168 -1.1255 -1.4447
15293SOL     OW46928   1.352   0.648   0.329  0.1884 -0.2772 -0.6204
15293SOL    HW146929   1.400   0.671   0.408  1.7663  0.1973 -1.6735
15293SOL    HW246930   1.379   0.558   0.309  0.6946  0.0011 -1.2305
15294SOL     OW46931   0.465   0.964   2.944  0.1998  0.0809 -0.0128
15294SOL    HW146932   0.502   1.052   2.942  0.2779  0.0522  0.2552
15294SOL    HW246933   0.536   0.908   2.913  0.0926  0.1310 -0.3592
15295SOL     OW46934   3.534   4.279   0.914 -0.2542 -0.3945  0.2650
15295SOL    HW146935   3.609   4.256   0.859  0.5814  1.2886  0.6690
15295SOL    HW246936   3.530   4.209   0.980  0.0177 -1.2948 -0.6483
15296SOL     OW46937   6.371   4.842   4.920 -0.6627 -0.4140  0.5194
15296SOL    HW146938   6.402   4.874   5.005  1.7456 -1.0069 -0.0498
15296SOL    HW246939   6.364   4.920   4.866 -2.5299  0.0073  1.3201
15297SOL     OW46940   7.857   3.713   2.452  0.3851 -0.4653  0.3657
15297SOL    HW146941   7.854   3.804   2.481 -0.4759 -0.6209  0.8011
15297SOL    HW246942   7.831   3.716   2.360 -1.1375 -0.4073  0.7666
15298SOL     OW46943   4.365   3.574   1.918  0.4012 -0.0991 -0.1607
15298SOL    HW146944   4.413   3.500   1.879 -1.9848 -2.1452  0.5383
15298SOL    HW246945   4.332   3.540   2.001 -0.7981  1.7913  0.1922
15299SOL     OW46946   6.781   2.612   7.357 -0.2183  0.0183  0.1901
15299SOL    HW146947   6.839   2.654   7.294  1.7591 -1.0948  1.1639
15299SOL    HW246948   6.839   2.580   7.426 -1.8856 -1.8723  0.8425
15300SOL     OW46949   5.480   5.599   5.320  0.5167  0.1498  0.1771
15300SOL    HW146950   5.480   5.522   5.264 -1.7959 -1.3802  2.0562
15300SOL    HW246951   5.445   5.669   5.265 -1.5486 -1.2608 -0.4342
15301SOL     OW46952   8.238   5.926   6.181  0.3118 -0.1284  0.3741
15301SOL    HW146953   8.167   5.872   6.215 -0.5611 -0.1546 -1.3599
15301SOL    HW246954   8.193   5.997   6.135  1.4272  0.5066  0.2343
15302SOL     OW46955   6.927   6.041   7.457 -0.2912 -0.6622  0.6291
15302SOL    HW146956   6.896   5.962   7.413 -0.1882 -1.2258  1.5500
15302SOL    HW246957   6.847   6.088   7.481 -0.3514 -0.4752  0.0893
15303SOL     OW46958   7.761   1.276   0.351  0.0317 -0.4583  0.1213
15303SOL    HW146959   7.824   1.347   0.364  1.1132 -1.1932 -0.9250
15303SOL    HW246960   7.799   1.222   0.282 -1.4714 -1.2648 -0.1167
15304SOL     OW46961   0.154   1.299   3.154  0.6392 -0.0589 -0.5843
15304SOL    HW146962   0.217   1.337   3.215  1.6113 -2.3348 -0.0818
15304SOL    HW246963   0.177   1.337   3.069 -0.4383  2.8012  0.2828
15305SOL     OW46964   6.965   6.220   7.233  0.0752 -0.3483 -0.2779
15305SOL    HW146965   7.010   6.155   7.179 -1.1731 -3.4752  2.1635
15305SOL    HW246966   6.964   6.183   7.321 -1.1061  2.8474  1.2362
15306SOL     OW46967   5.346   2.080   5.359  0.0043  0.3362 -0.3198
15306SOL    HW146968   5.348   2.087   5.454 -0.9810 -0.1980 -0.2506
15306SOL    HW246969   5.412   2.143   5.329 -1.8976  2.9054  0.5780
15307SOL     OW46970   8.175   7.740   2.061  0.0326 -0.5178  0.1127
15307SOL    HW146971   8.269   7.731   2.076  0.4143  0.0230 -1.6804
15307SOL    HW246972   8.158   7.687   1.983 -0.3777  2.3069 -1.8946
15308SOL     OW46973   2.806   6.336   2.519  0.4042 -0.8307 -0.4734
15308SOL    HW146974   2.794   6.369   2.430  1.6202  0.1048 -0.3219
15308SOL    HW246975   2.883   6.383   2.552  2.1165 -3.6511 -0.1551
15309SOL     OW46976   3.322   0.417   4.103 -0.0575 -0.0780 -0.3452
15309SOL    HW146977   3.314   0.462   4.187 -0.8706  1.6777 -1.3009
15309SOL    HW246978   3.240   0.437   4.058 -0.0090 -1.7358 -1.2217
15310SOL     OW46979   4.200   1.563   4.491 -0.0762  0.0145 -0.0611
15310SOL    HW146980   4.210   1.470   4.472  3.2100  0.6373 -2.0649
15310SOL    HW246981   4.242   1.575   4.576  0.1511 -0.2348 -0.1369
15311SOL     OW46982   4.674   0.442   7.826 -0.2479  0.0031 -0.0227
15311SOL    HW146983   4.753   0.478   7.786 -0.6319  0.9393  0.0306
15311SOL    HW246984   4.615   0.517   7.834 -0.2560 -0.1814  2.1399
15312SOL     OW46985   1.271   7.650   3.769  0.0919 -0.5373 -0.0040
15312SOL    HW146986   1.314   7.727   3.805  0.6152 -0.1951 -1.3411
15312SOL    HW246987   1.180   7.659   3.796  0.4763 -0.3654  1.3344
15313SOL     OW46988   1.668   4.130   0.838  0.1572 -0.0112 -0.1824
15313SOL    HW146989   1.680   4.035   0.840 -0.3340 -0.1265  3.5304
15313SOL    HW246990   1.751   4.165   0.869  0.3030  0.8168 -1.4413
15314SOL     OW46991   6.082   6.268   6.426 -0.2762  0.2196 -0.2060
15314SOL    HW146992   6.079   6.289   6.333  2.0986 -1.1483 -0.6607
15314SOL    HW246993   6.165   6.304   6.457 -1.4021  1.4188  1.6411
15315SOL     OW46994   1.932   4.259   3.944  0.0684 -0.2464  0.2062
15315SOL    HW146995   1.971   4.321   4.005  1.6136  0.0195 -0.9980
15315SOL    HW246996   1.878   4.314   3.886 -2.0431 -0.5863  1.7282
15316SOL     OW46997   8.144   4.607   3.750 -0.3921  1.0447 -0.1282
15316SOL    HW146998   8.158   4.660   3.829 -1.5037  0.3643  0.5510
15316SOL    HW246999   8.082   4.659   3.698 -1.5700  0.4049  0.5890
15317SOL     OW47000   3.677   5.191   0.990  0.0994 -0.4357  0.2044
15317SOL    HW147001   3.695   5.283   1.008  1.1660 -0.2472 -1.5794
15317SOL    HW247002   3.729   5.143   1.055  0.4707  0.2193  0.3970
15318SOL     OW47003   0.523   0.557   3.530  0.1186  0.3077  0.1831
15318SOL    HW147004   0.539   0.601   3.614  0.0621  0.7538 -0.0376
15318SOL    HW247005   0.471   0.620   3.479  0.9735  0.4556 -0.5456
15319SOL     OW47006   7.100   0.826   3.364  0.0757  0.8006  0.5618
15319SOL    HW147007   7.104   0.916   3.397  3.1631  0.7323  0.6520
15319SOL    HW247008   7.033   0.828   3.296  0.4682  3.3419  0.1516
15320SOL     OW47009   2.869   0.157   3.103 -0.6945  0.0125  0.4629
15320SOL    HW147010   2.806   0.229   3.104 -2.0078 -1.0648 -0.5935
15320SOL    HW247011   2.826   0.087   3.152 -1.7842 -1.7998 -2.7443
15321SOL     OW47012   6.508   4.787   2.261  0.4072  0.3437  0.0030
15321SOL    HW147013   6.439   4.722   2.279 -0.0898  0.8415 -0.0709
15321SOL    HW247014   6.586   4.735   2.244 -0.5406 -0.3703 -2.6854
15322SOL     OW47015   5.091   5.583   4.879 -0.1199  0.1017 -0.0871
15322SOL    HW147016   5.171   5.618   4.918 -0.5441  0.4159  0.5124
15322SOL    HW247017   5.043   5.544   4.952  1.3619 -3.9145 -1.0301
15323SOL     OW47018   2.153   1.222   7.458  0.0433 -0.0025 -0.0836
15323SOL    HW147019   2.111   1.212   7.544  0.5499  0.5107  0.2233
15323SOL    HW247020   2.223   1.157   7.458 -0.2684 -0.3460 -0.3095
15324SOL     OW47021   2.718   6.184   3.423 -0.3292  0.3935  0.2634
15324SOL    HW147022   2.794   6.130   3.445  0.8746  2.6696  2.1508
15324SOL    HW247023   2.715   6.184   3.327 -0.2035 -2.6337  0.1624
15325SOL     OW47024   4.171   6.887   1.498 -0.2051 -0.3822 -0.4242
15325SOL    HW147025   4.179   6.978   1.527 -3.0314  0.5257 -2.0999
15325SOL    HW247026   4.078   6.866   1.510 -0.0897 -2.2322 -2.2460
15326SOL     OW47027   2.779   1.685   0.927 -0.8776  0.0619  0.2415
15326SOL    HW147028   2.743   1.596   0.930 -0.3506 -0.1460  0.6559
15326SOL    HW247029   2.772   1.717   1.017  0.6784 -0.2908  0.5221
15327SOL     OW47030   0.492   4.953   6.798  0.0057 -0.6246  0.1626
15327SOL    HW147031   0.450   4.896   6.863  1.9088 -1.4283  0.7737
15327SOL    HW247032   0.574   4.979   6.839 -0.1123  1.3418 -0.7513
15328SOL     OW47033   2.801   6.253   0.066 -0.2175 -0.2518  0.2525
15328SOL    HW147034   2.812   6.346   0.046  1.0112 -0.3517  0.3888
15328SOL    HW247035   2.709   6.235   0.045 -0.1992  0.7420 -0.7948
15329SOL     OW47036   0.716   6.704   0.119 -0.4467  0.1587 -0.2676
15329SOL    HW147037   0.716   6.791   0.081  1.8287  1.0050  1.4269
15329SOL    HW247038   0.736   6.717   0.212 -2.6971 -2.0115  0.6420
15330SOL     OW47039   4.641   5.471   2.586 -0.1281 -0.2004  1.0746
15330SOL    HW147040   4.606   5.402   2.531  0.5269  1.4929 -1.6438
15330SOL    HW247041   4.589   5.466   2.667 -0.1671 -3.6869  0.9756
15331SOL     OW47042   7.201   0.419   2.692  0.2421  0.0617 -0.0469
15331SOL    HW147043   7.108   0.418   2.666  0.4218 -0.2227 -0.6951
15331SOL    HW247044   7.201   0.462   2.778 -0.1765  2.7570 -1.2912
15332SOL     OW47045   0.738   5.962   4.847  0.3872 -0.7254 -0.4103
15332SOL    HW147046   0.661   5.906   4.848  0.7851 -1.3126 -1.3350
15332SOL    HW247047   0.811   5.902   4.861  0.8143 -0.4408 -1.3412
15333SOL     OW47048   2.493   4.811   7.493 -0.3186 -0.2293  0.6399
15333SOL    HW147049   2.419   4.873   7.493  1.1057  1.6487 -1.4403
15333SOL    HW247050   2.494   4.775   7.405  2.1327  1.0280  0.0662
15334SOL     OW47051   3.003   0.052   0.408  0.3217  0.2571  0.2428
15334SOL    HW147052   2.911   0.077   0.407 -0.3533 -2.0191 -1.3270
15334SOL    HW247053   3.031   0.061   0.316  0.4395 -2.9621 -0.1345
15335SOL     OW47054   7.583   6.149   1.461 -0.7914 -0.3628 -0.2417
15335SOL    HW147055   7.620   6.106   1.539 -2.4582 -1.6089 -0.0768
15335SOL    HW247056   7.659   6.176   1.410  0.4420 -3.3791 -0.2482
15336SOL     OW47057   0.929   5.793   4.051  0.2451 -0.3114  0.0591
15336SOL    HW147058   0.909   5.783   4.144  1.8685 -0.5821  0.4011
15336SOL    HW247059   0.919   5.887   4.034 -0.1968 -0.2805  0.4558
15337SOL     OW47060   3.677   5.973   0.789  0.0446 -0.3417  0.5982
15337SOL    HW147061   3.737   6.045   0.773  0.0798 -0.7658 -1.3158
15337SOL    HW247062   3.632   5.997   0.870 -1.0558  2.6055 -0.7659
15338SOL     OW47063   2.845   0.515   1.574  0.1047  0.2877 -0.1327
15338SOL    HW147064   2.866   0.564   1.494 -3.2800  0.1768 -1.2356
15338SOL    HW247065   2.751   0.530   1.587  0.0523 -1.7177  2.4700
15339SOL     OW47066   6.300   5.466   4.893 -0.3835 -0.7323 -0.1626
15339SOL    HW147067   6.307   5.400   4.824  0.4062 -0.5856 -0.2320
15339SOL    HW247068   6.227   5.436   4.948 -0.6774 -1.1269 -0.7570
15340SOL     OW47069   6.229   2.559   7.686  1.0188 -0.0192  0.0863
15340SOL    HW147070   6.242   2.483   7.630  1.1899  1.6979 -2.3353
15340SOL    HW247071   6.238   2.635   7.628 -1.2848  1.8409  1.9283
15341SOL     OW47072   2.686   6.018   1.361  0.1895 -0.2967  0.6795
15341SOL    HW147073   2.677   5.930   1.323 -2.0541  0.7100 -1.4293
15341SOL    HW247074   2.596   6.044   1.383  1.1202  0.1065  4.9173
15342SOL     OW47075   1.224   0.107   0.277 -0.5014  0.7617  0.6816
15342SOL    HW147076   1.197   0.117   0.369 -0.9678  1.8339  0.4454
15342SOL    HW247077   1.160   0.046   0.240 -0.9124  1.0827  0.8410
15343SOL     OW47078   1.149   4.909   1.528 -0.2680 -1.0160  0.1757
15343SOL    HW147079   1.092   4.863   1.466  0.5303 -0.9821 -0.6054
15343SOL    HW247080   1.191   4.839   1.579  1.0631 -1.2107 -1.1159
15344SOL     OW47081   7.655   3.451   2.390 -0.4967 -0.1699 -0.2571
15344SOL    HW147082   7.574   3.401   2.377 -1.9889  1.6697  1.3599
15344SOL    HW247083   7.642   3.532   2.341  0.5735 -0.0392 -0.3595
15345SOL     OW47084   0.665   7.320   0.667 -0.4388  0.5270  0.0210
15345SOL    HW147085   0.705   7.367   0.593 -0.0269 -0.3180 -0.3133
15345SOL    HW247086   0.614   7.251   0.626 -0.8031  0.5037  0.5134
15346SOL     OW47087   6.843   6.309   6.663  0.2102  0.0318 -0.5667
15346SOL    HW147088   6.794   6.280   6.740 -0.7990  3.5979  0.3083
15346SOL    HW247089   6.934   6.292   6.686 -0.0502  1.0624  1.5332
15347SOL     OW47090   4.327   4.115   8.050  0.1003  0.4486  0.0958
15347SOL    HW147091   4.284   4.123   7.965 -0.9258 -1.3351  0.3946
15347SOL    HW247092   4.293   4.188   8.102 -0.4854  0.6165 -0.5225
15348SOL     OW47093   3.629   1.683   0.868 -0.7267 -0.1831  0.1219
15348SOL    HW147094   3.698   1.641   0.919 -0.4390  0.4063  0.2183
15348SOL    HW247095   3.674   1.724   0.794 -0.9256  0.4904  0.3680
15349SOL     OW47096   1.698   4.412   8.103 -0.6411 -0.2764 -0.1982
15349SOL    HW147097   1.762   4.353   8.141 -0.2318 -0.0146 -0.4673
15349SOL    HW247098   1.613   4.372   8.121 -0.3144 -2.0069 -2.0929
15350SOL     OW47099   3.210   4.612   2.630 -0.5313  0.1188 -0.3478
15350SOL    HW147100   3.258   4.530   2.643 -2.5422 -1.0391  0.1812
15350SOL    HW247101   3.191   4.643   2.719 -0.7086  0.5967 -0.5478
15351SOL     OW47102   1.975   6.151   4.805  1.0491 -0.3213 -0.1311
15351SOL    HW147103   1.983   6.232   4.755 -0.2196 -0.5938 -0.8355
15351SOL    HW247104   2.041   6.092   4.768  0.1825 -0.4962 -1.4779
15352SOL     OW47105   7.961   4.914   7.365 -0.3856  0.2298 -0.4082
15352SOL    HW147106   7.947   4.933   7.272 -1.8551 -0.8447 -0.4350
15352SOL    HW247107   8.046   4.869   7.367  0.2080  1.2651 -1.0614
15353SOL     OW47108   2.989   2.665   4.311  0.7567  0.3794 -0.2901
15353SOL    HW147109   3.010   2.597   4.375  0.7057 -0.0161 -0.6880
15353SOL    HW247110   2.992   2.747   4.361 -1.5275 -0.1013  0.7673
15354SOL     OW47111   2.875   0.321   1.750  0.2286 -0.2076  0.0914
15354SOL    HW147112   2.891   0.398   1.695 -1.0071  0.9790  1.3137
15354SOL    HW247113   2.905   0.247   1.697  1.2770  1.0815 -1.1967
15355SOL     OW47114   4.487   7.766   8.137  0.0878 -0.7050  0.2156
15355SOL    HW147115   4.401   7.782   8.098 -0.6222 -3.7137  0.2893
15355SOL    HW247116   4.548   7.810   8.079 -1.4790  2.0937  0.5261
15356SOL     OW47117   1.728   7.858   2.784  0.2227 -0.0750  0.0791
15356SOL    HW147118   1.749   7.946   2.814  0.3838 -0.4564  1.1468
15356SOL    HW247119   1.663   7.826   2.847 -0.8281 -0.2479 -1.0629
15357SOL     OW47120   0.990   5.801   4.916  0.2079  0.7627 -0.1174
15357SOL    HW147121   0.980   5.713   4.880  0.0503  1.6249 -2.3389
15357SOL    HW247122   0.978   5.790   5.010 -0.0781 -1.5378 -0.3699
15358SOL     OW47123   5.204   6.260   1.087 -0.1838 -0.0580 -0.2345
15358SOL    HW147124   5.116   6.222   1.096 -0.5044  0.8634  0.7774
15358SOL    HW247125   5.256   6.214   1.153 -0.2663  0.3605  0.1308
15359SOL     OW47126   3.432   8.072   0.172  0.0225 -0.1840  0.3823
15359SOL    HW147127   3.366   8.134   0.139  0.0843  0.2802  1.1091
15359SOL    HW247128   3.394   8.037   0.252  0.5992 -0.0219  0.7293
15360SOL     OW47129   3.124   5.505   4.091 -0.7876  0.5046  0.1001
15360SOL    HW147130   3.039   5.520   4.050 -0.7535 -0.1669 -0.2267
15360SOL    HW247131   3.128   5.411   4.103 -0.8103  0.6793  1.6880
15361SOL     OW47132   3.220   1.518   5.134  0.3222  0.1746  0.4310
15361SOL    HW147133   3.152   1.529   5.201 -0.0756  1.7827 -0.1920
15361SOL    HW247134   3.232   1.423   5.128 -1.6213 -0.1471  0.8309
15362SOL     OW47135   0.334   1.776   6.943 -0.2527 -0.6497 -0.6072
15362SOL    HW147136   0.352   1.732   6.860  1.2001  0.0592 -0.6874
15362SOL    HW247137   0.363   1.866   6.930  1.6177 -0.9244  1.1815
15363SOL     OW47138   1.162   0.810   0.621 -0.6936  0.6069  0.1277
15363SOL    HW147139   1.179   0.721   0.652 -2.8192  0.5773  1.4050
15363SOL    HW247140   1.223   0.865   0.670 -2.0330  0.2360  2.3207
15364SOL     OW47141   7.401   7.549   8.026  0.5570  0.6319 -0.1830
15364SOL    HW147142   7.386   7.591   7.942  1.1695  2.4604  0.5544
15364SOL    HW247143   7.489   7.512   8.018 -0.3995 -1.5744 -1.2082
15365SOL     OW47144   5.697   6.377   1.172  0.3353  0.0977 -0.3968
15365SOL    HW147145   5.675   6.376   1.265  0.6880  0.9421 -0.2887
15365SOL    HW247146   5.636   6.440   1.134 -1.6637 -2.2351 -1.2613
15366SOL     OW47147   2.251   5.959   0.040 -0.2332  0.6485  0.5633
15366SOL    HW147148   2.277   5.992  -0.047 -0.8678  0.0211  0.1209
15366SOL    HW247149   2.155   5.961   0.038 -0.2943  3.2410  2.2841
15367SOL     OW47150   5.392   1.439   2.811  0.6140 -0.3474 -0.4833
15367SOL    HW147151   5.355   1.482   2.734  0.3287 -0.6516 -0.5187
15367SOL    HW247152   5.457   1.500   2.844 -0.8783  0.8283  0.4029
15368SOL     OW47153   4.151   7.099   3.836 -0.2346  0.1508 -0.1645
15368SOL    HW147154   4.110   7.159   3.899 -0.6510 -1.1694  0.8805
15368SOL    HW247155   4.106   7.117   3.753  0.3582  1.9641 -0.1454
15369SOL     OW47156   1.023   0.606   1.286 -0.5038 -0.1264 -0.9236
15369SOL    HW147157   0.987   0.659   1.357 -1.0006  0.6473 -1.7258
15369SOL    HW247158   1.093   0.556   1.326 -1.0081  0.0285  0.1873
15370SOL     OW47159   8.007   4.831   2.642  0.5615 -0.0579  0.8266
15370SOL    HW147160   7.985   4.876   2.560  1.1767  0.2911  0.8505
15370SOL    HW247161   8.010   4.901   2.707 -0.8535 -0.4430  1.3491
15371SOL     OW47162   2.495   0.304   0.701 -0.2149  0.3710 -0.1937
15371SOL    HW147163   2.485   0.393   0.666 -0.0391  1.3025  1.9380
15371SOL    HW247164   2.518   0.317   0.793  0.0716 -1.9036  0.1196
15372SOL     OW47165   0.443   2.459   2.197 -0.5132  0.0830 -0.4295
15372SOL    HW147166   0.393   2.464   2.115 -1.2650  1.7307  0.0793
15372SOL    HW247167   0.392   2.512   2.258  1.4142  1.0952  0.3582
15373SOL     OW47168   3.578   3.419   0.621 -1.0326  0.6778  0.3030
15373SOL    HW147169   3.570   3.331   0.585 -1.3915  1.0375 -0.5240
15373SOL    HW247170   3.650   3.413   0.684 -0.0365  0.1449 -0.8536
15374SOL     OW47171   5.184   3.307   4.557 -0.3546  0.1968  0.0566
15374SOL    HW147172   5.136   3.226   4.540 -2.8149  1.3332  1.2187
15374SOL    HW247173   5.260   3.279   4.608 -0.9792 -1.4109  0.1687
15375SOL     OW47174   7.967   2.734   8.239  0.3901  0.1228 -0.1772
15375SOL    HW147175   8.056   2.700   8.239  0.4815  0.3488  0.5443
15375SOL    HW247176   7.936   2.720   8.150  1.5097  0.9933 -0.7254
15376SOL     OW47177   3.380   4.757   6.117 -0.2310  0.2399  0.5890
15376SOL    HW147178   3.438   4.691   6.156  0.3551  0.0439 -0.5924
15376SOL    HW247179   3.365   4.820   6.188 -0.1032 -0.6977  1.4747
15377SOL     OW47180   1.538   6.862   1.597 -0.3843  0.1729 -0.4320
15377SOL    HW147181   1.606   6.815   1.549  0.4429 -0.2227  1.0570
15377SOL    HW247182   1.540   6.823   1.685 -0.4889  2.1861  0.5127
15378SOL     OW47183   5.370   7.004   6.441  0.1877  0.0528 -0.7881
15378SOL    HW147184   5.349   7.097   6.441  4.1013  1.1790  1.4173
15378SOL    HW247185   5.292   6.962   6.477 -0.8307  2.8043  0.4982
15379SOL     OW47186   5.578   6.999   1.460  0.0156  0.0678  0.0002
15379SOL    HW147187   5.644   7.028   1.396  0.0933 -2.1966 -1.0483
15379SOL    HW247188   5.502   6.976   1.407 -0.6044 -0.0741  0.9317
15380SOL     OW47189   3.529   5.850   0.248  0.0037  0.6555 -0.1484
15380SOL    HW147190   3.528   5.793   0.172  0.9614 -0.9091  0.9471
15380SOL    HW247191   3.616   5.890   0.248  0.1384  0.3752  0.2947
15381SOL     OW47192   0.655   4.655   3.262 -0.2007  0.2907 -0.1108
15381SOL    HW147193   0.654   4.599   3.185 -0.1631 -0.7638  0.6281
15381SOL    HW247194   0.567   4.648   3.298 -1.0458  2.8451 -1.4566
15382SOL     OW47195   4.044   0.594   3.328 -0.4234 -0.0015  0.5175
15382SOL    HW147196   4.007   0.643   3.401 -0.1904  0.0514  0.5990
15382SOL    HW247197   4.082   0.660   3.271  0.0434 -0.0926  0.7129
15383SOL     OW47198   4.169   6.415   2.664  1.0981  0.1179 -0.2683
15383SOL    HW147199   4.113   6.492   2.649  0.5610 -0.0104  0.9385
15383SOL    HW247200   4.120   6.342   2.628  2.3878  0.5168 -3.0321
15384SOL     OW47201   2.914   4.467   6.068  0.0493 -0.3084  0.3613
15384SOL    HW147202   2.895   4.528   5.997  1.4872 -3.0478 -2.6376
15384SOL    HW247203   3.006   4.485   6.091 -0.4602  0.6856  1.7792
15385SOL     OW47204   1.609   6.756   0.472  0.2872 -0.0211  0.0436
15385SOL    HW147205   1.679   6.745   0.407  0.4375  0.4918  0.1059
15385SOL    HW247206   1.528   6.747   0.422  0.3960 -0.7381 -0.0075
15386SOL     OW47207   1.729   5.180   0.885  0.2660 -0.4458  0.2114
15386SOL    HW147208   1.769   5.099   0.919 -0.3567 -0.4123  1.0596
15386SOL    HW247209   1.714   5.234   0.963 -1.1701 -0.3448 -0.0987
15387SOL     OW47210   1.921   1.285   3.031 -0.3254 -0.0794  0.1560
15387SOL    HW147211   1.937   1.344   3.104  0.0241  1.7377 -1.3309
15387SOL    HW247212   1.882   1.339   2.963  0.7656 -1.3401 -1.5740
15388SOL     OW47213   4.581   4.196   1.608  0.0916 -0.1310  0.2297
15388SOL    HW147214   4.638   4.207   1.685 -1.3797 -1.4243  1.5773
15388SOL    HW247215   4.595   4.275   1.557 -0.0093  1.5382  2.6172
15389SOL     OW47216   4.384   1.690   0.711 -0.2014 -0.0015 -0.0820
15389SOL    HW147217   4.359   1.599   0.695 -1.2244  0.3197 -0.4187
15389SOL    HW247218   4.333   1.741   0.648  2.0848  0.6664 -1.5275
15390SOL     OW47219   4.721   1.542   4.483 -0.0922  0.1791  0.1124
15390SOL    HW147220   4.738   1.496   4.400  0.9662 -0.3650  0.6075
15390SOL    HW247221   4.755   1.631   4.469 -1.3604  0.5783 -0.5567
15391SOL     OW47222   1.802   4.766   3.062 -0.3727 -0.0776  0.1247
15391SOL    HW147223   1.740   4.741   3.131 -0.9932  0.0564 -0.3716
15391SOL    HW247224   1.868   4.818   3.106  0.3607 -1.6623  1.0022
15392SOL     OW47225   7.637   2.321   4.662  0.0427 -0.0842  0.0926
15392SOL    HW147226   7.680   2.243   4.698 -0.2776 -0.9008 -1.1914
15392SOL    HW247227   7.677   2.332   4.576 -0.4906  0.6891 -0.0640
15393SOL     OW47228   4.474   2.506   0.027  0.6244  0.3168 -0.2630
15393SOL    HW147229   4.486   2.597   0.054  0.1032  0.9458 -2.0306
15393SOL    HW247230   4.410   2.472   0.089  1.5438  0.8418  1.0221
15394SOL     OW47231   3.663   2.277   3.617 -0.4414 -0.2278 -0.0390
15394SOL    HW147232   3.726   2.341   3.585  0.0021 -0.6450 -0.0138
15394SOL    HW247233   3.710   2.228   3.684 -2.0119  2.1637  3.0911
15395SOL     OW47234   5.954   5.076   0.603  0.5411 -0.0324  0.4720
15395SOL    HW147235   5.978   5.099   0.693  2.5910  0.4246 -0.1371
15395SOL    HW247236   5.933   4.983   0.607  0.6913 -0.0359  1.4042
15396SOL     OW47237   3.828   5.508   5.599 -0.4401  0.1755  0.9417
15396SOL    HW147238   3.776   5.528   5.677 -2.4053 -0.7355 -0.0673
15396SOL    HW247239   3.781   5.552   5.528  1.1353  0.7120  0.2007
15397SOL     OW47240   3.409   1.544   0.688  0.1788  0.3844  0.3914
15397SOL    HW147241   3.429   1.631   0.721 -0.7021  0.0069  2.0254
15397SOL    HW247242   3.480   1.489   0.720  0.5505  0.4247 -0.3441
15398SOL     OW47243   2.026   7.581   1.080 -0.0114 -0.6337  0.0558
15398SOL    HW147244   1.954   7.580   1.016 -0.4082  0.4451  0.4675
15398SOL    HW247245   2.027   7.671   1.113  0.0367 -1.2241  1.7390
15399SOL     OW47246   5.733   2.771   7.699 -0.3607  0.5730  0.2999
15399SOL    HW147247   5.828   2.788   7.696 -0.5379  1.4991 -1.4102
15399SOL    HW247248   5.696   2.854   7.729 -0.6028 -0.0220  1.6936
15400SOL     OW47249   7.004   4.910   7.961 -0.0256  0.5945  0.6122
15400SOL    HW147250   6.988   4.972   8.033  2.0019  1.8555  0.0435
15400SOL    HW247251   6.957   4.948   7.886  0.7435  1.1506  0.4074
15401SOL     OW47252   2.771   4.975   7.256  0.2703  0.1150  0.7166
15401SOL    HW147253   2.809   4.936   7.177  0.0699 -0.4205  0.8816
15401SOL    HW247254   2.676   4.963   7.246  0.2969 -0.9886  1.5617
15402SOL     OW47255   1.630   6.825   4.262  0.5947 -0.8370  0.2478
15402SOL    HW147256   1.692   6.820   4.335  0.8199 -2.0461 -0.0182
15402SOL    HW247257   1.641   6.743   4.215 -0.4360 -0.5954 -0.4417
15403SOL     OW47258   1.862   4.823   5.856  0.0387 -0.1526 -0.0941
15403SOL    HW147259   1.901   4.761   5.794 -0.8179 -0.0204 -0.7850
15403SOL    HW247260   1.775   4.841   5.820 -0.5269 -0.1649  1.2272
15404SOL     OW47261   6.253   6.430   2.606 -0.1027 -1.0732  0.3838
15404SOL    HW147262   6.210   6.365   2.551 -0.8743  0.2469 -0.6261
15404SOL    HW247263   6.342   6.397   2.619  0.1199 -1.4109 -1.7124
15405SOL     OW47264   6.000   1.832   4.284  0.6293  0.6767  0.4019
15405SOL    HW147265   6.046   1.913   4.303  0.9953  0.3448  0.9242
15405SOL    HW247266   5.946   1.816   4.361 -2.1443  2.2545 -1.0511
15406SOL     OW47267   4.977   6.104   1.316  0.0337 -0.3925 -0.3614
15406SOL    HW147268   4.886   6.092   1.343  0.2003  0.4798  0.6773
15406SOL    HW247269   4.972   6.137   1.227 -0.6055 -1.7663 -0.8705
15407SOL     OW47270   5.292   0.282   1.944  0.7869 -0.5745 -0.2046
15407SOL    HW147271   5.257   0.224   1.876  0.4330  1.3583 -1.7806
15407SOL    HW247272   5.256   0.368   1.922 -0.2306 -0.0032  3.0932
15408SOL     OW47273   1.183   3.909   0.833  0.2018 -0.5778  0.0079
15408SOL    HW147274   1.116   3.858   0.878 -0.4947 -1.9989 -2.4463
15408SOL    HW247275   1.135   3.975   0.784  0.9385  0.9254  1.2419
15409SOL     OW47276   2.333   1.279   5.530 -0.0612 -0.3967 -0.0308
15409SOL    HW147277   2.238   1.269   5.530 -0.1246 -0.1104  1.8107
15409SOL    HW247278   2.350   1.356   5.475 -0.9001 -0.3455 -0.2241
15410SOL     OW47279   1.445   3.355   7.984 -0.4666  0.4402 -0.4196
15410SOL    HW147280   1.496   3.376   8.062  0.3719  1.1796 -1.1467
15410SOL    HW247281   1.508   3.359   7.912 -0.5822 -3.0098 -0.8617
15411SOL     OW47282   3.948   8.070   6.005 -0.1560  0.1901  0.1072
15411SOL    HW147283   3.932   8.045   5.914  0.7300  1.1873 -0.3447
15411SOL    HW247284   3.876   8.130   6.027  0.7317  1.5794 -0.6389
15412SOL     OW47285   3.212   8.153   2.898  0.1438  0.2111  0.3874
15412SOL    HW147286   3.147   8.083   2.905  1.0096 -0.4755  2.0789
15412SOL    HW247287   3.172   8.229   2.940 -0.2232  0.3116 -0.1358
15413SOL     OW47288   2.674   3.125   4.949 -0.2513  0.3162  0.3275
15413SOL    HW147289   2.582   3.154   4.945 -0.4026 -0.1814  0.0678
15413SOL    HW247290   2.710   3.152   4.864  0.0226  1.0790  0.6773
15414SOL     OW47291   4.215   4.981   1.357 -0.1117 -0.1082 -0.0136
15414SOL    HW147292   4.132   5.013   1.324 -0.2022  0.9385  1.1619
15414SOL    HW247293   4.281   5.040   1.319 -0.1109  0.3540  0.6797
15415SOL     OW47294   0.570   8.069   1.943  0.5561 -0.4840  0.2483
15415SOL    HW147295   0.480   8.078   1.973 -0.6748 -2.2159 -2.4603
15415SOL    HW247296   0.605   7.995   1.993  0.0806 -0.5171  0.5360
15416SOL     OW47297   2.855   1.741   7.310 -0.0412 -0.2231 -0.1021
15416SOL    HW147298   2.864   1.690   7.391  0.7939 -0.9017 -0.6097
15416SOL    HW247299   2.893   1.686   7.242 -0.8309  0.3008 -0.9892
15417SOL     OW47300   4.149   0.499   5.800  0.3314 -0.0135 -0.1889
15417SOL    HW147301   4.209   0.432   5.833  2.1810  1.6714  0.0749
15417SOL    HW247302   4.117   0.543   5.878  3.2617  2.7545 -0.3281
15418SOL     OW47303   8.056   0.969   2.312 -0.5444  0.1780  0.0647
15418SOL    HW147304   7.977   0.916   2.326 -0.0283 -1.2238 -1.8804
15418SOL    HW247305   8.023   1.052   2.277 -1.2135  0.1479  0.5922
15419SOL     OW47306   5.564   3.209   3.167 -0.0446 -0.3266 -0.1280
15419SOL    HW147307   5.478   3.249   3.161  0.2070  0.0205 -2.0153
15419SOL    HW247308   5.557   3.128   3.115  0.7463 -0.2953 -0.3068
15420SOL     OW47309   0.957   2.716   1.283 -0.1029  0.2255 -0.3170
15420SOL    HW147310   1.052   2.722   1.291 -0.0219 -0.2933 -0.8498
15420SOL    HW247311   0.934   2.783   1.219 -0.0331 -0.0202 -0.6006
15421SOL     OW47312   0.943   7.384   2.767 -0.3723 -0.2299 -0.1447
15421SOL    HW147313   1.025   7.410   2.725  0.8077 -2.3337  0.7441
15421SOL    HW247314   0.960   7.393   2.861 -1.5019  0.2032  0.0390
15422SOL     OW47315   5.794   1.786   4.801  0.1418  0.4200  0.8956
15422SOL    HW147316   5.721   1.819   4.749 -0.3620 -0.5386  0.9695
15422SOL    HW247317   5.753   1.736   4.872  0.8431  1.0113  1.7428
15423SOL     OW47318   1.127   1.706   1.640  0.3043  0.1447 -0.1975
15423SOL    HW147319   1.123   1.745   1.553  2.0354  0.8107 -0.0258
15423SOL    HW247320   1.161   1.618   1.625  0.6104  0.2622 -0.2027
15424SOL     OW47321   7.573   6.456   7.318 -0.4992  0.2654  0.0954
15424SOL    HW147322   7.648   6.446   7.377  0.3884  1.4125 -0.7807
15424SOL    HW247323   7.564   6.551   7.308 -1.3773  0.1116 -0.6846
15425SOL     OW47324   5.765   5.933   7.108  0.1607 -0.2522 -0.2629
15425SOL    HW147325   5.792   5.928   7.200 -0.6971  1.8039  0.1688
15425SOL    HW247326   5.836   5.982   7.065 -0.8871  1.5886  0.0183
15426SOL     OW47327   3.624   4.278   4.077 -0.2397 -0.6355  0.1933
15426SOL    HW147328   3.554   4.295   4.014  0.3078  1.3198  0.0556
15426SOL    HW247329   3.578   4.249   4.156 -1.1164 -0.6022 -0.2892
15427SOL     OW47330   7.164   2.959   0.621 -0.1320 -0.3412 -0.4766
15427SOL    HW147331   7.167   3.049   0.653  2.6821 -0.7731  0.8127
15427SOL    HW247332   7.206   2.962   0.535  1.0353 -0.5198  0.0580
15428SOL     OW47333   1.079   4.049   1.833 -0.2283  0.0667 -0.0249
15428SOL    HW147334   1.006   4.095   1.792 -0.0910  0.7787  0.5232
15428SOL    HW247335   1.134   4.022   1.760 -1.2878 -0.9279 -0.4898
15429SOL     OW47336   7.138   1.671   7.731  0.2144  0.0203 -0.1098
15429SOL    HW147337   7.154   1.753   7.683  3.6671 -0.6703 -0.3360
15429SOL    HW247338   7.115   1.608   7.663  2.5714 -0.3408 -0.6420
15430SOL     OW47339   8.245   7.711   1.398  0.0756 -0.2277  0.2109
15430SOL    HW147340   8.336   7.741   1.403  0.2473 -0.6828 -0.1852
15430SOL    HW247341   8.196   7.790   1.375  0.2353  0.2389  1.3646
15431SOL     OW47342   4.665   1.334   7.594  0.8894 -0.1483  0.2058
15431SOL    HW147343   4.619   1.336   7.511  3.2050  1.9268 -1.1615
15431SOL    HW247344   4.732   1.266   7.583 -0.1941 -1.4475  1.2736
15432SOL     OW47345   3.031   2.482   3.917 -0.3182  0.2266  0.6407
15432SOL    HW147346   3.014   2.436   3.835 -0.2270 -0.4762  1.0045
15432SOL    HW247347   3.035   2.412   3.983 -0.1382  0.7575  1.2019
15433SOL     OW47348   4.105   6.027   4.494  0.5354  0.2176  0.3150
15433SOL    HW147349   4.126   5.952   4.551 -1.1378  1.2479  2.4434
15433SOL    HW247350   4.182   6.084   4.500  1.0393 -0.4406  0.2291
15434SOL     OW47351   1.365   7.307   2.402  0.7476  0.4445 -0.3485
15434SOL    HW147352   1.425   7.378   2.379 -1.1828  2.0124 -0.9451
15434SOL    HW247353   1.301   7.349   2.460  1.3199 -1.6441  1.9331
15435SOL     OW47354   5.604   7.975   8.033  0.0240 -0.2156  0.5006
15435SOL    HW147355   5.624   7.886   8.064  0.7630  0.1292  1.0352
15435SOL    HW247356   5.670   7.992   7.965 -0.6159 -0.3742 -0.1679
15436SOL     OW47357   1.869   2.027   3.497  0.4833  0.2782  0.0301
15436SOL    HW147358   1.846   1.994   3.583 -1.5475  4.1445  1.2075
15436SOL    HW247359   1.906   2.114   3.513  0.2762  1.0593 -2.9703
15437SOL     OW47360   2.593   1.246   6.025 -0.1083 -0.4587 -0.5297
15437SOL    HW147361   2.557   1.178   5.968 -0.9618 -1.6943  1.3785
15437SOL    HW247362   2.564   1.222   6.113  0.0196  2.1012  0.3079
15438SOL     OW47363   7.592   1.745   1.680 -0.2489  0.0547 -0.1108
15438SOL    HW147364   7.600   1.701   1.596  0.8116 -1.7214  0.8596
15438SOL    HW247365   7.498   1.752   1.696 -0.4677  0.8113 -1.6062
15439SOL     OW47366   1.155   3.697   1.180 -0.3421 -0.5424 -0.0145
15439SOL    HW147367   1.134   3.610   1.145  0.4772 -2.2284  3.3068
15439SOL    HW247368   1.073   3.728   1.218 -0.6967  0.3221 -1.4126
15440SOL     OW47369   4.692   5.145   6.967 -0.0313 -0.7825  0.0183
15440SOL    HW147370   4.615   5.183   7.010  0.4449 -0.5743  0.7157
15440SOL    HW247371   4.677   5.160   6.874  0.3493  1.6108  0.2584
15441SOL     OW47372   0.983   7.724   0.083 -0.2002  0.1977 -0.4084
15441SOL    HW147373   0.956   7.814   0.100  1.0249  0.4634  0.2771
15441SOL    HW247374   1.079   7.726   0.090 -0.2153 -1.4541  1.1076
15442SOL     OW47375   2.704   2.699   7.779  0.1258  0.1057  0.2795
15442SOL    HW147376   2.741   2.684   7.865  0.8917 -1.1150 -0.2361
15442SOL    HW247377   2.664   2.616   7.755 -0.0689  0.4228 -0.5432
15443SOL     OW47378   0.192   2.325   0.376  0.1421  0.2232 -0.0410
15443SOL    HW147379   0.177   2.403   0.322  1.1747  0.2660 -0.2699
15443SOL    HW247380   0.284   2.303   0.363  0.6263  0.6233  2.1936
15444SOL     OW47381   4.788   3.624   7.878 -0.0666  0.3939 -0.3055
15444SOL    HW147382   4.766   3.553   7.938 -1.2208 -0.1587 -1.3653
15444SOL    HW247383   4.712   3.682   7.881 -0.6282 -0.2039 -2.0521
15445SOL     OW47384   8.146   7.520   1.885 -0.3384 -0.3522 -0.0437
15445SOL    HW147385   8.181   7.498   1.799  1.9024  0.8996  0.4699
15445SOL    HW247386   8.190   7.460   1.945 -1.9575 -1.2883  0.2838
15446SOL     OW47387   3.308   8.274   4.593 -0.0965 -0.2229  0.0935
15446SOL    HW147388   3.356   8.194   4.572  1.8045  0.7917  0.2670
15446SOL    HW247389   3.296   8.318   4.509 -0.2048 -0.2012  0.1204
15447SOL     OW47390   6.655   8.037   7.693 -0.4225 -0.3440 -0.2427
15447SOL    HW147391   6.666   7.942   7.691 -1.6751 -0.5770  1.6953
15447SOL    HW247392   6.732   8.070   7.739 -0.0777 -0.4226 -0.7565
15448SOL     OW47393   7.985   6.616   3.266  0.3314  0.0720 -0.0901
15448SOL    HW147394   7.939   6.700   3.261 -2.6087 -1.3159  1.0374
15448SOL    HW247395   7.987   6.585   3.175  0.4110  0.8484 -0.3611
15449SOL     OW47396   3.876   0.000   4.460  0.1905 -0.5677  0.3338
15449SOL    HW147397   3.962  -0.027   4.492  0.7062  2.0114  1.4451
15449SOL    HW247398   3.826   0.021   4.539  0.4412  3.0175 -0.2814
15450SOL     OW47399   0.212   6.587   3.551  0.0547  0.0977 -0.0476
15450SOL    HW147400   0.228   6.666   3.500 -1.9332  1.0051  0.6518
15450SOL    HW247401   0.240   6.515   3.494  1.3362  1.2384 -0.9223
15451SOL     OW47402   5.827   7.568   6.511 -0.2713  0.0749  0.4686
15451SOL    HW147403   5.771   7.624   6.458 -5.0825 -2.1131  2.6070
15451SOL    HW247404   5.868   7.627   6.574 -0.6954  1.7601 -0.7934
15452SOL     OW47405   7.320   1.470   6.567  0.0673 -0.2103  0.6247
15452SOL    HW147406   7.393   1.476   6.628  1.1518  0.6141 -0.7063
15452SOL    HW247407   7.354   1.419   6.494 -0.4423  0.7743 -0.3248
15453SOL     OW47408   5.486   2.136   1.231 -0.0539 -0.5756 -0.5709
15453SOL    HW147409   5.403   2.134   1.183  0.2477 -0.8935 -1.0847
15453SOL    HW247410   5.470   2.082   1.309 -0.4079 -0.4293 -0.5430
15454SOL     OW47411   3.329   0.364   5.431  0.5842  0.2933  0.3088
15454SOL    HW147412   3.412   0.363   5.477  2.4547 -1.9626 -2.7520
15454SOL    HW247413   3.299   0.273   5.434 -0.7490  0.6877 -0.3471
15455SOL     OW47414   5.405   5.554   5.618 -0.4687  0.1122  0.0802
15455SOL    HW147415   5.470   5.485   5.633 -0.6452 -0.3163 -1.0161
15455SOL    HW247416   5.406   5.567   5.523 -1.1426  0.9399  0.1743
15456SOL     OW47417   5.536   5.742   2.726  0.5175 -0.1733  0.5546
15456SOL    HW147418   5.502   5.688   2.797  0.0963 -1.1653 -0.3778
15456SOL    HW247419   5.631   5.728   2.730  0.6927  1.1236  1.9698
15457SOL     OW47420   5.022   5.903   4.608 -0.0418  0.2267 -0.1004
15457SOL    HW147421   5.090   5.921   4.542  0.7885  1.7612  1.1020
15457SOL    HW247422   4.988   5.817   4.584  1.4403 -0.0319 -1.4995
15458SOL     OW47423   1.870   4.013   4.256  0.4863 -0.4525  0.3417
15458SOL    HW147424   1.787   3.967   4.246  0.4943 -0.3171 -0.3908
15458SOL    HW247425   1.848   4.106   4.246  0.6381 -0.3691  0.7367
15459SOL     OW47426   6.260   5.924   1.315 -0.8425  0.0346  0.2718
15459SOL    HW147427   6.233   5.855   1.255 -0.0129  0.9640 -1.2399
15459SOL    HW247428   6.311   5.984   1.260  0.4187  0.6421  2.0228
15460SOL     OW47429   5.332   4.335   8.064  0.1908  0.2108 -0.1436
15460SOL    HW147430   5.373   4.349   7.979 -2.5746 -0.2126 -1.6964
15460SOL    HW247431   5.325   4.240   8.072 -1.7612  0.2472 -0.7225
15461SOL     OW47432   2.067   3.289   3.893 -0.5808 -0.1115 -0.5121
15461SOL    HW147433   2.135   3.228   3.922  0.9375  1.4248 -0.7642
15461SOL    HW247434   1.985   3.240   3.906  0.3136 -1.0448  2.3462
15462SOL     OW47435   5.588   4.331   5.250  0.1929 -0.1132 -0.0359
15462SOL    HW147436   5.642   4.280   5.311 -0.3729  0.2096  0.7504
15462SOL    HW247437   5.625   4.419   5.252 -0.8689  0.3320  1.1775
15463SOL     OW47438   3.899   4.939   7.210 -0.1769  0.1225  0.9558
15463SOL    HW147439   3.982   4.975   7.179  0.0010 -0.1100  1.1668
15463SOL    HW247440   3.916   4.846   7.221 -0.4760  0.0687  0.9682
15464SOL     OW47441   6.882   4.054   0.910 -0.3531  0.3860 -0.2881
15464SOL    HW147442   6.821   4.042   0.837  0.7312 -3.6051 -0.7957
15464SOL    HW247443   6.969   4.055   0.870  0.2498 -1.5921  0.8095
15465SOL     OW47444   1.031   6.216   0.214 -0.4121  0.0783  0.5035
15465SOL    HW147445   1.004   6.128   0.239  1.7182 -0.7412  0.1126
15465SOL    HW247446   1.117   6.229   0.254 -0.1673  1.5328 -0.3736
15466SOL     OW47447   8.200   3.086   6.716 -0.6251 -0.3684 -0.4223
15466SOL    HW147448   8.105   3.093   6.711 -0.6879 -0.3040  0.7201
15466SOL    HW247449   8.217   3.015   6.777  0.0538  0.2189  0.0955
15467SOL     OW47450   2.285   3.808   1.545  0.7210 -0.2080  0.0859
15467SOL    HW147451   2.258   3.796   1.454 -0.0128  1.6812  0.0159
15467SOL    HW247452   2.339   3.731   1.564  0.1430 -1.0968 -1.6443
15468SOL     OW47453   6.113   7.071   3.751 -0.3539  0.1170  0.4853
15468SOL    HW147454   6.056   7.123   3.808  1.0240  0.9477  1.1727
15468SOL    HW247455   6.201   7.092   3.781  0.3980  0.0455 -1.5175
15469SOL     OW47456   7.736   7.395   3.588 -0.2728  0.2300  0.0992
15469SOL    HW147457   7.767   7.484   3.599 -1.6799  0.7207  0.2110
15469SOL    HW247458   7.660   7.402   3.530 -1.2866 -0.7001  1.2395
15470SOL     OW47459   4.005   1.405   6.438  0.7596 -0.6049 -0.3233
15470SOL    HW147460   3.947   1.329   6.445 -0.1870  0.1757  0.8832
15470SOL    HW247461   4.090   1.369   6.415  0.6501 -2.1845  1.4928
15471SOL     OW47462   7.906   2.075   1.892 -0.0456  0.0360 -0.4180
15471SOL    HW147463   7.824   2.034   1.863  0.2789 -0.4007 -0.7265
15471SOL    HW247464   7.922   2.037   1.978 -1.0071  1.3292  0.3757
15472SOL     OW47465   7.170   4.811   7.425  0.0795  0.3858 -0.1269
15472SOL    HW147466   7.168   4.768   7.510 -1.9430  0.7342  0.0511
15472SOL    HW247467   7.184   4.904   7.445  1.6474  0.2252 -0.3403
15473SOL     OW47468   5.173   0.429   7.544  0.5563 -0.0980  0.2566
15473SOL    HW147469   5.227   0.507   7.556  2.0128 -0.8155 -1.1569
15473SOL    HW247470   5.206   0.367   7.610 -1.2761  0.7372  2.0662
15474SOL     OW47471   6.227   3.775   6.467 -0.3582 -0.4499  0.1424
15474SOL    HW147472   6.247   3.733   6.550 -3.2642 -3.2520 -0.3392
15474SOL    HW247473   6.140   3.814   6.480 -1.1247 -1.4370 -1.6508
15475SOL     OW47474   7.372   3.725   7.332 -0.0626  0.0421 -0.7317
15475SOL    HW147475   7.454   3.721   7.283 -1.4485 -0.0117 -3.2149
15475SOL    HW247476   7.333   3.808   7.307 -0.2289  0.6917  1.4629
15476SOL     OW47477   3.824   7.913   4.943 -0.0790 -0.0994  0.3938
15476SOL    HW147478   3.803   7.819   4.940 -0.5408  0.0242 -0.5653
15476SOL    HW247479   3.873   7.929   4.863  0.2493  0.4328  0.6933
15477SOL     OW47480   6.090   2.612   4.732  0.0360  0.0510 -0.3106
15477SOL    HW147481   6.170   2.562   4.714  0.1984  0.3299 -0.3609
15477SOL    HW247482   6.019   2.551   4.710  0.2240 -0.4220  0.3399
15478SOL     OW47483   3.663   1.348   4.995  0.5385 -0.1342 -0.5396
15478SOL    HW147484   3.613   1.401   4.932 -0.0039 -1.4232 -1.2358
15478SOL    HW247485   3.726   1.301   4.941  0.2172 -1.0846 -0.1110
15479SOL     OW47486   6.783   3.578   6.990 -0.1875 -0.3867  0.8576
15479SOL    HW147487   6.844   3.606   6.922 -0.1832  0.2966  1.1432
15479SOL    HW247488   6.837   3.530   7.052  0.3360  1.3456  1.8020
15480SOL     OW47489   4.262   0.985   0.589 -0.1362 -0.2977 -0.2923
15480SOL    HW147490   4.341   0.934   0.602  0.2535  0.4023  0.1575
15480SOL    HW247491   4.221   0.990   0.675  1.5226  2.8348  0.4751
15481SOL     OW47492   8.164   3.933   5.890 -0.2069 -0.1390 -0.3831
15481SOL    HW147493   8.219   3.954   5.814 -0.3008 -1.6220 -0.9044
15481SOL    HW247494   8.213   3.966   5.965  0.8558 -0.4072 -0.9300
15482SOL     OW47495   0.974   5.456   5.155 -0.1276  0.0727 -0.1260
15482SOL    HW147496   0.963   5.415   5.241 -1.3823 -0.0674 -0.3345
15482SOL    HW247497   1.053   5.415   5.119  0.4812  0.2173  0.9869
15483SOL     OW47498   2.737   7.925   4.070 -0.0438  0.1631 -0.0751
15483SOL    HW147499   2.820   7.892   4.037  0.5775  1.7875 -0.2287
15483SOL    HW247500   2.671   7.866   4.032  0.9297 -0.2901 -1.1261
15484SOL     OW47501   0.867   1.976   2.543  0.0415  0.1436 -0.0057
15484SOL    HW147502   0.913   2.050   2.584 -1.1929  0.9313  0.0085
15484SOL    HW247503   0.826   1.930   2.617 -1.2532  0.9093 -0.2298
15485SOL     OW47504   1.114   2.576   8.069 -0.7227 -0.2290 -0.6782
15485SOL    HW147505   1.072   2.492   8.090  0.1226 -1.2000 -2.6135
15485SOL    HW247506   1.138   2.568   7.976  1.8410  1.0997 -0.2018
15486SOL     OW47507   3.654   8.134   7.000 -0.1847 -0.5505 -0.1188
15486SOL    HW147508   3.622   8.191   7.070 -2.9352 -0.1179 -1.5639
15486SOL    HW247509   3.588   8.065   6.993  0.5016 -1.0953 -1.6443
15487SOL     OW47510   2.705   2.798   8.151  0.1677  0.3590 -0.1153
15487SOL    HW147511   2.637   2.751   8.200 -0.1761  1.0023  0.0446
15487SOL    HW247512   2.723   2.875   8.205  0.4757  0.5813 -0.5369
15488SOL     OW47513   3.093   7.067   5.339 -0.4448  0.0472 -0.8076
15488SOL    HW147514   3.051   7.030   5.262 -0.7287 -1.3299 -0.0118
15488SOL    HW247515   3.121   6.992   5.390  0.4236  0.9371  0.0803
15489SOL     OW47516   1.666   1.226   7.218 -0.0949 -0.8148 -0.2556
15489SOL    HW147517   1.757   1.257   7.213 -0.4233 -0.0162 -2.1159
15489SOL    HW247518   1.665   1.167   7.293  1.6915  0.0320  0.4944
15490SOL     OW47519   2.493   1.877   5.804 -0.1557 -0.5701 -0.1939
15490SOL    HW147520   2.477   1.964   5.767  0.7376 -0.9251 -1.4558
15490SOL    HW247521   2.567   1.889   5.864 -0.2168 -0.4070 -0.1511
15491SOL     OW47522   8.124   5.572   5.892 -0.4391 -0.5861  0.7785
15491SOL    HW147523   8.066   5.549   5.965 -0.2928  1.3794  1.5612
15491SOL    HW247524   8.182   5.496   5.882 -1.0008 -1.2232  2.1400
15492SOL     OW47525   3.895   4.141   4.075 -0.1144  0.1728  0.0675
15492SOL    HW147526   3.868   4.229   4.051 -0.3077  0.4385  1.1788
15492SOL    HW247527   3.961   4.155   4.144 -0.7937 -0.5501  0.8853
15493SOL     OW47528   2.399   1.618   5.760 -0.2420 -0.4795  0.4825
15493SOL    HW147529   2.484   1.585   5.729 -0.0072 -0.5878  1.2148
15493SOL    HW247530   2.415   1.710   5.782 -1.0022  0.3127 -1.9594
15494SOL     OW47531   4.748   5.733   1.890  0.3253  0.0329 -0.9916
15494SOL    HW147532   4.839   5.723   1.919 -0.4753 -1.4013  1.2695
15494SOL    HW247533   4.715   5.808   1.938 -0.6657 -1.6328  1.0709
15495SOL     OW47534   4.560   1.717   3.450 -0.4129  0.3615  0.2590
15495SOL    HW147535   4.546   1.714   3.355 -0.1301 -0.9522  0.2318
15495SOL    HW247536   4.473   1.729   3.487 -0.3536  2.4372 -0.1958
15496SOL     OW47537   7.069   1.423   1.987  0.3867 -0.3219  0.3030
15496SOL    HW147538   7.118   1.504   2.005  0.0355 -0.2997  1.2248
15496SOL    HW247539   7.000   1.422   2.053  0.9945 -1.8735  0.9658
15497SOL     OW47540   3.647   5.243   0.277 -0.1331 -0.2511 -0.0169
15497SOL    HW147541   3.708   5.316   0.288 -0.2334  0.0780 -1.5153
15497SOL    HW247542   3.562   5.281   0.300  0.0784 -0.4823  1.2344
15498SOL     OW47543   1.046   6.735   1.283 -0.1109 -0.5197  0.4471
15498SOL    HW147544   0.969   6.750   1.338 -0.0343  1.7640  0.0459
15498SOL    HW247545   1.011   6.724   1.194 -0.0100  1.0867  0.1719
15499SOL     OW47546   7.698   3.826   1.794  0.4147  0.5940  0.3470
15499SOL    HW147547   7.711   3.921   1.784  2.1090  0.5376  1.6463
15499SOL    HW247548   7.698   3.792   1.705  0.3550  1.7454 -0.1072
15500SOL     OW47549   2.365   8.108   1.078 -0.3942  0.5338  0.2905
15500SOL    HW147550   2.436   8.044   1.071 -1.8059 -1.1662  0.7269
15500SOL    HW247551   2.335   8.121   0.988 -0.1388  0.5495  0.2069
15501SOL     OW47552   6.977   6.489   0.832  0.2941  0.5158  0.6397
15501SOL    HW147553   6.987   6.411   0.885 -0.7968  0.4983  0.8444
15501SOL    HW247554   6.894   6.528   0.861  1.3712  2.4118  1.4011
15502SOL     OW47555   0.027   3.633   1.035  0.0773 -0.2753 -0.3934
15502SOL    HW147556   0.015   3.670   1.122  0.9810 -0.2769 -0.2595
15502SOL    HW247557  -0.042   3.568   1.027  0.1163 -0.4274  0.4106
15503SOL     OW47558   3.047   4.050   0.784 -0.2864 -0.3609  0.2929
15503SOL    HW147559   2.975   4.111   0.798  1.4831  1.5020  1.9324
15503SOL    HW247560   3.019   3.969   0.826 -2.7910 -0.9162 -2.1252
15504SOL     OW47561   5.922   5.019   5.836 -0.5666  0.2122 -0.4918
15504SOL    HW147562   5.953   5.076   5.907 -0.1943 -0.2633 -0.2695
15504SOL    HW247563   5.896   4.938   5.879 -2.5255  0.7315 -0.6311
15505SOL     OW47564   4.684   2.416   3.074  0.1437  0.5456 -0.5190
15505SOL    HW147565   4.719   2.405   2.985  0.6365 -3.0516 -0.0362
15505SOL    HW247566   4.762   2.435   3.128  0.3034 -0.2057 -0.4731
15506SOL     OW47567   0.429   3.561   0.056 -0.0537  0.2568 -0.4897
15506SOL    HW147568   0.469   3.486   0.013 -0.7206  2.1730 -5.1455
15506SOL    HW247569   0.499   3.599   0.108  2.3927 -0.0867 -3.2363
15507SOL     OW47570   8.107   2.951   4.290 -0.9387 -0.0697 -0.3563
15507SOL    HW147571   8.078   3.041   4.274 -2.0006 -0.3930 -0.2930
15507SOL    HW247572   8.038   2.912   4.343 -0.5601 -0.9753 -0.5112
15508SOL     OW47573   8.184   0.898   2.558 -0.6587 -0.7261 -0.4063
15508SOL    HW147574   8.121   0.940   2.499  1.5521  2.7756 -0.5871
15508SOL    HW247575   8.269   0.935   2.533  1.3771 -4.1454  0.7127
15509SOL     OW47576   4.903   7.172   2.026 -0.0105  0.3287 -0.4556
15509SOL    HW147577   4.900   7.116   2.104 -0.7852 -0.1475 -0.8100
15509SOL    HW247578   4.877   7.114   1.954 -0.9628  1.1668 -0.8046
15510SOL     OW47579   4.806   5.051   5.972  0.0665 -0.3195 -0.3598
15510SOL    HW147580   4.777   5.081   6.058  1.7768  1.1008 -0.2094
15510SOL    HW247581   4.731   5.066   5.914  0.0885  2.3063  0.1693
15511SOL     OW47582   7.172   2.092   1.081  0.0394  0.3957  0.2774
15511SOL    HW147583   7.234   2.078   1.009  1.3297  1.4568  1.1356
15511SOL    HW247584   7.226   2.087   1.160 -1.2638 -0.2270  1.1433
15512SOL     OW47585   4.124   7.856   0.219 -0.4235 -0.7010 -0.0652
15512SOL    HW147586   4.029   7.852   0.224 -0.4393 -0.5622 -0.2636
15512SOL    HW247587   4.150   7.771   0.184 -0.5382 -0.3920 -0.9308
15513SOL     OW47588   7.700   5.572   6.220 -1.0948 -0.2202 -0.0336
15513SOL    HW147589   7.611   5.602   6.240 -1.5931 -2.2513  1.0993
15513SOL    HW247590   7.731   5.534   6.303  0.8965  0.5689 -0.3781
15514SOL     OW47591   2.417   1.900   2.845  0.1672  0.7877  0.0579
15514SOL    HW147592   2.405   1.963   2.773  0.4816  2.4225  1.3698
15514SOL    HW247593   2.499   1.855   2.823 -0.8234 -0.2948 -1.6641
15515SOL     OW47594   4.980   5.920   6.867  0.0408  0.1092  0.2763
15515SOL    HW147595   4.908   5.863   6.897 -0.0184  0.1874  0.2814
15515SOL    HW247596   4.937   6.000   6.838  0.0191 -0.2669 -0.7826
15516SOL     OW47597   4.141   1.466   3.246  0.4497  0.0464  0.1484
15516SOL    HW147598   4.078   1.535   3.268  2.3188  2.6629 -1.9780
15516SOL    HW247599   4.183   1.444   3.329  0.8211  2.6520  0.7564
15517SOL     OW47600   0.025   2.635   4.510 -0.0259  0.7056 -0.0773
15517SOL    HW147601  -0.007   2.716   4.550  0.1700  1.0361 -0.5819
15517SOL    HW247602  -0.021   2.630   4.426  0.3953  0.5998 -0.3049
15518SOL     OW47603   0.752   3.437   4.474 -0.2055 -0.4257 -0.1150
15518SOL    HW147604   0.689   3.428   4.545 -0.9588 -1.9257 -0.9429
15518SOL    HW247605   0.816   3.368   4.490  0.8069  0.5570  0.2480
15519SOL     OW47606   2.186   0.976   0.246 -0.7696 -0.4574  0.4017
15519SOL    HW147607   2.190   0.930   0.163  1.7692 -0.3164  0.3716
15519SOL    HW247608   2.104   0.946   0.286 -1.0106 -2.1379 -1.2090
15520SOL     OW47609   3.633   1.483   7.930 -0.0747 -0.4247 -0.1391
15520SOL    HW147610   3.644   1.459   8.022 -0.7208  0.4468  0.1886
15520SOL    HW247611   3.572   1.556   7.932 -0.4029 -0.6431 -1.3013
15521SOL     OW47612   2.978   1.591   2.970 -0.6646  0.4942  0.5159
15521SOL    HW147613   2.918   1.626   3.036 -0.2326  2.6536 -0.1285
15521SOL    HW247614   2.934   1.514   2.935 -1.0311 -0.5365  3.0756
15522SOL     OW47615   0.522   6.819   1.054  0.0698  0.5313  0.4500
15522SOL    HW147616   0.617   6.833   1.049  0.1491  0.0235  0.4795
15522SOL    HW247617   0.512   6.743   1.111 -0.4237  1.4073  1.5871
15523SOL     OW47618   2.740   7.186   0.159  0.2004  0.7019 -0.5466
15523SOL    HW147619   2.800   7.235   0.216 -1.3565 -0.3507  2.1407
15523SOL    HW247620   2.780   7.100   0.150  0.1211  0.6626 -0.5201
15524SOL     OW47621   6.431   1.538   2.863 -0.3617  0.3593 -0.3455
15524SOL    HW147622   6.455   1.596   2.935 -0.4523  0.4770 -0.4105
15524SOL    HW247623   6.455   1.586   2.784 -1.0733  0.6038 -0.4228
15525SOL     OW47624   2.878   1.688   5.622 -0.0805  0.3664 -0.5401
15525SOL    HW147625   2.951   1.627   5.627 -0.1946  0.2472 -0.3510
15525SOL    HW247626   2.868   1.721   5.711 -0.2554  0.3871 -0.5675
15526SOL     OW47627   6.109   7.632   2.258 -0.3393 -0.3086 -0.1610
15526SOL    HW147628   6.158   7.675   2.328 -1.3593 -1.5184  1.3766
15526SOL    HW247629   6.158   7.652   2.179  0.7397  1.3203  0.8464
15527SOL     OW47630   3.468   6.134   5.391  0.2690  0.0959  0.0531
15527SOL    HW147631   3.494   6.197   5.458  0.0434  2.7301 -2.1561
15527SOL    HW247632   3.392   6.174   5.348 -0.0244 -1.8026 -1.3406
15528SOL     OW47633   1.517   2.210   4.186  0.1080  0.3812  0.1366
15528SOL    HW147634   1.474   2.164   4.257 -0.0249 -0.4279 -0.4568
15528SOL    HW247635   1.447   2.233   4.125  0.2669  0.7565  0.0861
15529SOL     OW47636   5.612   0.215   3.087 -0.1482 -0.4281 -0.3037
15529SOL    HW147637   5.630   0.130   3.127 -1.6751 -0.9151 -0.6120
15529SOL    HW247638   5.658   0.212   3.003 -0.6504 -1.1659 -0.5552
15530SOL     OW47639   8.163   2.256   1.808 -0.3818  0.1775  0.0361
15530SOL    HW147640   8.092   2.302   1.853 -0.8073 -0.5245  0.0914
15530SOL    HW247641   8.216   2.218   1.878 -1.6266 -1.7974 -0.0226
15531SOL     OW47642   0.319   6.396   7.876 -0.0884 -0.0202  0.9640
15531SOL    HW147643   0.324   6.481   7.919  0.9546  0.2698  0.2906
15531SOL    HW247644   0.302   6.417   7.784 -0.1746 -0.5582  0.8563
15532SOL     OW47645   5.269   6.907   7.196  0.2181  0.2576 -0.0062
15532SOL    HW147646   5.323   6.848   7.142  0.1708 -1.6234  1.8919
15532SOL    HW247647   5.181   6.871   7.191 -0.0725  0.9139  0.2199
15533SOL     OW47648   3.381   7.846   7.758  0.5740 -0.3091  0.1911
15533SOL    HW147649   3.412   7.757   7.778  0.6896 -0.4924 -0.7210
15533SOL    HW247650   3.392   7.895   7.839  3.7369 -0.2240 -0.1695
15534SOL     OW47651   2.659   4.076   8.027  0.6030  0.5911 -0.5002
15534SOL    HW147652   2.607   4.043   7.954 -1.9468  1.7869  0.6431
15534SOL    HW247653   2.664   4.171   8.012 -0.4760  0.9460  1.1129
15535SOL     OW47654   2.485   1.646   1.529 -0.1284 -0.0859 -0.3503
15535SOL    HW147655   2.396   1.655   1.496 -0.0562  0.2975 -0.4420
15535SOL    HW247656   2.490   1.555   1.560 -0.0802 -0.5640 -1.7169
15536SOL     OW47657   6.129   5.668   4.804 -0.1951 -0.1907  0.0622
15536SOL    HW147658   6.127   5.628   4.718 -1.5892 -1.7610  0.7813
15536SOL    HW247659   6.205   5.629   4.847 -0.4062 -0.5934  0.0748
15537SOL     OW47660   5.124   2.883   3.837 -0.1437 -0.1581  0.0097
15537SOL    HW147661   5.030   2.870   3.847 -0.4411  1.6738  0.0174
15537SOL    HW247662   5.157   2.891   3.926 -0.4524  1.8290 -0.0060
15538SOL     OW47663   3.419   8.104   7.287 -0.1993 -0.1669  0.0792
15538SOL    HW147664   3.432   8.051   7.208 -1.0686 -1.9071  1.0293
15538SOL    HW247665   3.437   8.044   7.359 -2.4918  0.3919  1.2354
15539SOL     OW47666   6.006   1.297   7.730 -0.1887 -0.0535 -0.0969
15539SOL    HW147667   5.954   1.267   7.655  0.2521  0.6785 -0.7104
15539SOL    HW247668   6.055   1.220   7.758  0.4912 -0.0881 -1.2841
15540SOL     OW47669   1.199   7.281   6.587  1.0298 -0.8967 -1.1070
15540SOL    HW147670   1.243   7.256   6.506  3.4146 -2.8157  0.6083
15540SOL    HW247671   1.146   7.205   6.610  2.2072 -1.3848  0.2120
15541SOL     OW47672   1.389   4.996   1.171 -0.6416 -0.0978 -0.5461
15541SOL    HW147673   1.327   5.050   1.219 -1.9842 -1.2418 -0.9093
15541SOL    HW247674   1.381   5.025   1.080  0.8090  1.0607 -0.3345
15542SOL     OW47675   7.190   1.927   0.641 -0.0642  0.6260  0.0659
15542SOL    HW147676   7.179   1.847   0.692 -1.5392  0.4206 -0.5322
15542SOL    HW247677   7.187   1.899   0.550  0.6326  1.2262 -0.1541
15543SOL     OW47678   4.972   4.988   4.467 -0.2713  0.8935  0.1804
15543SOL    HW147679   4.948   5.075   4.500 -0.6243  1.7776 -2.1857
15543SOL    HW247680   4.889   4.939   4.466 -0.1461  0.6507  1.1309
15544SOL     OW47681   2.280   4.750   4.027 -0.3283  0.2760  0.3448
15544SOL    HW147682   2.201   4.702   4.051 -0.0292 -0.6163 -0.3905
15544SOL    HW247683   2.249   4.837   4.002 -1.0770 -0.0380  0.1537
15545SOL     OW47684   2.978   5.712   0.923 -0.0965  0.2548 -0.0260
15545SOL    HW147685   2.974   5.807   0.914  0.6172  0.2473 -0.4852
15545SOL    HW247686   3.004   5.698   1.014  1.8468  0.5674 -0.4928
15546SOL     OW47687   2.174   1.679   5.603  0.1551 -0.5618 -0.1273
15546SOL    HW147688   2.170   1.584   5.592 -0.4167 -1.2003  4.1007
15546SOL    HW247689   2.265   1.696   5.629  0.1631  0.0170 -0.5165
15547SOL     OW47690   5.210   2.380   2.084  0.0220  0.3190 -0.1257
15547SOL    HW147691   5.283   2.342   2.132 -0.1421  1.5173  1.1546
15547SOL    HW247692   5.134   2.326   2.108  0.1616  0.1715 -0.0211
15548SOL     OW47693   3.451   5.618   6.204  0.3712  0.3336  0.5450
15548SOL    HW147694   3.455   5.708   6.237  2.0020  0.7819 -0.7120
15548SOL    HW247695   3.530   5.577   6.238 -0.9828 -1.0815  2.1744
15549SOL     OW47696   0.677   5.123   1.214 -0.2443  0.0235 -0.2539
15549SOL    HW147697   0.740   5.089   1.151  1.2783  1.2273  0.5380
15549SOL    HW247698   0.714   5.100   1.299 -0.8893  0.7260  0.2377
15550SOL     OW47699   4.634   0.364   5.278 -0.4777 -0.8774  0.4568
15550SOL    HW147700   4.565   0.402   5.224  0.0114  0.1236  0.5196
15550SOL    HW247701   4.588   0.304   5.336 -1.0679 -1.6741 -0.7775
15551SOL     OW47702   7.941   1.768   3.280 -0.0065 -0.6335  0.0991
15551SOL    HW147703   7.905   1.856   3.263 -0.4460 -0.9357 -0.6299
15551SOL    HW247704   7.968   1.737   3.193 -4.1581 -3.0615 -0.6331
15552SOL     OW47705   1.810   7.009   4.062  0.0907  0.4738  0.2907
15552SOL    HW147706   1.719   6.998   4.089 -0.2683 -1.5740 -1.5079
15552SOL    HW247707   1.850   6.923   4.075  1.0496  0.6293 -1.3886
15553SOL     OW47708   1.503   1.582   5.335 -0.4610 -0.4588 -0.4908
15553SOL    HW147709   1.446   1.552   5.406  2.5582 -2.8822  1.1796
15553SOL    HW247710   1.558   1.649   5.375 -1.0287  0.7087 -1.6148
15554SOL     OW47711   3.360   2.775   4.277  0.1013  0.1832  0.7951
15554SOL    HW147712   3.310   2.721   4.215  0.6796  1.2651 -0.6811
15554SOL    HW247713   3.447   2.736   4.278  1.3549  2.4492 -2.3587
15555SOL     OW47714   2.497   6.657   3.149  0.2268  0.2007 -0.1836
15555SOL    HW147715   2.542   6.689   3.227  0.6347 -2.8896  0.9903
15555SOL    HW247716   2.557   6.676   3.077  0.5440  1.7143  0.4522
15556SOL     OW47717   5.663   0.867   5.044  0.0507  0.5995 -0.5558
15556SOL    HW147718   5.715   0.790   5.066 -0.2263  0.4614 -0.3865
15556SOL    HW247719   5.672   0.875   4.949  0.1305  0.3965 -0.5658
15557SOL     OW47720   4.256   7.297   7.862 -0.0331  0.2794 -0.5226
15557SOL    HW147721   4.275   7.224   7.920  2.0182 -0.3589 -1.9110
15557SOL    HW247722   4.189   7.348   7.909 -0.8424 -1.9347  0.8973
15558SOL     OW47723   2.088   4.335   6.632  0.1748 -0.1211  0.3126
15558SOL    HW147724   2.020   4.372   6.687  0.1320 -0.3464  0.4110
15558SOL    HW247725   2.147   4.290   6.693 -1.3567 -2.8103 -0.0246
15559SOL     OW47726   2.854   4.529   2.832 -0.2674 -0.1074 -0.4116
15559SOL    HW147727   2.847   4.435   2.844 -2.1031  0.2791  2.6728
15559SOL    HW247728   2.766   4.557   2.805 -0.2230  0.8663  0.3766
15560SOL     OW47729   3.584   7.095   3.607  0.0322  0.1747 -0.3566
15560SOL    HW147730   3.537   7.038   3.668 -1.4792 -0.9344 -2.4025
15560SOL    HW247731   3.668   7.050   3.593  0.6205  0.7079  1.2002
15561SOL     OW47732   0.806   4.196   7.969 -0.7585  0.3661  0.8924
15561SOL    HW147733   0.851   4.281   7.974  0.7778 -0.4369  1.4230
15561SOL    HW247734   0.871   4.136   7.934 -2.1434 -0.4189 -0.4514
15562SOL     OW47735   0.408   0.972   6.815 -0.5797 -0.2944 -0.1677
15562SOL    HW147736   0.369   0.904   6.760 -0.2494  0.5836 -1.5375
15562SOL    HW247737   0.483   0.930   6.856 -0.4803 -0.8170 -0.8666
15563SOL     OW47738   4.872   6.973   1.726 -0.7526 -0.2269 -0.0125
15563SOL    HW147739   4.944   7.035   1.719 -1.0212 -0.0940 -2.3524
15563SOL    HW247740   4.913   6.887   1.723 -0.5470 -0.1669  0.9153
15564SOL     OW47741   6.098   7.492   4.262 -0.0602  0.2251 -0.7123
15564SOL    HW147742   6.053   7.572   4.291 -1.3713 -0.6782 -0.1145
15564SOL    HW247743   6.141   7.459   4.341 -2.7075 -1.6435  0.0828
15565SOL     OW47744   3.834   4.032   5.031  0.5997 -0.5172 -0.3705
15565SOL    HW147745   3.818   3.938   5.038  1.1109 -0.6745 -1.1105
15565SOL    HW247746   3.777   4.061   4.960 -2.5738  0.5359  2.3557
15566SOL     OW47747   6.670   4.576   0.049  0.0541 -0.5470  0.4896
15566SOL    HW147748   6.691   4.669   0.059  1.7779 -0.7865 -0.5249
15566SOL    HW247749   6.747   4.530   0.081  0.4407 -1.5216 -1.6429
15567SOL     OW47750   4.117   5.759   6.636 -0.5140 -0.2120 -0.5550
15567SOL    HW147751   4.211   5.737   6.637 -0.4525  0.0879  0.2890
15567SOL    HW247752   4.101   5.804   6.719 -1.1607  0.7882 -1.1967
15568SOL     OW47753   8.092   2.745   3.475 -0.1285  0.3963  0.7233
15568SOL    HW147754   8.185   2.767   3.463  0.2044 -0.9231  0.6565
15568SOL    HW247755   8.063   2.721   3.387 -1.3322  3.4176  0.1647
15569SOL     OW47756   5.120   0.947   3.328 -0.2516  0.6326 -0.6259
15569SOL    HW147757   5.051   1.007   3.355 -0.8897  0.5967 -2.1037
15569SOL    HW247758   5.140   0.973   3.238  1.0759  0.0987 -0.5053
15570SOL     OW47759   3.693   5.673   1.158 -0.3924  0.4122 -0.9296
15570SOL    HW147760   3.739   5.752   1.130  0.7818  0.1252  0.1092
15570SOL    HW247761   3.602   5.701   1.168  0.0969  1.7990 -0.0021
15571SOL     OW47762   4.442   7.850   3.512  0.4336 -0.4352 -0.6368
15571SOL    HW147763   4.408   7.872   3.598  0.0902  0.5148 -1.0044
15571SOL    HW247764   4.537   7.846   3.524  0.3280 -1.1486 -0.0367
15572SOL     OW47765   4.840   0.115   6.560 -0.7105 -0.0374  0.1792
15572SOL    HW147766   4.851   0.161   6.644 -1.2118 -0.6597  0.5915
15572SOL    HW247767   4.769   0.052   6.576 -0.2383 -0.7471 -0.4630
15573SOL     OW47768   0.981   1.778   4.237 -0.0682  0.6858  0.1223
15573SOL    HW147769   1.076   1.783   4.252 -0.2956  2.9997  1.2083
15573SOL    HW247770   0.960   1.859   4.191 -1.4322 -0.1665 -0.8198
15574SOL     OW47771   1.502   5.736   4.815  0.2123 -0.2838  0.2735
15574SOL    HW147772   1.483   5.776   4.730  1.7970  1.0188  0.4882
15574SOL    HW247773   1.429   5.764   4.871 -0.2231 -0.1508 -0.3437
15575SOL     OW47774   5.401   3.615   2.851  0.4982  0.0467  0.0164
15575SOL    HW147775   5.409   3.629   2.757  2.4721 -0.1464  0.0986
15575SOL    HW247776   5.487   3.641   2.886 -0.3375  0.5592  1.8227
15576SOL     OW47777   5.368   5.809   1.463  0.0855  0.5124  0.1108
15576SOL    HW147778   5.291   5.839   1.416 -0.3974 -0.5955  0.1743
15576SOL    HW247779   5.344   5.723   1.497  1.5828 -0.1738 -0.4682
15577SOL     OW47780   0.517   1.496   2.806 -0.2434  0.5567 -0.3663
15577SOL    HW147781   0.507   1.564   2.738 -0.9852 -0.4571 -1.3046
15577SOL    HW247782   0.608   1.504   2.834  0.0822  1.0192 -1.4765
15578SOL     OW47783   6.602   1.214   2.651  0.2113 -0.3658  0.1592
15578SOL    HW147784   6.654   1.257   2.719 -1.1005  0.1459  0.8814
15578SOL    HW247785   6.538   1.279   2.624  0.2468 -0.8102 -1.0758
15579SOL     OW47786   0.850   4.455   2.962 -0.6053  0.1279  0.1452
15579SOL    HW147787   0.890   4.540   2.978 -1.0562  0.0671  1.7712
15579SOL    HW247788   0.856   4.409   3.045 -0.4388 -1.4250 -0.6768
15580SOL     OW47789   6.237   2.899   0.684  0.3461  0.2477  0.5440
15580SOL    HW147790   6.263   2.990   0.698  1.2525 -0.0508  0.9246
15580SOL    HW247791   6.182   2.878   0.759 -1.5179  1.0422 -0.5288
15581SOL     OW47792   4.181   0.638   1.696 -0.4589  0.3050  0.1415
15581SOL    HW147793   4.131   0.693   1.755  0.8381  1.5149  0.1771
15581SOL    HW247794   4.219   0.570   1.751  0.3633  1.1550  0.6565
15582SOL     OW47795   8.113   2.098   7.648  0.0420  0.1819  0.0118
15582SOL    HW147796   8.162   2.042   7.588  0.5717 -2.3555  2.5974
15582SOL    HW247797   8.174   2.116   7.719 -1.4699  0.5496  1.2596
15583SOL     OW47798   0.193   7.290   8.198  0.2897 -0.2294  0.5066
15583SOL    HW147799   0.189   7.344   8.277 -1.2326 -0.7482  0.8273
15583SOL    HW247800   0.110   7.307   8.153  1.4439  0.6264 -1.4107
15584SOL     OW47801   7.480   5.587   8.022 -0.0204 -0.3323  0.1747
15584SOL    HW147802   7.412   5.649   7.999  0.3590 -0.3472 -1.0406
15584SOL    HW247803   7.559   5.640   8.035  0.3638 -0.5605 -1.1154
15585SOL     OW47804   3.816   6.948   2.425  1.1680  0.2181  0.0830
15585SOL    HW147805   3.798   7.024   2.369  0.8808  0.0747 -0.0211
15585SOL    HW247806   3.741   6.891   2.412  0.2197  0.9711  2.0035
15586SOL     OW47807   6.103   5.182   3.008 -0.0819 -0.3190  0.5230
15586SOL    HW147808   6.112   5.087   3.016  1.9433 -0.6386 -3.2088
15586SOL    HW247809   6.190   5.216   3.032 -0.2894  0.4037  0.2688
15587SOL     OW47810   0.474   7.869   1.674  0.0401  0.1814  0.5946
15587SOL    HW147811   0.451   7.818   1.752 -0.8653 -0.5600 -0.1371
15587SOL    HW247812   0.546   7.820   1.634 -1.1745 -0.8663 -0.3945
15588SOL     OW47813   6.440   3.295   0.419  0.1678 -0.1958 -0.0188
15588SOL    HW147814   6.435   3.257   0.507  0.3821 -0.0717  0.0486
15588SOL    HW247815   6.435   3.390   0.434  2.0478 -0.0530  0.0287
15589SOL     OW47816   2.175   0.042   5.080  0.3143  0.1522  0.0901
15589SOL    HW147817   2.209   0.052   4.992 -0.8380  0.5724 -0.3292
15589SOL    HW247818   2.193   0.126   5.122 -0.5021  0.4988 -0.2431
15590SOL     OW47819   5.533   4.254   7.642  0.0734  0.1934 -0.1515
15590SOL    HW147820   5.442   4.237   7.665  0.2755 -0.7072  0.0089
15590SOL    HW247821   5.565   4.171   7.606  1.3012 -0.0105  1.3095
15591SOL     OW47822   3.091   2.015   0.519 -0.3894 -0.1997 -0.6749
15591SOL    HW147823   3.136   1.943   0.563 -0.4669 -0.3497 -0.8379
15591SOL    HW247824   3.119   2.008   0.427 -0.1277  0.1869 -0.6269
15592SOL     OW47825   4.805   4.960   1.159 -0.3643 -0.1085  0.7232
15592SOL    HW147826   4.892   4.981   1.193 -0.3265  2.7377 -0.7859
15592SOL    HW247827   4.748   5.026   1.199 -1.3419 -0.3439 -0.2534
15593SOL     OW47828   1.420   4.732   1.496 -0.0887  0.4696 -0.3936
15593SOL    HW147829   1.475   4.791   1.547  2.2123 -0.8415 -1.2063
15593SOL    HW247830   1.436   4.645   1.534 -0.7494 -0.0999 -1.3593
15594SOL     OW47831   5.818   3.037   3.520  0.3716 -0.2916  0.1380
15594SOL    HW147832   5.737   3.064   3.477 -0.8924  0.8026  2.9566
15594SOL    HW247833   5.828   2.945   3.497 -1.5545 -0.3925 -0.4547
15595SOL     OW47834   5.250   1.536   3.977 -0.0392 -0.0916 -0.1906
15595SOL    HW147835   5.329   1.567   3.932  0.6921 -0.3651  0.8557
15595SOL    HW247836   5.191   1.508   3.907  0.5080  0.7788 -1.0193
15596SOL     OW47837   6.467   8.154   0.948  0.1028  0.6274 -0.0513
15596SOL    HW147838   6.504   8.126   0.865  0.1352  1.2108 -0.2349
15596SOL    HW247839   6.540   8.196   0.994  0.4883 -0.9826  0.9011
15597SOL     OW47840   7.031   6.299   5.490  0.3636  0.0641  0.0372
15597SOL    HW147841   7.032   6.252   5.406  2.8736  0.8891 -0.4994
15597SOL    HW247842   7.020   6.230   5.555  0.6556 -0.8979 -0.8903
15598SOL     OW47843   3.218   7.589   8.077  0.0285  0.2453 -0.1008
15598SOL    HW147844   3.201   7.618   7.988 -2.2640 -0.4652  0.0240
15598SOL    HW247845   3.148   7.526   8.095  0.9192 -0.2513  1.9177
15599SOL     OW47846   8.235   0.357   1.186 -0.2045 -0.1139  0.5356
15599SOL    HW147847   8.308   0.330   1.241  0.7511  0.6140 -0.3311
15599SOL    HW247848   8.273   0.364   1.098 -1.3881 -0.0121  0.0131
15600SOL     OW47849   1.691   1.277   0.679 -0.3077 -0.6154  0.3148
15600SOL    HW147850   1.748   1.341   0.637  1.2528 -2.3166 -0.2995
15600SOL    HW247851   1.618   1.265   0.618 -2.2576  2.6372  1.7424
15601SOL     OW47852   6.584   5.672   1.502 -0.1367 -0.2523 -0.1485
15601SOL    HW147853   6.607   5.581   1.486 -0.8735 -0.3302 -0.8526
15601SOL    HW247854   6.589   5.682   1.597  0.9295 -0.7457 -0.1454
15602SOL     OW47855   1.816   7.698   6.246 -0.2912 -0.1067 -0.3997
15602SOL    HW147856   1.834   7.729   6.157 -1.1749  3.4869  0.5079
15602SOL    HW247857   1.901   7.698   6.289 -0.1838  0.5248 -0.6039
15603SOL     OW47858   1.896   7.042   6.021 -0.0112 -0.5598 -0.4533
15603SOL    HW147859   1.977   7.093   6.034 -0.4450  0.0411 -0.0588
15603SOL    HW247860   1.845   7.057   6.100 -1.0682  0.1108 -1.2310
15604SOL     OW47861   7.977   2.698   5.597  0.0046  0.4070  0.1784
15604SOL    HW147862   7.894   2.743   5.587 -0.0481  0.1204 -0.8395
15604SOL    HW247863   7.983   2.642   5.519 -0.1429 -1.6629  1.5710
15605SOL     OW47864   6.005   0.743   8.271  0.1373 -0.0513 -0.2324
15605SOL    HW147865   6.067   0.674   8.296 -0.6913 -0.1112  1.9508
15605SOL    HW247866   5.934   0.697   8.226  0.5145 -0.3278 -0.5499
15606SOL     OW47867   6.993   4.306   5.341 -0.5876 -0.4832 -0.6436
15606SOL    HW147868   7.070   4.330   5.290  0.6177 -0.2279  1.2046
15606SOL    HW247869   6.933   4.266   5.277  0.2538  1.0270 -2.4924
15607SOL     OW47870   5.529   2.108   2.324 -0.1935  0.8989  0.0171
15607SOL    HW147871   5.480   2.068   2.252 -1.5071  1.5669  0.5008
15607SOL    HW247872   5.521   2.202   2.308 -0.1488  1.0389  0.8081
15608SOL     OW47873   6.448   5.234   3.621 -0.7223  0.0640  0.1712
15608SOL    HW147874   6.429   5.242   3.528 -1.5170 -2.0305  0.0855
15608SOL    HW247875   6.543   5.235   3.627 -0.6809  1.1904 -0.5378
15609SOL     OW47876   0.599   4.166   6.814  0.5791 -0.4219  0.1725
15609SOL    HW147877   0.534   4.177   6.744  1.4379  0.5833 -0.4985
15609SOL    HW247878   0.566   4.093   6.866 -0.0162 -1.2883 -1.3696
15610SOL     OW47879   3.012   7.124   3.415  0.4177 -0.3627  0.1645
15610SOL    HW147880   2.960   7.130   3.495  0.9830 -3.2126  0.8463
15610SOL    HW247881   3.102   7.134   3.444  0.5497 -0.0641 -0.3330
15611SOL     OW47882   0.438   6.976   7.549 -0.2263 -0.3460  0.0977
15611SOL    HW147883   0.423   6.935   7.634  0.4858 -1.7883 -0.4417
15611SOL    HW247884   0.375   6.933   7.491  1.0483 -1.2708 -0.6446
15612SOL     OW47885   6.511   4.548   1.925  0.3335  0.2539  0.4290
15612SOL    HW147886   6.420   4.572   1.941  0.2357  0.2190 -0.0779
15612SOL    HW247887   6.560   4.627   1.948  0.1290  0.4619  0.1568
15613SOL     OW47888   3.623   6.773   0.733  0.3986  0.2327  0.1712
15613SOL    HW147889   3.707   6.765   0.688  0.7192  0.4103  0.7410
15613SOL    HW247890   3.639   6.742   0.822  0.2895  1.8416  0.7849
15614SOL     OW47891   3.585   5.654   3.022  0.1012 -0.7961  0.0874
15614SOL    HW147892   3.604   5.572   2.977 -0.5944 -3.5287  4.2693
15614SOL    HW247893   3.526   5.630   3.093  0.1427  3.3173  1.8092
15615SOL     OW47894   6.257   4.788   1.363  0.2395 -0.2203 -1.0556
15615SOL    HW147895   6.236   4.801   1.455  2.5264 -0.6814 -0.4075
15615SOL    HW247896   6.255   4.693   1.351 -0.9270 -0.1290 -1.7431
15616SOL     OW47897   5.600   6.550   2.824  0.0182  0.2933  0.7673
15616SOL    HW147898   5.630   6.621   2.880  1.3007 -0.2794  0.8441
15616SOL    HW247899   5.609   6.471   2.877  0.6281 -0.1771  0.0059
15617SOL     OW47900   6.960   4.690   0.489 -0.6689 -0.0823 -0.2758
15617SOL    HW147901   6.976   4.596   0.487  0.8357  0.1571 -0.2514
15617SOL    HW247902   6.994   4.719   0.574  0.4956  0.7345 -0.9830
15618SOL     OW47903   7.500   4.879   7.505 -0.2710  0.0912  0.2043
15618SOL    HW147904   7.448   4.849   7.430 -0.5158 -1.0367  0.7995
15618SOL    HW247905   7.588   4.847   7.487 -0.4126 -0.5355  0.5631
15619SOL     OW47906   0.121   1.941   4.550  0.0769 -0.5109 -0.2711
15619SOL    HW147907   0.183   1.869   4.542 -0.3676 -1.0497  0.9491
15619SOL    HW247908   0.130   1.972   4.640 -0.6066  0.1618 -0.4149
15620SOL     OW47909   0.162   0.475   2.367  0.4576 -0.1144 -0.7264
15620SOL    HW147910   0.133   0.533   2.436  3.3695  1.3887 -0.6072
15620SOL    HW247911   0.159   0.528   2.287  1.1914 -0.4455 -0.9863
15621SOL     OW47912   3.408   3.269   4.080  0.0111  0.6487 -0.1969
15621SOL    HW147913   3.367   3.338   4.132 -0.9172  0.6157 -0.8514
15621SOL    HW247914   3.399   3.190   4.133  0.7154  0.9418  0.3768
15622SOL     OW47915   6.327   6.089   1.601 -0.2117  0.0743  0.3111
15622SOL    HW147916   6.369   6.096   1.515 -1.8494  0.8839 -0.4749
15622SOL    HW247917   6.376   6.150   1.657  0.8466 -0.4351 -0.0266
15623SOL     OW47918   3.253   2.871   6.414 -0.0395  0.1182 -0.1553
15623SOL    HW147919   3.161   2.848   6.403  0.0488 -0.9305  1.0482
15623SOL    HW247920   3.281   2.899   6.327 -1.5652  0.7719 -0.4709
15624SOL     OW47921   5.297   5.602   2.371 -0.0609 -0.0245 -0.1085
15624SOL    HW147922   5.204   5.599   2.392  0.2056  1.6282  1.5958
15624SOL    HW247923   5.341   5.605   2.456  1.4892  0.4186 -0.8748
15625SOL     OW47924   2.541   3.054   6.481 -0.0388 -0.6083  0.4074
15625SOL    HW147925   2.545   3.079   6.389 -0.9998  1.3733  0.8548
15625SOL    HW247926   2.449   3.062   6.504  0.4640  1.1250  2.0759
15626SOL     OW47927   6.047   1.610   7.029  1.1693 -0.0136 -0.0291
15626SOL    HW147928   6.066   1.516   7.040  0.8770 -0.1342 -0.5407
15626SOL    HW247929   5.980   1.627   7.095 -1.1744 -0.9300 -2.0273
15627SOL     OW47930   5.066   6.334   3.223  0.0477 -0.2780 -0.5424
15627SOL    HW147931   5.021   6.288   3.152  0.0712  1.2026 -1.5646
15627SOL    HW247932   5.158   6.331   3.198  0.4308 -2.0254  0.8101
15628SOL     OW47933   7.740   2.472   3.799  0.1160  0.7744 -0.1041
15628SOL    HW147934   7.808   2.434   3.744  0.7627  1.6239  0.0929
15628SOL    HW247935   7.715   2.402   3.859 -1.6253 -0.6795 -2.3215
15629SOL     OW47936   6.985   7.673   3.053  0.2643 -0.5778  0.4290
15629SOL    HW147937   7.062   7.709   3.009 -1.0497  0.0949 -1.5239
15629SOL    HW247938   7.012   7.660   3.143  1.4963  3.6321  0.9152
15630SOL     OW47939   2.510   2.474   7.084 -0.0841 -0.7023  0.4680
15630SOL    HW147940   2.423   2.470   7.122  0.4256  0.1110  1.7609
15630SOL    HW247941   2.562   2.523   7.147  1.2974 -1.1042 -0.3211
15631SOL     OW47942   3.522   3.916   0.456  1.0281  0.1857  0.3411
15631SOL    HW147943   3.537   3.823   0.469 -0.7445 -0.2594 -0.6054
15631SOL    HW247944   3.500   3.950   0.542  2.8795  0.0198  0.9291
15632SOL     OW47945   1.777   5.590   4.665  0.0347 -0.0236 -0.2134
15632SOL    HW147946   1.695   5.630   4.693  0.0536 -0.2781  0.2125
15632SOL    HW247947   1.824   5.660   4.621 -0.1708  0.2712  0.0356
15633SOL     OW47948   1.182   4.009   1.102  0.2076 -0.5067  0.0315
15633SOL    HW147949   1.180   3.915   1.119 -1.3991 -0.3995  0.5816
15633SOL    HW247950   1.247   4.019   1.032 -0.4901 -2.1728 -0.9154
15634SOL     OW47951   3.682   2.420   5.533  0.4342  0.3704  0.6974
15634SOL    HW147952   3.590   2.442   5.516  0.6859  1.9247  1.2292
15634SOL    HW247953   3.699   2.345   5.476 -1.6138 -1.0038  1.7741
15635SOL     OW47954   4.475   5.237   7.171 -0.5694  0.1981  0.3646
15635SOL    HW147955   4.409   5.234   7.102 -1.8003  1.0552  1.4740
15635SOL    HW247956   4.430   5.273   7.247  1.5161  2.1300  0.7962
15636SOL     OW47957   3.931   0.961   5.300  0.3414  0.3171 -0.0755
15636SOL    HW147958   3.862   1.014   5.259 -0.2935  0.9162  1.6435
15636SOL    HW247959   4.009   0.979   5.249 -0.4516  0.8318 -1.1462
15637SOL     OW47960   2.848   3.178   8.153 -0.5403  0.1677 -0.2569
15637SOL    HW147961   2.806   3.263   8.137 -1.4860 -0.1843  0.2511
15637SOL    HW247962   2.890   3.156   8.070 -0.4383  1.0519 -0.4435
15638SOL     OW47963   4.061   3.246   7.668  0.0752  0.6000  0.2985
15638SOL    HW147964   4.005   3.276   7.596 -0.8232 -0.5954  0.4823
15638SOL    HW247965   4.016   3.276   7.747  1.3064  2.3352  0.3946
15639SOL     OW47966   3.487   5.703   5.935  0.1211  0.3151  0.3459
15639SOL    HW147967   3.468   5.647   6.010  0.8058 -0.2206  0.1299
15639SOL    HW247968   3.506   5.788   5.973  1.2087 -0.1374  0.8466
15640SOL     OW47969   7.865   5.038   3.455  0.1224 -0.3611 -0.1565
15640SOL    HW147970   7.908   5.104   3.401 -2.8741  1.1768 -0.8730
15640SOL    HW247971   7.907   5.046   3.541  0.8712  1.4487 -0.6526
15641SOL     OW47972   7.232   6.679   3.619  0.2504  0.2797  0.6829
15641SOL    HW147973   7.177   6.757   3.617  0.7635  0.6445  0.8072
15641SOL    HW247974   7.300   6.698   3.682  1.0545  0.1891 -0.1321
15642SOL     OW47975   1.177   5.503   8.230 -0.1648 -0.5217 -0.1553
15642SOL    HW147976   1.172   5.521   8.136 -0.5974  0.6893  0.0812
15642SOL    HW247977   1.113   5.434   8.244  0.7383 -1.5544 -0.9261
15643SOL     OW47978   1.692   7.465   7.152  0.0136 -0.7047  0.4304
15643SOL    HW147979   1.637   7.422   7.087 -1.0178  1.4009 -0.1823
15643SOL    HW247980   1.727   7.393   7.206  1.1548 -2.5754 -2.5569
15644SOL     OW47981   6.086   2.785   1.494 -0.3199 -0.5448 -0.1077
15644SOL    HW147982   6.181   2.774   1.498 -0.0658  1.5407  2.0529
15644SOL    HW247983   6.052   2.723   1.558 -0.3832 -0.9842 -0.5649
15645SOL     OW47984   8.110   1.779   5.405  0.5298  0.2681  0.3679
15645SOL    HW147985   8.117   1.856   5.348  0.2527  0.0258  0.0042
15645SOL    HW247986   8.071   1.711   5.350 -1.1445  0.4645  1.2227
15646SOL     OW47987   5.512   7.518   6.794 -0.5042  0.8532  0.6953
15646SOL    HW147988   5.440   7.468   6.756 -0.2935  1.6244 -0.7696
15646SOL    HW247989   5.530   7.587   6.731  1.1694  1.0211  1.2954
15647SOL     OW47990   6.720   2.730   3.118  0.0366 -0.3203  0.3223
15647SOL    HW147991   6.650   2.666   3.134  0.4669 -0.7306  0.6152
15647SOL    HW247992   6.760   2.743   3.204 -0.6150  1.0399  0.4334
15648SOL     OW47993   2.836   2.280   3.995  0.5935  0.5231 -0.4225
15648SOL    HW147994   2.838   2.203   3.939  1.9609  0.9156 -0.9806
15648SOL    HW247995   2.751   2.321   3.978  0.1322 -0.4997 -0.6091
15649SOL     OW47996   0.007   3.676   5.803 -0.3399 -0.2252  0.2243
15649SOL    HW147997   0.001   3.628   5.721 -0.2199  0.0135  0.0743
15649SOL    HW247998  -0.081   3.671   5.840 -0.4954 -0.0035 -0.1082
15650SOL     OW47999   7.795   0.638   6.528  0.0398 -0.0314 -0.5814
15650SOL    HW148000   7.704   0.609   6.520  0.1054  0.0985 -1.9927
15650SOL    HW248001   7.798   0.721   6.480  0.7432  0.3337  0.0763
15651SOL     OW48002   4.137   7.587   1.877 -0.5042  0.6281  0.3240
15651SOL    HW148003   4.094   7.636   1.807  1.9388  0.3251 -1.5348
15651SOL    HW248004   4.101   7.499   1.869 -2.2879  1.2237  1.3430
15652SOL     OW48005   0.999   1.723   7.570 -0.5063 -0.4435  0.1761
15652SOL    HW148006   0.904   1.713   7.575 -0.3424 -1.6150  1.3427
15652SOL    HW248007   1.025   1.669   7.496 -0.8851  1.2774 -1.3005
15653SOL     OW48008   8.256   7.640   2.351 -0.4284 -0.4203 -0.3732
15653SOL    HW148009   8.212   7.725   2.353  1.6361  0.7063  0.0540
15653SOL    HW248010   8.274   7.625   2.258 -1.4673 -0.7681 -0.5231
15654SOL     OW48011   7.941   5.359   3.375  0.0290  0.4717  0.2316
15654SOL    HW148012   7.917   5.389   3.287 -1.0341  0.6278  0.5685
15654SOL    HW248013   7.859   5.361   3.424  0.5843  0.2059  1.1801
15655SOL     OW48014   0.426   2.504   5.052  0.3993 -0.3546  0.0875
15655SOL    HW148015   0.508   2.517   5.005  0.3008  2.3862  0.5072
15655SOL    HW248016   0.370   2.457   4.990  1.6237 -0.5585 -0.9085
15656SOL     OW48017   3.489   5.827   5.325 -0.2628  0.1180 -1.0354
15656SOL    HW148018   3.448   5.910   5.347 -0.4356 -0.0464 -0.7232
15656SOL    HW248019   3.416   5.768   5.305 -0.2291 -0.3456  0.1159
15657SOL     OW48020   5.775   7.232   7.333  0.0701  0.3054  0.1276
15657SOL    HW148021   5.827   7.177   7.392  1.0369  1.1342  0.0781
15657SOL    HW248022   5.806   7.209   7.246 -0.6863 -0.2415  0.0033
15658SOL     OW48023   6.450   5.601   8.102  0.0493 -0.2619 -0.3023
15658SOL    HW148024   6.424   5.528   8.157 -2.9905  2.3825  2.2009
15658SOL    HW248025   6.521   5.644   8.150  1.5342 -1.1960 -1.5550
15659SOL     OW48026   0.317   1.709   3.155 -0.3850 -0.4689  0.4108
15659SOL    HW148027   0.410   1.726   3.143 -1.0086  1.9091 -1.8617
15659SOL    HW248028   0.297   1.741   3.243  0.6944  0.1640  0.4332
15660SOL     OW48029   7.246   2.683   1.944 -0.1528  0.0347  0.4164
15660SOL    HW148030   7.287   2.754   1.994 -1.0124  0.6861  0.2233
15660SOL    HW248031   7.209   2.726   1.867 -1.0097 -0.5655  0.4766
15661SOL     OW48032   4.883   6.195   3.707  0.2050  0.1315 -0.0981
15661SOL    HW148033   4.788   6.185   3.701  0.3227 -1.5593  0.2220
15661SOL    HW248034   4.898   6.228   3.795 -0.1071  0.8698 -0.3160
15662SOL     OW48035   2.456   5.545   5.241  0.5272 -0.4104 -0.4679
15662SOL    HW148036   2.428   5.541   5.149  0.2538  1.5403 -0.5072
15662SOL    HW248037   2.544   5.581   5.238  0.7261 -0.8385  0.0224
15663SOL     OW48038   6.701   3.578   5.739 -0.5223  1.0031 -0.6107
15663SOL    HW148039   6.740   3.588   5.653  3.1307 -1.1906  0.5405
15663SOL    HW248040   6.731   3.654   5.789 -2.0581  1.9177 -1.0456
15664SOL     OW48041   2.961   6.914   4.314  0.1395 -0.3308 -0.3416
15664SOL    HW148042   3.009   6.887   4.393  1.0798  0.5622 -0.5837
15664SOL    HW248043   3.029   6.946   4.255 -0.5788 -0.8464 -1.4621
15665SOL     OW48044   6.304   0.540   1.579 -0.0495 -0.5293 -0.5369
15665SOL    HW148045   6.313   0.445   1.574  0.3107 -0.4540 -1.6108
15665SOL    HW248046   6.228   0.554   1.636  1.2153 -1.3924  1.4911
15666SOL     OW48047   1.555   3.528   4.261 -0.0085 -0.4675  0.3662
15666SOL    HW148048   1.639   3.562   4.292 -0.1322 -0.6414  0.9067
15666SOL    HW248049   1.511   3.496   4.340 -0.6435 -0.2535  0.1124
15667SOL     OW48050   4.362   2.068   5.757  0.0231  0.1728  0.4052
15667SOL    HW148051   4.322   2.106   5.678  1.2305 -0.6851 -0.6407
15667SOL    HW248052   4.452   2.100   5.756  0.4545 -1.0196  0.6615
15668SOL     OW48053   3.289   3.971   2.702  0.3140 -0.0243 -0.2286
15668SOL    HW148054   3.208   3.920   2.702 -0.0421  0.4357  2.3490
15668SOL    HW248055   3.354   3.914   2.743  0.3235  0.9432  1.1575
15669SOL     OW48056   3.404   6.616   5.347 -0.0990  0.0347  0.0920
15669SOL    HW148057   3.358   6.644   5.268 -0.4560 -0.4808  0.1112
15669SOL    HW248058   3.468   6.552   5.316 -0.4405 -0.3877  0.2552
15670SOL     OW48059   6.078   3.382   1.932 -0.6294  0.0285 -0.2464
15670SOL    HW148060   6.036   3.315   1.986  0.9771 -1.0722 -0.2827
15670SOL    HW248061   6.162   3.344   1.908 -0.6409  1.1311 -2.2398
15671SOL     OW48062   5.426   0.565   1.209 -0.2937  0.3370 -0.1287
15671SOL    HW148063   5.516   0.534   1.222 -0.3713  0.4556  0.7671
15671SOL    HW248064   5.423   0.592   1.117  0.9446  1.5088  0.1391
15672SOL     OW48065   2.065   3.698   0.232  0.4238  0.2722 -0.0956
15672SOL    HW148066   2.029   3.671   0.316  0.1173 -0.8444 -0.5617
15672SOL    HW248067   2.008   3.769   0.203 -1.3608 -1.3358 -0.7412
15673SOL     OW48068   3.114   0.902   6.244  0.2193 -0.6731 -0.1301
15673SOL    HW148069   3.103   0.845   6.168  1.2642  1.6503 -2.1956
15673SOL    HW248070   3.206   0.891   6.268  0.4076  0.0436 -0.4962
15674SOL     OW48071   1.496   3.533   3.896  0.7687 -0.1977  0.1689
15674SOL    HW148072   1.498   3.567   3.985  1.9758 -0.1109  0.1333
15674SOL    HW248073   1.417   3.571   3.857 -0.5283 -1.3151  1.5816
15675SOL     OW48074   5.601   6.004   3.006 -0.9485  0.2940  0.2185
15675SOL    HW148075   5.599   5.912   3.034 -1.0836  0.6921  1.6253
15675SOL    HW248076   5.521   6.015   2.955 -1.3893 -0.1560  0.7922
15676SOL     OW48077   5.085   7.449   7.645  0.6366 -0.1315 -0.0449
15676SOL    HW148078   5.083   7.525   7.586  1.0229  0.7210  1.0037
15676SOL    HW248079   5.178   7.437   7.665  0.3916  1.0019  2.1059
15677SOL     OW48080   6.425   5.610   3.085  0.1512  0.3801 -0.1428
15677SOL    HW148081   6.393   5.522   3.066  1.4371 -0.0956 -0.1632
15677SOL    HW248082   6.507   5.617   3.037 -0.1182  1.7407 -0.4544
15678SOL     OW48083   7.595   7.759   0.485 -0.1332 -0.0952 -0.0434
15678SOL    HW148084   7.658   7.720   0.546  0.4671 -0.1085 -0.6605
15678SOL    HW248085   7.590   7.851   0.512 -0.0328 -0.1456  0.1542
15679SOL     OW48086   2.856   1.081   0.849 -0.4505  0.3020  0.1850
15679SOL    HW148087   2.773   1.058   0.808  0.0345 -1.7549  0.2363
15679SOL    HW248088   2.883   1.162   0.805 -0.9843 -0.6825 -2.0964
15680SOL     OW48089   1.683   0.230   4.348  0.1735  0.1097  0.4160
15680SOL    HW148090   1.742   0.291   4.391 -0.5211  1.9312 -1.0588
15680SOL    HW248091   1.597   0.272   4.353 -0.2144 -0.4033 -1.1951
15681SOL     OW48092   2.281   7.568   3.272  0.1639  0.0541  0.3816
15681SOL    HW148093   2.372   7.569   3.299  0.0798  1.7202  0.6736
15681SOL    HW248094   2.274   7.639   3.208 -0.8811 -0.1756  0.2230
15682SOL     OW48095   2.870   6.182   4.018  0.9694 -0.0215  0.1138
15682SOL    HW148096   2.849   6.256   3.960  1.0123 -0.6189 -0.6872
15682SOL    HW248097   2.948   6.144   3.980  0.9921 -0.4376  0.5733
15683SOL     OW48098   5.937   7.414   2.277 -0.6768 -0.1511  0.2424
15683SOL    HW148099   5.942   7.382   2.368 -0.3352 -0.9728 -0.0538
15683SOL    HW248100   5.992   7.493   2.276 -0.1094 -0.5316  0.5958
15684SOL     OW48101   1.131   1.788   5.272  0.2323  0.4023 -0.2763
15684SOL    HW148102   1.174   1.827   5.348 -0.3379  0.0686  0.2336
15684SOL    HW248103   1.069   1.855   5.243  1.4824  1.1161 -1.3738
15685SOL     OW48104   3.439   7.939   6.519  0.2473 -0.1238  0.1989
15685SOL    HW148105   3.466   7.874   6.585  0.6368  0.8365  1.0069
15685SOL    HW248106   3.493   7.919   6.442  1.0463 -0.1744  0.7610
15686SOL     OW48107   4.835   2.839   1.022 -0.6805  0.1805  0.6910
15686SOL    HW148108   4.802   2.826   0.933 -0.2807 -0.0632  0.5782
15686SOL    HW248109   4.920   2.882   1.011 -0.6559  0.2026  0.9573
15687SOL     OW48110   0.243   1.176   5.869  0.2482 -0.3392  0.0739
15687SOL    HW148111   0.263   1.248   5.809  0.7897 -0.5844 -0.0450
15687SOL    HW248112   0.151   1.155   5.851  0.4526 -0.5258 -0.7909
15688SOL     OW48113   3.520   2.010   6.161 -0.3128  0.0028 -0.1740
15688SOL    HW148114   3.486   1.927   6.127  0.8247 -1.4714  2.0752
15688SOL    HW248115   3.578   2.042   6.091 -1.1140 -0.8283 -1.2628
15689SOL     OW48116   1.676   2.683   0.320 -0.7214 -0.2901 -0.4357
15689SOL    HW148117   1.725   2.605   0.295 -1.0286 -0.6666  0.0998
15689SOL    HW248118   1.584   2.657   0.313 -0.8230 -0.1424  0.2311
15690SOL     OW48119   4.869   5.966   4.313  0.0486 -0.1559  0.4874
15690SOL    HW148120   4.863   6.049   4.266 -1.6288 -1.0371 -1.0180
15690SOL    HW248121   4.963   5.954   4.329  0.4956  1.1883 -0.8649
15691SOL     OW48122   1.941   5.007   2.380 -0.2620  0.2771 -0.3676
15691SOL    HW148123   1.926   5.091   2.337 -0.1028  0.4381 -0.1127
15691SOL    HW248124   1.856   4.984   2.419 -0.7759 -0.5280 -1.9030
15692SOL     OW48125   0.963   6.619   1.037  0.2229 -0.3541  0.1448
15692SOL    HW148126   0.905   6.621   0.961  1.1379  4.1311 -0.7207
15692SOL    HW248127   1.050   6.606   1.001  0.4609 -0.1358  0.6243
15693SOL     OW48128   1.703   3.810   5.482 -0.2240 -0.0350  0.4881
15693SOL    HW148129   1.699   3.718   5.509  2.0397 -0.2212  0.4486
15693SOL    HW248130   1.744   3.855   5.556 -1.1862  0.9384  0.4569
15694SOL     OW48131   0.905   5.229   0.155  0.1455 -0.0253 -0.1377
15694SOL    HW148132   0.923   5.237   0.061  0.8548  3.1349  0.1695
15694SOL    HW248133   0.846   5.154   0.161 -1.0824  0.5031 -3.2775
15695SOL     OW48134   2.044   6.369   5.738  0.2028  0.0250  0.2986
15695SOL    HW148135   2.084   6.283   5.748 -0.7880 -0.5662 -0.6759
15695SOL    HW248136   1.952   6.356   5.758 -0.0393  0.7629 -0.2825
15696SOL     OW48137   4.802   6.131   7.983  0.3365 -0.2926 -0.1220
15696SOL    HW148138   4.833   6.069   8.050  0.2167 -1.3939 -1.0606
15696SOL    HW248139   4.819   6.087   7.900 -1.2328  0.2577 -0.7595
15697SOL     OW48140   6.940   3.088   5.175  0.0643  0.0128 -0.2410
15697SOL    HW148141   7.005   3.018   5.162 -0.6459 -1.1075  1.8178
15697SOL    HW248142   6.969   3.133   5.255 -1.7873 -0.6664  0.8589
15698SOL     OW48143   4.506   7.374   6.959  0.2246  0.2447  0.7496
15698SOL    HW148144   4.490   7.281   6.979  1.4804 -0.4530 -1.1878
15698SOL    HW248145   4.552   7.373   6.875 -0.7011  2.6966  0.1100
15699SOL     OW48146   3.121   0.861   1.083 -0.3709 -0.1025 -0.4692
15699SOL    HW148147   3.055   0.930   1.073 -0.4977 -0.4200 -2.3616
15699SOL    HW248148   3.143   0.837   0.993  0.0291 -2.1939  0.1319
15700SOL     OW48149   1.043   7.691   5.200  0.3040 -0.3946 -0.8436
15700SOL    HW148150   0.957   7.651   5.216 -0.1151 -0.3057 -2.7159
15700SOL    HW248151   1.024   7.770   5.151  1.4862 -0.6603 -1.7595
15701SOL     OW48152   0.697   2.263   0.790 -0.2078 -0.1308 -0.5580
15701SOL    HW148153   0.623   2.214   0.755  0.2067 -0.1290 -1.4607
15701SOL    HW248154   0.764   2.197   0.808 -0.0370 -0.0135 -0.7614
15702SOL     OW48155   4.140   7.328   0.132 -0.2166  0.0338  0.3382
15702SOL    HW148156   4.180   7.361   0.051  1.3966 -0.3080  0.9712
15702SOL    HW248157   4.151   7.234   0.127 -0.0188  0.0214  1.0034
15703SOL     OW48158   6.253   3.981   2.353 -0.7344  0.0731 -0.0486
15703SOL    HW148159   6.257   4.075   2.332  1.2901  0.2422  0.8525
15703SOL    HW248160   6.264   3.938   2.268 -1.0692  0.6386 -0.3905
15704SOL     OW48161   0.117   3.926   5.744 -0.3807  0.0785  0.4361
15704SOL    HW148162   0.197   3.907   5.697 -0.5534 -0.7209  0.4515
15704SOL    HW248163   0.089   3.842   5.779  1.2735  0.9550  4.4547
15705SOL     OW48164   1.742   2.537   8.195 -0.1160  0.5387  0.5178
15705SOL    HW148165   1.801   2.536   8.120 -1.0911  0.4004 -0.2632
15705SOL    HW248166   1.787   2.486   8.262  0.4641  0.0796 -0.2139
15706SOL     OW48167   6.976   7.508   6.358 -0.0936 -0.6266  0.0161
15706SOL    HW148168   6.946   7.594   6.389 -0.8023 -0.9289  0.1798
15706SOL    HW248169   7.071   7.510   6.370  0.0518  0.6009 -1.1489
15707SOL     OW48170   3.135   3.407   6.285  0.4535 -0.1526  0.5657
15707SOL    HW148171   3.127   3.501   6.300 -0.4563 -0.1248 -0.0483
15707SOL    HW248172   3.048   3.372   6.304  1.0224 -1.0170  1.7346
15708SOL     OW48173   5.656   5.044   2.821 -0.4435 -0.0449  0.4208
15708SOL    HW148174   5.739   5.092   2.825  0.0841 -1.0308  2.2909
15708SOL    HW248175   5.592   5.111   2.798  0.7526  0.8691 -0.4201
15709SOL     OW48176   6.827   5.990   2.206  0.0598 -0.3602  0.2636
15709SOL    HW148177   6.849   5.902   2.176  0.9385 -0.7921  2.0342
15709SOL    HW248178   6.911   6.029   2.231 -0.2894  1.0931 -0.7132
15710SOL     OW48179   7.955   2.321   3.624  0.2688  0.0412  0.0836
15710SOL    HW148180   8.027   2.382   3.640 -0.6021  0.7366  1.5704
15710SOL    HW248181   7.960   2.302   3.531  0.0171  3.1523 -0.6600
15711SOL     OW48182   6.718   8.121   3.770 -0.3878  0.3464  0.6225
15711SOL    HW148183   6.704   8.206   3.728  1.8850  0.4106 -0.1732
15711SOL    HW248184   6.724   8.059   3.697  1.0160  0.0452  0.9515
15712SOL     OW48185   1.302   1.792   6.529  0.0790  0.3264  0.0092
15712SOL    HW148186   1.307   1.868   6.587 -2.9330 -0.5920  1.7126
15712SOL    HW248187   1.377   1.737   6.554  0.3984  1.2322  1.1188
15713SOL     OW48188   2.780   5.596   7.101 -0.1592  0.1919 -0.8897
15713SOL    HW148189   2.739   5.545   7.171  0.5867  0.4356 -0.2683
15713SOL    HW248190   2.707   5.624   7.046 -0.5335 -2.3286 -1.8079
15714SOL     OW48191   2.735   6.288   0.966 -0.1156 -0.3849  0.3149
15714SOL    HW148192   2.778   6.260   1.047  0.3807  1.8255  0.8733
15714SOL    HW248193   2.791   6.254   0.896 -0.6037 -2.4146  0.8321
15715SOL     OW48194   7.609   7.432   3.089 -0.3674  0.4734  0.0404
15715SOL    HW148195   7.518   7.403   3.084 -0.4785  0.4784  1.7347
15715SOL    HW248196   7.623   7.478   3.006 -1.4178 -0.8456 -0.9359
15716SOL     OW48197   4.504   6.718   4.789  0.0989 -0.1866  0.1437
15716SOL    HW148198   4.441   6.738   4.858  0.3853  0.3104  0.2700
15716SOL    HW248199   4.587   6.751   4.823 -0.0875  1.9297 -1.2706
15717SOL     OW48200   2.437   5.840   0.589  0.5219 -0.7532 -0.8519
15717SOL    HW148201   2.470   5.890   0.663  1.2131 -1.5372 -0.6192
15717SOL    HW248202   2.375   5.778   0.627 -1.5049  0.8892 -1.3153
15718SOL     OW48203   6.116   6.585   5.408  0.2364  0.4287  0.2178
15718SOL    HW148204   6.104   6.642   5.484  0.4669 -0.1124  0.6673
15718SOL    HW248205   6.178   6.632   5.352  0.5225  0.5640  0.6425
15719SOL     OW48206   3.111   3.147   4.797 -0.4217 -0.5948  0.5926
15719SOL    HW148207   3.101   3.091   4.874 -1.0741 -0.6880  0.4428
15719SOL    HW248208   3.071   3.230   4.822  0.8281 -0.0746  0.9278
15720SOL     OW48209   3.504   3.856   8.223  0.5137 -0.2127 -0.4192
15720SOL    HW148210   3.542   3.769   8.232  2.0055  0.5289  0.7282
15720SOL    HW248211   3.532   3.903   8.301 -2.2205  0.6208  0.1685
15721SOL     OW48212   7.977   5.807   4.770 -0.2126  0.2591  0.3192
15721SOL    HW148213   7.908   5.743   4.754  0.8090 -1.1696  1.3511
15721SOL    HW248214   8.053   5.772   4.725  0.0409  1.4761 -0.2362
15722SOL     OW48215   1.500   4.490   0.274  0.2851  0.3169  0.1121
15722SOL    HW148216   1.480   4.408   0.320 -0.7159  0.2114 -0.4863
15722SOL    HW248217   1.458   4.558   0.327 -1.5367  0.1213 -1.0040
15723SOL     OW48218   5.912   0.472   5.555 -0.5189 -0.9542  0.0233
15723SOL    HW148219   5.828   0.460   5.510 -0.3390  0.2307 -0.7050
15723SOL    HW248220   5.942   0.558   5.524  0.4838 -0.9207  1.0500
15724SOL     OW48221   0.629   7.620   4.029  0.2796 -0.3433 -0.0953
15724SOL    HW148222   0.597   7.710   4.033 -0.0452 -0.4366 -0.5297
15724SOL    HW248223   0.618   7.587   4.118  1.5685  0.4301  0.3810
15725SOL     OW48224   0.850   6.237   1.098 -0.2115  0.3503 -0.3703
15725SOL    HW148225   0.926   6.218   1.153 -1.1653  0.8719  1.2041
15725SOL    HW248226   0.862   6.183   1.021  2.3220  1.2576 -0.7090
15726SOL     OW48227   4.203   7.599   5.970 -0.7261 -0.0326  0.1932
15726SOL    HW148228   4.127   7.610   6.026 -0.9730  0.1568 -0.1748
15726SOL    HW248229   4.277   7.589   6.030 -1.0164 -0.0333  0.5472
15727SOL     OW48230   8.022   7.338   0.113  0.4272  0.3679  0.5657
15727SOL    HW148231   8.014   7.244   0.123 -2.1924  0.5387  0.8848
15727SOL    HW248232   8.116   7.356   0.121  0.9518 -2.1460  0.7587
15728SOL     OW48233   7.677   5.042   8.248  0.1096  0.3908  0.1169
15728SOL    HW148234   7.737   4.968   8.258 -1.4425 -0.8115  1.2030
15728SOL    HW248235   7.593   5.001   8.227 -0.0897  2.0879 -2.8382
15729SOL     OW48236   3.512   2.551   4.105  0.3573  0.0460  0.3371
15729SOL    HW148237   3.418   2.554   4.091  0.5251  0.7269 -0.8300
15729SOL    HW248238   3.541   2.471   4.061  0.2991 -0.3169  0.9462
15730SOL     OW48239   7.380   2.002   1.227 -0.3273  0.2527 -0.0516
15730SOL    HW148240   7.458   2.026   1.278 -0.6743 -0.5814  0.9151
15730SOL    HW248241   7.415   1.953   1.153  0.1921  1.5187 -0.6771
15731SOL     OW48242   0.100   5.825   1.189 -0.3311 -0.1701 -0.2580
15731SOL    HW148243   0.130   5.806   1.100  1.7813  1.5619  0.0007
15731SOL    HW248244   0.100   5.921   1.194 -0.4896 -0.2330  1.5871
15732SOL     OW48245   2.579   3.923   7.484  0.7034 -0.2907  0.3263
15732SOL    HW148246   2.484   3.917   7.479  0.5327  2.0634 -0.7044
15732SOL    HW248247   2.611   3.846   7.437 -0.6933 -0.7665  0.1209
15733SOL     OW48248   6.758   1.869   5.448 -0.1022  0.0272 -0.2178
15733SOL    HW148249   6.731   1.927   5.377 -1.1077  0.9306  0.8444
15733SOL    HW248250   6.768   1.783   5.407 -0.5060  0.5606 -1.4740
15734SOL     OW48251   1.189   0.636   1.667 -0.5053 -0.3225 -0.0318
15734SOL    HW148252   1.253   0.566   1.661  1.8932  1.6957  0.2588
15734SOL    HW248253   1.117   0.599   1.718 -0.3684 -3.1896 -1.7354
15735SOL     OW48254   7.383   0.674   0.765  0.1817  0.0276  0.0112
15735SOL    HW148255   7.320   0.657   0.695  1.5392 -0.4931 -1.1120
15735SOL    HW248256   7.332   0.661   0.846 -1.0778 -0.6633 -0.8519
15736SOL     OW48257   1.156   7.527   7.109 -0.1382  0.2248 -0.0611
15736SOL    HW148258   1.223   7.466   7.140 -1.6054 -2.1300 -1.2445
15736SOL    HW248259   1.134   7.579   7.186  0.0335 -1.8591  1.4749
15737SOL     OW48260   4.686   3.700   5.029 -0.5176  0.1303  0.0924
15737SOL    HW148261   4.727   3.730   5.111 -0.1998 -0.7935  0.2812
15737SOL    HW248262   4.684   3.778   4.974 -1.4721  0.9837  1.2609
15738SOL     OW48263   4.214   0.306   4.480 -0.2949  0.4154 -0.3100
15738SOL    HW148264   4.282   0.373   4.490  0.8742 -0.7091 -0.5879
15738SOL    HW248265   4.256   0.224   4.507 -1.8990 -0.1363  0.6591
15739SOL     OW48266   2.086   3.661   4.332  0.3724  0.2635 -0.0388
15739SOL    HW148267   2.177   3.678   4.356  0.6659  1.4614 -1.8246
15739SOL    HW248268   2.077   3.696   4.244 -1.2277 -1.9207 -0.8311
15740SOL     OW48269   0.987   7.106   6.351  0.9856  0.1054 -0.1218
15740SOL    HW148270   1.031   7.033   6.308  0.4802 -0.2966  0.0339
15740SOL    HW248271   0.946   7.067   6.429 -0.8459  0.1558 -0.9998
15741SOL     OW48272   4.013   3.091   2.734 -0.3368 -0.3130  0.0260
15741SOL    HW148273   4.094   3.120   2.774 -2.1526  1.6785  2.6143
15741SOL    HW248274   3.984   3.166   2.681 -0.5169 -0.9937 -0.8653
15742SOL     OW48275   2.726   7.498   5.300 -0.7403 -0.0005  0.2266
15742SOL    HW148276   2.809   7.541   5.282 -1.2990  1.2730  0.5996
15742SOL    HW248277   2.732   7.414   5.255  0.0404  0.8268 -1.2761
15743SOL     OW48278   8.223   3.343   4.725  0.1952 -0.1149  0.0677
15743SOL    HW148279   8.169   3.395   4.784 -0.7855 -0.8408 -0.1715
15743SOL    HW248280   8.180   3.350   4.640  0.6532 -0.4496 -0.1961
15744SOL     OW48281   5.771   3.770   1.350  0.5346 -0.2905  0.0705
15744SOL    HW148282   5.797   3.833   1.418  1.0100 -0.6227  0.1993
15744SOL    HW248283   5.679   3.752   1.368  0.6531 -0.3632  0.6195
15745SOL     OW48284   5.843   7.278   0.566  0.2361 -0.0194  0.6590
15745SOL    HW148285   5.925   7.229   0.577  0.3855  0.3686  1.3568
15745SOL    HW248286   5.780   7.230   0.620  0.2775  0.3062  1.0012
15746SOL     OW48287   7.382   8.078   2.392 -0.1318 -0.3630  0.0900
15746SOL    HW148288   7.302   8.092   2.342  1.0392  2.8991 -1.1192
15746SOL    HW248289   7.353   8.076   2.484 -1.9272 -3.2288 -0.4147
15747SOL     OW48290   7.893   0.573   2.687  0.2043  0.0427 -0.2575
15747SOL    HW148291   7.952   0.637   2.646  1.6890 -0.0832  1.5514
15747SOL    HW248292   7.888   0.601   2.778 -0.8000 -1.2464  0.1057
15748SOL     OW48293   2.182   3.719   7.672  0.0272  1.0205  0.1963
15748SOL    HW148294   2.213   3.759   7.754  1.1508  0.2582  0.1571
15748SOL    HW248295   2.140   3.638   7.699  2.6589 -0.5778 -0.0928
15749SOL     OW48296   0.350   5.418   6.167  0.6066 -0.2631 -0.3634
15749SOL    HW148297   0.328   5.326   6.183  0.5389 -0.0104  1.2049
15749SOL    HW248298   0.277   5.451   6.115 -1.2862 -0.2434  2.0939
15750SOL     OW48299   5.999   0.902   5.899 -0.4224 -0.1596 -0.2330
15750SOL    HW148300   5.937   0.885   5.969 -0.3932 -2.2077 -0.6292
15750SOL    HW248301   6.052   0.975   5.930 -1.8230  0.4234  0.8920
15751SOL     OW48302   6.140   0.644   5.872 -0.6291 -0.0673 -0.4015
15751SOL    HW148303   6.094   0.722   5.902  1.4320  0.5160  1.4778
15751SOL    HW248304   6.204   0.676   5.809  0.1520 -0.2264  0.2945
15752SOL     OW48305   0.300   3.724   0.932 -0.1804 -0.1278 -0.3007
15752SOL    HW148306   0.221   3.690   0.974  0.2105 -0.7415 -0.0577
15752SOL    HW248307   0.296   3.692   0.842  0.9818 -2.2268  0.3302
15753SOL     OW48308   8.055   6.452   2.669 -0.2062  0.5677  0.1341
15753SOL    HW148309   8.124   6.495   2.620 -0.5939 -0.6538 -1.5629
15753SOL    HW248310   8.037   6.372   2.620 -1.5012 -0.0791  1.5896
15754SOL     OW48311   0.210   4.385   4.209  0.0233  0.4909  0.4648
15754SOL    HW148312   0.126   4.363   4.248  0.0449 -0.3825  0.0355
15754SOL    HW248313   0.265   4.411   4.283 -0.6170  1.0774  0.7452
15755SOL     OW48314   7.886   5.086   1.382  0.0216  0.6956  0.0190
15755SOL    HW148315   7.940   5.161   1.354 -0.8454  1.1704 -0.4249
15755SOL    HW248316   7.885   5.092   1.477  1.0447  0.4681  0.0504
15756SOL     OW48317   7.634   2.737   4.144 -0.1124  0.4801 -0.0816
15756SOL    HW148318   7.694   2.721   4.072 -0.4046 -0.0042 -0.2230
15756SOL    HW248319   7.646   2.829   4.165  1.6085  0.1196  0.7395
15757SOL     OW48320   0.845   6.407   4.283 -0.6813 -0.2067 -0.3811
15757SOL    HW148321   0.773   6.366   4.331  0.2312 -0.5105  0.7815
15757SOL    HW248322   0.866   6.485   4.334 -1.0031  0.5793 -1.4147
15758SOL     OW48323   0.397   4.314   6.287  0.2983 -0.4503 -0.2392
15758SOL    HW148324   0.428   4.226   6.308 -0.5252 -0.5666  0.5378
15758SOL    HW248325   0.470   4.371   6.313  0.5055 -0.8369  0.0475
15759SOL     OW48326   3.010   7.423   8.105  0.7956 -0.3694 -0.5618
15759SOL    HW148327   2.924   7.441   8.067  0.2439  0.0510  0.8423
15759SOL    HW248328   3.051   7.362   8.043 -0.4581 -0.4817 -1.3125
15760SOL     OW48329   8.125   6.441   1.578 -0.4764 -0.3856  0.1656
15760SOL    HW148330   8.035   6.410   1.566  0.0666 -1.3629 -1.6842
15760SOL    HW248331   8.169   6.420   1.495  2.2155 -2.4694  1.9598
15761SOL     OW48332   0.993   5.120   1.617  0.4119 -0.4813  0.0476
15761SOL    HW148333   1.047   5.043   1.601  0.4812 -0.6632  1.0826
15761SOL    HW248334   1.045   5.193   1.583  1.4729 -0.6196  1.2709
15762SOL     OW48335   2.650   4.629   6.659 -0.3894 -0.1670 -0.1388
15762SOL    HW148336   2.656   4.534   6.664 -1.8205 -0.3016 -0.3009
15762SOL    HW248337   2.556   4.647   6.672  0.0138  1.2934  1.0226
15763SOL     OW48338   7.489   3.533   5.578 -0.5203 -0.0920  0.3369
15763SOL    HW148339   7.583   3.530   5.594 -0.0841  2.3426 -1.2147
15763SOL    HW248340   7.450   3.533   5.666  1.0982  1.5079  1.1158
15764SOL     OW48341   2.050   7.079   6.561  0.1708 -0.1882  0.2159
15764SOL    HW148342   2.022   6.987   6.557  0.2621 -0.2517  0.8513
15764SOL    HW248343   2.069   7.093   6.654  0.3136  0.4290  0.0926
15765SOL     OW48344   2.456   2.207   1.432 -0.1495 -0.1025 -0.2858
15765SOL    HW148345   2.454   2.289   1.383  2.4414  0.3653  0.2484
15765SOL    HW248346   2.365   2.194   1.461 -1.0181  1.4958 -2.0600
15766SOL     OW48347   2.018   2.816   6.871  0.4625 -1.2375  0.2795
15766SOL    HW148348   1.950   2.748   6.881  1.1122 -1.6397  2.2949
15766SOL    HW248349   1.971   2.891   6.835 -0.5232 -2.3410 -0.8372
15767SOL     OW48350   2.351   3.777   4.329  0.0718  0.1220 -0.3708
15767SOL    HW148351   2.348   3.824   4.413 -0.1433 -1.2693  0.4287
15767SOL    HW248352   2.435   3.802   4.290  0.9322 -0.4755  1.0267
15768SOL     OW48353   7.383   0.152   4.234 -0.1165 -0.3367 -0.1178
15768SOL    HW148354   7.367   0.124   4.324  0.9795 -1.0429 -0.1229
15768SOL    HW248355   7.358   0.244   4.233  0.8263 -0.0417  1.1768
15769SOL     OW48356   0.949   1.602   2.027 -0.1573 -0.3249 -0.9101
15769SOL    HW148357   0.871   1.563   2.067 -0.5678  0.3606 -1.0111
15769SOL    HW248358   0.918   1.686   1.993 -0.0637 -1.2300 -3.4561
15770SOL     OW48359   4.787   7.555   7.087 -0.2081 -0.1673  0.6885
15770SOL    HW148360   4.813   7.607   7.011  1.7688  0.1360  1.5016
15770SOL    HW248361   4.807   7.465   7.063  0.5229 -0.0602  0.8499
15771SOL     OW48362   2.497   0.316   3.980 -0.1394 -0.2415  0.2779
15771SOL    HW148363   2.483   0.403   3.945  1.0722  0.5757  1.6861
15771SOL    HW248364   2.438   0.311   4.056  1.9333  0.5876  2.0475
15772SOL     OW48365   4.070   7.269   6.181  0.3179 -0.6115  0.2538
15772SOL    HW148366   4.057   7.345   6.239  2.2391  0.1855 -0.2635
15772SOL    HW248367   3.994   7.270   6.123 -0.6950 -0.2939  1.5261
15773SOL     OW48368   2.153   5.282   5.148 -0.0617  0.2576 -0.3308
15773SOL    HW148369   2.091   5.209   5.149 -0.6095  0.7207  0.1628
15773SOL    HW248370   2.233   5.244   5.112 -0.0573 -0.8191  0.7160
15774SOL     OW48371   5.180   2.740   2.363 -0.3515  0.8065 -0.1229
15774SOL    HW148372   5.106   2.798   2.382 -1.0736  0.5918 -1.9766
15774SOL    HW248373   5.213   2.771   2.278  1.2196  0.4117  0.3150
15775SOL     OW48374   3.950   1.996   0.984 -0.0527  0.0519  0.3027
15775SOL    HW148375   3.889   2.048   0.933 -1.2870 -1.5831  0.0310
15775SOL    HW248376   4.033   2.003   0.937 -0.7708 -0.0947 -1.0262
15776SOL     OW48377   2.525   6.063   7.449 -0.2708 -0.4278  0.4015
15776SOL    HW148378   2.478   6.016   7.380  1.3578 -1.3210 -0.1500
15776SOL    HW248379   2.572   6.132   7.403 -2.1926  1.4837  1.1426
15777SOL     OW48380   3.088   7.244   3.767 -0.3983  0.0723  0.6365
15777SOL    HW148381   3.110   7.326   3.723  1.4461 -1.0765 -0.6647
15777SOL    HW248382   3.005   7.217   3.727 -2.1369  2.2008  2.4723
15778SOL     OW48383   5.642   6.665   7.852 -0.0512 -0.4161  0.0408
15778SOL    HW148384   5.550   6.644   7.836 -0.7445  2.3129 -0.1413
15778SOL    HW248385   5.653   6.653   7.946  0.3246 -3.6836 -0.3355
15779SOL     OW48386   5.184   0.775   1.661 -0.6641  0.5593  0.7525
15779SOL    HW148387   5.219   0.723   1.588  3.7215  0.9879  2.2634
15779SOL    HW248388   5.157   0.710   1.726 -0.0330  0.1347  0.6046
15780SOL     OW48389   4.818   1.167   5.796 -1.0844  0.2813  0.5092
15780SOL    HW148390   4.832   1.261   5.805 -1.5511  0.7223 -2.2959
15780SOL    HW248391   4.726   1.154   5.815 -1.4102  0.7056 -0.6771
15781SOL     OW48392   8.260   6.784   3.442  0.4553 -0.5769 -0.3691
15781SOL    HW148393   8.176   6.825   3.424  0.6825  0.1085  0.0960
15781SOL    HW248394   8.284   6.815   3.529  1.5310 -0.1797 -0.7888
15782SOL     OW48395   3.232   7.891   6.921  0.3941  0.2469 -0.6080
15782SOL    HW148396   3.265   7.854   6.839 -1.0813 -0.5661 -0.8627
15782SOL    HW248397   3.160   7.833   6.946 -2.0462  2.8846 -1.0257
15783SOL     OW48398   3.803   0.669   6.157  0.5591 -0.4223 -0.2658
15783SOL    HW148399   3.748   0.746   6.140 -0.9870 -1.3996  0.1266
15783SOL    HW248400   3.823   0.674   6.250  0.7408 -0.3261 -0.3087
15784SOL     OW48401   6.876   2.224   5.348  0.1473 -0.0413 -0.2226
15784SOL    HW148402   6.845   2.310   5.375  0.3946 -0.8939  3.3551
15784SOL    HW248403   6.809   2.191   5.289  0.2839  2.6893 -2.0961
15785SOL     OW48404   7.324   5.759   2.197 -0.5685 -0.5908  0.4746
15785SOL    HW148405   7.387   5.764   2.270 -1.5713  0.5236  1.2959
15785SOL    HW248406   7.373   5.715   2.127  1.0444  0.0093  1.1656
15786SOL     OW48407   4.453   1.960   6.203  0.2013 -0.3752  0.4784
15786SOL    HW148408   4.364   1.964   6.240 -0.9029 -1.8262 -1.8024
15786SOL    HW248409   4.461   2.041   6.153 -1.2751 -1.7169 -2.1218
15787SOL     OW48410   3.470   4.987   2.815  0.6057 -0.0349  0.5157
15787SOL    HW148411   3.510   4.906   2.785 -0.2338  0.3444 -1.8018
15787SOL    HW248412   3.512   5.056   2.764 -0.6505  0.6906  0.4122
15788SOL     OW48413   4.411   6.887   6.031  0.3688  0.2163  0.0473
15788SOL    HW148414   4.381   6.945   6.100 -0.9842  0.2357 -0.5344
15788SOL    HW248415   4.332   6.863   5.983  1.0468 -1.1622 -0.4512
15789SOL     OW48416   0.228   2.938   4.975  0.5548 -0.1052 -0.1459
15789SOL    HW148417   0.248   2.902   4.889  1.6575 -0.5483  0.2751
15789SOL    HW248418   0.254   2.869   5.036  0.1579  0.3584  0.5573
15790SOL     OW48419   4.555   1.994   4.903  0.1612 -0.1978  0.3983
15790SOL    HW148420   4.516   1.945   4.976  1.1147  0.8748  1.6940
15790SOL    HW248421   4.601   1.928   4.852  0.1674 -0.8684  1.2399
15791SOL     OW48422   7.240   1.303   6.118  1.0318  0.1989  0.0608
15791SOL    HW148423   7.192   1.364   6.062  2.4312  1.7873  0.5170
15791SOL    HW248424   7.176   1.272   6.182  0.2695  1.1072 -0.2538
15792SOL     OW48425   4.734   0.483   3.249 -0.2867 -0.1222  0.1271
15792SOL    HW148426   4.704   0.444   3.167 -0.9572  1.9589 -0.7064
15792SOL    HW248427   4.828   0.499   3.234 -0.1507 -0.8317  0.2287
15793SOL     OW48428   1.505   8.225   8.199 -0.2919 -1.0452 -0.4180
15793SOL    HW148429   1.451   8.165   8.250  0.5144  1.0436  3.2048
15793SOL    HW248430   1.589   8.179   8.188 -0.5372 -1.5891 -0.0335
15794SOL     OW48431   0.495   3.048   4.604 -0.8969 -0.3037 -0.0202
15794SOL    HW148432   0.400   3.037   4.607 -0.9109 -0.1075  2.0256
15794SOL    HW248433   0.529   2.958   4.600 -1.1895 -0.5768  2.0629
15795SOL     OW48434   1.471   5.715   0.718  0.3439  0.0029 -0.3404
15795SOL    HW148435   1.467   5.641   0.778 -1.8239  0.4867  0.2053
15795SOL    HW248436   1.506   5.679   0.637  0.2026 -1.4027  0.2096
15796SOL     OW48437   2.799   4.471   8.258 -0.3126  0.1938 -0.1363
15796SOL    HW148438   2.735   4.540   8.279 -1.9424 -1.6075  1.1615
15796SOL    HW248439   2.793   4.462   8.162  0.8242  2.6031 -0.5054
15797SOL     OW48440   1.052   2.548   3.429  0.1817 -0.1307  0.4930
15797SOL    HW148441   1.134   2.583   3.395  0.2742 -1.4397 -0.6950
15797SOL    HW248442   0.984   2.586   3.374  0.0695  0.1186  0.7980
15798SOL     OW48443   3.473   4.147   2.601  0.2733 -0.3006  0.0739
15798SOL    HW148444   3.553   4.094   2.592  0.3799 -0.4669  1.6198
15798SOL    HW248445   3.406   4.084   2.630  0.1847  0.2316  1.0733
15799SOL     OW48446   6.388   7.750   2.669 -0.3729  0.1064  0.2487
15799SOL    HW148447   6.310   7.695   2.675  1.3854 -2.4352  3.0449
15799SOL    HW248448   6.415   7.744   2.578 -2.6877  0.0278 -0.4915
15800SOL     OW48449   3.450   0.292   4.930 -0.0905  0.3307  0.2651
15800SOL    HW148450   3.412   0.224   4.986  1.7222 -0.0466  1.1191
15800SOL    HW248451   3.459   0.251   4.844 -0.5000  0.0371  0.3606
15801SOL     OW48452   8.251   3.983   5.495  0.2224 -0.3416 -0.1631
15801SOL    HW148453   8.279   4.073   5.511 -0.8911 -0.3832  2.8424
15801SOL    HW248454   8.285   3.934   5.570 -0.3062 -2.1482 -1.0558
15802SOL     OW48455   4.645   5.903   2.081 -0.4176 -0.0263  0.0275
15802SOL    HW148456   4.562   5.857   2.066  0.4539 -1.6628  0.0271
15802SOL    HW248457   4.621   5.996   2.082 -2.3377 -0.4823  0.6020
15803SOL     OW48458   5.417   4.784   4.635 -0.1177 -0.0809 -0.5149
15803SOL    HW148459   5.370   4.789   4.718 -0.1093  1.9537 -0.5790
15803SOL    HW248460   5.506   4.760   4.659 -0.3633 -0.5177 -0.0359
15804SOL     OW48461   7.707   3.216   1.463 -0.4584  0.2662 -0.3035
15804SOL    HW148462   7.772   3.170   1.410 -0.7369 -0.0341 -0.3867
15804SOL    HW248463   7.757   3.284   1.509  0.3011 -1.2432  1.2120
15805SOL     OW48464   0.741   1.640   4.350 -0.4540  0.2422  0.9339
15805SOL    HW148465   0.824   1.681   4.324  0.2092 -0.5106  1.8053
15805SOL    HW248466   0.674   1.702   4.321  0.4295  1.0962  0.6434
15806SOL     OW48467   0.365   1.972   1.987  0.2437  0.5192  0.1999
15806SOL    HW148468   0.425   1.901   1.963 -0.0908  0.2286  0.2000
15806SOL    HW248469   0.374   1.980   2.082  0.0436  0.2441  0.2473
15807SOL     OW48470   4.053   0.129   7.110 -0.3875 -0.1607 -0.0099
15807SOL    HW148471   4.123   0.170   7.161 -0.1317 -2.2194  1.4268
15807SOL    HW248472   3.974   0.178   7.134 -0.1556 -0.6317  1.8918
15808SOL     OW48473   8.005   3.012   3.426 -0.0365 -0.5111 -0.3168
15808SOL    HW148474   8.014   3.054   3.512  1.4112 -1.1577 -0.1309
15808SOL    HW248475   8.022   2.919   3.443 -0.1398 -0.7081 -1.2464
15809SOL     OW48476   4.567   4.368   7.523  0.1451 -0.2268  0.0507
15809SOL    HW148477   4.560   4.304   7.594  2.7554 -0.5219  0.1243
15809SOL    HW248478   4.610   4.320   7.452 -0.5114  0.6676 -0.9776
15810SOL     OW48479   4.134   5.813   0.509  0.0382  0.1723  0.0674
15810SOL    HW148480   4.071   5.812   0.436  1.1603  0.9914 -0.9455
15810SOL    HW248481   4.101   5.745   0.569 -1.2306 -0.1326 -0.9140
15811SOL     OW48482   0.214   3.161   6.201 -0.4269  0.4167 -0.7198
15811SOL    HW148483   0.154   3.177   6.273 -0.3585 -1.1079 -0.3092
15811SOL    HW248484   0.244   3.071   6.212  0.5062  0.5306 -1.9736
15812SOL     OW48485   4.165   0.778   2.603  0.2383 -0.0713 -0.0968
15812SOL    HW148486   4.161   0.687   2.633 -1.2833  0.4723  1.5211
15812SOL    HW248487   4.204   0.826   2.676  0.7359  0.6436 -0.8141
15813SOL     OW48488   3.282   5.850   6.884 -0.6767 -0.2197  0.2293
15813SOL    HW148489   3.366   5.892   6.903 -0.2225 -1.1255  0.2839
15813SOL    HW248490   3.220   5.923   6.875  0.1051  0.4581  0.2165
15814SOL     OW48491   6.123   0.167   2.948  0.1119 -0.2580 -0.4409
15814SOL    HW148492   6.139   0.073   2.961 -2.1367 -0.5684  0.7137
15814SOL    HW248493   6.140   0.182   2.855  2.2521 -1.3740 -0.2993
15815SOL     OW48494   2.679   2.552   5.323  0.1933 -0.2009  0.2942
15815SOL    HW148495   2.653   2.606   5.248 -1.2910 -1.3541 -0.0673
15815SOL    HW248496   2.758   2.594   5.356 -1.9772  3.5283  1.3671
15816SOL     OW48497   0.400   4.128   0.739 -0.1635  0.7313  0.4162
15816SOL    HW148498   0.395   4.077   0.658  0.7657  1.0637  0.1446
15816SOL    HW248499   0.325   4.188   0.733 -0.1885  0.6564 -0.1326
15817SOL     OW48500   0.780   3.473   0.228  0.4144 -0.1156  0.0960
15817SOL    HW148501   0.725   3.551   0.223 -1.2178 -1.2801 -1.7806
15817SOL    HW248502   0.796   3.449   0.136  3.2559 -0.4461  0.5619
15818SOL     OW48503   3.208   6.551   4.658 -0.4349  0.2265 -0.2177
15818SOL    HW148504   3.225   6.486   4.590  2.1684 -0.9538  1.4040
15818SOL    HW248505   3.291   6.598   4.667 -0.9882  0.9487  1.5090
15819SOL     OW48506   6.689   4.892   6.856  0.0774  0.1562 -0.3102
15819SOL    HW148507   6.617   4.949   6.830 -0.9566 -1.2487 -0.6757
15819SOL    HW248508   6.749   4.949   6.905 -0.3987  1.7480 -1.5109
15820SOL     OW48509   1.847   1.305   6.090 -0.5968  0.1621 -0.6062
15820SOL    HW148510   1.933   1.331   6.121 -1.1049  2.2755 -0.8303
15820SOL    HW248511   1.790   1.315   6.166 -0.5663 -1.9855 -0.2343
15821SOL     OW48512   3.306   0.774   7.133 -0.5775  0.0020  0.1016
15821SOL    HW148513   3.270   0.800   7.048 -0.3953  0.9536  0.2998
15821SOL    HW248514   3.401   0.774   7.120 -0.5900 -1.3810 -0.1087
15822SOL     OW48515   6.380   3.308   3.187  0.0610 -0.1636  0.2502
15822SOL    HW148516   6.309   3.370   3.171  0.7868  0.5952 -0.1569
15822SOL    HW248517   6.407   3.280   3.099  1.0958  0.5377  0.3286
15823SOL     OW48518   4.118   7.823   2.346  0.7451 -0.0014  0.4325
15823SOL    HW148519   4.047   7.870   2.390  2.0526  1.5553  1.0175
15823SOL    HW248520   4.196   7.847   2.396  1.5400 -2.7370  0.6480
15824SOL     OW48521   2.457   1.105   3.052 -0.6255  0.2831  0.2686
15824SOL    HW148522   2.367   1.138   3.059 -0.1214  1.7518  0.1568
15824SOL    HW248523   2.473   1.059   3.135 -1.4135  0.1458  0.3518
15825SOL     OW48524   2.334   4.704   4.931 -0.3600 -0.6600 -0.3370
15825SOL    HW148525   2.371   4.779   4.886 -0.7584 -0.3016 -0.0778
15825SOL    HW248526   2.406   4.669   4.984 -0.8176  1.1484  1.6261
15826SOL     OW48527   3.244   6.033   7.990  0.9954  0.0336 -0.2919
15826SOL    HW148528   3.290   6.093   8.049  0.8642 -0.9153  0.8060
15826SOL    HW248529   3.193   5.977   8.048  0.2185 -0.4001 -1.3702
15827SOL     OW48530   3.746   4.648   7.129  0.0279 -0.1078  0.6612
15827SOL    HW148531   3.833   4.635   7.166  0.0635  1.9468  1.3834
15827SOL    HW248532   3.687   4.610   7.193  0.3397 -1.1815  0.3416
15828SOL     OW48533   2.184   8.199   7.009  0.0058  0.0119  0.3109
15828SOL    HW148534   2.170   8.195   6.915  1.9224 -1.4072  0.0280
15828SOL    HW248535   2.102   8.235   7.044 -2.5654 -3.4732 -1.4795
15829SOL     OW48536   6.036   2.417   5.611 -0.1393 -0.3464 -0.0542
15829SOL    HW148537   6.106   2.480   5.627  0.2535 -0.3047 -1.8061
15829SOL    HW248538   6.081   2.337   5.582 -0.7625 -0.6093 -0.3182
15830SOL     OW48539   1.429   2.623   0.233 -0.1097 -0.1998 -0.1905
15830SOL    HW148540   1.431   2.539   0.279  1.4167 -0.3542 -0.4937
15830SOL    HW248541   1.350   2.618   0.179 -0.0065 -1.4789 -0.2646
15831SOL     OW48542   7.575   0.364   4.063  0.5251 -0.0868  0.3463
15831SOL    HW148543   7.482   0.385   4.071  0.8289  2.1689 -1.1106
15831SOL    HW248544   7.584   0.329   3.974  0.7730 -2.6079  1.2647
15832SOL     OW48545   0.623   4.224   2.343  0.4551  0.5351 -0.2243
15832SOL    HW148546   0.711   4.258   2.360 -0.3324  2.2019  0.7959
15832SOL    HW248547   0.600   4.260   2.258  1.4008 -1.3771 -1.3458
15833SOL     OW48548   6.157   5.661   3.588  0.0833  0.6684  0.2529
15833SOL    HW148549   6.234   5.613   3.619  0.9405  1.7588 -0.1247
15833SOL    HW248550   6.193   5.739   3.546 -1.1710  0.5103 -1.1857
15834SOL     OW48551   4.901   0.149   7.735 -0.4121  0.0459 -0.3981
15834SOL    HW148552   4.919   0.213   7.805  1.9665 -0.2771 -0.6266
15834SOL    HW248553   4.846   0.083   7.777 -1.4491  1.3106  0.3345
15835SOL     OW48554   5.603   3.508   5.742 -0.5228  0.0846 -0.4060
15835SOL    HW148555   5.620   3.532   5.833  1.1446  0.6247 -0.8269
15835SOL    HW248556   5.669   3.555   5.691 -0.6048 -1.1910 -1.7822
15836SOL     OW48557   7.970   7.801   2.622 -0.6468  0.1223 -0.1377
15836SOL    HW148558   7.880   7.835   2.619 -0.5237  0.3988 -1.9100
15836SOL    HW248559   8.025   7.879   2.628 -0.4687  0.0870 -1.1378
15837SOL     OW48560   3.027   3.059   3.537 -0.2679  0.1078 -0.1335
15837SOL    HW148561   3.103   3.086   3.484 -0.1724  0.4210  0.1652
15837SOL    HW248562   2.970   3.013   3.475 -1.4959  2.8656 -1.2162
15838SOL     OW48563   4.842   6.039   7.160  0.2387  0.7530 -0.5729
15838SOL    HW148564   4.868   6.054   7.251  0.6203  0.3081 -0.6074
15838SOL    HW248565   4.910   6.083   7.109 -0.3906  1.6768 -0.6450
15839SOL     OW48566   5.445   4.257   1.296 -0.0742  0.1139  0.2360
15839SOL    HW148567   5.464   4.236   1.387 -2.4084 -0.9912  0.5285
15839SOL    HW248568   5.411   4.346   1.298 -1.5270 -0.4364  0.6725
15840SOL     OW48569   6.678   5.632   4.246  0.1185 -0.5972  0.1773
15840SOL    HW148570   6.734   5.676   4.310  1.0381 -0.6281 -0.5750
15840SOL    HW248571   6.730   5.557   4.217 -0.5690 -0.9769 -0.0902
15841SOL     OW48572   4.434   4.685   4.353 -0.0140  1.0299  0.0885
15841SOL    HW148573   4.343   4.709   4.333  0.1424  1.2215 -0.3920
15841SOL    HW248574   4.477   4.768   4.374  0.5830  1.2258 -1.7882
15842SOL     OW48575   3.138   4.435   5.870 -0.4593  0.5207  0.4344
15842SOL    HW148576   3.076   4.438   5.797 -0.7762 -0.2303  0.6678
15842SOL    HW248577   3.160   4.527   5.886 -1.0171  0.7501 -0.0628
15843SOL     OW48578   7.556   6.303   8.094  0.0041  0.2482  0.1560
15843SOL    HW148579   7.631   6.320   8.151  0.6795  1.8511 -1.1242
15843SOL    HW248580   7.479   6.316   8.150  0.6637  0.7897  0.9529
15844SOL     OW48581   2.554   2.712   5.151  0.2515 -0.0877  0.1789
15844SOL    HW148582   2.602   2.796   5.155  0.0362  0.0612 -0.3135
15844SOL    HW248583   2.481   2.729   5.091 -0.1066 -0.4749  0.5043
15845SOL     OW48584   1.767   1.244   4.088  0.3099  0.1567  0.5025
15845SOL    HW148585   1.729   1.322   4.047  0.7894 -0.1159 -0.4847
15845SOL    HW248586   1.861   1.260   4.089  0.2569  0.6491  2.5776
15846SOL     OW48587   1.426   5.075   4.626  0.1180  0.1116  0.3329
15846SOL    HW148588   1.360   5.128   4.670  0.1054  0.5000 -0.1602
15846SOL    HW248589   1.492   5.137   4.596 -0.0631 -0.1112 -0.5446
15847SOL     OW48590   8.223   3.409   2.220  0.5225  0.1669  0.3263
15847SOL    HW148591   8.268   3.325   2.209  3.0187  1.3938  0.3688
15847SOL    HW248592   8.222   3.424   2.314  1.1508  0.6718  0.2664
15848SOL     OW48593   2.705   4.181   6.197  0.6625 -0.4701 -0.0560
15848SOL    HW148594   2.674   4.091   6.189  1.2463 -0.7605  0.7543
15848SOL    HW248595   2.653   4.230   6.134  1.3799 -1.6218 -1.5991
15849SOL     OW48596   7.931   0.726   7.029  0.2133  0.0750 -0.0756
15849SOL    HW148597   7.958   0.725   6.937  0.2907 -0.3456 -0.0487
15849SOL    HW248598   7.980   0.799   7.067  1.1133 -0.5006 -0.0972
15850SOL     OW48599   1.275   0.736   6.668  0.5226 -0.2525 -0.0994
15850SOL    HW148600   1.265   0.719   6.574 -0.0815 -1.3277  0.1464
15850SOL    HW248601   1.307   0.653   6.704  0.3793  0.0345  0.7037
15851SOL     OW48602   7.479   4.229   1.157 -0.2711 -0.2784 -0.0623
15851SOL    HW148603   7.404   4.277   1.192 -0.6072 -1.8276  1.3972
15851SOL    HW248604   7.478   4.145   1.201 -0.1331 -2.0118 -3.0911
15852SOL     OW48605   7.001   4.401   5.628  0.0852 -0.4223  0.2112
15852SOL    HW148606   7.082   4.441   5.659  0.3971  0.2897 -1.4241
15852SOL    HW248607   7.014   4.390   5.534 -1.3165 -1.2795  0.0939
15853SOL     OW48608   5.195   6.466   3.448 -0.1192 -0.8289 -0.4447
15853SOL    HW148609   5.128   6.452   3.381 -0.5741  0.3965 -0.2678
15853SOL    HW248610   5.146   6.485   3.528  0.4018  1.0972 -0.5278
15854SOL     OW48611   4.435   0.125   4.180 -0.1372  0.1791  0.5746
15854SOL    HW148612   4.525   0.122   4.149  0.0144 -0.5998  1.0458
15854SOL    HW248613   4.382   0.133   4.100  0.3708  1.3625  0.3460
15855SOL     OW48614   3.684   2.864   5.807  0.6593  0.0709  0.3618
15855SOL    HW148615   3.642   2.900   5.885  1.4828 -0.6072  1.1386
15855SOL    HW248616   3.646   2.913   5.734  0.4641  1.2816  1.2528
15856SOL     OW48617   4.943   0.938   5.877 -0.0255 -0.0013 -0.2470
15856SOL    HW148618   5.036   0.955   5.890 -0.5945  1.7224  2.3830
15856SOL    HW248619   4.906   1.023   5.852 -1.2106  0.0167  1.3519
15857SOL     OW48620   1.332   4.778   0.612  0.1518 -0.0829  0.2092
15857SOL    HW148621   1.238   4.773   0.631  0.4812  1.1322  2.5794
15857SOL    HW248622   1.352   4.696   0.568 -1.8979 -0.6509  0.2382
15858SOL     OW48623   1.624   1.098   2.171  0.2534 -0.0052 -0.0517
15858SOL    HW148624   1.618   1.192   2.150  0.3459  0.1131  0.4501
15858SOL    HW248625   1.544   1.079   2.220 -0.2327 -0.4096 -0.9730
15859SOL     OW48626   5.345   7.180   1.910 -0.0665 -0.4798 -0.1642
15859SOL    HW148627   5.418   7.217   1.860 -0.1866 -0.0843 -0.0510
15859SOL    HW248628   5.385   7.112   1.965  0.4766  0.7651  1.0391
15860SOL     OW48629   1.451   4.247   0.364 -0.1655 -0.0428  0.1450
15860SOL    HW148630   1.375   4.265   0.419  0.1887  0.2775  0.5371
15860SOL    HW248631   1.423   4.175   0.307 -1.2545  0.9948 -0.7061
15861SOL     OW48632   0.602   3.292   6.068  0.0874 -0.4926  0.5148
15861SOL    HW148633   0.670   3.340   6.116 -0.6149 -0.6548  1.7087
15861SOL    HW248634   0.523   3.345   6.080 -0.1748 -0.7090 -0.2120
15862SOL     OW48635   0.612   4.324   2.718 -0.1576  0.1584  0.0786
15862SOL    HW148636   0.568   4.395   2.765  1.5124 -0.3111  2.4955
15862SOL    HW248637   0.697   4.361   2.692  0.1870 -0.5474  0.1747
15863SOL     OW48638   7.264   2.467   3.615 -0.4838  0.6951  0.1139
15863SOL    HW148639   7.330   2.510   3.561  0.3259  1.9170  1.9546
15863SOL    HW248640   7.314   2.400   3.663 -0.2895  2.2694  2.2425
15864SOL     OW48641   3.530   7.428   7.333  0.4454 -0.0758  0.2566
15864SOL    HW148642   3.448   7.403   7.377  1.5286  0.5112  2.7701
15864SOL    HW248643   3.586   7.351   7.341  1.0926  0.4665  1.0807
15865SOL     OW48644   5.719   3.097   1.822  0.6083 -0.1864  0.1423
15865SOL    HW148645   5.730   3.118   1.729 -1.0443  1.6952  0.3152
15865SOL    HW248646   5.641   3.042   1.825  1.4628 -1.4380  0.3242
15866SOL     OW48647   6.890   7.235   1.574 -0.4191  0.6078  0.2498
15866SOL    HW148648   6.934   7.284   1.644 -0.0108  1.0605 -0.3237
15866SOL    HW248649   6.947   7.243   1.499 -1.6281  1.5115 -0.6220
15867SOL     OW48650   1.620   2.292   4.530  0.4956 -0.0326 -0.0353
15867SOL    HW148651   1.677   2.299   4.606  1.4892 -0.3138 -0.7328
15867SOL    HW248652   1.585   2.203   4.534  0.0774  0.1478  0.4058
15868SOL     OW48653   2.473   1.005   5.071 -0.4527  1.1336 -0.3105
15868SOL    HW148654   2.487   0.957   5.153  0.2907  1.5987 -0.1533
15868SOL    HW248655   2.483   1.097   5.096  1.4369  1.2170 -1.2193
15869SOL     OW48656   0.753   2.040   2.908  0.2283  0.0552 -0.2923
15869SOL    HW148657   0.804   2.091   2.845  0.9976 -0.7904 -0.3732
15869SOL    HW248658   0.724   2.105   2.972  2.2031  0.4647  0.2701
15870SOL     OW48659   4.942   1.546   1.853 -0.1281  0.1246 -0.4502
15870SOL    HW148660   4.922   1.521   1.944 -2.3432  1.7905 -0.3875
15870SOL    HW248661   4.993   1.473   1.819  0.0101 -0.9681  1.8682
15871SOL     OW48662   0.266   2.376   6.368 -0.0416 -0.4638  0.8106
15871SOL    HW148663   0.217   2.296   6.386 -0.8773 -0.3644 -0.7579
15871SOL    HW248664   0.224   2.412   6.289  1.5159  0.5251  0.3810
15872SOL     OW48665   4.978   4.713   0.288 -0.2349  0.0791 -0.0093
15872SOL    HW148666   5.054   4.676   0.333 -0.3126  1.5417  1.3836
15872SOL    HW248667   5.016   4.767   0.218 -0.0791 -1.0376 -0.8135
15873SOL     OW48668   4.823   1.795   4.383 -0.6049 -0.1598  0.2470
15873SOL    HW148669   4.752   1.858   4.386 -1.0319 -0.4397 -2.0261
15873SOL    HW248670   4.821   1.761   4.294  0.2129 -2.6946  1.1096
15874SOL     OW48671   2.058   2.024   2.451 -0.2214 -0.0929 -0.0242
15874SOL    HW148672   2.110   2.049   2.375  0.3920  1.2334  0.8044
15874SOL    HW248673   1.997   2.097   2.464 -0.1049 -0.1510  0.9422
15875SOL     OW48674   5.483   4.525   2.615 -0.4046 -0.3681 -0.0870
15875SOL    HW148675   5.459   4.437   2.585  1.0301 -1.3820  1.5417
15875SOL    HW248676   5.451   4.529   2.705  1.0094  0.1378  0.4147
15876SOL     OW48677   6.201   2.641   2.715 -0.2273  0.1821  0.2027
15876SOL    HW148678   6.296   2.648   2.726 -0.1340 -0.1087 -0.4273
15876SOL    HW248679   6.176   2.718   2.666 -0.2388 -0.0333 -0.1305
15877SOL     OW48680   5.957   6.762   7.186  0.3440  0.4842  0.0981
15877SOL    HW148681   6.034   6.710   7.211  0.8137  1.4003  0.6067
15877SOL    HW248682   5.921   6.715   7.111  0.4591 -0.8463  0.8379
15878SOL     OW48683   4.076   2.672   3.622 -0.1279 -0.2245 -0.0893
15878SOL    HW148684   4.122   2.591   3.600  2.0000  0.4475  1.6090
15878SOL    HW248685   4.015   2.647   3.692  0.1685 -0.4720  0.0832
15879SOL     OW48686   0.212   1.925   2.801 -0.4385  0.3976 -0.0138
15879SOL    HW148687   0.158   1.991   2.845  0.8163  0.3638  1.6650
15879SOL    HW248688   0.289   1.914   2.858  1.2923  0.3376 -2.2322
15880SOL     OW48689   7.088   2.876   3.672  0.2196 -0.2606 -0.0721
15880SOL    HW148690   7.081   2.946   3.607 -0.9628  1.4719  1.7990
15880SOL    HW248691   7.182   2.874   3.694  0.4185  0.0491 -0.8366
15881SOL     OW48692   8.110   5.043   0.290  0.8180 -0.0024 -0.1367
15881SOL    HW148693   8.033   5.042   0.234  0.4397  0.8709  0.3352
15881SOL    HW248694   8.080   5.087   0.370  2.0522  1.3067 -0.3473
15882SOL     OW48695   1.491   7.716   7.183  0.2144 -0.2098  0.1663
15882SOL    HW148696   1.417   7.746   7.131 -0.0382  2.0464  1.7084
15882SOL    HW248697   1.452   7.664   7.253  0.2302 -0.2487  0.1466
15883SOL     OW48698   2.956   0.879   6.650  0.3698  0.4029 -0.1104
15883SOL    HW148699   3.044   0.892   6.615  0.1667 -0.8760 -1.1685
15883SOL    HW248700   2.927   0.967   6.675  2.5282  0.6694  1.7752
15884SOL     OW48701   7.208   3.133   1.124  0.1051  0.3096  0.2659
15884SOL    HW148702   7.293   3.165   1.093  0.6913 -1.1471  0.3318
15884SOL    HW248703   7.149   3.208   1.111  1.0462  0.8504 -1.2184
15885SOL     OW48704   7.045   7.279   0.814 -0.0941 -0.0136  0.3947
15885SOL    HW148705   6.958   7.239   0.825 -0.1234  0.3167  1.4112
15885SOL    HW248706   7.035   7.336   0.738 -0.0839 -1.8064 -1.0361
15886SOL     OW48707   6.146   7.405   7.857 -0.2785  0.2581  0.3503
15886SOL    HW148708   6.157   7.440   7.945  0.1670 -0.4944  0.6082
15886SOL    HW248709   6.138   7.310   7.870  1.1170 -0.0092 -0.5094
15887SOL     OW48710   2.266   1.225   0.362 -0.2729 -0.5369  0.2612
15887SOL    HW148711   2.282   1.289   0.293 -1.3422 -0.9685 -0.4089
15887SOL    HW248712   2.277   1.140   0.318 -0.6729 -0.8136  0.6906
15888SOL     OW48713   3.941   0.178   3.789  0.1575  0.2685 -0.1724
15888SOL    HW148714   3.911   0.192   3.879  2.5942 -0.9552  0.9308
15888SOL    HW248715   3.915   0.089   3.769  0.3145  0.2646 -0.3620
15889SOL     OW48716   3.779   1.592   2.770  0.0581 -0.1919 -0.0361
15889SOL    HW148717   3.689   1.621   2.784 -1.0588 -2.0888 -2.4002
15889SOL    HW248718   3.815   1.656   2.709 -0.6175 -0.8029 -1.1156
15890SOL     OW48719   2.908   3.091   2.314  0.5069  0.0121  0.2254
15890SOL    HW148720   2.985   3.087   2.370  1.3811 -3.0783 -1.0014
15890SOL    HW248721   2.929   3.157   2.248  1.5192  0.1765  0.6959
15891SOL     OW48722   0.779   5.514   1.375 -0.5872 -0.3064 -0.4065
15891SOL    HW148723   0.834   5.589   1.395  0.2778 -1.4981  2.0164
15891SOL    HW248724   0.740   5.535   1.290  1.6748  1.6639 -1.0518
15892SOL     OW48725   7.748   2.687   6.295  0.1201  0.3678  0.0634
15892SOL    HW148726   7.770   2.763   6.242 -0.1934 -0.3857 -1.1797
15892SOL    HW248727   7.749   2.613   6.234 -2.4949 -0.2133  0.5809
15893SOL     OW48728   3.587   2.424   5.985 -0.1595 -0.3566 -0.0924
15893SOL    HW148729   3.585   2.478   6.063  1.3023 -1.4182  0.7311
15893SOL    HW248730   3.641   2.473   5.923 -0.0322 -0.2185  0.1260
15894SOL     OW48731   4.712   7.785   0.901 -0.5869  0.2937 -0.1253
15894SOL    HW148732   4.654   7.810   0.974 -1.2862  0.3871 -0.7052
15894SOL    HW248733   4.698   7.852   0.835  0.8304  0.7807  0.0560
15895SOL     OW48734   0.712   0.384   6.262 -0.1861  0.2425 -0.3319
15895SOL    HW148735   0.642   0.449   6.269  1.1407  1.8167 -0.8690
15895SOL    HW248736   0.787   0.426   6.304  1.3134  0.0074 -2.5867
15896SOL     OW48737   7.164   4.591   6.960 -0.0453  0.1106  0.3631
15896SOL    HW148738   7.118   4.650   6.900 -0.8559  0.5701  1.3988
15896SOL    HW248739   7.095   4.557   7.017  1.0271  2.2301  3.1598
15897SOL     OW48740   7.755   3.225   8.062 -0.6393  0.3306 -0.3698
15897SOL    HW148741   7.751   3.195   7.971  0.1657 -0.4750 -0.1422
15897SOL    HW248742   7.724   3.151   8.113 -3.0439  1.4258 -0.0705
15898SOL     OW48743   5.380   7.866   7.793 -0.0913 -0.5071  0.0799
15898SOL    HW148744   5.364   7.902   7.706  0.5841 -0.2284  0.0657
15898SOL    HW248745   5.473   7.843   7.793 -0.3019 -1.4031  0.4078
15899SOL     OW48746   8.271   6.576   3.227  0.4837  0.2047  0.1803
15899SOL    HW148747   8.178   6.596   3.235  0.2567 -0.3052 -0.9815
15899SOL    HW248748   8.315   6.656   3.258 -0.3674  1.3604 -1.4196
15900SOL     OW48749   2.842   7.063   0.464  0.1061 -0.1173 -0.1540
15900SOL    HW148750   2.791   7.140   0.437 -1.0930 -0.9452 -0.3450
15900SOL    HW248751   2.929   7.098   0.485 -0.8726  1.5845  1.4563
15901SOL     OW48752   5.992   4.192   5.133  1.0420 -0.1005 -0.1236
15901SOL    HW148753   5.966   4.275   5.174 -2.0264 -1.5284  1.1499
15901SOL    HW248754   6.013   4.135   5.207 -1.0622 -1.6519 -0.6382
15902SOL     OW48755   6.821   1.070   1.729  0.2012  0.1378  0.3775
15902SOL    HW148756   6.850   1.067   1.638 -0.5256  2.1693  0.0191
15902SOL    HW248757   6.802   1.163   1.745  2.0027  0.1273  3.1647
15903SOL     OW48758   6.079   1.220   5.416 -0.1371  0.6111  0.0477
15903SOL    HW148759   6.023   1.278   5.468 -0.6162  0.2845 -0.1020
15903SOL    HW248760   6.019   1.173   5.359  0.4306  1.3895 -1.2466
15904SOL     OW48761   2.445   1.473   7.788 -0.0389 -1.0322  0.0264
15904SOL    HW148762   2.367   1.469   7.843  1.1678 -0.7433  1.8261
15904SOL    HW248763   2.483   1.386   7.793  1.7163 -0.2321  2.2329
15905SOL     OW48764   2.474   3.242   4.080 -0.2143  0.5147 -0.5009
15905SOL    HW148765   2.562   3.205   4.079 -0.3029  0.3007 -0.9063
15905SOL    HW248766   2.465   3.281   4.166  0.0026 -0.1356 -0.1737
15906SOL     OW48767   4.173   8.174   1.494  0.1891 -0.0842  0.0250
15906SOL    HW148768   4.187   8.259   1.536 -0.9497 -0.2253  0.7178
15906SOL    HW248769   4.197   8.188   1.402 -0.7458  1.2012 -0.0374
15907SOL     OW48770   1.509   7.137   7.212  0.2848  0.4989 -0.3279
15907SOL    HW148771   1.527   7.144   7.119  0.9534 -2.2363 -0.4921
15907SOL    HW248772   1.593   7.114   7.251 -0.2544  0.2755  0.7443
15908SOL     OW48773   3.280   0.070   4.000  0.5641  0.1348  0.1452
15908SOL    HW148774   3.219   0.143   3.990 -0.2511 -0.6390 -0.7964
15908SOL    HW248775   3.364   0.111   4.017  0.4852  1.4213 -2.1460
15909SOL     OW48776   1.568   6.415   6.127 -1.0924  0.0662  0.6898
15909SOL    HW148777   1.619   6.341   6.161 -0.4172  0.7795  1.2875
15909SOL    HW248778   1.549   6.391   6.036  1.0863  0.1253  0.1451
15910SOL     OW48779   4.595   2.514   7.628 -0.3458  0.2868 -0.8007
15910SOL    HW148780   4.638   2.476   7.551  0.7940  0.6141 -0.3344
15910SOL    HW248781   4.502   2.496   7.614  0.0025 -1.1902 -1.4112
15911SOL     OW48782   5.700   7.479   4.069  0.3368 -0.0709 -0.2424
15911SOL    HW148783   5.667   7.398   4.108 -1.1827 -0.3023 -1.8649
15911SOL    HW248784   5.638   7.546   4.097  0.5485  0.1902 -0.3919
15912SOL     OW48785   4.269   3.217   0.560  0.1320 -0.1719  0.1177
15912SOL    HW148786   4.275   3.192   0.653  0.4192 -0.7829 -0.0597
15912SOL    HW248787   4.349   3.182   0.521 -0.4090 -0.7084 -0.5361
15913SOL     OW48788   3.734   2.951   4.654 -0.2037 -0.0443  0.0234
15913SOL    HW148789   3.702   3.009   4.723 -0.8706 -0.5302  0.1311
15913SOL    HW248790   3.812   2.910   4.691 -0.8328 -0.6660  0.6852
15914SOL     OW48791   5.058   6.076   2.228 -0.4682  0.5427 -0.0189
15914SOL    HW148792   5.017   6.147   2.277 -2.2495 -1.5902  1.7580
15914SOL    HW248793   5.044   6.100   2.136 -1.0069  2.4521  0.5076
15915SOL     OW48794   7.990   2.467   2.703  0.2659 -0.1145  0.0876
15915SOL    HW148795   7.997   2.376   2.674 -0.9167 -0.1316 -0.1583
15915SOL    HW248796   7.924   2.506   2.645  0.1132  0.6609  0.7737
15916SOL     OW48797   1.565   5.485   1.729 -0.2038  0.8625 -0.7251
15916SOL    HW148798   1.478   5.500   1.767 -0.9444 -1.9750 -1.0718
15916SOL    HW248799   1.603   5.415   1.781  1.4645  1.3281 -1.2518
15917SOL     OW48800   8.114   6.069   7.525 -0.1332 -0.1811 -0.2829
15917SOL    HW148801   8.030   6.027   7.507 -0.3248 -0.6270  1.4702
15917SOL    HW248802   8.142   6.105   7.441 -2.0687 -0.0388 -0.8954
15918SOL     OW48803   6.842   0.186   0.410 -0.8292  0.1790  1.0076
15918SOL    HW148804   6.784   0.230   0.349 -0.0876 -0.6542 -0.3523
15918SOL    HW248805   6.870   0.254   0.471 -1.0557  1.1946  0.0056
15919SOL     OW48806   7.055   5.484   6.502 -0.3048  0.2731 -0.6069
15919SOL    HW148807   6.977   5.473   6.447 -0.4513  0.5491 -0.4532
15919SOL    HW248808   7.027   5.542   6.572  0.1013  0.5432 -0.6682
15920SOL     OW48809   1.377   0.737   4.400  0.4062  0.3955 -0.0364
15920SOL    HW148810   1.282   0.733   4.404  0.4306 -1.6158 -0.4058
15920SOL    HW248811   1.396   0.818   4.353 -1.0602  1.4326  1.0897
15921SOL     OW48812   7.368   7.307   7.804 -0.1979  0.0807 -0.3834
15921SOL    HW148813   7.440   7.283   7.862 -0.2893 -1.0614 -0.7338
15921SOL    HW248814   7.390   7.395   7.774  1.4321 -0.5211 -1.0698
15922SOL     OW48815   6.480   5.034   5.096  0.0203 -0.4784  0.1990
15922SOL    HW148816   6.574   5.014   5.095  0.1219 -0.1142  1.0701
15922SOL    HW248817   6.474   5.116   5.145 -0.5913  0.4748 -1.3862
15923SOL     OW48818   1.070   3.517   1.018  0.5841  0.5242 -0.3191
15923SOL    HW148819   1.043   3.444   1.073  1.6875  0.6307  0.3880
15923SOL    HW248820   1.027   3.500   0.934  1.3690 -1.3477 -0.4090
15924SOL     OW48821   0.718   2.604   1.343 -0.0408  0.3215  0.4225
15924SOL    HW148822   0.713   2.664   1.418  0.8671  0.4132  0.4196
15924SOL    HW248823   0.796   2.632   1.295  0.7883 -1.2698  0.7822
15925SOL     OW48824   4.978   3.071   4.511 -0.2532  0.7032  0.0499
15925SOL    HW148825   4.884   3.084   4.528 -0.3679  1.0554 -0.7735
15925SOL    HW248826   4.982   3.053   4.417  0.6133  1.9927 -0.1894
15926SOL     OW48827   5.507   2.276   5.287 -0.4206  0.5591  0.4626
15926SOL    HW148828   5.596   2.268   5.322 -0.0893  0.1446 -0.4651
15926SOL    HW248829   5.466   2.344   5.341 -0.3932 -1.0178  2.6164
15927SOL     OW48830   4.532   4.110   5.508 -0.1353 -0.9649 -0.3542
15927SOL    HW148831   4.600   4.122   5.574  1.0548  4.4323 -2.0199
15927SOL    HW248832   4.579   4.077   5.431 -0.2541 -1.2193 -0.3185
15928SOL     OW48833   5.940   3.463   4.858  0.5070  0.1558  0.2234
15928SOL    HW148834   6.033   3.486   4.853  0.7291 -0.9159 -0.9248
15928SOL    HW248835   5.939   3.368   4.870 -0.4399  0.2343  0.8208
15929SOL     OW48836   1.461   2.199   7.807  0.3908 -0.5427 -0.4997
15929SOL    HW148837   1.383   2.159   7.768 -0.3026  0.2485  0.0283
15929SOL    HW248838   1.529   2.189   7.740 -0.1431 -1.2833 -0.9529
15930SOL     OW48839   0.019   7.299   2.810 -0.5610 -0.3585 -0.2900
15930SOL    HW148840   0.093   7.279   2.753 -0.5078 -0.6385 -0.1225
15930SOL    HW248841   0.019   7.395   2.816 -1.0131 -0.2807 -1.3373
15931SOL     OW48842   2.218   1.461   7.960 -0.4067 -0.6591 -0.2564
15931SOL    HW148843   2.292   1.446   8.019 -0.5235 -2.0271 -0.4243
15931SOL    HW248844   2.172   1.377   7.958 -0.8241 -0.4152 -1.7241
15932SOL     OW48845   5.255   0.142   7.982  0.3646 -0.1159 -0.2437
15932SOL    HW148846   5.189   0.088   7.936 -0.5153  0.9736 -0.2936
15932SOL    HW248847   5.250   0.114   8.073 -0.5917  0.3570 -0.1429
15933SOL     OW48848   4.646   2.599   8.075 -0.1611 -0.0960  0.0434
15933SOL    HW148849   4.653   2.504   8.082  2.0662  0.0408  0.3678
15933SOL    HW248850   4.571   2.613   8.017  0.6784 -2.1326 -1.6961
15934SOL     OW48851   6.832   6.302   3.055  0.0058 -1.0361  0.3444
15934SOL    HW148852   6.862   6.333   2.969  2.7814  0.1064  1.6190
15934SOL    HW248853   6.802   6.381   3.100  2.3372 -0.8607  1.7763
15935SOL     OW48854   4.620   2.789   5.905  0.0825 -0.3901 -0.8093
15935SOL    HW148855   4.525   2.801   5.911  0.3997  2.6579  0.1601
15935SOL    HW248856   4.633   2.742   5.823 -2.3209 -3.1889  0.2154
15936SOL     OW48857   3.424   5.919   2.901  0.0892  0.3641 -0.0627
15936SOL    HW148858   3.384   5.832   2.893 -1.2342  1.0569 -1.7279
15936SOL    HW248859   3.352   5.980   2.883  0.8999  1.8420  1.4353
15937SOL     OW48860   6.478   4.986   5.623  0.2954 -0.4279  0.3020
15937SOL    HW148861   6.455   5.052   5.558 -0.2714 -0.6924  0.2273
15937SOL    HW248862   6.435   5.016   5.703  1.8899  0.4868  0.8671
15938SOL     OW48863   3.841   5.755   0.772 -0.1833  0.0831 -0.0248
15938SOL    HW148864   3.799   5.681   0.727  1.0345 -0.6238 -0.0339
15938SOL    HW248865   3.770   5.816   0.788 -1.5967 -1.8455  1.5861
15939SOL     OW48866   7.443   0.410   3.048  0.2396 -0.1096  0.1274
15939SOL    HW148867   7.480   0.362   2.974 -2.6885 -2.3036 -0.0894
15939SOL    HW248868   7.458   0.352   3.124  0.2804  0.5711  0.6492
15940SOL     OW48869   3.952   7.252   2.428 -0.9332 -0.4807 -0.0950
15940SOL    HW148870   4.023   7.278   2.486 -0.3628 -1.4610 -0.3364
15940SOL    HW248871   3.873   7.283   2.472 -0.2986  2.4735 -0.8033
15941SOL     OW48872   3.979   7.630   4.645 -0.0844 -1.0307  0.1641
15941SOL    HW148873   4.037   7.614   4.570  0.7096  2.5723 -0.2244
15941SOL    HW248874   3.899   7.667   4.606 -0.4321 -0.8928  0.9762
15942SOL     OW48875   3.068   0.271   4.028  0.0773  0.0374 -0.5209
15942SOL    HW148876   3.077   0.366   4.030  1.0192 -0.0395 -0.7011
15942SOL    HW248877   3.030   0.252   3.942 -1.6232  0.3448  0.1158
15943SOL     OW48878   1.895   7.707   7.854  0.3510 -0.8105  0.4060
15943SOL    HW148879   1.973   7.682   7.805 -1.3783  0.3319 -3.3151
15943SOL    HW248880   1.828   7.643   7.828 -0.3757 -0.8688  2.2822
15944SOL     OW48881   5.046   5.892   5.348 -0.0778 -0.2468 -0.3059
15944SOL    HW148882   5.120   5.882   5.407 -1.4118 -0.7977  1.3629
15944SOL    HW248883   4.982   5.943   5.398 -1.1895 -0.5793 -1.3422
15945SOL     OW48884   4.761   4.361   4.076  0.2688 -0.1512 -0.6303
15945SOL    HW148885   4.820   4.356   4.001 -0.8572  1.5978 -1.6950
15945SOL    HW248886   4.684   4.310   4.050 -1.0771  2.2211 -1.7017
15946SOL     OW48887   7.010   0.846   7.688  0.0882 -0.5828 -0.4296
15946SOL    HW148888   6.941   0.908   7.666  0.7745  0.6688  0.7794
15946SOL    HW248889   6.981   0.805   7.769  2.2909  2.6625  2.2461
15947SOL     OW48890   7.872   6.274   7.101  0.2646 -0.5660 -0.1260
15947SOL    HW148891   7.927   6.333   7.152 -2.0012  1.4191  0.2012
15947SOL    HW248892   7.882   6.304   7.011 -1.6503  1.1545  0.1441
15948SOL     OW48893   6.170   4.670   4.919 -0.7633  0.6094  0.2967
15948SOL    HW148894   6.224   4.749   4.917  0.7184 -0.3613 -2.0517
15948SOL    HW248895   6.222   4.607   4.970  0.1456 -0.1475 -1.4888
15949SOL     OW48896   7.731   7.490   0.070 -0.2625  0.6142  0.3646
15949SOL    HW148897   7.816   7.450   0.087 -1.1973 -1.6719  0.0391
15949SOL    HW248898   7.685   7.487   0.154 -0.9606 -0.6654 -0.0360
15950SOL     OW48899   3.741   0.431   6.720  0.2501 -0.5275  0.3378
15950SOL    HW148900   3.819   0.461   6.765  0.9623 -0.7076 -0.7257
15950SOL    HW248901   3.756   0.453   6.628 -1.1750 -0.1101  0.1686
15951SOL     OW48902   6.448   4.975   0.672  0.1283 -0.2138 -0.2635
15951SOL    HW148903   6.392   4.898   0.682  0.0152 -0.7352 -3.6646
15951SOL    HW248904   6.390   5.043   0.637  0.9258  0.2819 -0.6600
15952SOL     OW48905   1.753   5.155   1.561  0.1114 -0.0591 -0.1253
15952SOL    HW148906   1.709   5.119   1.484  0.7790  0.0791 -0.5749
15952SOL    HW248907   1.717   5.106   1.634 -2.0068  1.1268 -0.2879
15953SOL     OW48908   1.004   6.971   4.578 -0.1715  0.4545 -0.1828
15953SOL    HW148909   1.020   7.019   4.659  0.6638 -1.4801  0.8837
15953SOL    HW248910   1.059   7.014   4.512  0.0414  1.3315  0.5538
15954SOL     OW48911   1.681   4.697   6.204  0.1395  0.0277  0.8766
15954SOL    HW148912   1.611   4.761   6.191 -0.7325 -0.3630  3.1803
15954SOL    HW248913   1.647   4.639   6.272  0.8981 -2.9385 -1.1285
15955SOL     OW48914   1.450   7.329   1.951 -0.5512 -0.3239 -0.1802
15955SOL    HW148915   1.500   7.388   1.895  1.1915  0.6572  2.2192
15955SOL    HW248916   1.359   7.352   1.935 -0.0605  0.7879 -1.6263
15956SOL     OW48917   3.344   3.160   2.793 -0.7629  0.7200  0.5597
15956SOL    HW148918   3.366   3.252   2.776  0.0610  0.6279  1.0761
15956SOL    HW248919   3.292   3.163   2.874  0.5603  0.6204  1.4537
15957SOL     OW48920   8.151   6.556   8.116 -0.2736  0.1507 -0.2049
15957SOL    HW148921   8.095   6.634   8.113  0.3409  0.6710  0.9782
15957SOL    HW248922   8.170   6.537   8.024 -0.5093  1.3517 -0.5261
15958SOL     OW48923   7.796   7.588   1.089 -0.1743 -0.2069  0.0896
15958SOL    HW148924   7.724   7.644   1.058 -0.5024 -0.8951 -0.4222
15958SOL    HW248925   7.798   7.602   1.184 -0.8153  0.0196  0.0771
15959SOL     OW48926   2.819   1.763   4.215 -0.2173 -0.2078 -0.2608
15959SOL    HW148927   2.730   1.799   4.214  0.3913  1.5227  1.7315
15959SOL    HW248928   2.876   1.840   4.210  1.1943 -1.2809 -1.3105
15960SOL     OW48929   1.237   5.328   2.956  0.1183  0.2527  0.0138
15960SOL    HW148930   1.286   5.356   2.879 -0.8507  0.3181 -0.6023
15960SOL    HW248931   1.146   5.351   2.936 -1.1103 -4.4105 -1.1919
15961SOL     OW48932   6.612   0.298   7.184  0.1026  0.2399 -0.3369
15961SOL    HW148933   6.632   0.218   7.134 -1.6136 -0.3381 -0.1606
15961SOL    HW248934   6.593   0.364   7.118  0.1383  0.1219 -0.4659
15962SOL     OW48935   6.315   1.356   5.376  0.1681 -0.4310  0.1176
15962SOL    HW148936   6.330   1.387   5.465 -0.5264  0.1586  0.0368
15962SOL    HW248937   6.223   1.327   5.376 -1.0713  3.0358 -1.3482
15963SOL     OW48938   7.285   3.275   4.883  0.2151  0.3828  0.2659
15963SOL    HW148939   7.332   3.254   4.803  0.8065  0.2521  0.6419
15963SOL    HW248940   7.332   3.350   4.920  0.0162  0.3723  0.5466
15964SOL     OW48941   2.195   1.132   1.008  0.3909  0.2410 -0.1992
15964SOL    HW148942   2.172   1.153   0.918 -0.2532  0.9963  0.1295
15964SOL    HW248943   2.143   1.193   1.061  2.7030  1.6038  0.6147
15965SOL     OW48944   5.985   5.470   6.160  0.1489  0.6126 -0.2079
15965SOL    HW148945   5.958   5.558   6.184  1.5238  0.8751  0.4984
15965SOL    HW248946   5.993   5.424   6.243 -1.0707 -0.3633 -0.5985
15966SOL     OW48947   0.365   5.548   6.675  0.6076 -0.0080 -0.6159
15966SOL    HW148948   0.449   5.524   6.714  0.3707  2.0431  1.3649
15966SOL    HW248949   0.378   5.539   6.581  2.4197 -1.5408 -0.2648
15967SOL     OW48950   5.974   7.707   6.706 -0.7793 -0.5733 -0.6879
15967SOL    HW148951   5.974   7.713   6.801  0.6395 -0.8416 -0.6474
15967SOL    HW248952   6.066   7.694   6.683 -0.9241  0.7533 -2.1754
15968SOL     OW48953   2.602   3.034   3.265 -0.2963 -0.4680 -0.1175
15968SOL    HW148954   2.545   3.105   3.236  0.2297 -0.4903 -1.2336
15968SOL    HW248955   2.542   2.968   3.300 -0.7946  0.4764  0.8643
15969SOL     OW48956   0.800   1.460   4.978  0.0453  0.2284 -0.5727
15969SOL    HW148957   0.774   1.485   5.066  0.1763  1.8836 -0.9843
15969SOL    HW248958   0.875   1.401   4.991 -1.0577 -1.0154  0.4502
15970SOL     OW48959   3.128   1.041   4.740  0.6922 -0.4684  0.1545
15970SOL    HW148960   3.220   1.048   4.715  1.0439  2.7823  1.7894
15970SOL    HW248961   3.128   1.059   4.834 -1.6209 -0.4259  0.1944
15971SOL     OW48962   3.447   6.196   3.210  0.0525  0.4485 -0.1392
15971SOL    HW148963   3.429   6.146   3.131 -2.4259  0.5298  0.2834
15971SOL    HW248964   3.535   6.231   3.197 -0.3130  0.5673 -2.9217
15972SOL     OW48965   6.306   3.920   5.923 -0.2634  0.0730 -0.4627
15972SOL    HW148966   6.264   3.869   5.854 -0.4149  0.8148 -0.9410
15972SOL    HW248967   6.400   3.905   5.910 -0.3174 -0.3578 -0.3722
15973SOL     OW48968   0.754   5.808   1.650  0.8254 -0.0799  0.6324
15973SOL    HW148969   0.705   5.825   1.731 -0.8775 -2.8923  0.3233
15973SOL    HW248970   0.694   5.758   1.596  2.9351 -0.7675 -1.2071
15974SOL     OW48971   3.699   4.564   3.802 -0.2249 -0.1430 -0.4487
15974SOL    HW148972   3.748   4.638   3.838 -0.5857  0.4514 -1.1360
15974SOL    HW248973   3.765   4.496   3.788  0.3790  0.5579 -1.1181
15975SOL     OW48974   0.780   2.139   6.407  0.0541  0.2959 -0.2223
15975SOL    HW148975   0.701   2.129   6.354  0.2074 -2.0036 -0.1059
15975SOL    HW248976   0.756   2.102   6.492  1.0470  0.1840  0.0189
15976SOL     OW48977   6.663   4.528   5.139 -0.4026  0.0489  0.1773
15976SOL    HW148978   6.669   4.587   5.063 -2.5425  1.3832  0.9751
15976SOL    HW248979   6.703   4.447   5.108  1.9207  1.5885 -1.2403
15977SOL     OW48980   3.745   4.179   4.584 -0.0090  0.0384  0.0750
15977SOL    HW148981   3.739   4.196   4.490 -1.2119 -0.4793  0.0411
15977SOL    HW248982   3.754   4.265   4.624  1.4121  0.2103 -0.5557
15978SOL     OW48983   4.629   4.123   0.138  0.4602  0.2672 -0.2940
15978SOL    HW148984   4.568   4.189   0.173  0.6930 -0.5171  1.7494
15978SOL    HW248985   4.622   4.132   0.043 -0.7460  2.0988 -0.0946
15979SOL     OW48986   2.262   6.576   6.753  0.2353  0.7284  0.2928
15979SOL    HW148987   2.306   6.494   6.777  1.5496  1.2327 -0.2982
15979SOL    HW248988   2.313   6.644   6.797 -0.8547  1.2505  0.7917
15980SOL     OW48989   3.766   4.135   4.331 -0.6811  0.3118  0.0259
15980SOL    HW148990   3.781   4.170   4.243  4.1345 -0.2226  0.3863
15980SOL    HW248991   3.758   4.040   4.318 -0.3775  0.2721  0.1271
15981SOL     OW48992   5.418   1.920   3.521  0.1233 -0.6932  0.4515
15981SOL    HW148993   5.415   1.967   3.605 -1.5675 -2.1762  1.2749
15981SOL    HW248994   5.453   1.985   3.459 -2.9720  2.0644  1.3085
15982SOL     OW48995   2.290   7.546   6.642 -0.2160  0.0779 -0.2465
15982SOL    HW148996   2.224   7.481   6.618  1.2306 -1.9157  0.9001
15982SOL    HW248997   2.360   7.533   6.579 -0.4803  1.5505 -0.8858
15983SOL     OW48998   7.796   6.849   6.642  0.4419 -0.1579  0.5928
15983SOL    HW148999   7.860   6.811   6.702  0.8192 -1.1057 -0.3749
15983SOL    HW249000   7.735   6.778   6.624 -0.8820  0.7244  1.4656
15984SOL     OW49001   3.940   8.027   5.166 -0.9659  0.3928  0.0600
15984SOL    HW149002   3.906   7.986   5.086  0.0022 -0.8143  0.2311
15984SOL    HW249003   4.031   8.047   5.146 -1.4639  2.7640 -0.0833
15985SOL     OW49004   4.411   3.779   7.136  0.3036  0.3629 -0.0116
15985SOL    HW149005   4.467   3.804   7.209  1.9144 -0.4344 -0.9162
15985SOL    HW249006   4.326   3.759   7.176  0.4137  2.2546  1.3260
15986SOL     OW49007   0.142   1.380   7.208 -0.0516 -0.2924 -0.4572
15986SOL    HW149008   0.158   1.438   7.133 -0.3363  0.2475 -0.1056
15986SOL    HW249009   0.075   1.425   7.260  1.4056  0.2585  1.0714
15987SOL     OW49010   0.083   3.162   4.435 -0.5739  0.0717 -0.0912
15987SOL    HW149011   0.142   3.097   4.472 -1.0685 -0.2065  0.2211
15987SOL    HW249012   0.045   3.206   4.511 -1.0382  0.0050 -0.2834
15988SOL     OW49013   8.094   3.544   2.978 -0.5463 -0.5592 -0.7306
15988SOL    HW149014   8.175   3.495   2.972 -0.6316 -0.7958 -0.1054
15988SOL    HW249015   8.028   3.479   3.002 -0.2040  0.1660  2.7814
15989SOL     OW49016   8.054   6.805   0.468 -0.0059 -0.3472  0.2434
15989SOL    HW149017   7.965   6.840   0.462 -0.0574 -0.6877 -1.9231
15989SOL    HW249018   8.043   6.716   0.502 -0.3330  0.0493  1.2220
15990SOL     OW49019   2.575   4.457   3.646 -0.0794 -0.2376  0.3137
15990SOL    HW149020   2.617   4.538   3.618 -1.0214  0.2276  0.2118
15990SOL    HW249021   2.647   4.395   3.657  0.4698 -0.0815 -1.9220
15991SOL     OW49022   6.060   4.619   5.562  1.1172  0.3581  0.1515
15991SOL    HW149023   6.136   4.678   5.566  1.3660  0.0091  0.7080
15991SOL    HW249024   6.091   4.544   5.512  0.8367  0.6367 -0.4512
15992SOL     OW49025   4.519   0.164   3.143  0.6285 -0.0291  1.0010
15992SOL    HW149026   4.490   0.223   3.213 -0.1341  0.8449 -0.0129
15992SOL    HW249027   4.572   0.220   3.085 -0.6996 -0.1258 -0.3608
15993SOL     OW49028   4.266   5.829   8.211 -0.5006 -0.4388  0.1924
15993SOL    HW149029   4.189   5.873   8.177  0.5203  0.9541 -0.3958
15993SOL    HW249030   4.304   5.891   8.274  1.9085  0.3884 -1.8978
15994SOL     OW49031   7.817   1.315   1.524  0.2435 -1.0412  0.2005
15994SOL    HW149032   7.807   1.264   1.604 -1.0133 -0.2766  0.5503
15994SOL    HW249033   7.876   1.386   1.549  0.2033 -1.0499  0.3228
15995SOL     OW49034   4.700   8.049   3.591 -0.4375  0.2613 -0.0406
15995SOL    HW149035   4.736   8.133   3.619  2.7733 -1.4419  1.4382
15995SOL    HW249036   4.611   8.048   3.627  0.0411  2.3341  1.3649
15996SOL     OW49037   2.858   1.951   5.340  0.2995  0.2914 -0.1649
15996SOL    HW149038   2.813   2.019   5.290 -2.0965  0.7550  2.3586
15996SOL    HW249039   2.900   1.896   5.274 -2.2713  1.0535 -2.6230
15997SOL     OW49040   4.533   2.567   3.883 -0.5579  0.0862 -0.5071
15997SOL    HW149041   4.520   2.600   3.794 -1.9833  0.8613 -0.0472
15997SOL    HW249042   4.603   2.503   3.875  1.4122  2.2345 -1.6966
15998SOL     OW49043   7.507   4.236   3.648 -0.4082  0.0832  0.0861
15998SOL    HW149044   7.428   4.219   3.596 -2.1403  2.1125  1.8440
15998SOL    HW249045   7.579   4.221   3.587 -2.0499 -2.6345 -1.3804
15999SOL     OW49046   1.065   3.626   7.775  0.3435 -0.0566 -0.1706
15999SOL    HW149047   1.007   3.557   7.744 -0.0721  0.7014 -1.1461
15999SOL    HW249048   1.011   3.680   7.833 -0.6983  1.9433 -2.7841
16000SOL     OW49049   6.735   3.087   4.149 -0.7166 -0.4314  0.0540
16000SOL    HW149050   6.720   3.179   4.173  0.4140 -0.4677  0.9794
16000SOL    HW249051   6.702   3.079   4.060 -0.1479  1.0565 -0.3079
16001SOL     OW49052   8.104   1.196   3.964 -0.2414 -0.1071 -0.0731
16001SOL    HW149053   8.066   1.130   3.907 -1.5217  0.6221 -0.1109
16001SOL    HW249054   8.048   1.195   4.042 -0.3089  0.9394 -0.0931
16002SOL     OW49055   0.933   3.611   6.428 -0.2823 -0.1113 -0.1993
16002SOL    HW149056   0.950   3.657   6.510  0.6558 -1.2299  0.2608
16002SOL    HW249057   0.931   3.680   6.362 -1.1760  0.8213  0.7681
16003SOL     OW49058   6.184   1.107   5.841 -0.1764  0.2570 -0.0011
16003SOL    HW149059   6.157   1.195   5.815 -1.5084 -0.4715 -1.2494
16003SOL    HW249060   6.244   1.120   5.914 -1.2085  2.1551  0.5545
16004SOL     OW49061   3.543   0.931   3.575 -0.3445 -0.3088  0.0069
16004SOL    HW149062   3.596   1.011   3.579  1.4977 -1.4939  1.4841
16004SOL    HW249063   3.580   0.881   3.502 -3.4062  1.2831 -2.9223
16005SOL     OW49064   6.496   3.337   5.969  0.1322  0.2248  0.0064
16005SOL    HW149065   6.454   3.281   6.033 -0.3342  2.0105  1.3249
16005SOL    HW249066   6.428   3.398   5.941  0.9159  0.8754 -0.5354
16006SOL     OW49067   3.853   8.070   7.213  0.3229 -0.2912 -0.2957
16006SOL    HW149068   3.798   7.998   7.244  0.2989 -0.7582 -1.3983
16006SOL    HW249069   3.800   8.149   7.227 -1.2435 -0.8462 -2.6323
16007SOL     OW49070   0.468   0.832   0.614 -0.6423 -0.0144  0.1882
16007SOL    HW149071   0.437   0.796   0.531  0.8188 -2.4349  0.6000
16007SOL    HW249072   0.563   0.820   0.613 -0.6912 -1.4770  2.7557
16008SOL     OW49073   3.766   3.158   6.350 -0.3630  0.2460  0.0123
16008SOL    HW149074   3.735   3.233   6.300  0.1750 -1.6222 -3.4216
16008SOL    HW249075   3.856   3.144   6.321 -0.4141 -1.6544  0.5767
16009SOL     OW49076   2.085   3.352   4.706  0.0320  0.4715 -0.2257
16009SOL    HW149077   2.003   3.384   4.743 -0.6029 -2.2873  1.0099
16009SOL    HW249078   2.076   3.365   4.611 -3.2246 -2.4512 -0.4968
16010SOL     OW49079   0.444   2.858   1.503  0.3511  0.0995  0.4770
16010SOL    HW149080   0.529   2.840   1.542  1.1657  1.5444 -0.5513
16010SOL    HW249081   0.381   2.815   1.561  1.9033 -3.9360 -0.4799
16011SOL     OW49082   7.944   3.638   7.778 -0.3931  0.1789  0.2206
16011SOL    HW149083   7.926   3.685   7.860 -0.4673 -0.5639  0.6361
16011SOL    HW249084   7.859   3.605   7.750 -0.5548  1.3302 -0.7397
16012SOL     OW49085   3.411   3.780   1.979  0.2795 -0.4367 -0.0463
16012SOL    HW149086   3.429   3.867   2.014 -0.3210 -1.4212  2.9698
16012SOL    HW249087   3.319   3.785   1.952  0.8325  0.4192 -2.0022
16013SOL     OW49088   1.782   6.356   3.656 -0.1954 -0.2677 -0.5036
16013SOL    HW149089   1.812   6.332   3.743  0.4667  0.5750 -0.4764
16013SOL    HW249090   1.724   6.431   3.670  0.9047  0.6907 -0.8514
16014SOL     OW49091   0.791   5.178   2.560 -0.4573  0.5933 -0.5130
16014SOL    HW149092   0.793   5.252   2.621  1.1877 -0.1712  0.4391
16014SOL    HW249093   0.787   5.101   2.617 -0.6409 -0.0878 -1.4357
16015SOL     OW49094   0.704   2.162   5.784 -0.0932  0.0745  0.3489
16015SOL    HW149095   0.691   2.186   5.876  1.1552 -0.2223  0.6269
16015SOL    HW249096   0.785   2.208   5.760  0.7626 -1.5315  0.0435
16016SOL     OW49097   4.992   1.162   3.869 -0.3466 -0.3948 -0.1160
16016SOL    HW149098   4.975   1.100   3.940  0.5250 -0.5578 -0.0377
16016SOL    HW249099   5.047   1.114   3.808  0.9754  0.5216  0.3065
16017SOL     OW49100   2.227   7.018   4.821 -0.2654  0.0804 -0.4840
16017SOL    HW149101   2.224   7.080   4.749  0.3912  0.2648 -0.3591
16017SOL    HW249102   2.193   6.936   4.784  1.3833 -0.2155 -1.4161
16018SOL     OW49103   6.537   2.943   4.577 -0.1991  0.0948 -0.0746
16018SOL    HW149104   6.584   2.941   4.493  0.6933  0.4641  0.4057
16018SOL    HW249105   6.605   2.943   4.643 -0.9174 -2.2110  0.7394
16019SOL     OW49106   3.334   5.701   0.651  0.1672 -0.6071 -0.1481
16019SOL    HW149107   3.400   5.706   0.582 -0.1251 -1.6917 -0.5134
16019SOL    HW249108   3.334   5.789   0.690 -0.0836  0.2188 -1.9068
16020SOL     OW49109   5.569   2.967   2.685  0.2068 -0.0284 -0.1065
16020SOL    HW149110   5.475   2.982   2.698  0.3055  0.0779  0.4936
16020SOL    HW249111   5.612   3.030   2.743  0.6543 -0.0080 -0.4516
16021SOL     OW49112   5.719   4.619   3.997  0.9598  0.4396  0.2884
16021SOL    HW149113   5.730   4.708   4.032 -0.3324  0.3613  0.9454
16021SOL    HW249114   5.775   4.564   4.052 -0.6470  0.3968  1.9552
16022SOL     OW49115   7.526   6.946   2.408 -0.0695 -0.2232  0.5386
16022SOL    HW149116   7.584   7.015   2.374  0.1231 -0.3823  0.5368
16022SOL    HW249117   7.580   6.899   2.472 -0.2403 -0.2928  0.6312
16023SOL     OW49118   6.703   2.906   1.165 -0.1084 -0.2507 -0.2533
16023SOL    HW149119   6.662   2.921   1.080  1.1785  0.8960 -0.7157
16023SOL    HW249120   6.707   2.993   1.205  1.4086 -0.4050 -0.0326
16024SOL     OW49121   4.094   2.785   5.992  0.1361  0.1809  0.5304
16024SOL    HW149122   4.079   2.777   6.087 -2.1818 -0.1039  0.1832
16024SOL    HW249123   4.058   2.704   5.956  1.4886  0.0394 -0.5898
16025SOL     OW49124   1.849   1.943   6.426  0.1004 -0.1349  0.1472
16025SOL    HW149125   1.827   2.006   6.358  1.7200 -0.6094 -0.8507
16025SOL    HW249126   1.773   1.884   6.430 -0.4280  0.4910 -0.5293
16026SOL     OW49127   4.396   6.249   0.768 -0.3768  0.0570  0.1242
16026SOL    HW149128   4.437   6.319   0.717  1.4595 -1.1784 -0.1681
16026SOL    HW249129   4.413   6.170   0.718 -0.1167 -0.9511  1.7535
16027SOL     OW49130   1.596   7.021   0.560 -0.0738 -0.1679 -0.1105
16027SOL    HW149131   1.683   7.020   0.598 -0.0603  0.1622 -0.1287
16027SOL    HW249132   1.589   6.938   0.512  0.6349  0.2736 -1.0071
16028SOL     OW49133   3.788   6.197   0.226  0.0027  0.0075 -0.0166
16028SOL    HW149134   3.867   6.159   0.187  1.0456  1.2351  0.8039
16028SOL    HW249135   3.748   6.247   0.155  0.4863  0.1296 -0.2097
16029SOL     OW49136   5.545   4.624   1.450 -0.2222 -0.4796  0.7445
16029SOL    HW149137   5.475   4.658   1.505  0.3530  2.2675 -0.0397
16029SOL    HW249138   5.507   4.621   1.362  0.7384  1.8212  0.1620
16030SOL     OW49139   0.798   4.602   6.652  0.3633 -0.0777 -0.0754
16030SOL    HW149140   0.789   4.669   6.720  0.2140 -1.8308  1.7249
16030SOL    HW249141   0.856   4.642   6.587 -1.3130  2.5514 -0.1437
16031SOL     OW49142   3.546   2.140   1.710 -0.5150  0.0045  0.0033
16031SOL    HW149143   3.587   2.177   1.632  0.5579  0.7800  0.9076
16031SOL    HW249144   3.565   2.204   1.779 -3.1259  0.3352  0.5163
16032SOL     OW49145   7.009   6.551   1.765  0.2155  0.0185 -0.3315
16032SOL    HW149146   6.966   6.531   1.847  0.3588  2.0829  0.2959
16032SOL    HW249147   7.096   6.584   1.790  0.1130  1.0606 -1.2602
16033SOL     OW49148   2.407   6.460   0.208  0.1997 -0.2674  0.6253
16033SOL    HW149149   2.414   6.474   0.113  2.5739 -1.4466  0.5507
16033SOL    HW249150   2.439   6.542   0.247  1.2576 -0.5222  0.3422
16034SOL     OW49151   7.081   1.785   1.607 -0.4433 -0.1207  0.1628
16034SOL    HW149152   7.054   1.783   1.516 -0.1501  0.8273  0.0464
16034SOL    HW249153   7.000   1.774   1.657 -1.0279  2.1284 -0.1926
16035SOL     OW49154   0.299   6.516   3.106 -0.2896  0.4339 -0.3567
16035SOL    HW149155   0.376   6.568   3.127 -1.0461  0.9452  1.2401
16035SOL    HW249156   0.228   6.554   3.158 -0.7054 -2.6542  1.5763
16036SOL     OW49157   0.472   3.506   4.320  0.0392  0.0098 -0.2174
16036SOL    HW149158   0.549   3.458   4.350  0.2578  0.2170 -0.4392
16036SOL    HW249159   0.410   3.439   4.292 -1.0844 -0.3319  2.7671
16037SOL     OW49160   6.438   1.046   3.309  0.0466 -0.0918 -0.6427
16037SOL    HW149161   6.389   0.992   3.370  1.5749 -1.3702 -0.4699
16037SOL    HW249162   6.379   1.118   3.287 -0.9941 -0.2642  1.3580
16038SOL     OW49163   2.570   2.393   2.951  0.4591 -0.3801 -1.0662
16038SOL    HW149164   2.564   2.303   2.981 -0.4549  0.5672  1.8684
16038SOL    HW249165   2.637   2.432   3.007 -0.8171  1.3181 -0.6474
16039SOL     OW49166   7.976   7.388   1.090 -0.4986  0.1860  0.1258
16039SOL    HW149167   7.924   7.468   1.086  2.1013  2.0274  0.9172
16039SOL    HW249168   7.965   7.356   1.179 -0.3989  0.4992  0.2523
16040SOL     OW49169   3.749   1.376   0.551 -0.2688 -0.1083  0.6666
16040SOL    HW149170   3.717   1.364   0.640  0.4387  1.0145  1.0820
16040SOL    HW249171   3.760   1.286   0.518 -1.0308 -0.5285  1.5122
16041SOL     OW49172   5.147   0.013   7.754  0.5194 -0.0851  0.8311
16041SOL    HW149173   5.059   0.042   7.730  0.1080 -1.7608  0.1543
16041SOL    HW249174   5.206   0.071   7.706 -0.2606 -0.6447 -0.8708
16042SOL     OW49175   1.193   0.835   2.635 -0.1590  0.6503  0.5735
16042SOL    HW149176   1.152   0.894   2.571 -1.6041 -1.4459 -0.5860
16042SOL    HW249177   1.275   0.808   2.594  0.5181  1.8061  1.1184
16043SOL     OW49178   1.362   0.409   3.624 -0.5593 -0.4323  0.3415
16043SOL    HW149179   1.301   0.367   3.563 -0.4861  1.5899 -1.2220
16043SOL    HW249180   1.306   0.453   3.687 -0.7345  0.4064 -0.3782
16044SOL     OW49181   7.283   0.960   2.379  0.0581  0.2684  0.3293
16044SOL    HW149182   7.377   0.976   2.383 -0.1564  1.9279 -0.4000
16044SOL    HW249183   7.264   0.947   2.286 -0.5073  0.5506  0.3975
16045SOL     OW49184   6.245   5.511   7.069 -0.1093  0.0068  0.3901
16045SOL    HW149185   6.290   5.429   7.049  1.2044  0.7719  0.0382
16045SOL    HW249186   6.242   5.558   6.985 -0.5524  0.4495  0.6477
16046SOL     OW49187   1.604   0.998   4.397 -0.0539 -0.7133  0.3663
16046SOL    HW149188   1.687   1.044   4.406 -1.1612  1.3071  0.9423
16046SOL    HW249189   1.559   1.014   4.480 -1.9183  0.1939 -0.7513
16047SOL     OW49190   4.217   6.385   0.079  0.1429  0.1996  0.5851
16047SOL    HW149191   4.274   6.460   0.098  0.9804 -0.5543  1.1744
16047SOL    HW249192   4.223   6.330   0.158  0.0223 -0.7636 -0.0561
16048SOL     OW49193   6.671   5.076   7.220 -0.3280  0.7331 -0.1037
16048SOL    HW149194   6.680   4.982   7.208  0.9519  0.9694 -1.2343
16048SOL    HW249195   6.748   5.101   7.270  0.4712  1.4538 -1.6248
16049SOL     OW49196   1.292   5.002   6.326 -0.0969 -0.2415  0.5202
16049SOL    HW149197   1.292   5.094   6.300 -1.1829  0.2093  1.9247
16049SOL    HW249198   1.216   4.964   6.281  0.1843 -0.3891  0.1651
16050SOL     OW49199   4.470   2.306   1.829 -0.1240 -0.6952 -0.1914
16050SOL    HW149200   4.381   2.273   1.838  0.5615 -2.2737  1.3386
16050SOL    HW249201   4.526   2.229   1.840  1.4496  0.3295 -0.6752
16051SOL     OW49202   0.834   6.826   6.198  0.1215  0.3039  0.2736
16051SOL    HW149203   0.836   6.807   6.291  0.8598 -0.4975  0.1094
16051SOL    HW249204   0.748   6.796   6.169 -0.4990  1.4705  0.8704
16052SOL     OW49205   1.826   1.757   4.477 -0.1680 -0.3738 -0.0942
16052SOL    HW149206   1.900   1.816   4.490  1.0330 -1.7883 -0.2085
16052SOL    HW249207   1.757   1.791   4.534  0.8966  0.4240  0.7572
16053SOL     OW49208   4.464   1.880   7.084 -0.3069 -0.3795 -0.3168
16053SOL    HW149209   4.423   1.794   7.087  0.5390 -0.7548  1.5230
16053SOL    HW249210   4.548   1.869   7.127 -0.3546  1.4475  0.3398
16054SOL     OW49211   3.770   5.474   7.494  0.3087  0.6734  0.6155
16054SOL    HW149212   3.855   5.483   7.452  0.8283 -0.6599  1.3178
16054SOL    HW249213   3.773   5.537   7.567  1.6658 -0.9568  2.0706
16055SOL     OW49214   5.270   3.549   2.281 -0.0620 -0.1928  0.0076
16055SOL    HW149215   5.293   3.480   2.219 -1.2351  1.2363 -2.1281
16055SOL    HW249216   5.355   3.582   2.313  0.5209 -2.1293  0.6125
16056SOL     OW49217   2.079   2.128   0.900  0.4531 -0.0037 -0.0404
16056SOL    HW149218   2.147   2.196   0.909 -0.4261  1.2126 -1.8898
16056SOL    HW249219   2.128   2.046   0.899  2.0465  0.8671 -2.0039
16057SOL     OW49220   7.562   5.900   4.051 -0.3297 -0.3019 -0.0126
16057SOL    HW149221   7.488   5.910   4.110  0.2897  0.3435  0.6743
16057SOL    HW249222   7.639   5.921   4.104  0.4067 -1.4619 -0.5624
16058SOL     OW49223   2.787   4.557   2.179  0.0331  0.5847 -0.8960
16058SOL    HW149224   2.697   4.523   2.179  0.7808 -1.6152 -0.0423
16058SOL    HW249225   2.784   4.631   2.239 -0.9619 -0.3481  0.2848
16059SOL     OW49226   6.040   3.181   2.130  0.5714 -0.0973  0.1972
16059SOL    HW149227   6.040   3.192   2.225  0.8264  1.4842  0.0262
16059SOL    HW249228   6.129   3.151   2.110  0.3618 -0.9681  0.4868
16060SOL     OW49229   6.120   4.157   1.715 -0.4458 -0.2585 -0.2998
16060SOL    HW149230   6.096   4.098   1.786  1.0137 -0.2911  0.1974
16060SOL    HW249231   6.138   4.241   1.759 -0.1081 -0.1228 -0.6930
16061SOL     OW49232   1.785   0.035   4.187  0.2602 -0.6446 -0.0545
16061SOL    HW149233   1.764   0.084   4.108 -0.2276 -1.8701 -0.7134
16061SOL    HW249234   1.769   0.096   4.259 -1.1425 -0.0957 -0.7945
16062SOL     OW49235   3.967   5.943   2.641 -0.2584 -0.0129  0.3748
16062SOL    HW149236   3.916   5.869   2.609  0.1419 -0.0625 -0.1608
16062SOL    HW249237   4.050   5.904   2.671 -0.3837  0.1109  0.9045
16063SOL     OW49238   6.005   4.465   1.287  0.0993 -0.4146 -0.3250
16063SOL    HW149239   5.960   4.480   1.204  0.4823 -0.6523 -0.5770
16063SOL    HW249240   5.970   4.382   1.319 -0.1640 -0.2446 -0.1699
16064SOL     OW49241   2.059   0.309   7.776  0.0765  0.0596  0.2040
16064SOL    HW149242   2.100   0.381   7.728  0.0860 -0.1899 -0.1627
16064SOL    HW249243   2.106   0.307   7.860  0.0819  0.4738  0.2135
16065SOL     OW49244   5.500   6.517   1.641 -0.4031 -0.9994 -0.2992
16065SOL    HW149245   5.521   6.609   1.625 -0.1479 -0.7212  1.4306
16065SOL    HW249246   5.405   6.517   1.654 -0.2556 -0.7526  0.9091
16066SOL     OW49247   7.585   6.055   2.706  0.5138  0.6274 -0.3202
16066SOL    HW149248   7.616   6.099   2.626  2.5039 -1.5906 -0.8855
16066SOL    HW249249   7.664   6.015   2.743 -0.0724  2.6994  3.6147
16067SOL     OW49250   3.850   8.044   3.030  0.0756 -1.3623  0.3318
16067SOL    HW149251   3.943   8.054   3.051 -0.2007 -0.0649  1.0218
16067SOL    HW249252   3.805   8.067   3.111 -0.9393  1.2843 -0.8907
16068SOL     OW49253   2.703   5.192   1.865  0.1667 -0.5647  0.1200
16068SOL    HW149254   2.733   5.265   1.811  2.7753  1.3957  3.7706
16068SOL    HW249255   2.640   5.230   1.926 -0.9622 -2.1503  0.0036
16069SOL     OW49256   1.640   2.610   1.402 -0.2491  0.1545  0.5248
16069SOL    HW149257   1.587   2.681   1.437 -1.8424 -1.5136  1.6741
16069SOL    HW249258   1.668   2.560   1.480  1.7188  0.0774 -0.1655
16070SOL     OW49259   2.522   0.113   6.986 -0.3641 -1.0301  0.0822
16070SOL    HW149260   2.504   0.019   6.983 -0.4369 -1.1178  2.1432
16070SOL    HW249261   2.442   0.151   7.022  0.2457 -0.3632  0.7568
16071SOL     OW49262   0.000   7.832   2.831  0.0627  0.4764 -0.0138
16071SOL    HW149263  -0.082   7.877   2.813  0.6045  0.9931 -1.3166
16071SOL    HW249264   0.066   7.879   2.780  1.2184  0.1970  1.1596
16072SOL     OW49265   1.315   5.572   4.306 -0.1887  0.0562  0.2075
16072SOL    HW149266   1.222   5.594   4.308 -0.5263 -1.0137 -1.5795
16072SOL    HW249267   1.360   5.654   4.328 -1.5283  0.4457  1.7047
16073SOL     OW49268   0.893   4.470   5.347 -0.0858  0.3609  0.0862
16073SOL    HW149269   0.921   4.382   5.371  1.0483  1.2817  2.4375
16073SOL    HW249270   0.813   4.457   5.296  0.7952 -2.0582 -0.8336
16074SOL     OW49271   2.044   2.000   5.484  0.0539 -0.1771 -0.2928
16074SOL    HW149272   1.998   1.951   5.552  0.6894 -1.2908 -0.6373
16074SOL    HW249273   1.978   2.018   5.418 -0.0327 -1.3222 -0.5447
16075SOL     OW49274   3.506   3.611   2.988 -0.5948  0.1975 -0.5059
16075SOL    HW149275   3.509   3.701   3.020  0.9711  0.4521 -1.2946
16075SOL    HW249276   3.567   3.609   2.914  0.2747 -1.7748  0.1845
16076SOL     OW49277   2.114   5.167   3.054 -0.4379 -0.0300  0.6992
16076SOL    HW149278   2.176   5.156   3.125 -0.5503  0.4623  0.8762
16076SOL    HW249279   2.040   5.214   3.094  0.0272  1.3519 -0.0321
16077SOL     OW49280   1.490   1.902   4.303  0.4547  0.0314  0.3257
16077SOL    HW149281   1.488   1.820   4.352 -2.0438 -2.3224 -3.2435
16077SOL    HW249282   1.577   1.904   4.262 -0.1279 -2.0792 -1.1980
16078SOL     OW49283   6.372   0.248   6.672 -0.8732  0.6993 -0.3680
16078SOL    HW149284   6.304   0.190   6.638  0.1347  0.0603 -1.3505
16078SOL    HW249285   6.448   0.230   6.618  0.3711  0.7178  1.3015
16079SOL     OW49286   2.542   5.570   3.398 -0.2330  0.2248 -0.4607
16079SOL    HW149287   2.632   5.602   3.401 -0.7381  1.6620  0.2523
16079SOL    HW249288   2.507   5.590   3.485 -0.6863 -2.0817 -0.0357
16080SOL     OW49289   2.538   8.099   6.573  0.1803  0.0499  0.5004
16080SOL    HW149290   2.622   8.123   6.612  0.8424  1.4835 -1.6075
16080SOL    HW249291   2.473   8.145   6.627  1.0805  2.3457 -0.2164
16081SOL     OW49292   4.749   7.061   2.534  0.1346 -0.2320  0.2536
16081SOL    HW149293   4.730   6.991   2.471 -0.5833  1.2449 -1.2646
16081SOL    HW249294   4.664   7.100   2.553  0.6582  1.1675 -0.1223
16082SOL     OW49295   7.984   4.149   7.321  0.2147 -0.6667 -0.6384
16082SOL    HW149296   7.896   4.150   7.359  0.4315  0.3249 -0.1245
16082SOL    HW249297   8.017   4.061   7.339 -0.5231 -0.9175 -0.4765
16083SOL     OW49298   5.191   3.862   4.135 -0.2244  0.8255  0.0549
16083SOL    HW149299   5.187   3.834   4.226 -0.1694 -1.0878 -0.4885
16083SOL    HW249300   5.099   3.872   4.108 -0.2906 -0.1078 -0.0936
16084SOL     OW49301   4.739   0.010   6.977  0.1252 -0.3284  0.3465
16084SOL    HW149302   4.793  -0.044   7.034 -0.1858 -1.5564 -0.4844
16084SOL    HW249303   4.777  -0.001   6.890  0.4152  1.2889  0.2370
16085SOL     OW49304   1.040   5.326   4.131  0.0447  0.2319 -0.2278
16085SOL    HW149305   1.101   5.271   4.083  1.0435  1.5883 -0.5897
16085SOL    HW249306   1.093   5.366   4.199 -0.5645  1.0278 -0.2059
16086SOL     OW49307   8.008   1.483   1.592 -0.0721 -0.4184  0.0034
16086SOL    HW149308   8.059   1.467   1.671 -0.1366 -0.8301 -0.0376
16086SOL    HW249309   8.049   1.560   1.552  2.7175 -2.6526 -1.8432
16087SOL     OW49310   0.336   8.159   2.869 -0.3775  0.0096  0.1288
16087SOL    HW149311   0.291   8.079   2.843 -0.4038  0.1581 -0.2918
16087SOL    HW249312   0.418   8.158   2.819 -0.1497 -0.0022  0.5000
16088SOL     OW49313   3.789   1.915   0.123  0.5037 -0.2051  0.4762
16088SOL    HW149314   3.745   1.831   0.138 -0.7591  0.5985  1.5307
16088SOL    HW249315   3.736   1.978   0.172  1.8319  1.1021  0.2808
16089SOL     OW49316   0.380   1.420   6.121 -0.0009  0.3157 -0.3471
16089SOL    HW149317   0.465   1.464   6.114  0.0697  0.1541 -0.5026
16089SOL    HW249318   0.361   1.419   6.214  1.1367 -1.4896 -0.0988
16090SOL     OW49319   6.877   5.874   0.234 -0.4762  0.3523  0.0843
16090SOL    HW149320   6.924   5.949   0.269  0.3738 -1.2749  2.6742
16090SOL    HW249321   6.927   5.849   0.156  0.9741  0.7318  0.8595
16091SOL     OW49322   1.810   2.102   6.854  0.2733  0.1853 -0.3149
16091SOL    HW149323   1.752   2.115   6.929  0.8516 -0.7997  0.3252
16091SOL    HW249324   1.861   2.184   6.848 -0.7856  0.8480 -0.5647
16092SOL     OW49325   2.195   4.297   8.175  0.2074 -0.5895 -0.4559
16092SOL    HW149326   2.205   4.338   8.089 -0.3989 -0.6870 -0.5750
16092SOL    HW249327   2.256   4.345   8.231  1.4468 -1.2527 -1.1826
16093SOL     OW49328   7.542   4.953   3.518  0.2256  0.1984  0.8940
16093SOL    HW149329   7.514   4.868   3.552 -0.7720  0.0280 -0.2435
16093SOL    HW249330   7.615   4.979   3.574  2.1660 -2.5108 -0.1622
16094SOL     OW49331   2.622   1.217   4.216 -0.0975 -0.0945  0.6427
16094SOL    HW149332   2.666   1.285   4.165  0.1493 -0.8837 -0.2302
16094SOL    HW249333   2.603   1.148   4.152 -0.3608 -0.8337  1.4998
16095SOL     OW49334   6.642   5.238   3.410 -0.4520  1.0189 -0.2453
16095SOL    HW149335   6.581   5.178   3.369 -0.9872  2.4126 -1.6041
16095SOL    HW249336   6.729   5.204   3.388 -0.7444  1.0625 -1.5292
16096SOL     OW49337   3.665   3.127   5.099  0.0134  0.3945  0.2449
16096SOL    HW149338   3.696   3.061   5.160 -0.8207  0.2830  0.5672
16096SOL    HW249339   3.720   3.116   5.021 -0.6895 -1.3037 -0.0581
16097SOL     OW49340   1.382   5.720   1.123 -0.5608 -0.0911 -0.0627
16097SOL    HW149341   1.349   5.684   1.041 -0.1220  0.0155 -0.2874
16097SOL    HW249342   1.408   5.643   1.174  0.6810 -0.1060 -0.6713
16098SOL     OW49343   7.579   6.505   4.302 -0.1136  0.0739  0.1654
16098SOL    HW149344   7.569   6.535   4.392 -0.2027  2.0532 -0.4539
16098SOL    HW249345   7.673   6.491   4.291 -0.0992 -0.1388  0.5500
16099SOL     OW49346   4.916   3.170   6.988  0.4821 -0.8040  0.1740
16099SOL    HW149347   4.927   3.239   6.922 -0.0858  0.3749  1.2696
16099SOL    HW249348   4.990   3.182   7.048  0.0114 -0.7170  0.7429
16100SOL     OW49349   1.691   1.892   2.484  0.1535  0.2491  0.1087
16100SOL    HW149350   1.609   1.872   2.438  1.2550  0.1550 -1.9311
16100SOL    HW249351   1.692   1.987   2.491 -0.3630  0.2228  0.6333
16101SOL     OW49352   6.321   2.478   4.687 -0.0605 -0.4273  0.0577
16101SOL    HW149353   6.365   2.397   4.660  0.3068  0.4009 -2.0353
16101SOL    HW249354   6.339   2.485   4.780  0.6986 -2.2632  0.0951
16102SOL     OW49355   2.882   7.801   7.143  0.0559  0.2082 -0.0659
16102SOL    HW149356   2.938   7.853   7.201 -0.2486  1.1786 -0.6153
16102SOL    HW249357   2.935   7.785   7.065  0.2633 -0.5995  0.2368
16103SOL     OW49358   0.828   6.558   5.457  0.0327  0.9165 -0.5730
16103SOL    HW149359   0.735   6.546   5.441 -0.0948  0.3691  0.4944
16103SOL    HW249360   0.868   6.553   5.370 -0.9769  1.7253 -1.1030
16104SOL     OW49361   3.728   2.442   0.700  0.6468 -0.4387 -0.0772
16104SOL    HW149362   3.686   2.397   0.627 -1.8031  0.6616  0.5448
16104SOL    HW249363   3.786   2.507   0.659 -1.8157  1.1914 -1.1614
16105SOL     OW49364   5.718   0.005   3.195  0.4366  0.1398  0.1394
16105SOL    HW149365   5.801  -0.042   3.189 -0.4618 -1.9801  2.3899
16105SOL    HW249366   5.706   0.022   3.289 -1.1324  1.4663 -0.2367
16106SOL     OW49367   4.856   3.709   3.385 -0.3145 -0.3222 -0.0050
16106SOL    HW149368   4.939   3.736   3.424  0.7341 -0.4294 -2.0410
16106SOL    HW249369   4.792   3.771   3.421  0.9521  0.9096  0.2403
16107SOL     OW49370   1.082   6.284   2.862 -0.1231 -0.1219  0.3284
16107SOL    HW149371   1.017   6.246   2.804 -0.3407 -0.0903  0.5506
16107SOL    HW249372   1.034   6.305   2.942 -0.1623  1.3044 -0.0454
16108SOL     OW49373   3.549   3.927   2.801  0.2681  0.4107  0.4268
16108SOL    HW149374   3.544   3.837   2.770  1.9690  0.4609 -0.0511
16108SOL    HW249375   3.564   3.920   2.895 -0.1119  0.2161  0.4758
16109SOL     OW49376   1.537   7.050   7.893  0.0188  0.3515 -0.0630
16109SOL    HW149377   1.490   7.074   7.973 -0.5102 -1.1285  0.0989
16109SOL    HW249378   1.622   7.018   7.925 -1.0112 -2.3777  0.1535
16110SOL     OW49379   2.106   0.652   7.882 -0.6666  0.0660  0.7859
16110SOL    HW149380   2.066   0.736   7.861  0.0251  0.3670  0.6716
16110SOL    HW249381   2.033   0.599   7.916 -1.4602  0.1258 -0.7513
16111SOL     OW49382   1.913   0.633   1.887  0.1939  0.0264  0.2428
16111SOL    HW149383   2.000   0.663   1.914  2.1680 -1.5240 -3.6589
16111SOL    HW249384   1.863   0.713   1.874  1.2942  0.9997  1.6543
16112SOL     OW49385   1.870   1.925   3.775 -0.0156 -0.4408  0.2826
16112SOL    HW149386   1.809   1.871   3.826 -0.4144 -0.7829 -0.5533
16112SOL    HW249387   1.884   2.002   3.830 -0.2778 -0.8973  1.0102
16113SOL     OW49388   7.683   7.010   7.618  0.2749  0.3964 -0.4778
16113SOL    HW149389   7.685   6.976   7.707  0.5158 -0.0338 -0.6437
16113SOL    HW249390   7.606   6.969   7.578  0.0527  0.7416 -0.4135
16114SOL     OW49391   2.766   0.585   6.486 -0.1581 -0.0576  0.1224
16114SOL    HW149392   2.697   0.601   6.422 -1.8927 -1.1217  1.6444
16114SOL    HW249393   2.820   0.665   6.483 -0.9279  0.4496 -1.6957
16115SOL     OW49394   5.715   4.169   5.453 -0.3457  0.0148  0.4438
16115SOL    HW149395   5.784   4.235   5.463 -0.2685 -0.2424  1.7408
16115SOL    HW249396   5.761   4.086   5.454 -0.5749 -0.1181  0.1523
16116SOL     OW49397   3.749   0.932   6.197 -0.4187 -0.3707 -0.2497
16116SOL    HW149398   3.724   0.978   6.117  0.9057 -0.7161 -0.8860
16116SOL    HW249399   3.839   0.961   6.214 -0.4854 -0.7302  0.8143
16117SOL     OW49400   2.908   0.415   1.230  0.0053  0.2701 -0.2846
16117SOL    HW149401   2.965   0.346   1.198 -0.3799 -0.1223 -0.1338
16117SOL    HW249402   2.823   0.373   1.241  0.0234  0.4982  0.8426
16118SOL     OW49403   3.378   5.213   2.399  0.3990  0.1090 -0.1889
16118SOL    HW149404   3.311   5.172   2.344 -0.0078 -1.2530  1.2617
16118SOL    HW249405   3.414   5.142   2.451  2.4927  0.9418 -0.3836
16119SOL     OW49406   8.277   5.037   1.594  0.8724 -0.5610 -0.5978
16119SOL    HW149407   8.311   5.049   1.506  0.1714 -1.7658 -1.0604
16119SOL    HW249408   8.190   4.998   1.581 -1.1135  3.0596  0.4736
16120SOL     OW49409   1.644   4.224   7.743  0.0401 -0.3198 -0.4368
16120SOL    HW149410   1.586   4.167   7.693 -1.0903  0.3910  0.0178
16120SOL    HW249411   1.696   4.164   7.797  1.1874 -1.0953 -2.2865
16121SOL     OW49412   3.321   3.506   5.481 -0.7435  0.0069 -0.0285
16121SOL    HW149413   3.359   3.422   5.506  1.1792  0.5739 -0.8562
16121SOL    HW249414   3.381   3.571   5.517 -1.9668  1.0320  0.2280
16122SOL     OW49415   0.192   1.817   4.999 -0.3165 -0.1022  0.0157
16122SOL    HW149416   0.105   1.778   4.991 -0.3173 -0.3645  1.0354
16122SOL    HW249417   0.176   1.907   5.027 -0.2733  0.0248 -0.3693
16123SOL     OW49418   7.473   3.444   0.320 -0.1034  0.2548  0.2348
16123SOL    HW149419   7.555   3.395   0.323  0.2803  0.8731  0.0056
16123SOL    HW249420   7.450   3.445   0.227 -1.0032 -0.9352  0.4219
16124SOL     OW49421   2.912   6.979   5.710 -0.5098 -0.1833  0.1738
16124SOL    HW149422   2.879   7.052   5.658 -0.7484 -1.0521 -0.9360
16124SOL    HW249423   2.909   6.904   5.651  0.8911 -0.8532  0.9111
16125SOL     OW49424   2.685   6.395   4.193  0.1804 -0.2581  0.3610
16125SOL    HW149425   2.671   6.443   4.111  0.2343 -0.6647  0.1094
16125SOL    HW249426   2.776   6.411   4.215  0.0999  0.0535  0.4748
16126SOL     OW49427   5.007   2.884   7.611 -0.2954 -0.1005  0.1457
16126SOL    HW149428   4.950   2.814   7.578  1.5079 -2.0479  0.9263
16126SOL    HW249429   5.043   2.850   7.693  1.9371  1.0266 -0.2828
16127SOL     OW49430   0.553   6.293   5.292 -0.5360 -0.2294 -0.1512
16127SOL    HW149431   0.639   6.274   5.253  1.5206  0.8764  3.3881
16127SOL    HW249432   0.537   6.385   5.269 -1.1787 -0.6387 -1.4138
16128SOL     OW49433   3.540   3.147   2.420  0.1226 -0.7479  0.5242
16128SOL    HW149434   3.499   3.170   2.337 -0.7109  0.8546  1.3170
16128SOL    HW249435   3.629   3.182   2.414 -0.6874  1.6031  1.1626
16129SOL     OW49436   8.104   2.506   5.436  0.1827  0.1762 -0.2015
16129SOL    HW149437   8.154   2.526   5.515 -2.7269 -0.2567  1.9466
16129SOL    HW249438   8.139   2.422   5.407 -0.4210 -1.0770  2.3570
16130SOL     OW49439   5.857   4.528   0.175 -0.3104 -0.0775  0.2197
16130SOL    HW149440   5.833   4.489   0.259 -4.6904  0.0913 -0.7218
16130SOL    HW249441   5.873   4.453   0.117 -1.4485 -0.3467  0.2276
16131SOL     OW49442   8.222   3.604   3.397 -0.2437  0.1531  0.3593
16131SOL    HW149443   8.313   3.635   3.399 -0.4697  0.7809  1.3972
16131SOL    HW249444   8.220   3.543   3.323  0.8616  0.6146 -0.0768
16132SOL     OW49445   7.761   5.602   4.222  0.1719  0.0756  0.6066
16132SOL    HW149446   7.688   5.548   4.253 -1.0293 -0.0999 -2.1909
16132SOL    HW249447   7.731   5.692   4.232 -0.5290  0.0030 -0.5706
16133SOL     OW49448   1.083   7.406   3.969 -0.5915  0.1415 -0.1762
16133SOL    HW149449   1.035   7.487   3.949 -2.9562 -1.0723  0.2274
16133SOL    HW249450   1.024   7.336   3.942  1.4325 -1.4907 -0.5826
16134SOL     OW49451   7.874   7.144   4.598  0.5858  0.0234  0.4849
16134SOL    HW149452   7.822   7.156   4.677 -0.1682 -3.2970  0.6598
16134SOL    HW249453   7.810   7.118   4.531  1.7239 -2.9329  0.3816
16135SOL     OW49454   2.343   3.884   0.361 -0.1515 -0.3373  0.6152
16135SOL    HW149455   2.252   3.871   0.387 -0.5358  0.1816 -0.4393
16135SOL    HW249456   2.345   3.866   0.267  0.2851  2.1088  0.0774
16136SOL     OW49457   0.262   3.955   4.809  0.0292  0.4372  0.0571
16136SOL    HW149458   0.320   4.031   4.811 -1.1336  1.4675 -2.2630
16136SOL    HW249459   0.177   3.989   4.837  0.3317 -0.9975  3.1733
16137SOL     OW49460   5.536   0.519   5.047 -0.5350  0.4880 -0.4528
16137SOL    HW149461   5.476   0.479   5.110  0.2714  1.1535  0.7701
16137SOL    HW249462   5.603   0.451   5.031  0.7675  1.2116  1.5314
16138SOL     OW49463   2.384   0.750   0.947  0.4770  0.3469 -0.1311
16138SOL    HW149464   2.449   0.701   0.896  0.3243  2.4493 -2.5304
16138SOL    HW249465   2.368   0.829   0.895 -0.4867  2.1756  2.7455
16139SOL     OW49466   2.613   0.380   6.169  0.0901  0.5535  0.6982
16139SOL    HW149467   2.568   0.313   6.221  0.6697  0.3442  0.9495
16139SOL    HW249468   2.661   0.331   6.103 -0.7214  0.8286 -0.1040
16140SOL     OW49469   0.444   0.732   2.040 -0.3912 -0.0868 -0.0493
16140SOL    HW149470   0.471   0.670   2.108  0.4536  0.4982  0.1746
16140SOL    HW249471   0.520   0.789   2.029 -0.9696  0.5941 -0.6090
16141SOL     OW49472   7.939   5.187   1.073 -0.0204 -0.1916 -0.0203
16141SOL    HW149473   7.860   5.177   1.127  0.0838 -0.7837  0.0358
16141SOL    HW249474   7.976   5.099   1.069  0.9369  0.1756  0.3982
16142SOL     OW49475   3.895   6.766   2.032 -0.1208 -0.3456 -0.6728
16142SOL    HW149476   3.959   6.727   2.092  0.9835  1.2830 -0.7203
16142SOL    HW249477   3.946   6.785   1.953 -1.0156 -0.3388 -1.2557
16143SOL     OW49478   1.391   7.717   8.043  0.5118 -0.2409 -0.1900
16143SOL    HW149479   1.401   7.788   8.106 -1.8950  0.7892 -0.8366
16143SOL    HW249480   1.376   7.639   8.097 -0.6495  0.4715  0.5711
16144SOL     OW49481   4.584   4.330   2.009  0.0525  0.4719 -0.2803
16144SOL    HW149482   4.567   4.399   2.073 -1.2955  0.4724 -0.6107
16144SOL    HW249483   4.511   4.269   2.019  2.3279 -2.2013  1.6094
16145SOL     OW49484   1.332   1.444   1.756  0.4784  0.2596 -0.3598
16145SOL    HW149485   1.267   1.490   1.808 -1.1749 -2.1319 -0.1609
16145SOL    HW249486   1.294   1.440   1.668 -0.0155 -1.6640 -0.1116
16146SOL     OW49487   7.504   1.919   0.684  0.1178 -0.3444 -0.8341
16146SOL    HW149488   7.433   1.868   0.722  0.6928  0.4904  1.5423
16146SOL    HW249489   7.584   1.876   0.715  0.6163  1.6759  0.9707
16147SOL     OW49490   7.808   7.582   1.871 -0.0988 -0.2914 -0.4753
16147SOL    HW149491   7.897   7.547   1.874 -0.4769 -1.2284  0.7433
16147SOL    HW249492   7.817   7.674   1.896  0.2956 -0.9624  2.1049
16148SOL     OW49493   1.085   5.611   5.506  0.1489  0.4430  0.0604
16148SOL    HW149494   1.033   5.690   5.497 -2.0915 -0.8412  0.9001
16148SOL    HW249495   1.154   5.619   5.440  0.4125  3.3514  0.5936
16149SOL     OW49496   2.106   6.177   2.398  0.3574 -0.3533 -0.4739
16149SOL    HW149497   2.130   6.120   2.471  1.1380  0.6852  0.1153
16149SOL    HW249498   2.190   6.216   2.370 -0.1278  0.3596 -0.9691
16150SOL     OW49499   6.395   5.331   1.090  0.2498  0.1277 -0.1531
16150SOL    HW149500   6.443   5.249   1.102  2.1813  1.3928  1.4039
16150SOL    HW249501   6.437   5.371   1.013  0.8446  0.6486  0.4335
16151SOL     OW49502   4.620   7.353   1.744  0.4263  0.8442  0.8853
16151SOL    HW149503   4.679   7.365   1.819 -0.9765  0.9264  2.0068
16151SOL    HW249504   4.598   7.261   1.746 -0.7197  1.1179  1.4420
16152SOL     OW49505   7.126   0.193   5.882 -0.1753 -1.2691 -0.6375
16152SOL    HW149506   7.206   0.182   5.830 -0.1977  0.5817 -1.1570
16152SOL    HW249507   7.121   0.287   5.898 -1.6003 -1.4949  0.4574
16153SOL     OW49508   2.122   7.287   4.194  0.3152  0.7816  0.1758
16153SOL    HW149509   2.151   7.329   4.275 -2.5188  1.9807  0.7001
16153SOL    HW249510   2.057   7.222   4.222  1.4524 -0.9384 -0.9741
16154SOL     OW49511   3.114   3.588   1.135 -0.1599  0.0743  0.1615
16154SOL    HW149512   3.064   3.669   1.129  0.5676  0.4930 -0.3565
16154SOL    HW249513   3.059   3.523   1.090 -0.7611  0.2544  0.6095
16155SOL     OW49514   5.998   2.296   2.497  0.1088  0.5958 -0.4684
16155SOL    HW149515   6.068   2.334   2.444 -0.1213  0.9222 -0.5445
16155SOL    HW249516   6.034   2.213   2.529  0.2738  0.4196 -1.0871
16156SOL     OW49517   7.785   6.070   0.929  0.5249 -0.4448 -0.1573
16156SOL    HW149518   7.827   6.060   1.014  0.6154 -0.1556 -0.1673
16156SOL    HW249519   7.791   5.983   0.888 -0.2245 -0.7934  0.4510
16157SOL     OW49520   4.966   3.154   2.488 -0.2714  0.1914  0.1126
16157SOL    HW149521   5.060   3.170   2.482 -0.0245 -0.9405  0.7824
16157SOL    HW249522   4.939   3.203   2.566 -0.3796  1.0479 -0.4420
16158SOL     OW49523   3.912   2.809   3.074  0.1464 -0.2093  0.4631
16158SOL    HW149524   3.998   2.850   3.065  0.4789 -0.4745  2.2168
16158SOL    HW249525   3.861   2.847   3.002  1.8301 -0.3966 -0.8993
16159SOL     OW49526   0.485   0.716   1.577 -1.0180 -0.3292 -0.6516
16159SOL    HW149527   0.571   0.690   1.609 -0.7069  2.2531  0.9135
16159SOL    HW249528   0.423   0.669   1.633 -0.6465 -1.5538 -1.2407
16160SOL     OW49529   3.525   5.819   7.855  0.3608  0.5220 -0.2088
16160SOL    HW149530   3.478   5.893   7.817 -1.2935  0.3139  1.2895
16160SOL    HW249531   3.459   5.750   7.863  0.7122  0.3798  2.4274
16161SOL     OW49532   2.933   0.417   7.138  0.2392 -0.0252  0.5657
16161SOL    HW149533   2.980   0.423   7.221 -0.1161  0.0165  0.7634
16161SOL    HW249534   2.846   0.386   7.161 -0.5178  1.8594  0.4364
16162SOL     OW49535   2.918   7.093   4.981  0.1424 -0.3486  0.1048
16162SOL    HW149536   2.925   7.046   5.064 -0.9206  0.2612  0.5587
16162SOL    HW249537   3.005   7.129   4.966  0.1904  0.0617  1.2749
16163SOL     OW49538   5.109   2.855   6.137 -0.4558 -0.4825 -0.2128
16163SOL    HW149539   5.090   2.937   6.091  1.3589 -0.4802 -1.0371
16163SOL    HW249540   5.029   2.836   6.187  0.3292  3.9233  3.3178
16164SOL     OW49541   1.207   3.641   0.565  0.6974  0.1248  0.3283
16164SOL    HW149542   1.240   3.588   0.636 -2.9731 -0.7931  1.5705
16164SOL    HW249543   1.201   3.581   0.490 -1.6244 -0.8326  1.1950
16165SOL     OW49544   3.899   2.277   6.067  0.0733  0.3441 -0.2298
16165SOL    HW149545   3.842   2.343   6.106  0.0173 -1.4732  3.1367
16165SOL    HW249546   3.985   2.291   6.106 -0.5197 -2.9977  2.8570
16166SOL     OW49547   4.493   5.749   3.242 -0.2578 -0.5351 -0.6401
16166SOL    HW149548   4.578   5.780   3.275  0.0818 -1.5697 -0.5068
16166SOL    HW249549   4.429   5.797   3.294  0.2287  0.7649 -1.2085
16167SOL     OW49550   3.324   3.783   4.637  0.1486  0.2670  0.0445
16167SOL    HW149551   3.304   3.698   4.597  0.3730  0.3316 -0.2086
16167SOL    HW249552   3.323   3.766   4.731 -1.4563  0.3511  0.0569
16168SOL     OW49553   3.730   1.925   3.247 -0.0527  0.2145  0.0173
16168SOL    HW149554   3.645   1.924   3.290  0.1965 -0.5005  0.5104
16168SOL    HW249555   3.782   1.990   3.295  0.8455 -1.8819  2.0857
16169SOL     OW49556   4.832   6.355   8.125  0.3380  0.3325  0.2072
16169SOL    HW149557   4.906   6.397   8.080 -0.6304  1.1285 -0.6840
16169SOL    HW249558   4.822   6.270   8.082  1.5069 -0.3320  1.1767
16170SOL     OW49559   0.511   3.219   3.536  0.0857 -0.6654 -0.3768
16170SOL    HW149560   0.425   3.260   3.540  0.7028  0.6058  0.3714
16170SOL    HW249561   0.557   3.251   3.614  2.0038  0.4591 -1.8710
16171SOL     OW49562   1.627   0.138   3.036 -0.1631  0.5237  0.9018
16171SOL    HW149563   1.706   0.185   3.008  0.6127 -1.4510 -0.4278
16171SOL    HW249564   1.554   0.195   3.009  0.7503  1.6369  0.7022
16172SOL     OW49565   3.627   6.053   2.018  0.3054  0.1782  0.1001
16172SOL    HW149566   3.575   6.132   2.035  0.3716  0.0155  1.0783
16172SOL    HW249567   3.651   6.061   1.926  1.5648  2.0495  0.5277
16173SOL     OW49568   7.945   2.372   1.912 -0.1341  0.1185  0.2876
16173SOL    HW149569   7.927   2.278   1.909 -1.4971  0.3352  1.0647
16173SOL    HW249570   7.867   2.412   1.874  0.9906  0.9130 -1.2926
16174SOL     OW49571   2.256   7.416   8.273  0.4704  1.0733 -0.2249
16174SOL    HW149572   2.307   7.421   8.354  0.6553 -1.4989 -0.0816
16174SOL    HW249573   2.318   7.439   8.204  0.6589  2.0392  0.2507
16175SOL     OW49574   5.533   4.419   6.227  0.4265  0.4496 -1.4414
16175SOL    HW149575   5.555   4.480   6.297  1.0340  1.2861 -2.3346
16175SOL    HW249576   5.614   4.411   6.176  0.4387 -1.3063 -1.2083
16176SOL     OW49577   1.983   0.692   2.861  0.0083  0.0079  0.3971
16176SOL    HW149578   2.056   0.740   2.901 -0.2195 -0.1249  0.9857
16176SOL    HW249579   1.956   0.747   2.788 -1.5439  1.8304  2.2188
16177SOL     OW49580   2.351   8.170   4.831  0.2897 -0.5075 -0.0931
16177SOL    HW149581   2.305   8.090   4.807  1.8204 -1.1852 -0.9160
16177SOL    HW249582   2.334   8.231   4.760  1.2664 -1.0265 -0.7908
16178SOL     OW49583   0.960   4.816   1.344 -0.5185  0.6501  0.2378
16178SOL    HW149584   1.009   4.777   1.271  0.5686  2.6869 -0.2168
16178SOL    HW249585   0.903   4.746   1.375 -0.2638 -0.6030 -1.9018
16179SOL     OW49586   4.732   0.891   4.909 -0.9291  0.1898  0.4502
16179SOL    HW149587   4.808   0.921   4.958 -0.6761  0.8880 -0.3298
16179SOL    HW249588   4.687   0.972   4.883 -1.5898 -0.1956  0.3727
16180SOL     OW49589   5.384   4.606   6.896 -0.1584  0.0869  0.0764
16180SOL    HW149590   5.470   4.641   6.874 -0.2787  0.1116 -0.3531
16180SOL    HW249591   5.328   4.633   6.824  0.0236 -2.1766 -0.9925
16181SOL     OW49592   7.859   1.159   0.099  0.3953  0.3254 -0.3093
16181SOL    HW149593   7.936   1.102   0.102 -0.4383 -0.8114  1.2327
16181SOL    HW249594   7.789   1.102   0.066 -0.7868 -0.1010  2.5829
16182SOL     OW49595   5.540   7.191   1.656  0.1212 -0.7421  0.5932
16182SOL    HW149596   5.601   7.177   1.729  0.7457 -1.4697 -0.0630
16182SOL    HW249597   5.568   7.130   1.589 -0.8603 -0.5307 -0.0227
16183SOL     OW49598   2.682   4.804   6.078 -0.5722  0.3552 -0.2085
16183SOL    HW149599   2.647   4.778   5.993  1.0635 -1.6070 -0.3523
16183SOL    HW249600   2.652   4.736   6.138  1.7643 -0.6650 -0.0926
16184SOL     OW49601   6.710   2.679   0.849 -0.4969  0.1843 -0.0667
16184SOL    HW149602   6.711   2.636   0.764  0.7951 -0.5829  0.2974
16184SOL    HW249603   6.756   2.618   0.907 -2.1079  0.2985  1.3911
16185SOL     OW49604   1.989   2.842   5.626 -0.2953 -0.7569  0.0098
16185SOL    HW149605   1.909   2.790   5.640 -1.1045  0.5043  0.2768
16185SOL    HW249606   2.003   2.885   5.710  0.0953 -0.1963 -0.3406
16186SOL     OW49607   4.404   0.112   6.061  0.2506  0.7466 -0.2747
16186SOL    HW149608   4.437   0.023   6.072  0.9580  0.7764 -1.9700
16186SOL    HW249609   4.309   0.103   6.073  0.0694 -0.6029 -2.1820
16187SOL     OW49610   4.098   4.576   7.003 -0.2308 -0.5861  0.0710
16187SOL    HW149611   4.029   4.528   6.957 -1.2891  0.8303  0.0739
16187SOL    HW249612   4.058   4.601   7.086 -0.0749  1.0233 -0.2908
16188SOL     OW49613   7.593   4.735   5.304 -0.2939 -0.6011  0.2629
16188SOL    HW149614   7.613   4.647   5.336 -1.5927 -0.4302  1.6360
16188SOL    HW249615   7.553   4.722   5.218  0.8303 -1.2422 -0.1782
16189SOL     OW49616   4.886   0.869   0.083  0.7936  0.0752  0.4967
16189SOL    HW149617   4.872   0.930   0.010  0.4312  1.2092  1.4702
16189SOL    HW249618   4.979   0.879   0.105  0.8234 -0.0112  0.4108
16190SOL     OW49619   5.002   6.763   7.349 -0.2729 -0.2671  0.5802
16190SOL    HW149620   5.000   6.724   7.262 -1.7093  0.0558  0.4368
16190SOL    HW249621   4.920   6.734   7.390  0.6994 -0.9826  2.0837
16191SOL     OW49622   3.116   3.714   1.994 -0.2464  0.5906 -0.0707
16191SOL    HW149623   3.061   3.793   1.997 -2.4993 -0.8782  1.9319
16191SOL    HW249624   3.093   3.667   2.075  3.0491 -0.8292  0.1873
16192SOL     OW49625   6.452   6.318   6.193 -0.0177  0.5493  0.0907
16192SOL    HW149626   6.444   6.255   6.122  0.3350  0.1183  0.4241
16192SOL    HW249627   6.507   6.273   6.258 -0.0526  1.0670  0.4800
16193SOL     OW49628   3.996   1.689   1.827  0.6172 -0.4956  0.1429
16193SOL    HW149629   3.984   1.770   1.877 -0.3497 -0.2311 -0.4872
16193SOL    HW249630   4.078   1.702   1.779  1.8024 -0.9235  1.9173
16194SOL     OW49631   2.425   3.482   6.017  0.0783 -0.5316  0.4993
16194SOL    HW149632   2.361   3.550   6.039  0.9326  0.0048  1.4240
16194SOL    HW249633   2.492   3.490   6.085  1.4588 -0.6418 -0.8024
16195SOL     OW49634   1.048   6.862   3.864  0.6696 -0.4618 -0.2603
16195SOL    HW149635   0.985   6.794   3.843  0.2482  0.3591 -1.9242
16195SOL    HW249636   1.043   6.873   3.959  0.9513 -2.8868  0.0816
16196SOL     OW49637   6.744   4.568   8.075 -0.4728  0.2932  0.0405
16196SOL    HW149638   6.725   4.596   8.165 -1.5918 -1.5379  0.4241
16196SOL    HW249639   6.708   4.639   8.021 -2.1086  0.2476  0.9884
16197SOL     OW49640   5.942   6.837   6.876  0.0095 -0.2389  0.3633
16197SOL    HW149641   5.920   6.762   6.931  1.6839 -0.2381  1.0777
16197SOL    HW249642   5.869   6.844   6.815  0.2804 -3.0429 -0.3703
16198SOL     OW49643   0.624   5.364   3.718  0.5459  0.4494  0.1750
16198SOL    HW149644   0.656   5.275   3.699 -0.7909 -0.0808  0.3322
16198SOL    HW249645   0.639   5.412   3.637 -0.6227 -0.4964 -0.6420
16199SOL     OW49646   0.940   2.222   6.733  0.1156  0.0145  0.6501
16199SOL    HW149647   1.001   2.291   6.761 -0.3080  0.0047  1.6451
16199SOL    HW249648   0.860   2.268   6.709  0.1274 -0.0643  0.4556
16200SOL     OW49649   6.981   6.388   3.365  0.4256  0.2133 -0.1852
16200SOL    HW149650   6.912   6.443   3.330  0.8032  0.4903 -0.5002
16200SOL    HW249651   6.993   6.418   3.455 -1.0912 -1.0229  0.4754
16201SOL     OW49652   1.649   0.866   6.265  0.4106 -0.3322  0.0127
16201SOL    HW149653   1.561   0.847   6.232  0.2485  2.4467 -1.4510
16201SOL    HW249654   1.707   0.848   6.191  1.0469 -1.5986  0.7897
16202SOL     OW49655   0.237   7.814   1.397  0.2100 -0.6579 -0.2069
16202SOL    HW149656   0.271   7.895   1.436 -2.3436 -0.0017  0.8890
16202SOL    HW249657   0.288   7.744   1.439  1.5319  0.2960 -0.1596
16203SOL     OW49658   6.383   0.497   1.877  0.3262 -0.2129 -0.4443
16203SOL    HW149659   6.439   0.421   1.894  0.5127  0.5344  3.0092
16203SOL    HW249660   6.307   0.461   1.832  1.9242 -1.8358 -2.0024
16204SOL     OW49661   6.860   1.072   5.011 -0.5938  0.1353 -0.3238
16204SOL    HW149662   6.783   1.121   4.981 -0.8907  0.1330  0.4272
16204SOL    HW249663   6.824   1.002   5.066 -0.1857 -1.0075 -1.4431
16205SOL     OW49664   7.434   4.628   3.038  0.0710  0.6546 -0.0552
16205SOL    HW149665   7.426   4.714   2.998 -1.0119  0.8814  0.6287
16205SOL    HW249666   7.511   4.634   3.094  0.2354  1.0434 -0.3213
16206SOL     OW49667   2.456   0.844   4.651 -0.3132 -0.7243  0.1017
16206SOL    HW149668   2.510   0.833   4.573 -0.0427 -0.7083  0.2858
16206SOL    HW249669   2.415   0.929   4.640  1.7462  0.4982  1.1877
16207SOL     OW49670   0.951   7.649   6.794  0.2477 -0.1590 -0.3080
16207SOL    HW149671   0.910   7.575   6.748  1.9160 -0.8853 -0.6876
16207SOL    HW249672   0.911   7.648   6.881 -0.1251 -1.1964 -0.4790
16208SOL     OW49673   6.462   2.461   2.996  0.2303  0.7079  0.2012
16208SOL    HW149674   6.420   2.527   2.942 -1.0615 -2.3169 -2.8534
16208SOL    HW249675   6.394   2.433   3.058 -0.2601  0.1670 -0.5633
16209SOL     OW49676   7.941   2.658   3.266 -0.0808  0.0938  0.0846
16209SOL    HW149677   7.918   2.572   3.232 -0.9772  0.9506 -1.6333
16209SOL    HW249678   7.887   2.719   3.216  1.1518  1.7373  0.6397
16210SOL     OW49679   2.377   6.835   6.829 -0.1507 -0.3666 -0.4649
16210SOL    HW149680   2.320   6.879   6.892 -0.5433  0.4166 -1.3416
16210SOL    HW249681   2.420   6.906   6.782  0.8401 -0.9479 -0.4584
16211SOL     OW49682   7.274   3.927   4.362  0.3030  0.1596 -0.2823
16211SOL    HW149683   7.234   4.007   4.329 -1.4066 -0.5982 -0.1545
16211SOL    HW249684   7.207   3.859   4.349  1.4734 -1.1344  0.1547
16212SOL     OW49685   4.941   7.466   1.360 -0.0155  0.9332  0.3751
16212SOL    HW149686   4.850   7.444   1.381 -1.2167  2.5579 -2.5415
16212SOL    HW249687   4.935   7.539   1.299  3.0550 -1.0505 -2.7301
16213SOL     OW49688   0.978   0.866   6.863 -0.8379  0.2693 -0.1860
16213SOL    HW149689   0.950   0.931   6.927 -0.6274  0.7456 -0.5677
16213SOL    HW249690   0.995   0.787   6.915 -1.2024  0.4823  0.2683
16214SOL     OW49691   3.190   8.011   0.007 -0.6774  0.5304 -0.2900
16214SOL    HW149692   3.202   8.095   0.051  0.9368  0.0070  0.3526
16214SOL    HW249693   3.169   7.949   0.078 -1.2119  0.2610 -0.6728
16215SOL     OW49694   4.202   3.754   3.369  0.3762  0.4999  0.4694
16215SOL    HW149695   4.144   3.725   3.299 -0.2948  0.7639  0.9035
16215SOL    HW249696   4.151   3.820   3.416  1.2222  1.1089  0.5524
16216SOL     OW49697   4.694   4.226   6.504  0.0343  0.3693  0.2816
16216SOL    HW149698   4.775   4.176   6.495 -0.3601 -0.1665 -0.4133
16216SOL    HW249699   4.721   4.308   6.545  0.7758 -0.1778  0.9226
16217SOL     OW49700   8.242   1.513   7.991 -0.4252  0.3042  0.0692
16217SOL    HW149701   8.181   1.450   7.954 -0.3572  0.1846  0.1593
16217SOL    HW249702   8.290   1.547   7.915 -1.7423  1.6293 -0.1985
16218SOL     OW49703   8.274   3.861   0.751 -0.4364  0.7624 -0.6026
16218SOL    HW149704   8.209   3.791   0.754 -2.4667  2.5885  1.0396
16218SOL    HW249705   8.339   3.837   0.817 -1.4844  0.7206  0.4395
16219SOL     OW49706   1.293   5.678   5.693  0.2701 -0.0625  0.2181
16219SOL    HW149707   1.328   5.750   5.641  3.1907 -1.4037  0.1800
16219SOL    HW249708   1.213   5.652   5.647  0.7934  1.1788 -1.4906
16220SOL     OW49709   6.363   6.708   7.637  0.2021  0.2095 -0.1306
16220SOL    HW149710   6.308   6.778   7.672 -0.9399 -0.4585 -0.5566
16220SOL    HW249711   6.311   6.629   7.645  1.2708 -0.5240 -0.1528
16221SOL     OW49712   2.031   4.874   8.241 -0.0850 -0.3590 -0.4080
16221SOL    HW149713   2.045   4.793   8.192  1.1573 -0.6122  0.3017
16221SOL    HW249714   2.115   4.920   8.235 -0.6174  0.6420 -0.3709
16222SOL     OW49715   5.652   7.340   5.321 -0.4212  0.2410 -0.4332
16222SOL    HW149716   5.583   7.286   5.357  0.3058  0.0794  0.7909
16222SOL    HW249717   5.640   7.426   5.363  0.0384  0.2462 -0.3032
16223SOL     OW49718   4.119   3.067   6.323  0.8890  0.2858 -0.3407
16223SOL    HW149719   4.063   3.010   6.269  0.8652  0.0757 -0.0960
16223SOL    HW249720   4.207   3.029   6.315  0.7895 -0.0781  0.2096
16224SOL     OW49721   3.712   4.928   1.099 -0.4118 -0.5984 -0.4717
16224SOL    HW149722   3.638   4.871   1.120 -0.4921 -0.4066 -0.2261
16224SOL    HW249723   3.736   4.905   1.010 -0.7632 -0.6655 -0.5497
16225SOL     OW49724   7.029   3.122   6.029  0.4922 -0.7929  0.4402
16225SOL    HW149725   7.069   3.053   6.082  3.9551  0.6177 -0.1224
16225SOL    HW249726   6.973   3.170   6.091 -2.8642 -4.4759  0.6358
16226SOL     OW49727   6.524   3.014   6.404  1.1680 -0.1785  0.2512
16226SOL    HW149728   6.552   3.053   6.487 -0.7655 -0.2248  0.9728
16226SOL    HW249729   6.449   2.958   6.427 -1.5406  2.2220 -1.8755
16227SOL     OW49730   1.425   1.434   6.591  0.1979 -0.0276 -0.1216
16227SOL    HW149731   1.495   1.370   6.605 -1.2576 -1.6265  0.2339
16227SOL    HW249732   1.467   1.519   6.604  2.4135 -0.8288 -1.4248
16228SOL     OW49733   8.201   3.727   5.018 -0.0117 -0.1184  0.4151
16228SOL    HW149734   8.169   3.780   4.945  0.9840 -0.8851 -0.6035
16228SOL    HW249735   8.267   3.782   5.061  0.1778 -0.0910  0.0846
16229SOL     OW49736   5.115   0.622   6.983  0.0318 -0.6776 -0.1474
16229SOL    HW149737   5.170   0.630   7.061  0.3848  0.1526 -0.4779
16229SOL    HW249738   5.059   0.699   6.986  0.5858 -0.2305 -1.1367
16230SOL     OW49739   4.159   7.528   0.297 -0.1955 -0.2278 -0.0615
16230SOL    HW149740   4.233   7.525   0.357 -0.9058 -1.1741  0.8193
16230SOL    HW249741   4.175   7.456   0.236 -0.5497 -0.6712  0.3558
16231SOL     OW49742   6.210   3.958   3.733  0.0661 -0.3127  0.0104
16231SOL    HW149743   6.168   3.923   3.812 -0.4932  0.6817  0.1709
16231SOL    HW249744   6.301   3.930   3.740  0.4084  1.0713  1.8316
16232SOL     OW49745   8.176   1.776   4.279  0.1030 -0.4150  0.0469
16232SOL    HW149746   8.217   1.839   4.221 -1.5952 -0.0226 -0.7868
16232SOL    HW249747   8.239   1.705   4.286  1.5364  0.8061  0.0268
16233SOL     OW49748   0.762   0.654   1.607  0.3520 -0.4475  0.0650
16233SOL    HW149749   0.851   0.682   1.584  0.1467  1.2025  1.0977
16233SOL    HW249750   0.763   0.649   1.703 -0.9761  0.8566  0.1926
16234SOL     OW49751   3.283   4.287   8.102 -0.1085  0.0557  0.3479
16234SOL    HW149752   3.260   4.375   8.072 -1.8038 -0.2919  0.5239
16234SOL    HW249753   3.206   4.258   8.152  0.2592 -1.6757 -0.0334
16235SOL     OW49754   5.481   6.128   0.565 -0.4709  0.2126  0.1312
16235SOL    HW149755   5.564   6.092   0.534 -1.2252 -0.7159 -0.8749
16235SOL    HW249756   5.501   6.162   0.652  0.9032 -0.2278  0.0104
16236SOL     OW49757   3.341   7.124   2.746 -0.2439 -0.0774  0.4143
16236SOL    HW149758   3.415   7.073   2.713  0.0723 -0.3123  1.4440
16236SOL    HW249759   3.325   7.189   2.678 -0.5595 -1.4255 -0.8708
16237SOL     OW49760   7.600   7.312   1.435  0.5484 -0.1557 -0.6754
16237SOL    HW149761   7.616   7.344   1.524 -0.7425  1.9238 -1.1361
16237SOL    HW249762   7.547   7.233   1.448  1.1540 -0.4010  0.4258
16238SOL     OW49763   0.233   5.202   7.973  0.5044  0.0033  0.1465
16238SOL    HW149764   0.199   5.138   7.910  2.2659 -3.3026  2.2656
16238SOL    HW249765   0.327   5.185   7.976  1.2626  3.3973  0.2758
16239SOL     OW49766   4.145   6.396   4.675  1.0572  0.1127 -0.0353
16239SOL    HW149767   4.239   6.394   4.691  0.7518  1.1313  2.4123
16239SOL    HW249768   4.126   6.489   4.659  0.3839  0.0289  0.2504
16240SOL     OW49769   2.180   8.104   0.326 -0.2697  0.4923  0.3784
16240SOL    HW149770   2.092   8.076   0.300 -0.7514  0.2775  2.0838
16240SOL    HW249771   2.238   8.034   0.297 -0.9727 -0.4760  1.2282
16241SOL     OW49772   5.130   1.288   7.299  0.2497  0.1937  0.4716
16241SOL    HW149773   5.073   1.252   7.231 -0.5226 -2.7468  2.4993
16241SOL    HW249774   5.074   1.350   7.347  0.5114  1.5340 -0.8868
16242SOL     OW49775   7.449   6.870   3.233  1.1890  0.2082  0.3492
16242SOL    HW149776   7.495   6.788   3.250  0.0778 -0.1795  1.6210
16242SOL    HW249777   7.466   6.923   3.310  0.9360  0.7315  0.0473
16243SOL     OW49778   2.766   5.115   2.958  0.5595 -0.3454  0.4102
16243SOL    HW149779   2.688   5.104   3.013  1.1213  0.9101  1.5015
16243SOL    HW249780   2.797   5.025   2.944 -0.7930 -0.8298  0.3598
16244SOL     OW49781   6.931   2.033   1.751  0.1572 -0.3855 -0.3157
16244SOL    HW149782   6.842   2.039   1.784 -0.1712 -0.0781 -1.2124
16244SOL    HW249783   6.923   1.983   1.670  1.3679 -4.0232  1.6029
16245SOL     OW49784   3.905   3.892   7.976 -0.4391 -0.6390  0.1320
16245SOL    HW149785   3.936   3.834   7.907  3.7663  1.1090  0.2453
16245SOL    HW249786   3.886   3.975   7.931 -1.3493 -0.5791  0.6077
16246SOL     OW49787   7.395   3.208   3.314  0.8408 -0.5657 -0.1838
16246SOL    HW149788   7.427   3.295   3.289 -1.9050  0.5261 -0.2004
16246SOL    HW249789   7.426   3.151   3.244  1.2511  0.7191 -1.1045
16247SOL     OW49790   6.691   1.927   2.632  0.4890 -0.3715 -0.2586
16247SOL    HW149791   6.612   1.973   2.603 -0.4144 -2.2880 -1.0054
16247SOL    HW249792   6.680   1.918   2.726  0.8961  1.2503 -0.0182
16248SOL     OW49793   3.806   4.809   4.478 -0.3163  0.4231  0.6736
16248SOL    HW149794   3.863   4.732   4.484 -0.6006 -0.0118 -1.4790
16248SOL    HW249795   3.864   4.883   4.496  0.2664 -0.1976  1.4202
16249SOL     OW49796   2.496   7.206   3.237 -0.1306 -0.4979 -0.0505
16249SOL    HW149797   2.548   7.179   3.312  0.1027 -1.4090 -0.5291
16249SOL    HW249798   2.549   7.183   3.161 -0.2094  0.7318 -0.5056
16250SOL     OW49799   3.575   1.909   8.157  0.4588 -0.2775  0.4269
16250SOL    HW149800   3.577   1.926   8.251  0.9487 -1.0791  0.5743
16250SOL    HW249801   3.486   1.878   8.140  0.8124 -1.6391  0.9250
16251SOL     OW49802   6.615   8.258   3.990 -0.2304  0.5582  0.8595
16251SOL    HW149803   6.645   8.348   3.979  0.8424  0.3742  2.0254
16251SOL    HW249804   6.675   8.207   3.936 -1.1939  0.5756 -0.2567
16252SOL     OW49805   6.438   3.531   8.067  0.8736  0.6448 -0.3929
16252SOL    HW149806   6.424   3.621   8.096  2.3037  1.2255 -1.3770
16252SOL    HW249807   6.531   3.516   8.081  0.6933 -0.6015 -0.4681
16253SOL     OW49808   4.081   1.191   2.608 -0.0291  0.7850  0.0422
16253SOL    HW149809   4.140   1.249   2.560  1.0894  0.6619  1.2090
16253SOL    HW249810   4.001   1.243   2.619  0.0689  1.1939 -1.0229
16254SOL     OW49811   1.322   0.197   7.058  0.4203 -0.2873 -0.2158
16254SOL    HW149812   1.362   0.159   7.136 -1.1666 -2.7512 -0.5146
16254SOL    HW249813   1.349   0.138   6.987  0.5414  1.0209 -1.2866
16255SOL     OW49814   2.194   0.467   3.834 -0.6172  0.2357 -0.4853
16255SOL    HW149815   2.141   0.387   3.831 -0.6050  0.2556 -1.5143
16255SOL    HW249816   2.203   0.486   3.928 -2.3847  0.1966 -0.2759
16256SOL     OW49817   4.611   5.048   3.063 -0.4196  0.4576 -0.4441
16256SOL    HW149818   4.638   5.121   3.006  0.6218 -0.5399 -1.2904
16256SOL    HW249819   4.601   5.088   3.150  1.3932  1.4060 -0.6093
16257SOL     OW49820   1.353   2.940   2.551  0.0841 -0.2870  0.0005
16257SOL    HW149821   1.391   3.027   2.538  0.6931 -0.7788 -1.8877
16257SOL    HW249822   1.261   2.957   2.573 -0.1415  0.8608 -1.6447
16258SOL     OW49823   7.363   1.742   5.309 -0.0547  0.0613 -0.0909
16258SOL    HW149824   7.280   1.727   5.264 -0.4994 -1.9980  1.2630
16258SOL    HW249825   7.390   1.829   5.281 -2.2628  0.4684 -1.1917
16259SOL     OW49826   4.371   1.962   0.999 -0.2298 -0.1394  0.9677
16259SOL    HW149827   4.309   1.944   1.070 -0.7675  0.7265  0.7360
16259SOL    HW249828   4.317   2.000   0.930  0.9345  3.4886  1.8573
16260SOL     OW49829   3.940   0.802   5.550  0.7427 -0.1078 -0.1814
16260SOL    HW149830   3.918   0.715   5.516  0.7957 -0.7195  1.2841
16260SOL    HW249831   3.940   0.858   5.473 -1.6504 -0.9171 -0.8506
16261SOL     OW49832   2.778   0.961   6.033 -0.0054  0.3852  0.1576
16261SOL    HW149833   2.835   1.033   6.059 -0.3038  0.7436 -0.1637
16261SOL    HW249834   2.785   0.957   5.937  1.6689 -1.4080  0.2805
16262SOL     OW49835   1.599   4.395   3.894  0.5185  0.2644 -0.6990
16262SOL    HW149836   1.625   4.303   3.895 -0.1572  0.0677 -0.8255
16262SOL    HW249837   1.538   4.402   3.820 -0.0951  0.6255 -0.1670
16263SOL     OW49838   1.643   6.643   7.089 -0.5313  0.2194 -0.4159
16263SOL    HW149839   1.597   6.572   7.044 -2.2802  1.8404 -1.3243
16263SOL    HW249840   1.605   6.644   7.177  1.1976 -1.4212  0.4212
16264SOL     OW49841   4.966   5.627   0.773  0.5583  0.4714  0.4913
16264SOL    HW149842   4.884   5.611   0.726  0.3936  0.5821  0.7393
16264SOL    HW249843   4.939   5.670   0.854  0.6973 -1.1568  1.4396
16265SOL     OW49844   2.353   7.271   4.042 -0.7036 -0.0136 -0.5523
16265SOL    HW149845   2.408   7.193   4.039 -0.0018  0.4158  0.4979
16265SOL    HW249846   2.283   7.248   4.103  0.0947  0.5184  0.5985
16266SOL     OW49847   1.798   1.409   3.788 -0.0783 -0.3028 -1.0920
16266SOL    HW149848   1.716   1.414   3.739  0.5418  0.6292 -2.0888
16266SOL    HW249849   1.840   1.329   3.757  0.1381  0.0877 -1.8392
16267SOL     OW49850   4.598   5.957   7.735  0.5746 -0.5995  0.5526
16267SOL    HW149851   4.531   5.948   7.803  0.2943  0.9305  0.5169
16267SOL    HW249852   4.588   5.879   7.681 -2.9239  0.6465 -0.9334
16268SOL     OW49853   3.144   2.949   2.035  0.2980  0.8660 -0.1027
16268SOL    HW149854   3.123   3.033   2.075  1.3168  0.2559  1.8318
16268SOL    HW249855   3.070   2.892   2.057 -0.1683  1.0972 -1.0093
16269SOL     OW49856   2.289   6.056   6.919 -0.6392 -0.0278  0.3785
16269SOL    HW149857   2.318   6.130   6.865  1.5273 -0.7222  0.4877
16269SOL    HW249858   2.195   6.050   6.903 -0.7217  2.2033 -0.2971
16270SOL     OW49859   4.892   6.547   3.533 -0.2796  0.0794  0.3014
16270SOL    HW149860   4.852   6.489   3.598  0.2838 -0.1177  0.4791
16270SOL    HW249861   4.952   6.603   3.584 -0.5281  0.5519  0.0787
16271SOL     OW49862   3.730   0.042   3.450  0.1264 -0.1922  0.1826
16271SOL    HW149863   3.806   0.059   3.394 -1.2361  1.2576 -1.3323
16271SOL    HW249864   3.693   0.128   3.468 -3.2486 -0.9184 -2.2620
16272SOL     OW49865   1.333   2.244   2.125  0.1780  0.1845  0.4511
16272SOL    HW149866   1.258   2.284   2.081  0.1454  0.1293  0.4553
16272SOL    HW249867   1.407   2.298   2.100  0.2060 -0.0180  0.0888
16273SOL     OW49868   2.168   0.188   6.728 -0.6878  0.3623 -0.9559
16273SOL    HW149869   2.140   0.237   6.651 -1.8648 -0.0468 -0.8047
16273SOL    HW249870   2.116   0.224   6.800  1.8063  2.1787  0.1320
16274SOL     OW49871   6.358   5.680   1.363  0.4136 -0.5456  0.0374
16274SOL    HW149872   6.310   5.763   1.363  0.4198 -0.5310  0.6298
16274SOL    HW249873   6.429   5.695   1.427  0.9874 -0.6837 -0.5598
16275SOL     OW49874   2.550   2.271   6.909 -0.2390  0.3176  0.4064
16275SOL    HW149875   2.492   2.289   6.983 -0.6559 -1.3454  0.5207
16275SOL    HW249876   2.579   2.181   6.922  1.0054  0.5396 -0.5835
16276SOL     OW49877   5.809   8.077   2.440 -0.3782  0.3369 -0.1120
16276SOL    HW149878   5.815   7.982   2.445  1.2947  0.3940 -0.5018
16276SOL    HW249879   5.804   8.096   2.346  0.1792  0.6501 -0.0857
16277SOL     OW49880   4.854   6.150   6.793 -0.7315 -0.0991 -0.3461
16277SOL    HW149881   4.886   6.239   6.800 -0.3881 -0.2318 -0.2274
16277SOL    HW249882   4.795   6.152   6.717 -0.1358  0.0563 -0.8160
16278SOL     OW49883   1.159   2.014   2.354  0.3513  0.1562  0.5806
16278SOL    HW149884   1.080   1.988   2.306  1.4358 -0.2109 -1.0919
16278SOL    HW249885   1.151   2.109   2.365 -0.2813  0.1308  0.3492
16279SOL     OW49886   3.562   8.119   6.736 -0.0859 -0.7824  0.1100
16279SOL    HW149887   3.609   8.143   6.815  0.2426 -1.9740  0.2939
16279SOL    HW249888   3.567   8.024   6.733 -0.0059 -0.7589 -1.3905
16280SOL     OW49889   6.841   4.680   2.751  0.3868  0.1221  0.3349
16280SOL    HW149890   6.900   4.663   2.824  1.0663  0.9416 -0.0129
16280SOL    HW249891   6.755   4.689   2.793  1.0044  2.3169  1.2929
16281SOL     OW49892   1.699   4.787   7.430  0.2511 -0.3497 -0.1098
16281SOL    HW149893   1.671   4.878   7.422 -0.5882 -0.6341 -0.4209
16281SOL    HW249894   1.666   4.744   7.352 -1.9074 -1.5838  1.3894
16282SOL     OW49895   0.585   2.172   3.934  0.5809  0.3201  0.0818
16282SOL    HW149896   0.611   2.100   3.991  1.1423  0.2855 -0.2104
16282SOL    HW249897   0.512   2.213   3.980 -0.7600 -1.3345 -0.4312
16283SOL     OW49898   7.278   6.079   1.542 -1.1366 -0.4948 -1.0428
16283SOL    HW149899   7.365   6.091   1.503 -0.6484  0.9729  0.4261
16283SOL    HW249900   7.270   5.984   1.552  1.3140 -0.6032  0.9216
16284SOL     OW49901   4.438   0.559   5.450  0.6023 -0.1735  0.3049
16284SOL    HW149902   4.485   0.557   5.366  0.6883  2.7710  0.1815
16284SOL    HW249903   4.347   0.574   5.426  0.2093 -1.8234  0.6896
16285SOL     OW49904   2.099   6.454   0.413  0.0793 -0.4834  0.0443
16285SOL    HW149905   2.186   6.423   0.439  0.9607  2.1916  0.6156
16285SOL    HW249906   2.114   6.503   0.332 -1.0200 -0.5422 -0.2066
16286SOL     OW49907   4.359   4.936   7.783 -0.2410  0.2768  0.3366
16286SOL    HW149908   4.380   4.842   7.783  0.5916  0.4161  1.9555
16286SOL    HW249909   4.443   4.979   7.769 -0.8205  0.8079 -1.7829
16287SOL     OW49910   4.359   5.025   2.925 -0.6080 -0.0026  0.0652
16287SOL    HW149911   4.370   4.942   2.878  0.5338  0.1895 -0.0246
16287SOL    HW249912   4.420   5.020   2.998 -3.2524 -0.8467  2.4028
16288SOL     OW49913   6.008   2.066   1.003  0.3716 -0.2077  0.0784
16288SOL    HW149914   6.082   2.075   0.944  0.9700 -0.2676  0.8050
16288SOL    HW249915   6.032   2.118   1.080  0.0015 -0.8621  0.6481
16289SOL     OW49916   2.708   0.173   0.097 -0.1313 -0.3251  0.2613
16289SOL    HW149917   2.619   0.204   0.082  0.1253  0.0091 -0.6197
16289SOL    HW249918   2.727   0.117   0.022  0.2837 -0.6738  0.6197
16290SOL     OW49919   2.390   4.965   2.920 -0.2560 -0.3536 -0.6570
16290SOL    HW149920   2.295   4.955   2.929 -0.3850 -0.0365 -1.5517
16290SOL    HW249921   2.401   5.032   2.852  0.6182  0.6416  0.4370
16291SOL     OW49922   3.179   2.260   5.598 -0.3257  0.2565  0.8157
16291SOL    HW149923   3.102   2.309   5.569  0.1201  0.2562 -0.4303
16291SOL    HW249924   3.162   2.170   5.569  1.1597  0.6849 -1.6958
16292SOL     OW49925   6.615   3.944   4.654  0.1618  0.3576  0.0854
16292SOL    HW149926   6.641   4.031   4.624 -0.9396  0.6764  0.0241
16292SOL    HW249927   6.635   3.886   4.581  2.1202  0.3203  0.5896
16293SOL     OW49928   5.555   6.409   0.510  0.5998 -0.2447  0.4567
16293SOL    HW149929   5.555   6.321   0.473 -0.9955 -0.0377 -0.0899
16293SOL    HW249930   5.614   6.459   0.453 -1.3337 -0.0847 -1.5142
16294SOL     OW49931   3.527   6.862   6.187 -0.2211 -0.0488  0.4786
16294SOL    HW149932   3.595   6.864   6.118 -1.4288 -1.6397 -0.8358
16294SOL    HW249933   3.568   6.815   6.259  0.4320 -0.0916  0.0922
16295SOL     OW49934   8.036   0.891   3.159  0.5940 -0.5433  0.9551
16295SOL    HW149935   8.129   0.909   3.169  0.2733  1.2466  0.9219
16295SOL    HW249936   8.007   0.862   3.245  1.0309 -0.3625  1.1622
16296SOL     OW49937   2.690   1.800   2.889 -0.0255  0.0045 -0.0910
16296SOL    HW149938   2.772   1.844   2.863  0.0355 -0.8639 -1.5101
16296SOL    HW249939   2.712   1.707   2.889 -1.1984 -0.3077 -1.3204
16297SOL     OW49940   3.498   7.354   5.211 -0.1107 -0.0856  0.6491
16297SOL    HW149941   3.495   7.448   5.228 -1.1057 -0.2788  1.6607
16297SOL    HW249942   3.577   7.324   5.255 -0.6871  0.0245  1.7962
16298SOL     OW49943   1.034   5.594   1.198 -0.2796 -0.2962 -0.2613
16298SOL    HW149944   1.074   5.650   1.132  0.9151  1.3780  1.7510
16298SOL    HW249945   0.993   5.654   1.259  1.4945 -1.4900  2.2921
16299SOL     OW49946   0.578   5.982   3.812 -0.2593 -0.0286  0.0887
16299SOL    HW149947   0.488   5.983   3.843 -0.0847 -0.2381  0.6291
16299SOL    HW249948   0.626   6.032   3.878 -0.1919  1.3003 -0.9199
16300SOL     OW49949   4.364   8.043   1.680  0.1659  0.3106 -0.2024
16300SOL    HW149950   4.321   8.034   1.765 -2.5166 -2.1353 -1.6529
16300SOL    HW249951   4.301   8.091   1.626 -1.1126 -3.4940 -2.4341
16301SOL     OW49952   6.851   0.248   7.622  0.1760 -0.3293 -0.3862
16301SOL    HW149953   6.791   0.175   7.635 -1.1626  0.7282 -0.2700
16301SOL    HW249954   6.847   0.266   7.528  1.1189 -0.9076 -0.5363
16302SOL     OW49955   4.022   2.766   7.655  0.1618 -0.2627 -0.3607
16302SOL    HW149956   4.002   2.745   7.564  0.4652  0.7098 -0.6654
16302SOL    HW249957   4.109   2.806   7.652 -1.2329  3.1329 -0.1773
16303SOL     OW49958   6.147   0.723   6.181  0.2251  0.1417 -0.6209
16303SOL    HW149959   6.201   0.697   6.107 -0.4583  0.4860 -1.2652
16303SOL    HW249960   6.209   0.749   6.249  0.8620  0.3407 -1.2657
16304SOL     OW49961   0.329   3.110   2.879 -0.3798  0.2089 -0.0850
16304SOL    HW149962   0.262   3.065   2.830  0.8127 -1.1696 -0.5140
16304SOL    HW249963   0.389   3.144   2.813 -1.0682  2.1999  0.2412
16305SOL     OW49964   5.000   3.192   0.690 -0.1990  0.2658 -0.0723
16305SOL    HW149965   4.922   3.213   0.742 -1.5509 -3.4505 -0.2755
16305SOL    HW249966   4.972   3.202   0.599 -0.2105 -0.3456 -0.1383
16306SOL     OW49967   5.776   0.643   3.459 -0.6062  0.1216  0.5822
16306SOL    HW149968   5.804   0.717   3.512 -1.9063  1.2952 -0.3271
16306SOL    HW249969   5.854   0.587   3.454  0.0491  0.8104  2.2676
16307SOL     OW49970   4.770   6.112   4.687 -0.1549  0.1243 -0.4332
16307SOL    HW149971   4.773   6.084   4.779  1.9385  1.4053 -0.0313
16307SOL    HW249972   4.762   6.031   4.637  1.3045 -0.8627  0.8284
16308SOL     OW49973   6.083   1.384   5.867 -0.7883  0.0635 -0.2794
16308SOL    HW149974   6.128   1.459   5.905  1.1729 -0.8569 -0.6454
16308SOL    HW249975   5.994   1.415   5.850 -0.3815  1.9051  0.6946
16309SOL     OW49976   6.047   5.447   0.593 -0.7874  0.0609 -0.1140
16309SOL    HW149977   6.124   5.450   0.536 -1.0153  1.5377 -0.3912
16309SOL    HW249978   6.082   5.429   0.680 -0.0148  1.4288 -0.1075
16310SOL     OW49979   5.855   5.168   3.136 -0.3596 -0.3402 -0.1754
16310SOL    HW149980   5.790   5.235   3.116 -0.1508  0.5439  1.8610
16310SOL    HW249981   5.936   5.200   3.095 -0.3567  0.4487  0.4460
16311SOL     OW49982   6.285   5.617   0.780 -0.9871 -0.1473 -0.0412
16311SOL    HW149983   6.379   5.625   0.793 -1.2098  0.1885  1.6052
16311SOL    HW249984   6.253   5.708   0.780 -1.2412 -0.2228 -1.3004
16312SOL     OW49985   0.769   3.866   3.179 -0.4239  0.3265  0.1921
16312SOL    HW149986   0.741   3.957   3.186 -1.2436  0.2251 -1.2400
16312SOL    HW249987   0.828   3.853   3.253  0.3721  2.2551 -0.0302
16313SOL     OW49988   1.827   4.287   3.568 -0.6082 -0.0186  0.5749
16313SOL    HW149989   1.840   4.266   3.476 -1.5726  1.5232  0.0432
16313SOL    HW249990   1.737   4.261   3.587 -0.5445  0.0380  0.9749
16314SOL     OW49991   3.810   7.536   5.126 -0.0012  0.1753 -0.1647
16314SOL    HW149992   3.727   7.559   5.168 -0.5812 -1.4353 -0.3832
16314SOL    HW249993   3.806   7.578   5.040 -1.6381 -1.7163 -1.1004
16315SOL     OW49994   8.080   7.463   8.138 -0.5150 -0.3554 -0.2114
16315SOL    HW149995   8.066   7.412   8.217 -0.2170 -0.6219 -0.3278
16315SOL    HW249996   8.161   7.428   8.100 -1.0078 -0.6984 -0.9875
16316SOL     OW49997   2.276   3.539   5.584  0.2599  0.2926  0.1382
16316SOL    HW149998   2.218   3.464   5.586  0.1369  0.3376  3.3405
16316SOL    HW249999   2.220   3.613   5.558 -0.7033  0.0221  1.3907
16317SOL     OW50000   1.794   7.337   1.518  0.2119 -0.0142 -0.7968
16317SOL    HW150001   1.757   7.248   1.516  0.1250  0.0196 -0.6941
16317SOL    HW250002   1.722   7.394   1.493 -1.0689  0.4739  3.2701
16318SOL     OW50003   4.689   8.050   8.213 -0.3584 -0.4404 -0.1142
16318SOL    HW150004   4.632   8.084   8.144 -0.3099 -1.1263 -0.5053
16318SOL    HW250005   4.730   8.128   8.251  0.6132 -0.1050 -1.7329
16319SOL     OW50006   5.505   8.078   3.753 -0.8708 -0.4584  0.1889
16319SOL    HW150007   5.572   8.021   3.789 -0.2477  1.4975  2.4117
16319SOL    HW250008   5.548   8.163   3.744 -2.3059  0.1910 -1.0672
16320SOL     OW50009   2.326   1.906   7.919 -0.1960  0.3152 -0.4869
16320SOL    HW150010   2.233   1.925   7.928 -0.0685  0.1936  1.3140
16320SOL    HW250011   2.370   1.990   7.929 -0.0970  0.4141 -1.5889
16321SOL     OW50012   2.847   0.297   5.007  0.0861 -0.1589  0.4044
16321SOL    HW150013   2.757   0.284   4.978 -0.1466 -0.2984  1.1732
16321SOL    HW250014   2.900   0.259   4.936 -0.4943 -1.5912  0.6977
16322SOL     OW50015   4.797   3.625   8.258  0.7299 -0.3651 -0.0431
16322SOL    HW150016   4.733   3.577   8.205  0.1425  0.5140 -0.1666
16322SOL    HW250017   4.809   3.708   8.211  0.1385  0.4649  1.2102
16323SOL     OW50018   1.304   3.466   4.838  0.0365 -0.8816 -0.5129
16323SOL    HW150019   1.318   3.443   4.929 -0.3383 -2.0340 -0.7223
16323SOL    HW250020   1.231   3.528   4.839 -0.6868 -1.7255 -0.1001
16324SOL     OW50021   0.605   6.015   8.162  0.3142 -0.4225  0.0764
16324SOL    HW150022   0.580   6.079   8.095 -0.1910 -1.7744 -1.0605
16324SOL    HW250023   0.578   6.056   8.245 -0.4359  0.6309 -0.6568
16325SOL     OW50024   5.241   4.571   7.377  0.0794 -0.3359 -0.0071
16325SOL    HW150025   5.208   4.659   7.398  0.4703 -0.5855  1.8304
16325SOL    HW250026   5.171   4.512   7.405 -0.0255 -0.6476 -0.8945
16326SOL     OW50027   5.542   7.416   4.578 -1.0855 -0.2493  0.0119
16326SOL    HW150028   5.479   7.349   4.604 -1.2715  0.0548  0.3546
16326SOL    HW250029   5.505   7.454   4.499 -1.5855  0.2688  0.4928
16327SOL     OW50030   2.356   5.224   4.925  0.1208  0.0081  0.2949
16327SOL    HW150031   2.417   5.210   4.853 -1.0620  0.1002 -0.7495
16327SOL    HW250032   2.360   5.318   4.942 -0.3921  0.1517 -0.3726
16328SOL     OW50033   2.465   2.794   3.759 -0.4033  0.4967  0.8506
16328SOL    HW150034   2.553   2.794   3.797 -0.7328  1.1352  1.6295
16328SOL    HW250035   2.476   2.835   3.674 -0.0388  1.0737  1.1697
16329SOL     OW50036   7.941   1.889   1.239  0.6406  0.2775 -0.3922
16329SOL    HW150037   7.855   1.931   1.248  1.1822  1.0627  1.7922
16329SOL    HW250038   7.943   1.858   1.149 -2.4520 -0.9057 -0.1903
16330SOL     OW50039   4.551   5.893   4.311 -0.0788 -0.7633 -0.2953
16330SOL    HW150040   4.593   5.942   4.381 -0.4249  0.8094 -1.1444
16330SOL    HW250041   4.600   5.916   4.232 -1.3278 -0.3871 -0.9866
16331SOL     OW50042   2.285   1.764   0.378  0.4881  0.1391 -0.3566
16331SOL    HW150043   2.229   1.757   0.301 -0.4110 -1.0270  0.3778
16331SOL    HW250044   2.236   1.818   0.439  0.7857  0.2843 -0.2424
16332SOL     OW50045   1.786   0.477   4.491 -0.0375  0.1096  0.1127
16332SOL    HW150046   1.806   0.544   4.556  0.0659  0.7336 -0.5423
16332SOL    HW250047   1.850   0.408   4.506  1.0205  0.9641 -0.3421
16333SOL     OW50048   7.561   1.484   7.318  0.0603 -0.0479  0.2581
16333SOL    HW150049   7.551   1.532   7.235 -1.1946 -2.6277 -1.2254
16333SOL    HW250050   7.472   1.455   7.339  0.7391 -1.7011  1.0312
16334SOL     OW50051   4.081   3.025   4.589 -0.3922 -0.0206 -0.2464
16334SOL    HW150052   4.016   3.037   4.520 -1.4716  3.2065  1.1306
16334SOL    HW250053   4.159   3.070   4.558 -0.3454  0.0427 -0.0428
16335SOL     OW50054   6.006   3.813   5.177 -0.0579 -0.0719  0.3732
16335SOL    HW150055   6.016   3.833   5.084  1.8886 -2.6520 -0.0936
16335SOL    HW250056   5.954   3.733   5.178 -2.8335  1.5903  1.7900
16336SOL     OW50057   0.406   1.788   6.213  0.0935  0.2469  0.3685
16336SOL    HW150058   0.443   1.872   6.185 -0.0176 -0.0687 -0.7555
16336SOL    HW250059   0.374   1.805   6.302  0.2777  1.3287  0.2446
16337SOL     OW50060   3.684   5.016   4.923 -0.1119  0.1310  0.4180
16337SOL    HW150061   3.741   4.955   4.970 -0.2982 -0.9093 -0.6535
16337SOL    HW250062   3.610   4.963   4.894 -0.3665  0.9013 -0.3885
16338SOL     OW50063   7.336   7.286   5.123  0.2158  0.0080  0.1961
16338SOL    HW150064   7.349   7.300   5.029  1.1247  0.3654  0.3580
16338SOL    HW250065   7.247   7.317   5.140 -0.5241 -1.4656 -0.8093
16339SOL     OW50066   7.242   6.905   8.041 -0.0447  0.1275  0.4979
16339SOL    HW150067   7.213   6.996   8.048  0.8564  0.4710 -0.0892
16339SOL    HW250068   7.161   6.855   8.027 -0.5309  0.8532  0.7182
16340SOL     OW50069   3.233   2.673   1.513  0.3423  0.0551 -0.2318
16340SOL    HW150070   3.286   2.609   1.466 -0.9750 -2.2938  1.2652
16340SOL    HW250071   3.296   2.725   1.563  1.4823  0.3037 -1.8744
16341SOL     OW50072   7.871   3.727   6.163 -0.2044 -0.1222 -0.0283
16341SOL    HW150073   7.779   3.729   6.138 -0.1357 -0.3446 -0.3091
16341SOL    HW250074   7.874   3.674   6.243 -0.0554 -1.9998 -1.2217
16342SOL     OW50075   2.187   2.710   5.344 -0.4074  0.3824 -0.4189
16342SOL    HW150076   2.142   2.663   5.414 -0.2296  0.7862 -0.0212
16342SOL    HW250077   2.197   2.646   5.274 -2.9382  0.6928 -1.1365
16343SOL     OW50078   6.388   6.903   2.208 -0.9544 -0.4807  0.0409
16343SOL    HW150079   6.452   6.968   2.235 -1.4637  1.1181 -2.3134
16343SOL    HW250080   6.305   6.936   2.244 -1.1215 -0.0851 -0.6793
16344SOL     OW50081   4.028   2.134   7.754 -0.5703 -0.4202 -0.1832
16344SOL    HW150082   4.090   2.119   7.682  0.1176  0.2278  0.2540
16344SOL    HW250083   4.083   2.138   7.832 -1.1614  0.1821  0.2121
16345SOL     OW50084   4.735   4.681   6.972  0.0618  0.5511  0.0481
16345SOL    HW150085   4.675   4.701   7.044  0.2044  2.1408 -0.2398
16345SOL    HW250086   4.815   4.652   7.015 -0.7286 -1.1936  0.4456
16346SOL     OW50087   3.882   2.060   1.260  0.1133  0.2433 -0.1993
16346SOL    HW150088   3.881   2.020   1.173  1.4856 -1.2006  0.3875
16346SOL    HW250089   3.972   2.092   1.270  0.0106  0.2648  0.7204
16347SOL     OW50090   1.573   2.119   8.090 -0.2488 -0.1747  0.0115
16347SOL    HW150091   1.549   2.117   7.997  0.1019  1.1146 -0.1256
16347SOL    HW250092   1.489   2.114   8.136 -0.5086  0.3182 -0.3998
16348SOL     OW50093   4.013   6.111   6.623 -0.6109  0.0621  0.0234
16348SOL    HW150094   4.047   6.084   6.537 -1.9284  0.3214 -0.6060
16348SOL    HW250095   4.052   6.197   6.637  0.1402 -0.2616  0.0135
16349SOL     OW50096   1.289   3.457   1.921  0.4167  0.0537  0.3392
16349SOL    HW150097   1.241   3.497   1.994  0.3402  0.1024  0.2623
16349SOL    HW250098   1.294   3.526   1.855 -1.9672 -0.8109 -0.8529
16350SOL     OW50099   5.084   7.790   2.530 -0.4842 -1.0557  0.1034
16350SOL    HW150100   5.130   7.842   2.595 -0.2956 -1.2591  0.1358
16350SOL    HW250101   5.037   7.723   2.581 -1.1404 -0.6093  0.1007
16351SOL     OW50102   1.638   3.991   3.398  0.3795 -0.1506 -0.3252
16351SOL    HW150103   1.628   3.982   3.493 -0.5010  2.3139 -0.1228
16351SOL    HW250104   1.552   3.968   3.364  0.4990 -0.3638 -0.4849
16352SOL     OW50105   5.065   1.983   6.926  0.3979 -0.2953 -0.5231
16352SOL    HW150106   5.087   1.981   7.019  0.9477  1.3327 -0.5935
16352SOL    HW250107   5.031   1.895   6.908  0.8027 -0.8161  1.0743
16353SOL     OW50108   0.442   0.997   4.657 -0.2118 -0.0454 -0.0499
16353SOL    HW150109   0.360   1.047   4.665 -0.2739  0.1924 -1.7295
16353SOL    HW250110   0.477   1.023   4.572  1.4238 -0.4558  0.4737
16354SOL     OW50111   1.993   3.477   7.267 -0.1325  0.2791 -0.2738
16354SOL    HW150112   1.924   3.435   7.319  0.9099  1.2651  2.0935
16354SOL    HW250113   2.064   3.413   7.266 -0.3448  0.0548 -0.9508
16355SOL     OW50114   5.561   2.544   3.950 -0.0302 -0.2262  0.0878
16355SOL    HW150115   5.639   2.512   3.996  0.1534  0.4104  0.2266
16355SOL    HW250116   5.575   2.521   3.859 -0.4506 -1.6161  0.3398
16356SOL     OW50117   1.857   7.829   6.012 -0.2121  0.1345  0.0541
16356SOL    HW150118   1.786   7.877   5.968  1.5936  2.8319 -0.1465
16356SOL    HW250119   1.894   7.774   5.943  0.4645  1.8200 -0.9956
16357SOL     OW50120   6.155   0.228   7.612 -0.1542 -0.0175 -0.5145
16357SOL    HW150121   6.152   0.189   7.525  0.9142  0.1653 -0.6537
16357SOL    HW250122   6.131   0.320   7.597  0.0600  0.0220 -0.6288
16358SOL     OW50123   2.572   3.164   5.901 -0.0294 -0.5428 -0.2745
16358SOL    HW150124   2.593   3.237   5.843  0.8166 -1.3138 -0.9711
16358SOL    HW250125   2.642   3.163   5.965 -1.2872  0.6972  1.2159
16359SOL     OW50126   1.689   6.721   3.301 -0.0935 -0.2114  0.7676
16359SOL    HW150127   1.688   6.677   3.386  2.0325 -1.1786  0.3611
16359SOL    HW250128   1.601   6.707   3.266 -0.5269 -1.1404  2.1345
16360SOL     OW50129   5.208   6.207   2.012  0.3977  0.0888  0.2150
16360SOL    HW150130   5.140   6.162   1.962  0.5095 -0.1788  0.3034
16360SOL    HW250131   5.249   6.266   1.949  0.4475 -0.1491  0.0245
16361SOL     OW50132   2.130   4.140   1.253  0.3692  0.3701 -0.1575
16361SOL    HW150133   2.081   4.063   1.224 -1.5149  0.4268  2.5210
16361SOL    HW250134   2.183   4.109   1.326  0.9094  1.2642 -0.1532
16362SOL     OW50135   3.657   0.276   6.941 -0.1714  0.0900  0.1695
16362SOL    HW150136   3.620   0.199   6.898  1.8843 -0.9287  0.1175
16362SOL    HW250137   3.671   0.338   6.870 -1.0027  0.1827  0.0770
16363SOL     OW50138   5.543   7.958   0.181 -1.0556 -0.0604  0.4266
16363SOL    HW150139   5.570   7.869   0.155 -0.0793  0.0642  0.9382
16363SOL    HW250140   5.481   7.943   0.253 -1.6721 -0.3415 -0.1514
16364SOL     OW50141   2.025   7.849   1.109  0.0946 -0.2791  0.2043
16364SOL    HW150142   2.064   7.923   1.156 -0.6621 -0.2601  0.8341
16364SOL    HW250143   1.964   7.890   1.047  0.8449 -0.3192 -0.5890
16365SOL     OW50144   4.471   6.989   7.426  0.0644 -0.4350 -0.0057
16365SOL    HW150145   4.491   6.971   7.518  0.3583 -0.6971 -0.1206
16365SOL    HW250146   4.475   6.903   7.383  0.9143 -0.1782 -0.4564
16366SOL     OW50147   3.692   3.503   5.553 -0.2797  0.2674 -0.0891
16366SOL    HW150148   3.740   3.505   5.636  1.0435  0.7547 -0.8447
16366SOL    HW250149   3.662   3.593   5.541  1.3116  0.6993 -1.1186
16367SOL     OW50150   7.743   4.803   7.469 -0.2035 -0.6204 -0.5843
16367SOL    HW150151   7.759   4.727   7.525  1.0010  0.0605  0.0287
16367SOL    HW250152   7.830   4.836   7.448 -0.7063  0.5938 -0.8433
16368SOL     OW50153   8.168   1.083   4.828 -0.4263 -0.1280 -0.6655
16368SOL    HW150154   8.251   1.041   4.852 -0.7123 -0.6814 -0.6447
16368SOL    HW250155   8.194   1.172   4.802 -0.0436  0.3107  1.1065
16369SOL     OW50156   8.184   4.931   3.510  0.0938  0.1007 -0.2632
16369SOL    HW150157   8.164   4.838   3.507  0.9394 -0.1105  0.4485
16369SOL    HW250158   8.119   4.968   3.569 -1.1513  0.2241 -1.6463
16370SOL     OW50159   7.467   2.201   6.117  0.4628  0.0636  0.2233
16370SOL    HW150160   7.512   2.167   6.040  0.6756 -0.7766  0.7033
16370SOL    HW250161   7.453   2.294   6.098  0.4850 -0.1354 -0.8350
16371SOL     OW50162   4.400   8.103   4.176  0.1051  0.6510 -0.1080
16371SOL    HW150163   4.355   8.145   4.249 -1.3050 -1.4501  0.3209
16371SOL    HW250164   4.342   8.032   4.150  1.6870 -0.1118 -1.7485
16372SOL     OW50165   0.686   2.229   7.971  0.4047 -0.4138 -0.0986
16372SOL    HW150166   0.722   2.164   7.911  0.5799 -0.7786  0.3937
16372SOL    HW250167   0.593   2.235   7.946  0.5516 -0.2946 -0.6353
16373SOL     OW50168   6.690   2.669   6.038  0.2772 -0.0136 -0.0409
16373SOL    HW150169   6.654   2.580   6.036  0.3298 -0.0257 -0.9646
16373SOL    HW250170   6.664   2.707   5.954  0.7913  0.6342  0.0833
16374SOL     OW50171   2.070   4.926   4.621 -0.1888 -0.1196 -0.7475
16374SOL    HW150172   2.009   4.878   4.565  1.2301 -2.4479 -0.4242
16374SOL    HW250173   2.053   4.893   4.709 -0.5052  1.4720 -0.1731
16375SOL     OW50174   1.087   7.462   0.661  0.1902  0.8044 -0.3703
16375SOL    HW150175   1.126   7.441   0.745  2.7370 -1.0566 -1.8789
16375SOL    HW250176   1.031   7.387   0.641 -0.9415  1.5488 -0.0713
16376SOL     OW50177   5.351   3.778   4.387  0.5622 -0.4893  0.1245
16376SOL    HW150178   5.407   3.776   4.465  0.1722 -0.7989  0.3965
16376SOL    HW250179   5.412   3.794   4.315  0.9696 -0.5384  0.4527
16377SOL     OW50180   3.617   4.708   5.664 -0.1687  0.0621  0.0973
16377SOL    HW150181   3.595   4.737   5.575 -2.2024  0.3232  0.6223
16377SOL    HW250182   3.579   4.776   5.720  0.4617 -0.4682  1.1871
16378SOL     OW50183   7.881   4.495   7.341 -0.7440  0.8039 -0.0802
16378SOL    HW150184   7.895   4.519   7.432 -0.8977 -0.0211  0.1724
16378SOL    HW250185   7.807   4.435   7.343 -0.5578  0.5460 -0.7101
16379SOL     OW50186   6.942   2.836   1.335  0.0830 -0.1490 -0.3418
16379SOL    HW150187   6.969   2.746   1.318 -1.3599 -0.9074  1.2111
16379SOL    HW250188   6.884   2.858   1.261 -0.0570 -0.7050 -0.3996
16380SOL     OW50189   6.205   6.471   8.213  0.0386 -0.0854  0.2232
16380SOL    HW150190   6.201   6.550   8.158 -1.6393  1.6570  2.6354
16380SOL    HW250191   6.119   6.430   8.201  0.0248 -0.2253  0.7755
16381SOL     OW50192   6.055   1.594   3.907 -0.0343 -0.0818  0.3124
16381SOL    HW150193   6.067   1.662   3.841 -1.5833  0.0722  0.1625
16381SOL    HW250194   6.115   1.619   3.978  0.4336  0.6531 -0.3262
16382SOL     OW50195   7.578   5.672   2.127  0.0421 -0.0871  0.3619
16382SOL    HW150196   7.548   5.584   2.105 -1.5073  0.4219  0.3378
16382SOL    HW250197   7.634   5.661   2.204 -0.5938 -1.0165  0.6951
16383SOL     OW50198   5.268   0.547   1.926  0.3672  0.2114 -0.2272
16383SOL    HW150199   5.174   0.564   1.914  0.3899  0.1983 -0.4204
16383SOL    HW250200   5.287   0.580   2.014  0.4331  1.3077 -0.6372
16384SOL     OW50201   1.526   2.400   6.309 -0.1010 -0.3789  0.6916
16384SOL    HW150202   1.599   2.362   6.358 -0.4813  0.1689  1.7140
16384SOL    HW250203   1.471   2.326   6.285  0.1310 -0.6642  1.0360
16385SOL     OW50204   0.367   3.114   5.272 -0.2063 -0.0382 -0.2477
16385SOL    HW150205   0.277   3.082   5.270 -0.2659  0.1620 -0.8055
16385SOL    HW250206   0.364   3.199   5.229 -0.0819  0.8151  1.3235
16386SOL     OW50207   0.080   3.577   4.224 -0.7194 -0.0683  0.0485
16386SOL    HW150208   0.012   3.599   4.288  0.3931  0.2854  1.1395
16386SOL    HW250209   0.155   3.631   4.249 -0.0489 -0.4100 -1.1659
16387SOL     OW50210   2.547   4.670   4.099  0.1500 -0.4675 -0.9752
16387SOL    HW150211   2.510   4.594   4.144  0.6651 -0.5166 -0.6299
16387SOL    HW250212   2.471   4.724   4.079  0.0001  0.1683  1.0795
16388SOL     OW50213   2.786   7.988   1.104 -0.6570  0.3080 -0.2424
16388SOL    HW150214   2.860   7.941   1.065 -0.3850  0.4513  0.0882
16388SOL    HW250215   2.801   8.080   1.081 -0.4104  0.4152  0.3102
16389SOL     OW50216   5.880   0.568   6.092  0.1028 -0.4573 -0.3932
16389SOL    HW150217   5.879   0.520   6.010  0.4547 -1.8774  0.4021
16389SOL    HW250218   5.972   0.564   6.121 -0.0084  0.0745  0.0461
16390SOL     OW50219   3.084   1.304   0.341 -0.0125  0.0915  0.1447
16390SOL    HW150220   3.097   1.338   0.252 -0.5612  0.5817  0.2439
16390SOL    HW250221   3.045   1.218   0.329  1.7522 -0.7044 -0.1230
16391SOL     OW50222   2.776   5.564   7.799 -0.4533  0.2920  0.1813
16391SOL    HW150223   2.724   5.508   7.858 -0.7690 -0.8437 -1.1253
16391SOL    HW250224   2.744   5.652   7.815  0.2466  0.2011  2.5201
16392SOL     OW50225   1.008   7.010   7.868 -0.3131 -0.3411 -0.0446
16392SOL    HW150226   0.970   6.926   7.895 -1.1845  0.0068 -0.1603
16392SOL    HW250227   0.985   7.070   7.939 -0.9846  0.1396 -0.6582
16393SOL     OW50228   2.228   0.805   6.602  0.1956  0.1585  0.2431
16393SOL    HW150229   2.200   0.743   6.669  0.6347 -1.0241 -0.6332
16393SOL    HW250230   2.323   0.799   6.601  0.2960  1.4210  0.6596
16394SOL     OW50231   2.554   5.769   0.169 -0.2484  0.1592  0.1807
16394SOL    HW150232   2.643   5.769   0.133 -0.5637  0.8208 -0.6542
16394SOL    HW250233   2.507   5.705   0.117 -0.8220  1.4376 -0.9485
16395SOL     OW50234   2.752   2.081   0.148  0.2081 -0.6084 -0.1067
16395SOL    HW150235   2.749   2.032   0.230  2.0424 -0.6407 -0.0023
16395SOL    HW250236   2.668   2.064   0.106 -0.7770 -0.5792  1.7580
16396SOL     OW50237   5.606   2.622   6.492 -0.1810  0.0714 -0.4680
16396SOL    HW150238   5.582   2.531   6.509 -1.1628  0.2880 -0.6424
16396SOL    HW250239   5.541   2.673   6.540  1.2484  0.7015  0.8837
16397SOL     OW50240   4.469   7.713   5.760 -0.3850 -0.0542  0.1786
16397SOL    HW150241   4.486   7.803   5.788 -1.9240  0.2722  0.1823
16397SOL    HW250242   4.535   7.661   5.805  0.3978  1.0367  0.3512
16398SOL     OW50243   7.799   1.369   1.066 -0.1070  0.0757 -0.3336
16398SOL    HW150244   7.804   1.339   1.157  1.9619 -1.0084 -0.7279
16398SOL    HW250245   7.737   1.310   1.025  1.0047 -1.2177 -0.2094
16399SOL     OW50246   4.340   8.135   6.824 -0.7687 -0.2432  0.0590
16399SOL    HW150247   4.403   8.107   6.890  1.2225 -0.7910 -1.9439
16399SOL    HW250248   4.314   8.223   6.850  1.3829  0.2659  0.6035
16400SOL     OW50249   8.248   2.914   7.271  0.1058  0.3077  0.1134
16400SOL    HW150250   8.215   2.978   7.335  1.9681  1.3500  0.0879
16400SOL    HW250251   8.343   2.917   7.281  0.3562 -0.6786 -1.6138
16401SOL     OW50252   3.582   2.419   0.425  0.1842  0.2261  0.3356
16401SOL    HW150253   3.531   2.448   0.350  1.3747 -0.3644 -0.7427
16401SOL    HW250254   3.525   2.358   0.471 -0.8595  1.2225  0.3954
16402SOL     OW50255   5.935   3.405   1.720 -0.2867  0.1209  0.3924
16402SOL    HW150256   5.987   3.370   1.647  1.9985  2.7659  0.5972
16402SOL    HW250257   5.991   3.392   1.797 -1.1227  0.6050  1.0941
16403SOL     OW50258   0.067   5.334   7.086  0.1206 -0.4668 -0.4543
16403SOL    HW150259   0.059   5.240   7.072 -0.9901 -0.0482 -3.3221
16403SOL    HW250260  -0.021   5.363   7.109  0.7099 -0.2303  1.7132
16404SOL     OW50261   6.059   3.785   2.653  0.1221 -0.1362 -0.2403
16404SOL    HW150262   5.974   3.751   2.683 -0.4410 -2.0210 -3.5154
16404SOL    HW250263   6.044   3.879   2.643 -1.4255 -0.3438 -0.2166
16405SOL     OW50264   8.182   2.203   3.216  0.3208  0.7140  0.3341
16405SOL    HW150265   8.192   2.111   3.195 -1.7083  0.5488 -0.1661
16405SOL    HW250266   8.142   2.241   3.137 -1.4045  1.4181  1.4743
16406SOL     OW50267   4.474   7.011   4.742 -0.0223  0.1156  0.0813
16406SOL    HW150268   4.559   7.004   4.699  1.9920  1.8839  3.3433
16406SOL    HW250269   4.446   6.921   4.757 -1.4129 -0.7294 -5.3510
16407SOL     OW50270   5.453   0.423   5.311  0.5710  0.0319 -0.8717
16407SOL    HW150271   5.382   0.359   5.314  1.3005 -0.8176 -1.0765
16407SOL    HW250272   5.414   0.505   5.340 -1.2324  0.3002 -3.7078
16408SOL     OW50273   4.143   3.939   0.518 -0.0426  0.4655  0.1655
16408SOL    HW150274   4.236   3.954   0.505 -0.2293  1.0077 -0.5891
16408SOL    HW250275   4.100   4.007   0.467 -0.8529  0.4533  0.8037
16409SOL     OW50276   4.471   0.597   2.650 -0.3501 -0.1647 -0.2703
16409SOL    HW150277   4.466   0.595   2.555  1.5302  0.5465 -0.4135
16409SOL    HW250278   4.509   0.682   2.671  0.7972 -0.9510  1.0126
16410SOL     OW50279   1.769   1.810   0.744 -0.3426  0.4288  0.2175
16410SOL    HW150280   1.725   1.740   0.792 -0.2215 -0.0835 -0.3944
16410SOL    HW250281   1.832   1.764   0.687  0.1239  1.0704  0.2022
16411SOL     OW50282   5.626   4.236   7.006  0.0127 -0.1997  0.0148
16411SOL    HW150283   5.572   4.268   6.934 -1.2067  2.4719  1.9439
16411SOL    HW250284   5.571   4.171   7.050 -0.3233  0.0936  0.0391
16412SOL     OW50285   1.839   5.492   3.450  0.4165 -0.0750 -0.9209
16412SOL    HW150286   1.896   5.429   3.496  0.8945  1.2148  0.3525
16412SOL    HW250287   1.760   5.495   3.504 -0.0981 -0.4676 -1.6482
16413SOL     OW50288   6.607   3.415   7.124 -0.0686 -0.5369  0.0427
16413SOL    HW150289   6.677   3.352   7.110  1.1993  1.1081 -1.3299
16413SOL    HW250290   6.638   3.496   7.084 -1.8388  0.8619  1.3146
16414SOL     OW50291   0.776   0.843   7.179 -0.4527 -0.6728  0.2737
16414SOL    HW150292   0.774   0.751   7.154 -0.7153 -1.2548  2.2773
16414SOL    HW250293   0.690   0.878   7.152  0.3740 -0.4153 -2.3367
16415SOL     OW50294   7.339   1.640   0.152  0.0881  0.2753 -0.2234
16415SOL    HW150295   7.245   1.641   0.137 -0.4246 -2.1360  2.0535
16415SOL    HW250296   7.360   1.729   0.181 -1.1569  1.2365 -2.0961
16416SOL     OW50297   1.286   6.190   7.693  0.1676  0.4909  0.1326
16416SOL    HW150298   1.321   6.277   7.674  0.7145  0.4541  0.9007
16416SOL    HW250299   1.193   6.204   7.709  0.3188  0.9955  0.6042
16417SOL     OW50300   0.278   5.183   5.067  0.1600 -0.0330  0.2262
16417SOL    HW150301   0.293   5.238   5.144  1.6341 -0.7532  0.4879
16417SOL    HW250302   0.183   5.188   5.052  0.0901  1.5031  1.0254
16418SOL     OW50303   5.948   1.529   5.270  0.3422 -0.0844 -0.4151
16418SOL    HW150304   5.945   1.508   5.364 -0.4726 -1.1068 -0.6510
16418SOL    HW250305   5.943   1.624   5.267  1.6341  0.0569  0.6240
16419SOL     OW50306   7.073   5.201   1.609  0.1247  0.2172  0.1299
16419SOL    HW150307   7.160   5.162   1.618 -0.0346  0.1297  1.5176
16419SOL    HW250308   7.067   5.225   1.517  1.5145 -0.0258 -0.0480
16420SOL     OW50309   7.406   6.286   2.190  0.0715 -0.1235 -0.3725
16420SOL    HW150310   7.318   6.311   2.163  0.8897  0.3974 -2.8761
16420SOL    HW250311   7.448   6.369   2.213  0.5989 -0.0273 -1.5861
16421SOL     OW50312   5.901   0.291   3.930  0.2170  0.0691 -0.0328
16421SOL    HW150313   5.956   0.239   3.988 -0.5013 -0.8329 -0.1465
16421SOL    HW250314   5.944   0.377   3.927  2.0944 -0.8534 -0.8224
16422SOL     OW50315   4.406   6.823   2.751 -0.2145 -0.7380  0.5006
16422SOL    HW150316   4.443   6.901   2.709 -2.2244  0.2653  0.5047
16422SOL    HW250317   4.467   6.753   2.728  2.2575  0.9812  1.3822
16423SOL     OW50318   2.739   3.611   5.280  0.2736  0.7297 -0.5295
16423SOL    HW150319   2.784   3.678   5.229 -0.6568  2.5279  0.9041
16423SOL    HW250320   2.762   3.529   5.237  2.0628  1.8753 -1.9071
16424SOL     OW50321   1.054   3.101   1.329 -0.2893 -0.0080 -0.0440
16424SOL    HW150322   1.134   3.049   1.336 -0.2555  0.0495 -0.0037
16424SOL    HW250323   1.072   3.179   1.381 -0.8584 -0.5945  1.0757
16425SOL     OW50324   2.286   0.418   3.322  0.7464 -0.4129  0.8243
16425SOL    HW150325   2.372   0.427   3.280 -0.4673 -2.6383 -2.5921
16425SOL    HW250326   2.235   0.492   3.289  0.3743 -1.0556 -0.0845
16426SOL     OW50327   1.097   1.288   6.924 -0.0063  0.1231 -0.5275
16426SOL    HW150328   1.047   1.208   6.941  0.4252 -0.0046  0.1378
16426SOL    HW250329   1.031   1.351   6.894 -0.5870 -0.0288  0.3923
16427SOL     OW50330   3.799   5.099   1.535  0.1458  0.3989  0.1873
16427SOL    HW150331   3.733   5.087   1.604  2.0624  0.6866  2.1743
16427SOL    HW250332   3.778   5.031   1.471 -0.1111 -1.7458  2.3938
16428SOL     OW50333   0.952   1.090   7.058 -0.1281 -0.2565 -0.0651
16428SOL    HW150334   0.860   1.082   7.086 -0.4084  1.7324 -0.3236
16428SOL    HW250335   0.994   1.139   7.129  0.5044 -0.2328 -0.4547
16429SOL     OW50336   4.259   1.461   2.045  0.0835 -0.0474 -0.0976
16429SOL    HW150337   4.330   1.460   1.981 -0.9285  0.6662 -1.2863
16429SOL    HW250338   4.267   1.547   2.088 -0.5731  0.4242 -0.8775
16430SOL     OW50339   7.957   6.227   6.138 -0.1344  0.0094  0.0684
16430SOL    HW150340   7.892   6.279   6.184 -1.3003 -0.8156 -0.5824
16430SOL    HW250341   8.027   6.289   6.116  0.2440  0.5222  2.4376
16431SOL     OW50342   3.438   5.200   3.906  0.2214  0.1316 -0.7354
16431SOL    HW150343   3.411   5.199   3.814 -0.8930  0.0079 -0.4225
16431SOL    HW250344   3.451   5.292   3.926 -2.4693  0.4992 -0.2401
16432SOL     OW50345   3.290   5.445   5.887  0.3786 -0.8180 -0.7830
16432SOL    HW150346   3.258   5.513   5.946 -1.7789 -1.8508 -0.6649
16432SOL    HW250347   3.343   5.388   5.941  1.4726  0.2529 -0.6912
16433SOL     OW50348   1.424   2.969   5.605 -0.4088  0.4845  0.4602
16433SOL    HW150349   1.339   2.938   5.575 -0.5350  2.1620 -1.0380
16433SOL    HW250350   1.410   2.995   5.696 -1.5004  0.7370  0.2273
16434SOL     OW50351   3.465   2.547   3.274 -0.7886 -0.2049  0.7479
16434SOL    HW150352   3.510   2.470   3.309 -0.2354  0.3448  1.2770
16434SOL    HW250353   3.380   2.547   3.318 -1.4292 -1.3746 -0.4199
16435SOL     OW50354   4.216   6.086   1.331 -0.4353 -0.2548  0.5038
16435SOL    HW150355   4.297   6.034   1.331  0.1531  0.6212 -0.4252
16435SOL    HW250356   4.232   6.155   1.396 -0.1334  0.3348 -0.1768
16436SOL     OW50357   3.454   8.166   2.711 -0.8959  0.4823  0.9082
16436SOL    HW150358   3.393   8.126   2.773 -3.0145  1.9823 -0.0765
16436SOL    HW250359   3.471   8.253   2.746  0.5262  0.1948  1.0139
16437SOL     OW50360   5.137   5.495   3.563  0.3485 -0.3107  0.1625
16437SOL    HW150361   5.082   5.524   3.635 -0.6846  3.3284 -1.8419
16437SOL    HW250362   5.107   5.406   3.544 -2.7322  0.3886  1.1717
16438SOL     OW50363   3.959   0.126   7.421 -0.0933  0.1078  0.0228
16438SOL    HW150364   3.932   0.189   7.354  0.1833  0.6675  0.4283
16438SOL    HW250365   3.887   0.062   7.424  0.5202 -0.7334 -1.7834
16439SOL     OW50366   1.562   3.009   2.182  0.0105  0.2793 -0.3204
16439SOL    HW150367   1.580   3.101   2.197 -0.9451  0.5416 -0.7140
16439SOL    HW250368   1.566   2.968   2.268  2.0412  0.3746 -0.3245
16440SOL     OW50369   1.132   0.743   5.673 -0.3405 -0.3063  0.5361
16440SOL    HW150370   1.111   0.660   5.715 -1.4997 -0.5581 -0.4886
16440SOL    HW250371   1.223   0.759   5.696 -0.2569 -1.5873  1.1916
16441SOL     OW50372   1.367   0.507   4.845 -0.5662 -0.5082 -0.4661
16441SOL    HW150373   1.454   0.539   4.822 -0.7224 -0.0040 -0.3848
16441SOL    HW250374   1.309   0.548   4.781 -0.8977  0.2407  0.2879
16442SOL     OW50375   3.304   1.245   2.194  0.3877  0.2302 -0.3160
16442SOL    HW150376   3.382   1.300   2.184  0.3160  0.5543  0.8078
16442SOL    HW250377   3.258   1.281   2.270 -0.1313 -0.8333 -0.0990
16443SOL     OW50378   3.683   3.097   1.286 -0.5358 -0.0878 -0.1967
16443SOL    HW150379   3.651   3.110   1.375 -1.0194 -2.0461 -0.0530
16443SOL    HW250380   3.620   3.144   1.231 -1.7890 -1.0871  0.3349
16444SOL     OW50381   5.132   1.178   6.677  0.1233 -0.1995 -0.2142
16444SOL    HW150382   5.184   1.102   6.701 -0.9779 -1.4995 -1.6725
16444SOL    HW250383   5.193   1.236   6.631  0.0164 -2.7927 -4.1289
16445SOL     OW50384   5.745   1.553   7.705 -0.4489  0.2081 -0.7376
16445SOL    HW150385   5.752   1.631   7.761 -0.4499  0.7876 -1.5193
16445SOL    HW250386   5.835   1.536   7.677 -0.4546 -0.0492 -0.5966
16446SOL     OW50387   3.189   8.191   5.208 -0.4429 -0.3759 -0.3698
16446SOL    HW150388   3.223   8.127   5.147 -0.6249 -1.2548  0.4339
16446SOL    HW250389   3.114   8.230   5.162 -0.5481 -0.9838 -0.7222
16447SOL     OW50390   1.464   4.974   0.772 -0.2866 -0.3169  0.7325
16447SOL    HW150391   1.521   5.034   0.724 -0.8811  0.3637  0.8667
16447SOL    HW250392   1.413   4.930   0.705 -0.3022 -0.2102  0.6743
16448SOL     OW50393   4.853   4.136   2.702  0.0324 -0.0031  0.0926
16448SOL    HW150394   4.828   4.228   2.715  0.0519 -0.1157  0.9571
16448SOL    HW250395   4.810   4.089   2.773  0.1398 -0.6454 -0.2663
16449SOL     OW50396   3.410   5.863   7.560 -0.4084  0.2591  0.4586
16449SOL    HW150397   3.472   5.936   7.564 -1.0201  0.7955  0.1245
16449SOL    HW250398   3.351   5.877   7.634  1.5390 -1.8140  2.5858
16450SOL     OW50399   3.108   0.578   1.796 -0.6572 -0.0971 -0.1008
16450SOL    HW150400   3.167   0.503   1.797 -1.6349 -0.8787 -0.0105
16450SOL    HW250401   3.110   0.608   1.705  0.3897  0.3027  0.0472
16451SOL     OW50402   2.122   5.083   1.908 -0.1512  0.3416  1.0026
16451SOL    HW150403   2.161   5.155   1.958 -1.7623  1.0854  1.2472
16451SOL    HW250404   2.123   5.114   1.817  1.3667 -0.3725  0.7411
16452SOL     OW50405   0.028   2.185   1.372 -0.3683  0.4536  0.8992
16452SOL    HW150406  -0.004   2.248   1.307  1.5786 -1.0128 -1.6508
16452SOL    HW250407  -0.043   2.121   1.380 -0.2876  0.1470 -0.5467
16453SOL     OW50408   2.403   7.459   0.282  0.2512 -0.3820  0.2224
16453SOL    HW150409   2.435   7.370   0.301  0.6958 -0.4676 -0.8923
16453SOL    HW250410   2.365   7.488   0.365 -0.6204 -1.9195  0.4154
16454SOL     OW50411   5.774   4.790   6.529 -0.5502  0.4861  0.2108
16454SOL    HW150412   5.840   4.774   6.597 -2.0101  2.1146  2.1264
16454SOL    HW250413   5.816   4.762   6.448  2.1401  0.6060  1.4550
16455SOL     OW50414   3.232   7.525   1.620 -0.4820  0.0756 -0.3085
16455SOL    HW150415   3.239   7.619   1.638  0.8509  0.2338 -1.4160
16455SOL    HW250416   3.145   7.500   1.651 -0.8664  1.6808 -0.0249
16456SOL     OW50417   5.330   4.717   4.396  0.2402  0.1566 -0.1895
16456SOL    HW150418   5.285   4.795   4.363 -1.5631 -0.7956 -0.1414
16456SOL    HW250419   5.359   4.741   4.484  0.4515  1.0411 -0.4901
16457SOL     OW50420   1.256   1.092   6.292  0.1025  0.8514  0.2153
16457SOL    HW150421   1.268   0.997   6.292  1.1413  0.9803  0.3067
16457SOL    HW250422   1.213   1.110   6.376 -0.2759  0.4536  0.1152
16458SOL     OW50423   0.187   3.181   7.889 -0.5780  0.0570 -0.0783
16458SOL    HW150424   0.107   3.133   7.912 -0.8127  1.2938  1.9190
16458SOL    HW250425   0.158   3.271   7.876  0.5033  0.5950  1.0261
16459SOL     OW50426   3.028   5.148   1.957  0.5637 -0.8835  0.2141
16459SOL    HW150427   3.010   5.083   1.890 -0.0395 -0.3902 -0.1121
16459SOL    HW250428   3.115   5.125   1.990  1.5646 -0.2362 -1.8168
16460SOL     OW50429   5.594   5.016   1.553 -0.5863 -0.3648 -0.0618
16460SOL    HW150430   5.682   5.039   1.523 -0.6614 -1.0081 -0.8302
16460SOL    HW250431   5.606   4.936   1.603 -0.8411 -1.0557 -1.0602
16461SOL     OW50432   2.032   0.791   0.031  0.5209 -0.1381  0.2780
16461SOL    HW150433   2.082   0.716   0.063  0.9791  0.0446  0.0046
16461SOL    HW250434   1.940   0.764   0.038  0.6997 -0.9851 -0.4370
16462SOL     OW50435   3.450   3.499   4.232 -0.0975 -0.2139 -0.7490
16462SOL    HW150436   3.523   3.502   4.171  0.5652  1.3279  0.0571
16462SOL    HW250437   3.478   3.440   4.301  0.3189  0.1993 -0.5567
16463SOL     OW50438   4.974   2.049   5.868  0.7861  0.6021  0.4999
16463SOL    HW150439   4.929   1.964   5.861  0.4225  0.7865  0.5670
16463SOL    HW250440   5.063   2.032   5.837  0.9993 -0.0260  1.4267
16464SOL     OW50441   4.800   3.347   6.025 -0.4319 -0.1095 -0.0158
16464SOL    HW150442   4.868   3.359   6.090 -0.6216  1.0555 -0.0170
16464SOL    HW250443   4.775   3.436   5.999 -2.3984 -0.4739  0.4667
16465SOL     OW50444   1.084   4.153   7.272 -0.0341 -0.1042 -0.4990
16465SOL    HW150445   0.999   4.176   7.311  0.8634  1.4233  0.6594
16465SOL    HW250446   1.074   4.062   7.244 -2.1968  0.1713 -0.8015
16466SOL     OW50447   5.743   3.760   2.694 -0.0438 -0.3274  0.2063
16466SOL    HW150448   5.734   3.723   2.782 -1.7055 -1.8966 -0.5772
16466SOL    HW250449   5.654   3.783   2.668  0.2419 -1.0893 -1.5693
16467SOL     OW50450   1.326   1.299   1.009 -0.0473 -0.0406 -0.0381
16467SOL    HW150451   1.315   1.258   1.095 -0.9432 -2.2863 -1.1450
16467SOL    HW250452   1.402   1.256   0.972  0.7896  1.4573 -0.1183
16468SOL     OW50453   0.621   5.080   3.462 -0.3461 -0.3652 -0.2512
16468SOL    HW150454   0.690   5.145   3.447 -1.1484  1.7610  3.8377
16468SOL    HW250455   0.548   5.108   3.408 -0.2868  1.5739  0.6074
16469SOL     OW50456   6.061   4.733   0.288 -0.7373  0.0901  0.0974
16469SOL    HW150457   6.088   4.781   0.210  0.7415 -0.8248  0.0054
16469SOL    HW250458   5.999   4.668   0.256 -0.0717 -0.3375 -0.3385
16470SOL     OW50459   1.419   2.462   5.071 -0.0739 -0.2200  0.2741
16470SOL    HW150460   1.463   2.477   5.155 -0.2933 -1.4852  0.6310
16470SOL    HW250461   1.326   2.462   5.093 -0.2977  2.0145 -0.4072
16471SOL     OW50462   0.166   7.995   2.700 -0.5628 -0.0689  0.2816
16471SOL    HW150463   0.182   7.950   2.617 -2.2087  0.1910 -0.2117
16471SOL    HW250464   0.149   8.086   2.674  2.0797  0.7966  1.2071
16472SOL     OW50465   1.986   5.988   3.056  0.5080 -0.0878 -0.1872
16472SOL    HW150466   2.048   5.916   3.065 -0.5297 -0.8552  1.5919
16472SOL    HW250467   1.957   6.005   3.146 -1.3681  0.6418 -0.8726
16473SOL     OW50468   4.465   5.818   8.006 -0.4867 -0.1034 -0.6606
16473SOL    HW150469   4.539   5.856   8.053 -1.1568  0.9250 -0.4019
16473SOL    HW250470   4.390   5.829   8.065 -1.2665  0.8575 -1.7659
16474SOL     OW50471   3.844   2.679   7.127 -0.1705  0.5161  0.1725
16474SOL    HW150472   3.855   2.586   7.106  0.8251  0.2697  1.6211
16474SOL    HW250473   3.790   2.713   7.057  1.2607 -0.6844 -1.6104
16475SOL     OW50474   0.782   3.604   4.011  0.0505 -0.3054  0.0593
16475SOL    HW150475   0.836   3.679   3.987  0.4284 -0.2620  0.9883
16475SOL    HW250476   0.703   3.643   4.050 -0.0025 -0.3841  0.0309
16476SOL     OW50477   3.029   6.145   5.724  0.0344  0.0904 -0.3758
16476SOL    HW150478   3.047   6.100   5.807 -0.1466  0.4584 -0.1312
16476SOL    HW250479   3.098   6.116   5.665 -1.4895 -2.4787 -1.0294
16477SOL     OW50480   2.169   1.740   2.337  0.3836  0.3040 -0.1165
16477SOL    HW150481   2.192   1.654   2.371  2.0279  0.9505  0.4979
16477SOL    HW250482   2.077   1.732   2.312  0.3643 -1.4711  0.4041
16478SOL     OW50483   8.244   5.723   5.058 -0.1985 -0.2798  0.1868
16478SOL    HW150484   8.241   5.749   5.151 -2.3492 -0.5828  0.2397
16478SOL    HW250485   8.307   5.650   5.056  0.0691 -0.1038  1.3531
16479SOL     OW50486   0.954   3.713   7.520 -0.2046 -0.3630  0.2701
16479SOL    HW150487   1.029   3.771   7.502  0.0566  0.0686  2.4104
16479SOL    HW250488   0.983   3.659   7.593 -0.6726 -2.8633 -1.2935
16480SOL     OW50489   4.263   2.147   7.917 -0.1263 -0.0891 -0.0777
16480SOL    HW150490   4.262   2.225   7.862  1.2134 -0.7909 -1.1368
16480SOL    HW250491   4.352   2.142   7.951 -0.7940  0.0734  1.8469
16481SOL     OW50492   3.943   1.855   2.058 -0.0430  0.5485 -0.0211
16481SOL    HW150493   3.950   1.815   2.145 -0.9044  0.6690  0.1123
16481SOL    HW250494   3.857   1.827   2.025  0.3764  0.2948 -0.9468
16482SOL     OW50495   0.370   2.962   2.623  0.0835 -0.3944  0.1388
16482SOL    HW150496   0.344   2.873   2.601 -0.2221 -0.2235 -0.1969
16482SOL    HW250497   0.450   2.952   2.675  0.5713 -0.8235 -0.6716
16483SOL     OW50498   0.559   2.609   2.595 -0.0062 -0.5381 -0.0965
16483SOL    HW150499   0.591   2.650   2.515 -1.3369 -2.2783 -1.6319
16483SOL    HW250500   0.638   2.590   2.646  0.9670 -0.3021 -1.4587
16484SOL     OW50501   5.629   3.245   5.679 -0.5677 -0.3044  0.2890
16484SOL    HW150502   5.616   3.333   5.714 -1.7432 -0.4189  0.1918
16484SOL    HW250503   5.644   3.258   5.585 -2.1273 -0.2579  0.0130
16485SOL     OW50504   6.547   5.619   3.920 -0.0341 -0.5036 -0.4623
16485SOL    HW150505   6.605   5.662   3.857 -0.2942  0.3808 -0.1137
16485SOL    HW250506   6.529   5.686   3.986 -1.3248 -0.7946 -0.4843
16486SOL     OW50507   4.501   1.539   6.706  0.2486  0.3026 -0.3026
16486SOL    HW150508   4.547   1.574   6.630  1.2209 -1.6037 -0.6531
16486SOL    HW250509   4.511   1.606   6.774  2.2156  0.6259 -0.8603
16487SOL     OW50510   3.325   1.213   3.410  0.3178  0.1391  0.1412
16487SOL    HW150511   3.301   1.169   3.491 -1.8045  0.8176 -0.0778
16487SOL    HW250512   3.329   1.306   3.433 -1.7236  0.5030 -0.7947
16488SOL     OW50513   2.960   7.256   2.795  0.1683 -0.4744  0.0401
16488SOL    HW150514   2.977   7.291   2.708  1.8440 -0.4183  0.3430
16488SOL    HW250515   2.937   7.164   2.780  0.5147 -0.4813 -0.4626
16489SOL     OW50516   0.490   3.583   1.468 -0.0032 -0.1839  0.2444
16489SOL    HW150517   0.481   3.678   1.469  1.0336 -0.0713 -0.2365
16489SOL    HW250518   0.448   3.556   1.387 -0.0436 -0.1131  0.2413
16490SOL     OW50519   5.183   7.527   0.763  0.5937  0.2490  0.4483
16490SOL    HW150520   5.109   7.555   0.818  1.9124  0.7009  2.0581
16490SOL    HW250521   5.222   7.609   0.732  0.3438  0.0060 -0.5512
16491SOL     OW50522   8.068   5.280   1.337  0.0475 -0.4763 -0.2018
16491SOL    HW150523   8.117   5.284   1.255 -0.6250  0.3063 -0.5618
16491SOL    HW250524   8.134   5.252   1.402  1.3957  1.9836 -0.3766
16492SOL     OW50525   0.999   4.834   0.223 -0.1190 -0.3022  0.0858
16492SOL    HW150526   0.946   4.910   0.247 -0.8756 -0.2247 -1.6583
16492SOL    HW250527   0.934   4.765   0.205  0.4550 -0.7376 -0.3365
16493SOL     OW50528   6.443   4.515   4.001  1.2040 -0.2288  0.6046
16493SOL    HW150529   6.406   4.601   3.985 -0.5041 -0.6806  1.8232
16493SOL    HW250530   6.520   4.510   3.944  0.8184  1.7334 -0.1381
16494SOL     OW50531   7.393   2.261   3.226 -0.2853  1.0542  0.5111
16494SOL    HW150532   7.447   2.216   3.291 -0.6598 -0.2820 -0.0795
16494SOL    HW250533   7.324   2.199   3.205 -1.0917  2.0967  0.0032
16495SOL     OW50534   3.201   6.413   4.964 -0.3144 -0.2063  0.6649
16495SOL    HW150535   3.228   6.412   4.872  2.3343  1.1398  1.3269
16495SOL    HW250536   3.220   6.325   4.995 -2.8315 -1.2143 -0.4021
16496SOL     OW50537   0.329   0.664   3.880  0.7957 -0.1705 -0.2558
16496SOL    HW150538   0.322   0.591   3.941 -0.0205 -1.5771 -1.9507
16496SOL    HW250539   0.415   0.652   3.838  0.2904 -0.7305 -1.1741
16497SOL     OW50540   4.360   3.936   6.090  0.4063  0.2530  0.7781
16497SOL    HW150541   4.290   3.994   6.119 -0.3752 -0.2343 -0.0875
16497SOL    HW250542   4.414   3.923   6.168 -0.9740 -0.0739  1.7068
16498SOL     OW50543   4.144   7.723   1.659  0.1257 -0.3717 -0.0563
16498SOL    HW150544   4.132   7.804   1.609  0.1172 -0.1769  0.2570
16498SOL    HW250545   4.181   7.661   1.597  1.7764  0.3796  0.1337
16499SOL     OW50546   3.952   2.894   2.054  0.3130  0.3469 -0.3598
16499SOL    HW150547   3.879   2.842   2.022 -0.6524  1.3122  0.1638
16499SOL    HW250548   4.015   2.897   1.982 -1.2738  1.5114 -1.7637
16500SOL     OW50549   0.034   3.688   6.083  0.6295  0.0239 -0.2498
16500SOL    HW150550  -0.059   3.688   6.059  0.3563 -0.8177  0.6967
16500SOL    HW250551   0.081   3.691   6.000 -0.2504 -0.5094 -0.7819
16501SOL     OW50552   8.098   5.045   5.872  0.0923  0.6083 -0.2959
16501SOL    HW150553   8.059   4.962   5.896  0.8873  0.3916  0.3114
16501SOL    HW250554   8.175   5.021   5.821 -0.6242  1.0264 -1.6115
16502SOL     OW50555   6.029   4.573   3.545 -0.0532  0.3403 -0.0782
16502SOL    HW150556   5.981   4.547   3.624 -0.7030 -0.7436 -0.7962
16502SOL    HW250557   6.031   4.493   3.491  0.1916  1.1071 -1.2399
16503SOL     OW50558   0.505   0.976   3.550  0.1501 -0.1880 -0.4926
16503SOL    HW150559   0.455   1.034   3.607  1.0711  1.1995 -1.0347
16503SOL    HW250560   0.446   0.954   3.479  0.1383  1.0309 -0.8713
16504SOL     OW50561   6.243   3.525   3.550 -0.0906  0.0350 -0.1761
16504SOL    HW150562   6.302   3.452   3.528  0.4660  0.3350  0.3154
16504SOL    HW250563   6.283   3.601   3.508 -0.3560  0.1678 -0.1884
16505SOL     OW50564   7.576   6.461   0.106 -0.4946  0.2606  0.0301
16505SOL    HW150565   7.501   6.413   0.071  1.2332 -2.0522 -0.7574
16505SOL    HW250566   7.604   6.517   0.034 -0.0300 -0.7017 -0.5640
16506SOL     OW50567   0.558   3.737   3.074 -0.1979  0.5548 -0.1945
16506SOL    HW150568   0.566   3.736   2.979 -0.4826 -1.9212 -0.2795
16506SOL    HW250569   0.636   3.782   3.105  1.3151 -0.9684 -1.5813
16507SOL     OW50570   2.228   2.669   5.731 -0.4584 -0.2549 -0.5012
16507SOL    HW150571   2.206   2.612   5.657  0.2338  0.0840 -0.9757
16507SOL    HW250572   2.156   2.731   5.735  0.0655  0.4637 -1.6552
16508SOL     OW50573   0.189   0.601   2.121  0.4736 -0.2849 -0.1042
16508SOL    HW150574   0.268   0.635   2.079 -0.5727 -0.2437 -2.1465
16508SOL    HW250575   0.135   0.679   2.137 -0.2432 -0.5509 -1.1429
16509SOL     OW50576   4.650   1.087   8.102  0.3526  0.5034  0.0370
16509SOL    HW150577   4.621   1.001   8.133 -5.3736  1.9015 -0.1591
16509SOL    HW250578   4.692   1.126   8.178  1.3911 -1.7505  0.7095
16510SOL     OW50579   6.642   7.465   0.941 -0.2136  0.4146 -0.7345
16510SOL    HW150580   6.722   7.412   0.949 -0.1522  0.3696 -1.5958
16510SOL    HW250581   6.634   7.483   0.847 -1.3589  0.1950 -0.6937
16511SOL     OW50582   3.112   4.908   3.687  0.5956 -0.2187  0.0033
16511SOL    HW150583   3.162   4.955   3.620  0.6114 -0.9822 -0.5294
16511SOL    HW250584   3.023   4.942   3.679  0.4596 -0.7484 -0.8355
16512SOL     OW50585   7.682   1.935   1.871 -0.1297  0.4398  0.6495
16512SOL    HW150586   7.673   1.877   1.946 -0.9283  1.0237  1.0188
16512SOL    HW250587   7.679   1.877   1.794  1.6316 -0.2690  1.0641
16513SOL     OW50588   7.660   2.305   5.173  0.7285  0.9475 -0.2465
16513SOL    HW150589   7.573   2.267   5.157  0.9781  0.9933 -1.9261
16513SOL    HW250590   7.644   2.399   5.180  0.5862  0.9121 -0.0867
16514SOL     OW50591   2.055   0.325   5.708 -0.2065 -0.2316  0.2105
16514SOL    HW150592   2.109   0.358   5.636 -0.2604 -2.8132 -1.1139
16514SOL    HW250593   2.097   0.361   5.787 -0.1945  2.7308 -1.0293
16515SOL     OW50594   3.725   5.130   0.028 -0.4128  0.2796 -0.0356
16515SOL    HW150595   3.796   5.191   0.005  0.8661 -1.1784 -0.0814
16515SOL    HW250596   3.687   5.167   0.108 -0.5911  1.8653 -0.8086
16516SOL     OW50597   7.594   4.093   4.219 -0.1838 -0.4298  0.2729
16516SOL    HW150598   7.682   4.126   4.238  0.2778 -0.4206 -1.6945
16516SOL    HW250599   7.602   4.051   4.134 -1.4691 -2.9381  1.2831
16517SOL     OW50600   6.427   6.863   2.830 -0.1625  0.1002  0.5466
16517SOL    HW150601   6.362   6.864   2.759 -1.8227  2.7434  1.9210
16517SOL    HW250602   6.420   6.775   2.867  0.3141 -1.1475 -2.0857
16518SOL     OW50603   6.574   7.284   6.761  0.1907  0.2459  0.1399
16518SOL    HW150604   6.587   7.215   6.696  0.8794 -0.8320  1.3626
16518SOL    HW250605   6.486   7.269   6.794  0.8651 -1.0757  1.4830
16519SOL     OW50606   1.646   4.297   1.933  0.1015  0.1257  0.3374
16519SOL    HW150607   1.690   4.371   1.975  1.1362  0.3943 -1.1096
16519SOL    HW250608   1.592   4.337   1.865 -0.9849 -0.3372  0.9031
16520SOL     OW50609   3.488   1.621   2.007  0.3060 -0.3080  0.5497
16520SOL    HW150610   3.521   1.710   1.992  0.5424 -0.3027  1.0835
16520SOL    HW250611   3.409   1.634   2.061 -1.3424 -0.2242 -1.7322
16521SOL     OW50612   3.907   6.560   3.601 -0.1049 -0.6220 -0.3031
16521SOL    HW150613   3.820   6.550   3.640  0.1495  0.2279  0.5244
16521SOL    HW250614   3.890   6.583   3.510 -0.7512 -0.2402 -0.0964
16522SOL     OW50615   0.682   2.545   4.954  0.0989  0.2504 -0.5628
16522SOL    HW150616   0.708   2.482   4.887  0.6718 -0.3488  0.2024
16522SOL    HW250617   0.763   2.593   4.974  0.2603 -0.4646  0.6154
16523SOL     OW50618   4.587   4.913   4.374  0.0608  0.1739  0.1075
16523SOL    HW150619   4.666   4.895   4.426 -0.3959  2.4991  1.7707
16523SOL    HW250620   4.620   4.957   4.296  0.5511 -0.8170 -0.2597
16524SOL     OW50621   2.242   5.133   7.444 -0.1779  0.3960  0.3564
16524SOL    HW150622   2.224   5.131   7.538 -0.9324  1.7779  0.2758
16524SOL    HW250623   2.159   5.110   7.403  0.4738 -1.5142 -0.0053
16525SOL     OW50624   3.220   4.780   0.889  0.8434  0.0053 -0.0888
16525SOL    HW150625   3.242   4.821   0.973  0.2051 -0.1060  0.1376
16525SOL    HW250626   3.128   4.804   0.875  0.6776 -0.7556 -0.3027
16526SOL     OW50627   7.822   3.592   0.742  0.2334  0.4003  0.0225
16526SOL    HW150628   7.856   3.543   0.667  0.3208  0.7832 -0.1960
16526SOL    HW250629   7.755   3.536   0.780  0.7078 -0.1166  0.1060
16527SOL     OW50630   5.562   7.346   5.873  0.2702  0.4260 -0.0615
16527SOL    HW150631   5.575   7.405   5.947 -0.5236  1.0134 -0.3799
16527SOL    HW250632   5.472   7.313   5.883  0.5042 -0.2826 -0.2060
16528SOL     OW50633   2.000   8.256   4.817  0.0582  0.2432  0.1284
16528SOL    HW150634   1.991   8.339   4.862  1.8506  0.2200  0.6108
16528SOL    HW250635   1.954   8.193   4.873  0.3181  0.5995  0.7498
16529SOL     OW50636   3.203   1.342   2.422  0.2265  0.4781 -0.4619
16529SOL    HW150637   3.262   1.409   2.457 -1.2329  1.9980 -0.8352
16529SOL    HW250638   3.123   1.351   2.473 -0.4791 -0.0821 -1.4376
16530SOL     OW50639   1.538   7.645   7.812  0.2029 -0.0246  0.2164
16530SOL    HW150640   1.528   7.685   7.898 -0.6973  0.4350 -0.0840
16530SOL    HW250641   1.472   7.575   7.810 -1.3101  1.3679 -0.8685
16531SOL     OW50642   8.040   7.032   0.936  0.2452 -0.5458  0.0062
16531SOL    HW150643   8.001   6.964   0.881  0.3009 -0.2650 -0.3864
16531SOL    HW250644   8.000   7.020   1.022 -0.5458 -0.3993 -0.3388
16532SOL     OW50645   1.713   8.111   5.428  0.3037 -0.0226  0.0827
16532SOL    HW150646   1.660   8.186   5.455 -0.2723 -0.2881 -0.2875
16532SOL    HW250647   1.658   8.064   5.365  0.3121 -1.2297  0.9390
16533SOL     OW50648   3.426   4.729   1.788  0.0383  0.0687  0.0929
16533SOL    HW150649   3.378   4.659   1.743 -0.4179  0.3899  0.0783
16533SOL    HW250650   3.498   4.750   1.729 -1.0781  1.1291 -0.9513
16534SOL     OW50651   4.420   6.308   2.473 -0.3821  0.4184  0.5123
16534SOL    HW150652   4.363   6.354   2.534  1.0216  1.2829  1.2317
16534SOL    HW250653   4.498   6.287   2.525  0.3850  0.1820 -0.6940
16535SOL     OW50654   2.802   0.733   7.726 -0.1963 -0.0084 -0.4165
16535SOL    HW150655   2.779   0.648   7.687 -0.3582  0.0835 -0.5223
16535SOL    HW250656   2.869   0.769   7.669  0.1015 -0.2090 -0.1936
16536SOL     OW50657   1.341   6.255   1.660 -0.3056  0.7738  0.3012
16536SOL    HW150658   1.418   6.198   1.658 -1.3865 -0.6997 -1.1769
16536SOL    HW250659   1.280   6.212   1.720 -0.7844  0.8522 -0.1227
16537SOL     OW50660   7.676   0.205   1.431  0.0843 -0.2515  0.6793
16537SOL    HW150661   7.769   0.197   1.452  0.5434 -0.5779 -1.2456
16537SOL    HW250662   7.641   0.117   1.445  0.2808 -0.3538  0.5389
16538SOL     OW50663   5.855   1.813   4.492  0.4576  0.4374 -0.1836
16538SOL    HW150664   5.820   1.726   4.511  1.6783  0.0973  0.6716
16538SOL    HW250665   5.790   1.874   4.528 -0.1213 -0.1300 -0.2581
16539SOL     OW50666   5.255   2.145   1.085 -0.2240 -0.2837 -0.1114
16539SOL    HW150667   5.188   2.173   1.147  0.1634 -0.1473  0.2550
16539SOL    HW250668   5.252   2.050   1.087  1.3419 -0.3693  1.8997
16540SOL     OW50669   5.174   4.580   3.585  0.2067  0.4032  0.4402
16540SOL    HW150670   5.186   4.590   3.491  0.3920 -1.8915  0.1813
16540SOL    HW250671   5.082   4.559   3.596  0.9444 -3.7194  0.2315
16541SOL     OW50672   2.485   1.359   1.537 -0.6976 -0.2850 -0.5239
16541SOL    HW150673   2.477   1.270   1.572  2.4575  0.2054  1.9045
16541SOL    HW250674   2.566   1.357   1.486 -0.1692  1.3384  0.1930
16542SOL     OW50675   5.023   6.759   2.024 -0.6913  0.7066 -0.5948
16542SOL    HW150676   4.954   6.784   1.963 -1.3555  1.8295  0.5616
16542SOL    HW250677   4.978   6.749   2.108  0.4948  1.1834  0.1284
16543SOL     OW50678   6.689   5.047   6.539 -0.2620 -0.1732  0.1805
16543SOL    HW150679   6.622   4.995   6.584 -0.7314 -1.4057 -1.8024
16543SOL    HW250680   6.667   5.039   6.446  2.6813 -0.7082 -0.5723
16544SOL     OW50681   4.562   2.849   0.456 -0.6376 -0.2174 -0.6750
16544SOL    HW150682   4.540   2.810   0.371 -1.5628 -0.2406 -0.4405
16544SOL    HW250683   4.652   2.823   0.472 -0.4561 -0.2261 -1.6477
16545SOL     OW50684   4.782   2.734   1.282  0.0966  0.0470 -0.7586
16545SOL    HW150685   4.768   2.815   1.331 -2.4983 -0.4503 -0.5410
16545SOL    HW250686   4.765   2.758   1.191 -2.4443 -0.5011 -0.5213
16546SOL     OW50687   7.325   5.430   7.054 -0.2221 -0.0409 -0.4181
16546SOL    HW150688   7.285   5.385   7.128 -0.6675  0.8792 -0.0759
16546SOL    HW250689   7.392   5.370   7.022  0.0972 -0.3950  0.8408
16547SOL     OW50690   2.228   1.294   3.816  0.3570 -0.5280 -0.3704
16547SOL    HW150691   2.263   1.383   3.811  0.3986 -0.5879 -1.4151
16547SOL    HW250692   2.268   1.249   3.741  0.6308 -1.5313  0.3604
16548SOL     OW50693   2.256   1.345   3.208 -0.2193 -0.6141  0.2876
16548SOL    HW150694   2.221   1.383   3.127  0.3272 -1.0509 -0.1557
16548SOL    HW250695   2.277   1.420   3.263  1.0293 -0.2453 -0.6542
16549SOL     OW50696   5.574   7.433   1.557 -0.0122  0.6496 -0.0216
16549SOL    HW150697   5.612   7.470   1.637  0.0818  1.0484 -0.2475
16549SOL    HW250698   5.542   7.347   1.584  1.3868  0.1457  0.0765
16550SOL     OW50699   6.548   2.665   2.311 -0.2256  0.1910  0.0001
16550SOL    HW150700   6.642   2.669   2.325 -0.2444  2.2162 -0.1488
16550SOL    HW250701   6.536   2.598   2.243  1.3496  1.3772 -1.5416
16551SOL     OW50702   1.170   0.013   2.967 -0.3363 -0.3325 -0.0420
16551SOL    HW150703   1.160  -0.013   2.876 -2.6339  0.9290 -0.2492
16551SOL    HW250704   1.171   0.109   2.965 -0.9201 -0.2628  1.2534
16552SOL     OW50705   0.541   3.160   7.276 -0.5888 -0.4519 -0.1433
16552SOL    HW150706   0.606   3.112   7.226  0.3945 -0.4996  1.1343
16552SOL    HW250707   0.559   3.252   7.258 -0.1095 -0.4629  0.2568
16553SOL     OW50708   5.540   0.155   5.901 -0.6637 -0.1374  0.2911
16553SOL    HW150709   5.613   0.137   5.959 -0.7881 -0.6652  0.2971
16553SOL    HW250710   5.552   0.094   5.828 -1.5209 -0.7993  0.6772
16554SOL     OW50711   5.782   1.181   0.503  0.7449 -0.5867 -0.4448
16554SOL    HW150712   5.787   1.182   0.407 -1.6106 -0.6738 -0.6192
16554SOL    HW250713   5.768   1.273   0.527  1.3462 -0.5628 -0.1647
16555SOL     OW50714   0.957   6.311   4.894  0.7019 -0.0309  0.0151
16555SOL    HW150715   0.996   6.235   4.852 -1.8778 -1.1679 -0.5705
16555SOL    HW250716   0.904   6.352   4.825 -0.6713  0.2413  1.1743
16556SOL     OW50717   1.309   0.078   3.313  0.5441  0.4235  0.1687
16556SOL    HW150718   1.218   0.056   3.330  0.1278  1.3298 -0.8142
16556SOL    HW250719   1.340   0.009   3.254 -0.2230  1.3901 -1.4280
16557SOL     OW50720   1.973   0.836   7.194  0.0423  0.1875  0.3034
16557SOL    HW150721   1.897   0.807   7.245 -0.8497  2.2404  0.2262
16557SOL    HW250722   2.032   0.875   7.259 -0.4300  1.4641 -0.0036
16558SOL     OW50723   8.237   6.291   3.265 -0.2194  0.5884 -0.0564
16558SOL    HW150724   8.261   6.380   3.238 -2.0411  1.1597  0.0982
16558SOL    HW250725   8.235   6.241   3.183  0.8044  0.6697 -0.1447
16559SOL     OW50726   4.427   7.844   7.225  0.3783 -0.6201  0.0969
16559SOL    HW150727   4.443   7.764   7.175  0.3458 -1.5429  1.5215
16559SOL    HW250728   4.463   7.827   7.311 -1.0899  0.2738  0.9385
16560SOL     OW50729   1.463   2.009   2.085 -0.2314 -0.7451  0.6091
16560SOL    HW150730   1.413   1.963   2.018 -0.5297  0.3233  0.0769
16560SOL    HW250731   1.395   2.051   2.140  0.0199  1.8751 -0.9308
16561SOL     OW50732   6.364   5.033   4.742  0.4133 -0.0265  0.3164
16561SOL    HW150733   6.296   5.048   4.677 -0.0387 -0.1087  0.7705
16561SOL    HW250734   6.417   5.113   4.740  0.3109  0.0326 -0.0418
16562SOL     OW50735   5.326   5.177   1.550 -0.1218 -0.0800 -0.0169
16562SOL    HW150736   5.299   5.261   1.514  0.0571 -0.9718 -2.3968
16562SOL    HW250737   5.405   5.197   1.601 -0.1076  1.2004 -0.5113
16563SOL     OW50738   5.732   1.717   0.826 -0.0324  0.1360 -0.3078
16563SOL    HW150739   5.691   1.801   0.808 -0.2294 -0.1137 -1.0757
16563SOL    HW250740   5.692   1.657   0.763  1.0418 -0.2540 -0.6455
16564SOL     OW50741   2.936   6.638   6.492  0.4036  0.3937 -1.0257
16564SOL    HW150742   3.009   6.676   6.444  0.4143  1.4803 -0.1896
16564SOL    HW250743   2.858   6.665   6.444  0.4682  0.5743 -1.0266
16565SOL     OW50744   3.311   8.156   4.224 -0.7439 -0.8676 -0.0619
16565SOL    HW150745   3.239   8.196   4.176 -1.2151  2.7130  3.1124
16565SOL    HW250746   3.388   8.208   4.199  0.1243 -2.4818 -0.8940
16566SOL     OW50747   1.664   2.269   3.597  0.1489 -0.2780 -0.0953
16566SOL    HW150748   1.747   2.254   3.642  0.0187 -1.1774 -0.1386
16566SOL    HW250749   1.634   2.355   3.628  0.8414 -0.1790  0.3039
16567SOL     OW50750   4.146   2.233   2.486 -0.2106 -0.2105 -0.3704
16567SOL    HW150751   4.181   2.235   2.575 -0.9500 -1.1258 -0.0397
16567SOL    HW250752   4.054   2.208   2.497 -0.2461 -0.5872 -1.4043
16568SOL     OW50753   0.134   5.739   6.125 -0.0585 -0.5462 -0.4581
16568SOL    HW150754   0.132   5.687   6.205 -1.0303  0.9950  0.5644
16568SOL    HW250755   0.073   5.811   6.141  1.3543  1.0272 -1.7379
16569SOL     OW50756   0.217   2.790   2.168  0.0781 -0.3737  0.5298
16569SOL    HW150757   0.198   2.720   2.230 -0.6613 -0.2347  0.4734
16569SOL    HW250758   0.255   2.860   2.221 -0.3528 -0.3387  0.7946
16570SOL     OW50759   4.051   1.638   5.409  0.3510 -0.1174  0.1526
16570SOL    HW150760   4.039   1.690   5.329 -0.5640 -0.7403 -0.1370
16570SOL    HW250761   3.987   1.674   5.471 -0.4360 -0.9995 -0.1200
16571SOL     OW50762   5.621   6.365   8.203  0.2590  0.3672  0.4463
16571SOL    HW150763   5.640   6.310   8.278 -2.0459 -0.6625  0.3673
16571SOL    HW250764   5.563   6.433   8.237  1.4161  1.5761  0.1126
16572SOL     OW50765   6.610   6.140   4.705  0.3240  0.0666  0.5361
16572SOL    HW150766   6.558   6.124   4.783  1.4680  0.8402  1.4933
16572SOL    HW250767   6.674   6.206   4.731  1.4718 -0.4850 -0.7198
16573SOL     OW50768   0.511   6.372   2.840 -0.1603 -0.1881 -0.2468
16573SOL    HW150769   0.553   6.426   2.774 -1.2450  0.5215 -0.3818
16573SOL    HW250770   0.419   6.400   2.839 -0.3290 -0.6284  1.0857
16574SOL     OW50771   4.172   4.572   1.506  0.1174  0.2510 -0.4241
16574SOL    HW150772   4.186   4.480   1.482  1.0509  0.0824  0.6952
16574SOL    HW250773   4.133   4.567   1.593 -0.9400  0.9073 -0.8399
16575SOL     OW50774   1.076   2.947   6.037  0.4996  0.4787 -0.1926
16575SOL    HW150775   1.094   2.998   6.116  0.1439 -0.8533  0.7814
16575SOL    HW250776   1.000   2.991   5.997  0.0052  0.5520  0.7897
16576SOL     OW50777   6.279   3.086   7.966 -0.1033  0.6877  0.0368
16576SOL    HW150778   6.191   3.117   7.945  0.3450  0.8319 -1.7373
16576SOL    HW250779   6.267   3.034   8.046 -1.6404  1.4147  0.3276
16577SOL     OW50780   4.772   3.547   6.691 -0.2055  0.3611 -0.0118
16577SOL    HW150781   4.811   3.633   6.706 -2.3469  1.7536 -1.8743
16577SOL    HW250782   4.704   3.539   6.758 -0.0030  0.0771  0.1654
16578SOL     OW50783   5.388   3.430   3.369 -0.2573  0.4451 -0.3675
16578SOL    HW150784   5.350   3.404   3.453  0.4599  0.0133 -0.1565
16578SOL    HW250785   5.476   3.392   3.371  0.4646  2.0332 -0.5080
16579SOL     OW50786   7.369   4.607   7.910 -0.2451 -0.1517  0.1734
16579SOL    HW150787   7.353   4.513   7.905  0.0717 -0.1859 -0.2616
16579SOL    HW250788   7.435   4.624   7.842 -0.7352  0.4766 -0.1555
16580SOL     OW50789   6.840   3.971   5.463  0.3638  0.0664  0.3719
16580SOL    HW150790   6.885   4.028   5.525  1.0032  0.8914 -0.8037
16580SOL    HW250791   6.898   3.895   5.454  0.8508  0.4832 -0.0799
16581SOL     OW50792   5.363   3.364   7.571 -0.3934 -0.1327 -0.2678
16581SOL    HW150793   5.372   3.280   7.616 -0.6350 -0.8239 -1.4772
16581SOL    HW250794   5.269   3.376   7.562 -0.3887  0.6928  0.6492
16582SOL     OW50795   0.724   5.774   0.986  0.7154 -0.3154  0.3218
16582SOL    HW150796   0.747   5.694   0.939  3.0596  0.3397  0.2347
16582SOL    HW250797   0.802   5.796   1.037  0.0907  1.8145  0.4897
16583SOL     OW50798   0.094   5.672   0.619  0.0359  0.6096 -0.7885
16583SOL    HW150799   0.131   5.594   0.578  0.3829  0.4478 -0.1858
16583SOL    HW250800   0.170   5.718   0.655 -0.2991  0.4693  0.1327
16584SOL     OW50801   6.953   5.608   0.421 -0.0550  0.1589 -0.8261
16584SOL    HW150802   6.971   5.622   0.328  0.7111  1.2636 -0.5345
16584SOL    HW250803   7.022   5.657   0.466 -0.1037 -0.7997  0.3267
16585SOL     OW50804   3.500   3.592   3.567 -0.5353 -0.1039 -0.3015
16585SOL    HW150805   3.422   3.542   3.543  1.4316 -2.9757 -1.1624
16585SOL    HW250806   3.546   3.607   3.485  0.6871 -0.0225  0.3741
16586SOL     OW50807   5.730   1.730   3.766  0.0965 -0.2065  0.2816
16586SOL    HW150808   5.742   1.745   3.860  2.5211  0.4696 -0.0693
16586SOL    HW250809   5.765   1.809   3.725 -0.4634 -0.7088 -1.2327
16587SOL     OW50810   5.193   4.655   1.922 -0.0848 -0.3570  0.2910
16587SOL    HW150811   5.276   4.654   1.874  0.5182  2.1731  1.1133
16587SOL    HW250812   5.216   4.627   2.010  0.3636  2.1643  1.0443
16588SOL     OW50813   5.831   7.198   4.465  0.0929  0.3988  0.0824
16588SOL    HW150814   5.790   7.114   4.488 -0.1541  0.0001 -1.6742
16588SOL    HW250815   5.795   7.260   4.528 -1.7072 -0.3237 -0.1862
16589SOL     OW50816   7.403   7.441   3.941  0.0771 -0.3397 -0.7664
16589SOL    HW150817   7.345   7.495   3.887  0.1776 -1.6788 -2.2732
16589SOL    HW250818   7.409   7.357   3.894  0.7119 -1.3298  0.9867
16590SOL     OW50819   1.307   1.416   5.987  0.2874  0.1768 -0.7181
16590SOL    HW150820   1.271   1.482   6.046  0.3393 -0.2120 -0.2461
16590SOL    HW250821   1.319   1.462   5.904  0.8291  0.9073 -0.2492
16591SOL     OW50822   7.534   7.857   3.684  0.4850 -0.1842 -0.4423
16591SOL    HW150823   7.517   7.775   3.731  0.4357  0.1137  0.0605
16591SOL    HW250824   7.467   7.917   3.715 -1.0816 -0.6629 -2.6800
16592SOL     OW50825   5.802   2.160   0.653 -0.0919  0.0423 -0.1108
16592SOL    HW150826   5.754   2.236   0.618 -0.8056  0.4653  1.6793
16592SOL    HW250827   5.849   2.125   0.577 -3.1321 -0.3455 -1.9962
16593SOL     OW50828   3.137   0.144   2.981  0.3388  0.5436  0.4948
16593SOL    HW150829   3.043   0.160   2.996  0.6777  2.0370  1.1189
16593SOL    HW250830   3.178   0.230   2.988  1.7406 -0.0541 -0.0511
16594SOL     OW50831   6.932   6.639   4.705  0.1627 -0.1826 -0.3310
16594SOL    HW150832   6.847   6.620   4.664 -1.3714  1.5083  1.8420
16594SOL    HW250833   6.964   6.554   4.734 -0.9374 -0.8277 -0.9247
16595SOL     OW50834   1.922   3.057   8.041 -0.0745 -0.4394  0.7138
16595SOL    HW150835   1.932   3.151   8.025 -0.8324 -0.4346  0.2472
16595SOL    HW250836   1.840   3.050   8.090  0.1262 -0.8409  0.9994
16596SOL     OW50837   7.374   7.989   6.463  0.9209  0.6235  0.2742
16596SOL    HW150838   7.354   7.954   6.376 -1.7417  2.1585  0.1581
16596SOL    HW250839   7.369   7.912   6.521  0.7291 -0.0902 -0.6671
16597SOL     OW50840   2.725   1.988   0.386  0.6352  0.6832 -0.2874
16597SOL    HW150841   2.643   1.939   0.375  1.8773 -1.1304 -2.1460
16597SOL    HW250842   2.761   1.956   0.469 -0.4001  1.3281  0.4305
16598SOL     OW50843   2.063   3.963   3.891 -0.2309 -0.0633  0.3847
16598SOL    HW150844   2.007   4.039   3.902  0.8241  0.5499  1.7838
16598SOL    HW250845   2.081   3.960   3.797  0.9015  2.3178  0.4609
16599SOL     OW50846   0.722   4.625   1.489  0.2122 -0.4322  0.7166
16599SOL    HW150847   0.804   4.606   1.534 -0.6525 -1.6554  1.8879
16599SOL    HW250848   0.667   4.548   1.506 -0.6677 -0.3061 -1.2845
16600SOL     OW50849   2.446   2.886   6.040  0.2960  0.2487 -0.1819
16600SOL    HW150850   2.540   2.870   6.043  0.2136 -0.2334  0.0555
16600SOL    HW250851   2.411   2.812   5.990  0.0706  0.5474 -0.4633
16601SOL     OW50852   1.854   3.634   7.100  0.3343  0.1284  0.2908
16601SOL    HW150853   1.796   3.568   7.063 -0.2907  0.3657  0.8373
16601SOL    HW250854   1.918   3.584   7.151 -1.4997  0.0021  2.6499
16602SOL     OW50855   7.840   6.146   5.619  0.2878 -0.2568  0.0009
16602SOL    HW150856   7.788   6.172   5.543  0.9816  0.9300 -0.0996
16602SOL    HW250857   7.789   6.076   5.660 -1.3763  0.8313 -0.1031
16603SOL     OW50858   5.923   1.791   2.965 -0.8335  0.4752  0.2292
16603SOL    HW150859   5.890   1.710   3.003 -0.2140  0.8550  1.6374
16603SOL    HW250860   6.014   1.771   2.942 -0.6279  0.8061  0.7371
16604SOL     OW50861   5.188   2.899   6.414  0.1309 -0.4227  0.0938
16604SOL    HW150862   5.096   2.924   6.416  0.1681 -0.1806 -0.7030
16604SOL    HW250863   5.197   2.850   6.332  0.1588 -2.6966  1.3669
16605SOL     OW50864   4.251   0.599   6.132  0.0401 -0.2636 -0.3802
16605SOL    HW150865   4.326   0.610   6.074 -0.7558 -0.2407 -1.4199
16605SOL    HW250866   4.288   0.557   6.210  1.2182  0.2007 -0.6623
16606SOL     OW50867   5.773   5.460   3.274 -0.4689 -0.7058  0.1086
16606SOL    HW150868   5.862   5.478   3.245 -1.5759  2.4221 -1.8355
16606SOL    HW250869   5.730   5.425   3.196 -1.2907 -0.8474  0.6150
16607SOL     OW50870   7.897   4.234   7.060 -0.6182 -0.0621  0.2847
16607SOL    HW150871   7.909   4.222   7.154 -0.2503  0.7783  0.3553
16607SOL    HW250872   7.818   4.287   7.052 -0.8924 -0.4906  0.0918
16608SOL     OW50873   0.266   5.299   7.682  0.0295  0.3350 -0.2175
16608SOL    HW150874   0.325   5.266   7.750 -0.2724 -0.8043 -0.4963
16608SOL    HW250875   0.303   5.385   7.659 -0.4855  1.2719  2.1526
16609SOL     OW50876   1.895   3.290   2.562 -0.4992 -0.0766  0.1064
16609SOL    HW150877   1.957   3.345   2.515 -0.5746 -0.4083 -0.3869
16609SOL    HW250878   1.851   3.349   2.623 -1.1426  0.5803 -0.9613
16610SOL     OW50879   0.039   6.268   5.107 -0.4172 -0.2550 -0.0027
16610SOL    HW150880  -0.012   6.190   5.130  0.6161 -0.7464  0.7365
16610SOL    HW250881   0.033   6.273   5.012  0.5296 -2.0243 -0.2188
16611SOL     OW50882   2.082   1.188   5.551  0.1240  0.2516 -0.2466
16611SOL    HW150883   2.011   1.239   5.512 -1.2560 -1.9912 -0.8547
16611SOL    HW250884   2.038   1.119   5.601  1.8764  1.1881  2.8878
16612SOL     OW50885   2.241   6.328   3.595 -0.1234  0.1116  0.0831
16612SOL    HW150886   2.273   6.379   3.520  0.8588 -2.8994 -1.7082
16612SOL    HW250887   2.319   6.290   3.634 -0.9132 -1.2738  0.3853
16613SOL     OW50888   0.982   6.405   6.719 -0.6031 -0.2934 -0.2258
16613SOL    HW150889   0.988   6.367   6.631 -2.1358  0.8254 -0.8667
16613SOL    HW250890   0.928   6.343   6.769 -0.9532 -0.2347 -0.5238
16614SOL     OW50891   5.029   2.139   4.566  0.3705  0.0554  0.1815
16614SOL    HW150892   5.115   2.098   4.573 -0.0771 -0.8300  0.6061
16614SOL    HW250893   4.996   2.141   4.656 -0.1693  0.1479 -0.0125
16615SOL     OW50894   3.378   2.501   0.173 -0.1390  0.7315 -0.3207
16615SOL    HW150895   3.332   2.535   0.097  0.5361 -1.9020 -2.0273
16615SOL    HW250896   3.467   2.485   0.143  0.3520  0.2799  1.2451
16616SOL     OW50897   3.527   1.948   0.574  0.1280  0.0624 -0.3805
16616SOL    HW150898   3.531   1.867   0.523 -3.6819 -0.0309 -0.7946
16616SOL    HW250899   3.460   1.932   0.640  1.5937  1.8389  1.7145
16617SOL     OW50900   7.238   5.878   7.361 -0.3032  0.3611 -0.1604
16617SOL    HW150901   7.196   5.810   7.414  0.2136 -1.1077 -1.5617
16617SOL    HW250902   7.325   5.842   7.340  0.8134  2.3536  0.7710
16618SOL     OW50903   1.421   0.584   5.709  0.3490 -0.2618 -0.1453
16618SOL    HW150904   1.437   0.650   5.641  0.5124 -1.1520 -0.9803
16618SOL    HW250905   1.372   0.515   5.666 -1.0771 -0.0747  1.0766
16619SOL     OW50906   7.741   0.123   0.794 -0.0754 -0.5602  1.2299
16619SOL    HW150907   7.693   0.073   0.860  1.3932  0.1117  2.8992
16619SOL    HW250908   7.779   0.057   0.737 -0.5982 -1.2042  1.6100
16620SOL     OW50909   0.657   2.913   2.662 -0.2389 -0.3339  0.3378
16620SOL    HW150910   0.699   2.829   2.682  0.8910 -0.5136 -2.2980
16620SOL    HW250911   0.694   2.974   2.726  0.9225 -1.3351  0.6650
16621SOL     OW50912   2.110   2.424   0.224 -0.1052 -0.0774  0.6734
16621SOL    HW150913   2.171   2.490   0.192  2.6386 -2.1903  1.1343
16621SOL    HW250914   2.062   2.396   0.146 -0.6322  1.6997  0.3126
16622SOL     OW50915   4.851   4.753   5.517 -0.6690 -0.3214 -0.1324
16622SOL    HW150916   4.793   4.822   5.484 -0.3347  1.3510  2.4951
16622SOL    HW250917   4.939   4.786   5.501 -0.4096 -1.5549 -1.4993
16623SOL     OW50918   6.383   5.005   7.414  1.2243 -0.5482  0.4424
16623SOL    HW150919   6.427   5.082   7.378  1.0914 -0.0838  1.2309
16623SOL    HW250920   6.442   4.932   7.395  1.8147 -0.0993  0.5317
16624SOL     OW50921   4.569   7.019   4.119 -0.2374  0.1484 -0.3483
16624SOL    HW150922   4.626   7.002   4.195 -0.1196 -0.0592 -0.4812
16624SOL    HW250923   4.625   7.002   4.043 -0.7342 -0.9947 -0.4817
16625SOL     OW50924   7.680   6.042   6.923 -0.3046 -0.6930 -0.1525
16625SOL    HW150925   7.602   6.015   6.875  0.1564 -1.8405 -0.3020
16625SOL    HW250926   7.735   6.086   6.858  0.1299 -1.8620 -0.6074
16626SOL     OW50927   3.731   3.477   5.049 -0.3919 -0.1232  0.1879
16626SOL    HW150928   3.739   3.517   5.136  0.0493 -0.5905  0.3640
16626SOL    HW250929   3.637   3.477   5.032 -0.6192 -1.3540  1.2999
16627SOL     OW50930   1.628   3.201   3.009 -0.2504 -0.0433  0.0015
16627SOL    HW150931   1.588   3.230   3.091  0.9610 -0.8355  0.9237
16627SOL    HW250932   1.705   3.257   2.999 -1.0054  0.8254 -1.2391
16628SOL     OW50933   7.383   2.170   5.093  0.0372 -0.4184  0.2900
16628SOL    HW150934   7.330   2.220   5.155  0.6243  1.3101 -0.5161
16628SOL    HW250935   7.346   2.191   5.007  1.9810  0.9294 -0.3113
16629SOL     OW50936   3.776   4.265   3.178 -0.0688 -0.4585  0.9239
16629SOL    HW150937   3.705   4.312   3.134 -1.0501 -0.1489  2.7392
16629SOL    HW250938   3.840   4.247   3.109 -0.5035  1.9186 -0.1748
16630SOL     OW50939   3.442   5.719   3.675 -0.5902 -0.2225 -0.3669
16630SOL    HW150940   3.374   5.681   3.732 -2.5889  1.0784 -1.7494
16630SOL    HW250941   3.500   5.765   3.736 -0.2305 -2.3109  0.9689
16631SOL     OW50942   5.779   6.848   0.164  0.4248  0.2087 -1.0402
16631SOL    HW150943   5.687   6.872   0.169  0.0945 -0.8508 -1.6182
16631SOL    HW250944   5.785   6.793   0.086  1.0316 -1.8725  0.3934
16632SOL     OW50945   3.832   6.260   5.886 -0.0311  0.3040 -0.0360
16632SOL    HW150946   3.784   6.324   5.833  1.1747  0.7479 -0.6326
16632SOL    HW250947   3.794   6.175   5.861  0.1117  0.5607 -1.1919
16633SOL     OW50948   1.777   1.947   1.654 -0.7192  0.6371  0.8610
16633SOL    HW150949   1.726   1.940   1.735  0.7749 -1.6472  1.6992
16633SOL    HW250950   1.720   1.908   1.587 -0.8933 -0.0226  1.3777
16634SOL     OW50951   8.021   7.278   0.780 -0.1569  0.4309  0.2249
16634SOL    HW150952   8.044   7.215   0.849  0.8786 -0.8944 -1.2735
16634SOL    HW250953   7.990   7.355   0.828  1.2242 -0.1655  2.2047
16635SOL     OW50954   0.564   2.028   6.539 -0.4470  0.0131 -0.2022
16635SOL    HW150955   0.569   1.968   6.614  1.1169 -1.7653 -1.6556
16635SOL    HW250956   0.509   2.100   6.571  0.2006 -0.6254  2.6697
16636SOL     OW50957   6.675   8.163   4.946 -0.2628  0.7221 -0.0830
16636SOL    HW150958   6.638   8.075   4.944 -2.0513  1.2876  2.5177
16636SOL    HW250959   6.759   8.153   4.989 -0.6499  0.3282  0.5960
16637SOL     OW50960   8.130   3.176   2.054  0.7771  0.2211 -0.0681
16637SOL    HW150961   8.106   3.268   2.058 -0.2913 -0.0266 -0.4585
16637SOL    HW250962   8.051   3.131   2.025  1.0848 -0.8998  0.7382
16638SOL     OW50963   2.567   2.000   3.503 -0.1999  0.0203 -0.4566
16638SOL    HW150964   2.479   1.963   3.503 -0.3328  0.3062  0.7711
16638SOL    HW250965   2.555   2.091   3.530  0.1499  0.9805 -3.2259
16639SOL     OW50966   0.196   4.600   6.008  0.2319 -0.0311  0.1944
16639SOL    HW150967   0.119   4.567   6.054  0.3954 -1.3914 -0.4557
16639SOL    HW250968   0.161   4.655   5.938 -0.2619 -1.6408 -0.8884
16640SOL     OW50969   3.629   1.238   4.210  0.7828 -0.1703  0.3553
16640SOL    HW150970   3.617   1.313   4.151  0.5544  0.1535  0.8065
16640SOL    HW250971   3.665   1.169   4.154 -0.9824 -0.4190 -0.5468
16641SOL     OW50972   3.118   7.907   0.826 -0.4604 -0.1749 -0.5201
16641SOL    HW150973   3.151   7.909   0.736 -0.1022 -0.1773 -0.3890
16641SOL    HW250974   3.084   7.995   0.842 -0.6038 -0.1993 -0.6859
16642SOL     OW50975   5.511   7.761   5.798  0.1482 -0.6424 -0.0057
16642SOL    HW150976   5.578   7.807   5.747 -0.4523 -0.8111 -0.9549
16642SOL    HW250977   5.482   7.825   5.863  0.8033 -0.3797  0.0383
16643SOL     OW50978   5.255   4.522   5.373  0.3864 -0.2950 -0.1713
16643SOL    HW150979   5.252   4.505   5.467  0.2910 -0.2270 -0.1617
16643SOL    HW250980   5.328   4.583   5.361 -0.0881  0.3083 -0.0422
16644SOL     OW50981   5.851   4.875   4.533 -0.1588 -0.5866  0.2156
16644SOL    HW150982   5.916   4.927   4.486  0.7088 -1.9283 -0.1404
16644SOL    HW250983   5.865   4.897   4.625 -1.1886  1.2966 -0.0349
16645SOL     OW50984   5.856   3.207   0.493 -0.2528 -0.3361 -0.3668
16645SOL    HW150985   5.891   3.198   0.582 -0.7212  1.8143  0.0765
16645SOL    HW250986   5.932   3.231   0.440 -0.2823  0.1300 -0.2033
16646SOL     OW50987   5.479   3.368   6.266 -0.2207 -0.4307  0.1393
16646SOL    HW150988   5.422   3.366   6.190 -0.3026  0.8373  0.1427
16646SOL    HW250989   5.465   3.284   6.310 -1.8059 -0.2808 -0.0517
16647SOL     OW50990   5.566   4.352   1.880  0.3084 -0.0750  0.1860
16647SOL    HW150991   5.553   4.268   1.925 -0.7707  1.2430  2.5318
16647SOL    HW250992   5.538   4.336   1.790 -1.2783 -1.8871  0.9324
16648SOL     OW50993   5.798   0.878   3.595  0.1263 -0.3557  0.2259
16648SOL    HW150994   5.750   0.953   3.559 -0.4157 -0.0151  1.5831
16648SOL    HW250995   5.799   0.894   3.689 -1.9829 -3.1394  0.8670
16649SOL     OW50996   4.863   2.151   4.339  0.3287  0.1325 -0.1935
16649SOL    HW150997   4.923   2.133   4.267  1.3269 -0.6122  0.7898
16649SOL    HW250998   4.917   2.147   4.418 -0.9595 -0.2800  0.7137
16650SOL     OW50999   3.049   3.921   7.603 -0.0198 -0.0973  0.2544
16650SOL    HW151000   3.065   3.833   7.570 -1.2968  0.7382 -2.9556
16650SOL    HW251001   2.959   3.919   7.635 -0.8090  0.4461 -1.7561
16651SOL     OW51002   4.854   5.359   3.699 -0.0606  0.3650  0.3391
16651SOL    HW151003   4.879   5.427   3.762  1.1563 -0.8610  1.2120
16651SOL    HW251004   4.899   5.280   3.729 -0.3893 -0.5296 -1.4164
16652SOL     OW51005   6.655   1.573   4.411  0.1743 -0.6882 -0.8774
16652SOL    HW151006   6.644   1.562   4.505  0.2373  1.8321 -0.4971
16652SOL    HW251007   6.660   1.484   4.376 -0.8032 -1.6922  1.3642
16653SOL     OW51008   7.621   7.766   8.225  1.1247 -0.3351  0.6781
16653SOL    HW151009   7.646   7.769   8.317  2.4112  0.2582  0.3203
16653SOL    HW251010   7.593   7.675   8.211  0.6580 -0.3658  1.6988
16654SOL     OW51011   1.838   0.737   3.108 -0.1589 -0.2291 -0.2940
16654SOL    HW151012   1.758   0.783   3.082 -0.0170  0.8505  1.0876
16654SOL    HW251013   1.888   0.728   3.026 -0.2788  1.9046 -0.6558
16655SOL     OW51014   3.736   1.928   5.773  0.1350  0.8423 -0.4918
16655SOL    HW151015   3.646   1.962   5.769 -0.3601 -0.4959 -1.1985
16655SOL    HW251016   3.774   1.972   5.850 -1.9223 -0.4353  1.3943
16656SOL     OW51017   4.264   4.583   0.904  0.0543  0.3793  0.3617
16656SOL    HW151018   4.311   4.608   0.824  0.4491 -0.0354  0.4612
16656SOL    HW251019   4.333   4.563   0.967 -0.2160 -1.5581  0.1086
16657SOL     OW51020   4.021   1.758   1.142 -0.2111 -0.4758  0.5309
16657SOL    HW151021   4.111   1.765   1.174 -0.6662 -0.4617  1.8807
16657SOL    HW251022   4.004   1.842   1.100  0.1252 -0.1291  1.0679
16658SOL     OW51023   5.642   6.153   3.405  0.1520 -0.2541  0.2380
16658SOL    HW151024   5.679   6.099   3.475 -1.1554  0.7532  1.7795
16658SOL    HW251025   5.557   6.181   3.439  0.1762  1.6053 -1.0912
16659SOL     OW51026   7.109   7.693   0.567  0.3751 -0.3622  0.5176
16659SOL    HW151027   7.078   7.602   0.573 -0.7178 -0.1155 -0.9208
16659SOL    HW251028   7.130   7.717   0.658  0.1455 -1.8547  0.9971
16660SOL     OW51029   6.088   2.882   6.932 -0.3556  0.6306 -0.0082
16660SOL    HW151030   6.039   2.907   7.010  0.4281 -1.2998  1.1672
16660SOL    HW251031   6.026   2.834   6.878 -0.7227  1.3999 -0.2798
16661SOL     OW51032   4.708   6.740   5.029 -0.3565 -0.2787  0.1443
16661SOL    HW151033   4.621   6.700   5.025  0.4438 -2.0525 -2.8098
16661SOL    HW251034   4.767   6.667   5.050  0.4460  1.0041  2.6832
16662SOL     OW51035   6.281   5.859   7.984  0.2470  0.0345  0.4827
16662SOL    HW151036   6.337   5.783   8.005 -1.5086 -0.7244  2.9214
16662SOL    HW251037   6.299   5.922   8.053 -0.6847  0.4629  0.3554
16663SOL     OW51038   0.450   4.506   2.283 -0.3539 -0.2436  0.1108
16663SOL    HW151039   0.385   4.467   2.342 -2.1882 -0.5688 -1.9917
16663SOL    HW251040   0.485   4.432   2.233 -0.6380  0.2656 -0.8725
16664SOL     OW51041   4.837   2.144   3.903 -0.5797 -0.0264 -0.4024
16664SOL    HW151042   4.909   2.148   3.966 -1.8793 -0.1214  1.1393
16664SOL    HW251043   4.879   2.120   3.820  1.2896  0.9646  0.2081
16665SOL     OW51044   5.124   4.309   3.259 -0.1347  0.0869 -0.3205
16665SOL    HW151045   5.050   4.370   3.261  0.1751  0.5026 -1.1510
16665SOL    HW251046   5.105   4.251   3.186  0.5116  0.3893 -0.7304
16666SOL     OW51047   7.008   7.423   0.537  0.6149 -0.0124  0.4201
16666SOL    HW151048   6.914   7.414   0.523  0.7363 -0.6955 -0.0481
16666SOL    HW251049   7.047   7.382   0.459  1.3110 -2.0179  1.7458
16667SOL     OW51050   6.031   0.605   6.471  0.2169  0.5997  0.0716
16667SOL    HW151051   6.094   0.621   6.541  0.4146  0.2139 -0.0189
16667SOL    HW251052   6.084   0.597   6.391  0.1386 -0.6103  0.1284
16668SOL     OW51053   0.251   0.722   6.680  0.4383  0.8419  0.1308
16668SOL    HW151054   0.159   0.700   6.693  0.5091  0.7590  0.4938
16668SOL    HW251055   0.281   0.661   6.612  0.7156 -0.4059  1.3403
16669SOL     OW51056   1.300   5.329   7.247 -0.1308 -0.3813  0.2084
16669SOL    HW151057   1.248   5.264   7.295  0.1262  0.4722  1.7352
16669SOL    HW251058   1.244   5.355   7.174 -1.7542  0.2271  1.5927
16670SOL     OW51059   5.583   4.768   3.035  0.2630  0.2150  0.1944
16670SOL    HW151060   5.560   4.763   2.942 -0.3887 -0.0678  0.3594
16670SOL    HW251061   5.661   4.822   3.038  2.2459 -2.3709 -0.8582
16671SOL     OW51062   0.323   3.494   2.033  0.6223 -0.3017  0.0707
16671SOL    HW151063   0.316   3.417   2.089 -0.0740 -1.3504 -1.3905
16671SOL    HW251064   0.297   3.463   1.946 -0.6634  1.8165 -0.3660
16672SOL     OW51065   0.367   0.551   4.520 -0.4368 -0.1751 -0.5308
16672SOL    HW151066   0.376   0.588   4.607 -2.3496 -0.2969 -0.2507
16672SOL    HW251067   0.456   0.551   4.485  0.2535  0.5458  1.1293
16673SOL     OW51068   8.134   5.887   7.274  0.1187  0.0507  0.6168
16673SOL    HW151069   8.149   5.976   7.305  1.4077 -0.0880  0.4579
16673SOL    HW251070   8.189   5.880   7.196 -2.1008  0.0029 -1.0547
16674SOL     OW51071   4.634   7.562   3.153  0.4169 -0.3190  0.3608
16674SOL    HW151072   4.710   7.546   3.208 -0.9225 -2.6322  1.6830
16674SOL    HW251073   4.563   7.579   3.215 -0.7106 -0.9724 -0.7100
16675SOL     OW51074   3.414   2.341   5.804 -0.6941 -0.6645  0.2984
16675SOL    HW151075   3.359   2.419   5.796 -0.7656 -0.7029  0.4186
16675SOL    HW251076   3.477   2.364   5.873 -0.1367 -0.3683 -0.2904
16676SOL     OW51077   7.805   5.905   4.269  0.6055 -0.1574  0.1469
16676SOL    HW151078   7.871   5.920   4.202 -0.8550 -0.9362 -1.5527
16676SOL    HW251079   7.852   5.917   4.352  2.5519  0.5173 -0.9765
16677SOL     OW51080   2.803   5.124   0.038 -0.4780 -0.1935  0.1147
16677SOL    HW151081   2.743   5.050   0.049  0.4193 -0.8639  0.6487
16677SOL    HW251082   2.885   5.094   0.076 -0.3744  1.4674  1.3149
16678SOL     OW51083   6.121   2.148   3.814  0.7018  0.8012  0.4602
16678SOL    HW151084   6.210   2.176   3.793  1.6182 -1.1568  1.3792
16678SOL    HW251085   6.077   2.227   3.844  2.1669  1.7987  0.0858
16679SOL     OW51086   1.880   4.053   2.954  0.0345 -0.3002 -0.2549
16679SOL    HW151087   1.868   3.965   2.919  2.7190 -1.5677  1.7048
16679SOL    HW251088   1.810   4.063   3.018  1.1790 -2.1319  1.3892
16680SOL     OW51089   7.588   6.628   3.305 -0.4874  0.3065 -0.0248
16680SOL    HW151090   7.572   6.573   3.228  3.6967 -2.5651  0.8282
16680SOL    HW251091   7.537   6.587   3.375  0.1724 -0.6286 -0.0791
16681SOL     OW51092   2.697   5.678   0.431  0.2588 -0.2315 -0.2450
16681SOL    HW151093   2.755   5.750   0.457 -2.2997  1.7436  0.4335
16681SOL    HW251094   2.687   5.627   0.511  1.8544 -1.2558 -0.6531
16682SOL     OW51095   3.981   4.428   6.706  0.0533  0.5130  0.5414
16682SOL    HW151096   3.920   4.481   6.655  1.1144  1.6739  0.4175
16682SOL    HW251097   3.996   4.350   6.652 -1.6416 -0.0233  0.7923
16683SOL     OW51098   2.461   7.457   2.335  0.3274 -0.1937 -0.1167
16683SOL    HW151099   2.510   7.426   2.258  0.1293 -0.8044  0.0002
16683SOL    HW251100   2.370   7.433   2.316  0.3764 -1.0039  0.6326
16684SOL     OW51101   6.486   7.982   3.614  0.4368  0.3656  0.1395
16684SOL    HW151102   6.487   8.026   3.699  0.0051 -0.1196  0.3993
16684SOL    HW251103   6.411   8.020   3.568  0.0982 -0.0528  0.3424
16685SOL     OW51104   0.804   2.669   2.703 -0.2720 -0.0698 -0.0230
16685SOL    HW151105   0.805   2.619   2.785  1.2681 -1.6611 -0.9155
16685SOL    HW251106   0.885   2.719   2.704 -1.0160  1.1640  0.1129
16686SOL     OW51107   4.276   4.183   6.185  0.4386 -0.6301 -0.2237
16686SOL    HW151108   4.253   4.214   6.272 -1.0151 -0.2400 -0.7296
16686SOL    HW251109   4.368   4.157   6.193  1.6218  3.0905  0.4446
16687SOL     OW51110   1.322   2.795   7.497 -0.4649  0.2182  0.4300
16687SOL    HW151111   1.341   2.702   7.510  0.9972  0.4823  0.3660
16687SOL    HW251112   1.326   2.833   7.585 -2.9802 -0.0577  0.7386
16688SOL     OW51113   0.744   3.562   1.556 -0.5072  0.0671  0.8182
16688SOL    HW151114   0.742   3.477   1.600 -0.3551 -0.3830 -0.0228
16688SOL    HW251115   0.652   3.585   1.542 -0.5844  0.6110  2.0920
16689SOL     OW51116   2.939   4.906   6.132  0.1400 -0.4455 -0.0790
16689SOL    HW151117   2.848   4.902   6.101  0.0906  0.4701 -0.0828
16689SOL    HW251118   2.941   4.848   6.208 -0.1457 -1.4222 -0.8011
16690SOL     OW51119   3.764   7.793   2.152  0.3687 -0.1508 -0.0819
16690SOL    HW151120   3.753   7.737   2.229 -1.1543  1.2945  0.8393
16690SOL    HW251121   3.827   7.747   2.097 -0.5908 -2.6062  0.7364
16691SOL     OW51122   5.302   6.032   7.508  0.1212 -0.2943  0.1164
16691SOL    HW151123   5.264   6.049   7.595  0.4790 -0.2405  0.2661
16691SOL    HW251124   5.306   6.118   7.467 -0.6613 -0.4074 -0.2153
16692SOL     OW51125   5.758   6.295   4.928  0.1714 -0.1637 -0.3632
16692SOL    HW151126   5.683   6.306   4.987 -0.0846 -1.3510 -0.4440
16692SOL    HW251127   5.725   6.321   4.842 -0.6398 -2.0537 -0.6865
16693SOL     OW51128   0.466   5.276   6.788  0.0301  0.4001  0.2623
16693SOL    HW151129   0.443   5.302   6.877  0.0296 -0.3783  0.4975
16693SOL    HW251130   0.469   5.180   6.791 -0.9664  0.3130 -0.8114
16694SOL     OW51131   1.365   6.195   7.113  0.2923  0.3494  0.1790
16694SOL    HW151132   1.344   6.253   7.040 -1.3518 -0.5370 -0.1090
16694SOL    HW251133   1.280   6.157   7.139  1.1228 -0.8849  1.2269
16695SOL     OW51134   2.278   6.100   4.223  0.2107 -0.2713 -0.6994
16695SOL    HW151135   2.330   6.030   4.184 -0.3143 -0.5340 -0.9306
16695SOL    HW251136   2.268   6.165   4.153  1.9845  0.7793 -0.0570
16696SOL     OW51137   3.799   3.557   5.322 -0.1636  0.4035 -0.1777
16696SOL    HW151138   3.827   3.648   5.324  0.8590  0.1128 -0.5472
16696SOL    HW251139   3.747   3.546   5.402 -0.5161  1.3690 -0.2617
16697SOL     OW51140   1.604   7.574   0.029 -0.0454 -0.8828 -0.1946
16697SOL    HW151141   1.520   7.598   0.069  0.2420 -1.7390  1.0034
16697SOL    HW251142   1.665   7.570   0.103  0.8253 -1.2096 -0.9133
16698SOL     OW51143   4.004   4.591   4.704  0.1655 -0.1848 -0.1466
16698SOL    HW151144   3.994   4.561   4.613 -0.4380 -1.0177  0.1872
16698SOL    HW251145   4.065   4.665   4.698 -0.9012  0.6285 -1.4002
16699SOL     OW51146   4.124   6.169   1.069  0.6153  0.5070 -0.3999
16699SOL    HW151147   4.040   6.215   1.059  0.6396  0.7156  0.3248
16699SOL    HW251148   4.139   6.166   1.163  0.8207 -0.6375 -0.4575
16700SOL     OW51149   1.674   0.383   1.527  0.0715  0.0050 -0.1678
16700SOL    HW151150   1.670   0.448   1.457 -2.0272 -0.7428 -0.8195
16700SOL    HW251151   1.766   0.379   1.551  0.6093  1.4150 -1.8065
16701SOL     OW51152   1.967   3.991   2.263 -0.8933 -0.1090  0.2033
16701SOL    HW151153   1.879   4.022   2.240 -1.0420 -0.1278  0.7443
16701SOL    HW251154   2.017   4.000   2.182 -0.3840  3.4448  0.7693
16702SOL     OW51155   1.500   0.577   2.052  0.4851  0.3512 -0.3378
16702SOL    HW151156   1.572   0.517   2.070 -0.1034  0.0071  0.9461
16702SOL    HW251157   1.521   0.656   2.102  0.3176  0.5178 -0.5240
16703SOL     OW51158   5.521   6.968   2.881 -0.6605 -0.0849 -0.3108
16703SOL    HW151159   5.529   7.063   2.880 -0.1179 -0.1358 -0.9571
16703SOL    HW251160   5.600   6.936   2.838 -1.2372 -0.7991 -0.8644
16704SOL     OW51161   1.642   6.611   3.547  0.2999 -0.4139  0.7699
16704SOL    HW151162   1.636   6.631   3.640  0.1344 -0.4250  0.7627
16704SOL    HW251163   1.551   6.603   3.518  0.3552 -1.0555  0.7472
16705SOL     OW51164   4.602   2.540   2.238 -0.5171 -0.1752 -0.9940
16705SOL    HW151165   4.592   2.627   2.199  0.4881  0.1176 -0.6197
16705SOL    HW251166   4.692   2.515   2.217  0.2311  0.1956  1.5265
16706SOL     OW51167   3.672   7.472   5.936 -0.1439  0.0331  0.3788
16706SOL    HW151168   3.612   7.456   5.863 -0.7289  1.4107  0.5242
16706SOL    HW251169   3.623   7.444   6.013  1.2343 -3.4129  0.1737
16707SOL     OW51170   7.049   1.726   8.149 -0.2761  0.1330  0.3371
16707SOL    HW151171   7.082   1.765   8.069  0.0127 -0.8658 -0.0446
16707SOL    HW251172   7.059   1.794   8.216  0.8138  0.4772 -0.1697
16708SOL     OW51173   6.147   3.152   1.070  0.7192  0.0345  0.0556
16708SOL    HW151174   6.206   3.175   0.998 -0.3948 -0.7700 -1.1713
16708SOL    HW251175   6.200   3.101   1.131  1.2002 -1.0902 -1.2592
16709SOL     OW51176   7.725   2.473   7.393 -0.5249  0.7917 -0.1812
16709SOL    HW151177   7.677   2.415   7.452 -0.0361  1.2734  0.7138
16709SOL    HW251178   7.662   2.496   7.325 -0.7471 -0.7213 -0.5118
16710SOL     OW51179   1.801   7.561   4.262 -0.3329  0.1314 -0.0831
16710SOL    HW151180   1.753   7.495   4.212 -1.8781  0.8945  0.3494
16710SOL    HW251181   1.816   7.632   4.199  0.8592 -0.3777 -0.4008
16711SOL     OW51182   4.943   3.864   1.389 -0.4961 -0.2478  0.1055
16711SOL    HW151183   4.919   3.867   1.481 -0.3430 -3.0543  0.3277
16711SOL    HW251184   4.928   3.953   1.357 -1.6333  0.5184  2.5468
16712SOL     OW51185   7.718   5.730   8.002  0.0336  0.4819 -0.7398
16712SOL    HW151186   7.777   5.684   7.943 -1.0926 -0.1396 -1.4086
16712SOL    HW251187   7.759   5.720   8.088  1.0683  0.3566 -1.2246
16713SOL     OW51188   6.886   5.633   6.851 -0.1021 -0.9076  0.0083
16713SOL    HW151189   6.950   5.679   6.905 -0.1357  0.6633 -1.2602
16713SOL    HW251190   6.809   5.625   6.908  0.1533 -0.0371  0.4958
16714SOL     OW51191   4.002   0.026   5.503 -0.3350  0.5924 -0.0143
16714SOL    HW151192   4.019  -0.068   5.494  0.3923  0.8358 -1.4722
16714SOL    HW251193   4.056   0.053   5.577 -1.0346 -0.2389  0.8293
16715SOL     OW51194   6.979   3.692   6.846 -0.9176 -0.1995  0.8763
16715SOL    HW151195   7.058   3.705   6.898 -0.0529 -2.0240  0.1110
16715SOL    HW251196   7.000   3.619   6.788 -2.7020  0.1685 -0.3168
16716SOL     OW51197   5.090   3.359   7.604  0.1705 -0.0564 -0.7936
16716SOL    HW151198   5.066   3.436   7.656  1.6757  0.5138 -0.8906
16716SOL    HW251199   5.050   3.375   7.519  1.6224  1.3585 -1.2668
16717SOL     OW51200   3.678   1.602   4.173  1.3261  0.2465 -0.0684
16717SOL    HW151201   3.700   1.695   4.167 -0.9414  0.7533 -3.2510
16717SOL    HW251202   3.652   1.589   4.264  1.1148  2.9157  0.3293
16718SOL     OW51203   3.562   4.946   2.529  0.4563  0.1303  0.4803
16718SOL    HW151204   3.557   4.865   2.579  0.7210 -0.2324 -0.0696
16718SOL    HW251205   3.651   4.946   2.493  0.2183  0.3036 -0.1202
16719SOL     OW51206   3.971   6.077   7.228  0.1134 -0.3728 -0.0859
16719SOL    HW151207   3.882   6.064   7.262  0.4383 -0.2016  0.8829
16719SOL    HW251208   4.009   6.143   7.286  1.5410 -1.8841  0.8022
16720SOL     OW51209   8.200   2.286   6.666 -0.4546  0.2548  0.0369
16720SOL    HW151210   8.132   2.218   6.663  0.5045 -0.7418  0.0114
16720SOL    HW251211   8.202   2.314   6.757 -0.0661 -0.5994  0.2985
16721SOL     OW51212   4.988   3.562   7.058 -0.4762  0.5285 -0.3657
16721SOL    HW151213   4.928   3.636   7.059 -0.3834  0.6428 -1.6679
16721SOL    HW251214   4.950   3.501   6.995 -0.6604 -0.6420  0.8466
16722SOL     OW51215   1.672   1.376   0.087 -0.5625 -0.1139  0.1297
16722SOL    HW151216   1.701   1.330   0.166  0.8564 -1.1540 -0.9338
16722SOL    HW251217   1.637   1.307   0.030  0.1866  0.3184 -0.8906
16723SOL     OW51218   7.597   2.749   6.491 -0.7231 -0.0066  0.0298
16723SOL    HW151219   7.641   2.833   6.508  0.0062 -0.2954 -0.3831
16723SOL    HW251220   7.654   2.704   6.429  0.1407 -1.8406  2.0536
16724SOL     OW51221   0.793   0.335   3.086  0.1567  0.0041 -0.3358
16724SOL    HW151222   0.842   0.414   3.109 -1.0605  0.6682  0.0348
16724SOL    HW251223   0.734   0.321   3.159 -0.7452 -0.3394 -1.1149
16725SOL     OW51224   7.052   2.076   3.790 -0.5116 -0.5388  0.7218
16725SOL    HW151225   6.986   2.145   3.804  0.8146  0.3730  2.9567
16725SOL    HW251226   7.065   2.037   3.877  0.9562 -1.5847  0.0713
16726SOL     OW51227   6.889   6.401   0.420  0.4378 -0.1138 -0.2617
16726SOL    HW151228   6.892   6.417   0.326  1.5659 -1.9513 -0.5841
16726SOL    HW251229   6.979   6.417   0.450  0.3693 -0.6712  0.2753
16727SOL     OW51230   5.760   6.400   1.693 -0.5225 -0.2476  0.2232
16727SOL    HW151231   5.717   6.318   1.669  1.7313 -1.1199 -1.1165
16727SOL    HW251232   5.691   6.466   1.687 -2.0600 -1.8078 -0.0718
16728SOL     OW51233   8.108   4.645   7.073 -0.0635 -0.2881  0.4014
16728SOL    HW151234   8.060   4.616   7.150 -1.6158 -0.5850 -0.6514
16728SOL    HW251235   8.078   4.588   7.002  1.3793 -0.0661 -0.4292
16729SOL     OW51236   5.030   6.556   0.370  0.0229 -0.2974 -0.8509
16729SOL    HW151237   5.029   6.504   0.450 -0.6823  0.8625 -0.0735
16729SOL    HW251238   5.038   6.492   0.300 -3.3131 -1.7579 -0.1138
16730SOL     OW51239   6.685   7.991   6.043 -0.1101 -0.2064  0.6239
16730SOL    HW151240   6.669   7.933   6.118 -1.5143  0.5086  0.9007
16730SOL    HW251241   6.746   8.056   6.076 -1.5523  0.7429  1.5104
16731SOL     OW51242   3.713   5.561   0.636  0.3096 -0.6812 -0.0901
16731SOL    HW151243   3.705   5.466   0.639 -0.3383 -0.7801 -2.6417
16731SOL    HW251244   3.638   5.590   0.583  1.8418  0.9910 -1.4947
16732SOL     OW51245   3.816   2.162   2.480 -0.5509 -0.2110 -0.0141
16732SOL    HW151246   3.735   2.205   2.508 -1.0024 -1.2028  0.2774
16732SOL    HW251247   3.787   2.090   2.424  0.2250  0.3189 -1.1335
16733SOL     OW51248   1.571   1.494   7.249 -0.5763 -0.3258 -0.3369
16733SOL    HW151249   1.551   1.494   7.155  2.9412 -1.4695 -1.2401
16733SOL    HW251250   1.592   1.403   7.270  4.0963  0.5759  0.0313
16734SOL     OW51251   7.904   0.608   4.912 -0.3069  0.2697 -0.5023
16734SOL    HW151252   7.998   0.628   4.918 -0.2167 -0.3914  0.4188
16734SOL    HW251253   7.894   0.568   4.826  0.0906  1.1812 -0.9892
16735SOL     OW51254   2.384   6.986   2.028  0.2230 -0.3353  0.1082
16735SOL    HW151255   2.340   6.929   1.965 -0.8182 -0.4215  0.8853
16735SOL    HW251256   2.461   6.937   2.056 -0.5620 -1.3093  0.6370
16736SOL     OW51257   7.979   4.111   1.609 -0.2866 -0.3780 -0.1980
16736SOL    HW151258   8.008   4.177   1.546 -0.4819 -1.0121 -0.9658
16736SOL    HW251259   7.921   4.054   1.559  0.1118 -1.3128  0.3769
16737SOL     OW51260   4.022   3.805   2.908 -0.1979 -0.2541  0.0778
16737SOL    HW151261   3.958   3.841   2.845 -0.0472 -0.8338 -0.4148
16737SOL    HW251262   4.041   3.717   2.875 -0.7141 -0.8701  1.3923
16738SOL     OW51263   2.096   3.591   1.381 -0.1221  0.4705  0.3363
16738SOL    HW151264   2.115   3.557   1.294 -0.5983  2.6333 -0.6734
16738SOL    HW251265   2.169   3.560   1.435 -1.0624 -3.0666 -0.1206
16739SOL     OW51266   7.398   4.674   3.576  0.2640 -0.4387 -0.5384
16739SOL    HW151267   7.370   4.589   3.543  0.1028 -0.4488 -0.3825
16739SOL    HW251268   7.316   4.718   3.602  0.3358 -0.1923 -0.7260
16740SOL     OW51269   0.346   0.983   7.594  0.3836 -0.2456 -0.4586
16740SOL    HW151270   0.256   0.965   7.618  0.8839 -0.4981  1.3558
16740SOL    HW251271   0.363   0.926   7.519 -0.8714 -0.3680 -0.6626
16741SOL     OW51272   1.152   2.966   5.606 -0.1603 -0.4795  0.4918
16741SOL    HW151273   1.143   2.897   5.540  3.3314  1.9297 -2.9276
16741SOL    HW251274   1.063   2.999   5.619 -1.1838 -2.0721 -1.8757
16742SOL     OW51275   1.435   0.751   1.552  0.0252 -0.3094  0.2011
16742SOL    HW151276   1.498   0.713   1.613 -0.5445  0.2091  1.1288
16742SOL    HW251277   1.352   0.749   1.599 -0.6383 -0.8461 -0.9528
16743SOL     OW51278   6.009   3.684   5.785 -0.0561 -0.0843 -0.7055
16743SOL    HW151279   5.928   3.682   5.734  0.0391  2.1207 -1.0670
16743SOL    HW251280   5.980   3.698   5.875 -0.0995  0.5242 -0.8099
16744SOL     OW51281   7.017   4.564   6.598 -0.1509  0.5572 -0.5619
16744SOL    HW151282   6.953   4.630   6.623 -0.5999 -0.2314  0.4252
16744SOL    HW251283   7.074   4.555   6.675  0.7364  0.7532 -1.1729
16745SOL     OW51284   4.031   5.566   0.568 -0.1142  0.0537 -0.0923
16745SOL    HW151285   4.080   5.496   0.612 -1.7467 -0.5398  0.8845
16745SOL    HW251286   3.939   5.549   0.592 -0.7314  1.4896 -1.3195
16746SOL     OW51287   0.506   7.431   3.603  0.1784 -0.0811  0.2541
16746SOL    HW151288   0.467   7.478   3.676  1.4484  1.0841  0.2193
16746SOL    HW251289   0.505   7.339   3.629  0.7524  0.3327  1.8167
16747SOL     OW51290   4.251   6.532   7.087  0.2813  0.5732  0.2296
16747SOL    HW151291   4.346   6.537   7.086  0.2478  2.4062 -1.9337
16747SOL    HW251292   4.225   6.578   7.167  1.1968  1.4888  0.0236
16748SOL     OW51293   7.310   4.113   3.533  0.3295 -0.1115 -0.1575
16748SOL    HW151294   7.303   4.034   3.478  0.8303 -0.0955 -0.2530
16748SOL    HW251295   7.241   4.103   3.599  0.8393 -0.9808  0.2643
16749SOL     OW51296   8.084   6.215   2.497  0.5612  0.1800 -0.9703
16749SOL    HW151297   8.069   6.161   2.419  0.3610 -0.8280 -0.2588
16749SOL    HW251298   8.145   6.283   2.468  1.8545 -1.1785 -1.5930
16750SOL     OW51299   3.597   6.839   2.003  0.2299  0.0882  0.6293
16750SOL    HW151300   3.653   6.763   1.990 -0.0515 -0.2885  1.5406
16750SOL    HW251301   3.657   6.913   2.005  0.4598 -0.0358 -0.8006
16751SOL     OW51302   3.560   4.427   8.204  0.7082  0.0388 -0.4776
16751SOL    HW151303   3.537   4.366   8.134  1.0165  1.1229 -1.5562
16751SOL    HW251304   3.484   4.427   8.262 -0.1015  0.1079 -1.5170
16752SOL     OW51305   2.530   0.531   8.188  0.2242 -0.2123 -0.0060
16752SOL    HW151306   2.573   0.573   8.114  1.3284 -3.0022 -1.0701
16752SOL    HW251307   2.438   0.558   8.180 -0.0419 -1.5780 -3.3711
16753SOL     OW51308   8.127   6.312   6.830  0.1230  0.1846 -0.0673
16753SOL    HW151309   8.041   6.333   6.794  0.3483 -1.4359 -1.7257
16753SOL    HW251310   8.129   6.216   6.832  1.9728  0.1871 -0.2993
16754SOL     OW51311   3.624   3.905   7.748  0.6107  0.6249 -0.0872
16754SOL    HW151312   3.603   3.962   7.674 -0.8522  0.2756  0.0212
16754SOL    HW251313   3.563   3.932   7.817 -1.1152 -1.8984 -0.4623
16755SOL     OW51314   5.253   5.731   4.125 -0.7661 -0.1521  0.1103
16755SOL    HW151315   5.343   5.743   4.156 -0.8136 -1.7800  0.9539
16755SOL    HW251316   5.260   5.728   4.029 -0.4472  3.5240 -0.1494
16756SOL     OW51317   5.752   0.213   0.438  0.1784  0.0139  0.6663
16756SOL    HW151318   5.718   0.210   0.527  0.4574  2.3320  0.9228
16756SOL    HW251319   5.847   0.220   0.447  0.3240 -1.0761  0.1263
16757SOL     OW51320   2.915   0.377   6.275  0.0420 -0.4228  0.0084
16757SOL    HW151321   2.902   0.450   6.335 -0.4646 -0.1915 -0.3758
16757SOL    HW251322   2.845   0.315   6.297 -0.2674 -0.2467 -0.4759
16758SOL     OW51323   5.420   5.057   4.591  0.2474  0.1802 -0.1437
16758SOL    HW151324   5.338   5.106   4.585 -0.2529 -0.4678  1.0336
16758SOL    HW251325   5.394   4.969   4.617  1.2667 -0.2472 -0.5000
16759SOL     OW51326   0.811   0.409   4.879  0.3133  0.9623 -0.2833
16759SOL    HW151327   0.836   0.342   4.943 -0.9366  0.5258 -0.2231
16759SOL    HW251328   0.756   0.470   4.929 -0.2974  0.8629 -0.8221
16760SOL     OW51329   0.918   3.707   8.014  0.0134 -0.0317 -0.1911
16760SOL    HW151330   0.827   3.677   8.024 -0.0523  0.4241  0.7243
16760SOL    HW251331   0.971   3.638   8.054 -0.0102  0.2238  0.2830
16761SOL     OW51332   1.839   3.446   3.245 -0.4230  0.0279  0.1002
16761SOL    HW151333   1.870   3.444   3.336  0.3795  1.5826 -0.0999
16761SOL    HW251334   1.848   3.356   3.215  1.3067 -0.1362  0.9424
16762SOL     OW51335   7.758   2.614   5.214 -0.0423 -0.6715 -0.1145
16762SOL    HW151336   7.775   2.689   5.271 -2.1067 -0.6874  0.6098
16762SOL    HW251337   7.837   2.605   5.161  1.2637  0.3873  1.5812
16763SOL     OW51338   0.056   5.157   0.115  0.1450  0.6917  0.1515
16763SOL    HW151339   0.146   5.127   0.102 -0.2650 -0.8537  0.6059
16763SOL    HW251340   0.020   5.096   0.180 -1.7094  0.2674 -1.1932
16764SOL     OW51341   0.289   5.841   1.936 -0.0320 -0.0247  0.3881
16764SOL    HW151342   0.222   5.900   1.972 -2.1341 -0.1645 -2.9048
16764SOL    HW251343   0.256   5.753   1.956  0.0408 -0.0898  0.2232
16765SOL     OW51344   7.795   1.429   4.565 -0.1129 -0.0142 -0.3116
16765SOL    HW151345   7.768   1.375   4.640  1.4879 -1.0840 -0.4563
16765SOL    HW251346   7.831   1.508   4.605  0.2123 -0.3310  0.0262
16766SOL     OW51347   3.024   6.724   7.173 -0.1650  0.3780  0.4873
16766SOL    HW151348   2.995   6.793   7.114  1.3175  0.3317 -0.3637
16766SOL    HW251349   3.063   6.771   7.247  1.3520  0.5176 -0.3498
16767SOL     OW51350   2.504   5.179   7.380 -0.5941 -0.0545 -0.0908
16767SOL    HW151351   2.415   5.196   7.411 -0.8804 -0.7081 -0.5380
16767SOL    HW251352   2.497   5.097   7.331  0.6846 -1.3556  1.7576
16768SOL     OW51353   5.167   1.299   2.904 -0.5319  0.3858  0.0123
16768SOL    HW151354   5.249   1.338   2.877 -0.5932  0.0282 -0.7167
16768SOL    HW251355   5.106   1.317   2.832 -0.9339  0.1552  0.2860
16769SOL     OW51356   1.866   1.540   7.731 -0.0401 -0.2251 -0.3295
16769SOL    HW151357   1.956   1.567   7.718 -0.6956  1.5448 -1.5127
16769SOL    HW251358   1.858   1.529   7.826  1.3723 -0.3151 -0.1999
16770SOL     OW51359   4.542   2.493   4.531 -0.2508 -0.0621  0.0275
16770SOL    HW151360   4.448   2.499   4.519 -0.2586 -2.1908 -1.4345
16770SOL    HW251361   4.579   2.537   4.455 -0.1468 -1.5907 -0.8521
16771SOL     OW51362   0.800   4.746   4.477  0.4322 -0.4568  0.6288
16771SOL    HW151363   0.817   4.826   4.428 -0.0697 -0.1208  0.9949
16771SOL    HW251364   0.873   4.740   4.539 -0.3957  0.6317  1.7572
16772SOL     OW51365   5.226   1.386   7.737  0.0362  0.2822  0.2956
16772SOL    HW151366   5.314   1.382   7.774 -0.3507 -1.3624  1.1451
16772SOL    HW251367   5.240   1.388   7.642  0.9805  0.9017  0.4353
16773SOL     OW51368   0.752   4.760   5.173 -0.2188  0.1442 -0.5536
16773SOL    HW151369   0.670   4.710   5.171  0.1076 -0.4210  0.1071
16773SOL    HW251370   0.750   4.812   5.093 -0.4225 -1.1390 -1.4017
16774SOL     OW51371   1.471   2.554   1.790  0.2276  0.2234 -0.7376
16774SOL    HW151372   1.492   2.647   1.797 -0.2035  0.3205 -0.7200
16774SOL    HW251373   1.385   2.552   1.749 -0.0631 -0.1451 -0.1219
16775SOL     OW51374   4.155   5.107   0.271 -0.2178 -0.0501  0.4118
16775SOL    HW151375   4.132   5.109   0.178 -3.0516  0.2602  1.0180
16775SOL    HW251376   4.188   5.019   0.286 -0.1313 -0.2428 -0.7849
16776SOL     OW51377   1.509   7.201   1.231  0.4552  0.2873 -0.2635
16776SOL    HW151378   1.550   7.272   1.182  0.2918  0.7077  0.2033
16776SOL    HW251379   1.578   7.165   1.286  0.5368  0.0883 -0.4963
16777SOL     OW51380   6.091   6.664   3.447  0.5227 -0.2013  0.6932
16777SOL    HW151381   6.030   6.604   3.488  1.6689 -1.4231  0.6841
16777SOL    HW251382   6.069   6.662   3.354  1.5546 -1.9056  0.4392
16778SOL     OW51383   6.020   3.339   1.315 -0.0782  0.2388  0.1953
16778SOL    HW151384   6.055   3.266   1.264  0.3388 -0.0609  0.9039
16778SOL    HW251385   5.968   3.389   1.252 -1.2482 -1.2379 -0.0595
16779SOL     OW51386   2.315   8.216   6.693 -0.3286  0.7719 -0.0156
16779SOL    HW151387   2.248   8.149   6.678  0.4552  0.3387 -1.7972
16779SOL    HW251388   2.266   8.299   6.693 -1.0648  0.3460  0.4325
16780SOL     OW51389   4.007   7.716   2.056  0.3057  0.4191 -0.1343
16780SOL    HW151390   4.072   7.727   2.126 -0.5787 -1.8136  1.1541
16780SOL    HW251391   4.050   7.659   1.992 -0.7894 -2.4446  1.5080
16781SOL     OW51392   0.491   6.127   4.943 -0.7801 -0.0432  0.3624
16781SOL    HW151393   0.564   6.067   4.931  2.3648  3.2368  1.1167
16781SOL    HW251394   0.453   6.103   5.027 -0.0083 -1.2762  0.3770
16782SOL     OW51395   3.834   7.430   7.273 -0.4845 -0.3494  0.2461
16782SOL    HW151396   3.878   7.514   7.283  0.6029 -0.6922 -1.2426
16782SOL    HW251397   3.859   7.381   7.351  0.9319 -0.1341 -0.0434
16783SOL     OW51398   7.896   0.701   1.431 -0.7845  0.6915 -0.0564
16783SOL    HW151399   7.928   0.691   1.341 -1.3143  1.3508 -0.3237
16783SOL    HW251400   7.962   0.657   1.484 -0.7421 -0.1852 -0.8042
16784SOL     OW51401   1.350   4.780   6.478  0.0218  0.1897  0.2148
16784SOL    HW151402   1.297   4.779   6.558  2.0939 -0.3500  1.6557
16784SOL    HW251403   1.358   4.873   6.456  0.4721  0.4443  1.3859
16785SOL     OW51404   3.726   3.286   6.957 -0.1417  0.0560 -0.3250
16785SOL    HW151405   3.672   3.232   7.014  0.3255 -0.6297 -0.5271
16785SOL    HW251406   3.769   3.225   6.898  0.0686  0.6830 -0.8398
16786SOL     OW51407   0.294   4.108   1.180  0.1335  0.2445 -0.0479
16786SOL    HW151408   0.214   4.097   1.128  0.3057  1.4940 -0.6226
16786SOL    HW251409   0.362   4.125   1.115  0.5346  0.9200  0.5384
16787SOL     OW51410   4.087   0.869   1.353 -0.4081 -0.3947 -0.3224
16787SOL    HW151411   4.163   0.914   1.315  0.2649 -0.4970  0.8671
16787SOL    HW251412   4.065   0.921   1.430 -0.0924 -1.6634  0.6526
16788SOL     OW51413   6.030   5.615   3.189  0.0290 -0.6965 -0.4316
16788SOL    HW151414   6.061   5.629   3.100 -0.2856  1.4169 -0.2558
16788SOL    HW251415   5.971   5.689   3.206  1.2783 -0.1609  2.0553
16789SOL     OW51416   4.043   4.433   3.059  0.0306  0.2405 -0.2642
16789SOL    HW151417   4.138   4.437   3.055  0.0221  0.5527 -0.2272
16789SOL    HW251418   4.021   4.479   3.140 -0.1031 -0.6842  0.2317
16790SOL     OW51419   3.234   0.631   1.484 -0.3069  0.3550 -0.2001
16790SOL    HW151420   3.289   0.670   1.552  1.7515 -2.1467 -0.2744
16790SOL    HW251421   3.296   0.604   1.416 -2.0158  0.1764 -1.7591
16791SOL     OW51422   3.074   1.104   2.718  0.5989  0.5439 -0.0358
16791SOL    HW151423   3.117   1.020   2.734  3.3622  1.7711 -0.3624
16791SOL    HW251424   3.018   1.088   2.642 -1.2536 -1.6426  1.6524
16792SOL     OW51425   3.713   0.131   0.816 -0.1292  0.4275 -0.3847
16792SOL    HW151426   3.803   0.138   0.785  0.6973  1.5024  1.9736
16792SOL    HW251427   3.718   0.154   0.909 -2.3055 -2.8197  0.7138
16793SOL     OW51428   8.111   2.748   0.520 -0.1258 -0.3890  0.2486
16793SOL    HW151429   8.157   2.782   0.443  2.2350 -0.8295  1.3749
16793SOL    HW251430   8.066   2.670   0.488 -0.7402  0.4480 -1.0533
16794SOL     OW51431   3.681   6.765   4.569 -0.6822  0.7691 -0.3260
16794SOL    HW151432   3.733   6.730   4.641 -0.6605  0.6758 -0.3860
16794SOL    HW251433   3.673   6.691   4.508 -0.7740  0.8219 -0.3781
16795SOL     OW51434   4.598   0.383   2.772 -0.6594  0.2556  0.0556
16795SOL    HW151435   4.670   0.381   2.709 -1.1414 -0.1402 -0.4857
16795SOL    HW251436   4.535   0.445   2.735 -1.0414 -0.1429  0.0361
16796SOL     OW51437   4.695   1.366   5.012 -0.2201 -0.0522 -0.2522
16796SOL    HW151438   4.693   1.283   5.059 -0.9495  0.4857  0.7142
16796SOL    HW251439   4.624   1.359   4.948 -0.1955 -0.2229 -0.2601
16797SOL     OW51440   6.142   3.266   2.883  0.0682 -0.4888  0.0216
16797SOL    HW151441   6.091   3.346   2.870  0.5537 -0.5039 -2.4697
16797SOL    HW251442   6.234   3.295   2.878  0.2609 -1.0974 -0.0049
16798SOL     OW51443   5.569   7.148   3.441  0.2356 -0.3846 -0.8638
16798SOL    HW151444   5.498   7.200   3.404 -0.1261 -0.3715 -0.1661
16798SOL    HW251445   5.574   7.071   3.384  0.9456  0.5048 -2.0633
16799SOL     OW51446   7.275   2.992   6.809  0.1655 -0.0027  0.0046
16799SOL    HW151447   7.351   2.934   6.806  2.1772  2.4333  0.2807
16799SOL    HW251448   7.306   3.069   6.857 -1.8069  2.0301 -1.7698
16800SOL     OW51449   5.739   3.674   3.610  0.0496  0.2111 -0.4738
16800SOL    HW151450   5.788   3.696   3.689  0.4085 -1.0217 -0.3351
16800SOL    HW251451   5.669   3.739   3.606  0.0962  0.3593  0.7905
16801SOL     OW51452   0.714   5.904   5.894 -0.4631  0.0284 -0.3650
16801SOL    HW151453   0.726   5.926   5.986  0.0418  0.7543 -0.6016
16801SOL    HW251454   0.626   5.935   5.873 -0.6924 -0.4036 -0.0540
16802SOL     OW51455   6.001   5.163   3.359 -0.2999 -0.1939 -0.0754
16802SOL    HW151456   6.011   5.258   3.358 -1.1543 -0.0827  0.6818
16802SOL    HW251457   5.957   5.143   3.276  0.8345 -0.0669 -0.7315
16803SOL     OW51458   4.178   5.815   4.648  0.0695 -0.6409 -0.4002
16803SOL    HW151459   4.270   5.843   4.648  0.1385 -0.8441 -0.9130
16803SOL    HW251460   4.181   5.720   4.656 -0.1007 -0.6432 -0.3519
16804SOL     OW51461   5.917   8.102   0.756 -0.0094 -0.0023 -0.2573
16804SOL    HW151462   5.833   8.063   0.731  0.7517 -1.1207 -1.1870
16804SOL    HW251463   5.956   8.039   0.817  0.8719 -0.3373 -1.1300
16805SOL     OW51464   4.744   0.014   2.854 -0.5354 -0.0563  0.5941
16805SOL    HW151465   4.655   0.007   2.820 -0.5991 -0.0742  0.7611
16805SOL    HW251466   4.747  -0.049   2.926  0.2355 -1.5495 -0.7026
16806SOL     OW51467   4.607   1.325   5.514 -0.0279 -0.1365  0.3048
16806SOL    HW151468   4.599   1.231   5.531  0.1706 -0.1724  0.2071
16806SOL    HW251469   4.567   1.337   5.428 -1.3793  0.1066  0.9539
16807SOL     OW51470   4.052   7.312   4.022  0.3984  0.0535 -0.5093
16807SOL    HW151471   3.984   7.379   4.028  0.1310  0.1213 -3.2724
16807SOL    HW251472   4.134   7.362   4.026  0.2885  0.1813  0.6066
16808SOL     OW51473   7.973   8.230   1.038 -0.2812  0.5193 -0.3422
16808SOL    HW151474   7.946   8.158   1.094 -1.2697  0.9495 -0.2405
16808SOL    HW251475   7.957   8.199   0.949 -0.0403  0.3575 -0.3302
16809SOL     OW51476   5.083   7.313   8.198 -0.6649 -0.3549 -0.0730
16809SOL    HW151477   5.082   7.262   8.118  0.5909 -0.6064  0.0420
16809SOL    HW251478   5.172   7.350   8.202 -1.4232  1.5769  0.0166
16810SOL     OW51479   2.454   1.288   2.327 -0.2277  0.0948  0.5981
16810SOL    HW151480   2.517   1.359   2.333  0.8810 -0.2765 -3.5554
16810SOL    HW251481   2.506   1.208   2.333 -0.7400 -0.2587  0.4570
16811SOL     OW51482   2.133   7.097   7.341  0.0416 -0.8828  0.5484
16811SOL    HW151483   2.081   7.157   7.287  0.7822 -0.5760  0.1661
16811SOL    HW251484   2.077   7.020   7.350 -1.0419 -0.0374  1.3053
16812SOL     OW51485   2.784   1.561   6.596 -0.3193 -0.4716  0.0460
16812SOL    HW151486   2.719   1.492   6.610  1.1463 -1.8778  0.0530
16812SOL    HW251487   2.849   1.547   6.664  0.3067  0.5676 -0.3219
16813SOL     OW51488   6.943   1.569   2.239 -0.4804  0.1042 -0.0495
16813SOL    HW151489   6.865   1.607   2.199 -0.0450  0.4795 -0.5603
16813SOL    HW251490   6.909   1.501   2.297 -1.0842 -1.2518 -1.9173
16814SOL     OW51491   6.663   7.797   6.650 -0.3476  0.0221 -0.1876
16814SOL    HW151492   6.592   7.861   6.658 -0.2164  0.3443 -1.4070
16814SOL    HW251493   6.631   7.720   6.697 -0.2961  1.1274  1.7656
16815SOL     OW51494   3.392   2.229   7.140 -0.2399 -0.5849 -0.3760
16815SOL    HW151495   3.408   2.181   7.059 -0.9937 -0.6873 -0.4742
16815SOL    HW251496   3.451   2.304   7.136  1.1388 -1.6172 -0.1039
16816SOL     OW51497   2.996   4.970   0.147  0.1709  0.1640 -0.1970
16816SOL    HW151498   3.018   5.000   0.235  0.4640 -1.4139  0.3111
16816SOL    HW251499   3.070   4.916   0.121  0.5036  1.3184 -1.8070
16817SOL     OW51500   6.752   0.246   1.600 -0.1142 -0.7601  0.0495
16817SOL    HW151501   6.788   0.274   1.516 -0.2588 -0.7282 -0.0017
16817SOL    HW251502   6.828   0.219   1.650  0.0653 -0.0213  0.1976
16818SOL     OW51503   2.345   6.989   0.392 -0.1685 -0.1451  0.6310
16818SOL    HW151504   2.317   6.898   0.381 -0.1568 -0.2266  1.2572
16818SOL    HW251505   2.263   7.038   0.396 -0.1746 -0.1257  0.2762
16819SOL     OW51506   1.325   4.806   7.716  0.1048 -0.1939 -0.4918
16819SOL    HW151507   1.400   4.764   7.674 -0.6702 -0.5258 -1.5612
16819SOL    HW251508   1.341   4.900   7.704  2.2024 -0.0148  2.5258
16820SOL     OW51509   1.824   1.080   3.732 -0.2690 -0.0391  0.1680
16820SOL    HW151510   1.789   1.037   3.654  1.0906 -1.0891  0.0887
16820SOL    HW251511   1.872   1.155   3.697  0.0175 -0.2895  0.0153
16821SOL     OW51512   2.580   1.067   0.807  0.1507 -0.2801 -0.0781
16821SOL    HW151513   2.560   1.156   0.778  0.0162 -0.2825  0.0077
16821SOL    HW251514   2.586   1.073   0.902  1.8680 -0.0132 -0.1762
16822SOL     OW51515   5.597   2.982   5.620  0.0894 -0.4666  0.0385
16822SOL    HW151516   5.581   3.075   5.636  0.8117 -0.1939 -0.6869
16822SOL    HW251517   5.665   2.958   5.684  0.0993 -0.4190  0.0463
16823SOL     OW51518   5.132   4.377   6.100 -0.3991 -0.3118  0.3934
16823SOL    HW151519   5.155   4.467   6.076  0.7895 -0.0991  2.1860
16823SOL    HW251520   5.183   4.322   6.040  1.2469  0.2078  1.2740
16824SOL     OW51521   4.157   6.601   4.178  0.7670  0.3877  0.2281
16824SOL    HW151522   4.146   6.597   4.083  0.1285 -1.6600  0.3504
16824SOL    HW251523   4.113   6.682   4.203  0.2200  0.5441 -1.1298
16825SOL     OW51524   5.360   8.115   7.226 -0.4322 -0.8994 -0.5430
16825SOL    HW151525   5.344   8.041   7.167 -1.1366 -0.6492 -0.6626
16825SOL    HW251526   5.291   8.177   7.207 -0.3369 -0.5700  0.1577
16826SOL     OW51527   7.170   1.666   2.347  0.1962 -0.5418  0.6117
16826SOL    HW151528   7.091   1.627   2.311  0.5502 -0.4154 -0.3310
16826SOL    HW251529   7.203   1.600   2.409 -0.7628 -0.4895  1.1927
16827SOL     OW51530   4.356   7.916   2.415 -0.0389 -0.4384  0.2709
16827SOL    HW151531   4.379   7.931   2.507 -0.1331  0.6953  0.1269
16827SOL    HW251532   4.437   7.934   2.367  0.0819 -1.2973  0.1530
16828SOL     OW51533   4.067   6.137   7.649 -0.3200 -0.3286  0.0502
16828SOL    HW151534   4.132   6.139   7.720 -1.0466 -1.3727  0.7892
16828SOL    HW251535   4.089   6.212   7.594  1.9857 -1.0878 -0.1675
16829SOL     OW51536   7.173   2.884   0.076 -0.2200 -0.1999  0.3162
16829SOL    HW151537   7.197   2.861   0.166 -1.6509 -0.9657  0.5267
16829SOL    HW251538   7.238   2.838   0.022 -1.3049 -2.5169  0.8524
16830SOL     OW51539   4.571   0.468   7.398  0.3209 -0.0661  0.2926
16830SOL    HW151540   4.573   0.388   7.346  1.0069  0.0442  0.1415
16830SOL    HW251541   4.506   0.451   7.466  0.8196 -0.9332  0.5614
16831SOL     OW51542   3.586   7.658   1.467 -0.4318 -0.2439  0.4936
16831SOL    HW151543   3.590   7.581   1.524  1.4579  0.1393  0.9388
16831SOL    HW251544   3.660   7.711   1.494  0.6838 -0.1364 -2.4731
16832SOL     OW51545   4.622   6.143   4.043 -0.2516 -0.1553 -0.6340
16832SOL    HW151546   4.636   6.051   4.017  0.0655  0.1404 -1.5503
16832SOL    HW251547   4.672   6.153   4.124  1.3101 -0.2835 -1.5463
16833SOL     OW51548   1.566   7.777   4.453  0.0766  0.2579  0.7703
16833SOL    HW151549   1.555   7.767   4.358 -0.3136  1.1949  0.7009
16833SOL    HW251550   1.660   7.786   4.466  0.0866  0.6984  0.4077
16834SOL     OW51551   0.696   0.568   1.860  0.1571  0.1125  0.4598
16834SOL    HW151552   0.716   0.549   1.952  0.4449  0.6597  0.5139
16834SOL    HW251553   0.601   0.558   1.853  0.1177  0.1999  0.8494
16835SOL     OW51554   5.438   6.578   1.332  0.1121  0.4126 -0.0892
16835SOL    HW151555   5.418   6.546   1.244  0.0395  1.5462 -0.5010
16835SOL    HW251556   5.439   6.500   1.387 -0.7221 -0.2041 -0.9331
16836SOL     OW51557   2.801   3.839   7.697 -0.1439  0.1140 -0.0396
16836SOL    HW151558   2.760   3.757   7.669  0.8860 -0.0723 -1.0966
16836SOL    HW251559   2.727   3.894   7.723 -1.0028 -0.5678 -0.9136
16837SOL     OW51560   3.890   3.596   7.889  0.4865  0.2562 -0.5266
16837SOL    HW151561   3.812   3.623   7.938  0.9766  0.4428  0.1782
16837SOL    HW251562   3.963   3.633   7.939  1.0753 -0.7943 -0.5880
16838SOL     OW51563   0.769   1.715   5.437  0.4526 -0.1204 -0.2329
16838SOL    HW151564   0.810   1.755   5.513 -1.2878 -1.0504  1.2579
16838SOL    HW251565   0.679   1.747   5.437 -0.1344 -1.6636 -0.7355
16839SOL     OW51566   4.219   0.214   0.619  0.4725  0.3280 -0.0939
16839SOL    HW151567   4.202   0.197   0.526  0.6523  1.2054 -0.2969
16839SOL    HW251568   4.280   0.146   0.646  0.9429  0.4590 -0.7998
16840SOL     OW51569   5.762   2.172   8.166 -0.0405  0.1918  0.2420
16840SOL    HW151570   5.830   2.123   8.119  1.8258  0.6446  2.2898
16840SOL    HW251571   5.803   2.195   8.250 -1.7537  2.9787  0.4357
16841SOL     OW51572   5.774   5.413   3.014  0.2830  0.2162 -0.0323
16841SOL    HW151573   5.742   5.361   2.941  0.2554  0.3808 -0.1364
16841SOL    HW251574   5.767   5.503   2.985  1.6762  0.2189 -0.4004
16842SOL     OW51575   6.454   1.727   3.690  0.0590 -0.5434 -0.4321
16842SOL    HW151576   6.409   1.795   3.639 -1.2707  0.1516  1.5421
16842SOL    HW251577   6.441   1.647   3.640 -2.3661 -0.1332 -0.5690
16843SOL     OW51578   6.176   3.671   1.949 -0.7147 -0.1712 -0.3214
16843SOL    HW151579   6.115   3.597   1.949  0.1745 -0.9348 -0.8925
16843SOL    HW251580   6.170   3.707   1.861 -0.4427 -0.1676 -0.3383
16844SOL     OW51581   4.156   5.164   3.738  0.0593 -0.6625 -0.2647
16844SOL    HW151582   4.079   5.107   3.732 -0.7302  0.4699 -1.2420
16844SOL    HW251583   4.158   5.192   3.829 -0.8952 -0.4566 -0.2942
16845SOL     OW51584   5.901   7.764   1.873  0.1982  0.1388  0.1328
16845SOL    HW151585   5.852   7.811   1.806 -1.2154 -0.5484  0.6266
16845SOL    HW251586   5.957   7.704   1.825 -1.7074 -1.2385 -0.4841
16846SOL     OW51587   2.432   6.531   8.214 -0.2637  0.0201 -0.9850
16846SOL    HW151588   2.459   6.604   8.158 -0.6652  0.6724 -0.3498
16846SOL    HW251589   2.462   6.453   8.168 -1.9814  0.4158 -2.9522
16847SOL     OW51590   3.145   2.998   7.667 -0.0068  0.1358 -0.3754
16847SOL    HW151591   3.223   3.045   7.637 -0.2712  1.0399  0.3163
16847SOL    HW251592   3.089   2.993   7.589  0.9646 -1.0429 -1.0377
16848SOL     OW51593   7.172   6.057   7.108 -0.3279 -0.1180 -0.4324
16848SOL    HW151594   7.186   6.006   7.188 -1.5255 -0.8061 -0.6223
16848SOL    HW251595   7.258   6.089   7.084  0.2270 -0.8505  0.5120
16849SOL     OW51596   1.040   2.787   7.288  0.2546  0.5263 -0.2614
16849SOL    HW151597   0.968   2.781   7.350 -0.2672  2.0556 -0.6798
16849SOL    HW251598   1.110   2.833   7.336 -0.8137  3.4338 -1.2815
16850SOL     OW51599   1.473   6.677   0.693  0.1837  0.0156  0.1298
16850SOL    HW151600   1.526   6.698   0.616 -1.8943  0.6202 -1.2183
16850SOL    HW251601   1.477   6.756   0.747  0.2403  0.2583 -0.2240
16851SOL     OW51602   5.075   1.731   1.987  0.3052 -0.2489 -0.2807
16851SOL    HW151603   5.050   1.657   1.931  0.1424 -0.0481 -0.4740
16851SOL    HW251604   5.081   1.805   1.927 -0.1475  0.0280  0.0162
16852SOL     OW51605   0.102   2.429   2.771 -0.3623 -0.2833  0.3936
16852SOL    HW151606   0.116   2.396   2.682 -0.6445 -0.5826  0.4565
16852SOL    HW251607   0.176   2.394   2.820 -0.1207  0.0132  0.2443
16853SOL     OW51608   6.639   2.653   1.256  0.1390 -0.4327 -0.6074
16853SOL    HW151609   6.631   2.571   1.207 -1.0729  0.7431 -2.5402
16853SOL    HW251610   6.663   2.718   1.190  3.4596  0.4329  1.2401
16854SOL     OW51611   6.580   3.705   6.383 -0.1643  0.0563 -0.3378
16854SOL    HW151612   6.539   3.790   6.401  0.4183  0.2942 -0.1190
16854SOL    HW251613   6.510   3.641   6.398 -0.2430  0.3962  0.8624
16855SOL     OW51614   4.782   5.769   5.764 -0.3478 -0.0413  0.0021
16855SOL    HW151615   4.844   5.700   5.741 -0.5032 -0.1814 -0.0031
16855SOL    HW251616   4.737   5.736   5.842 -0.3083  0.1271  0.0977
16856SOL     OW51617   2.564   2.867   0.342 -0.0295  0.1055  0.1390
16856SOL    HW151618   2.487   2.875   0.399  0.3207  0.1817  0.6063
16856SOL    HW251619   2.602   2.955   0.340  0.3168 -0.0391  0.2922
16857SOL     OW51620   7.827   4.196   8.121  0.4039 -0.4467 -0.4250
16857SOL    HW151621   7.774   4.175   8.197  2.6365 -0.3216  1.2751
16857SOL    HW251622   7.767   4.190   8.047 -1.7242 -1.1369  1.2607
16858SOL     OW51623   6.334   7.902   1.988  0.1921 -0.0091 -0.7771
16858SOL    HW151624   6.301   7.814   2.005  0.7013 -0.0550  0.0615
16858SOL    HW251625   6.390   7.893   1.911  1.6440 -0.7939  0.3146
16859SOL     OW51626   3.021   0.057   1.489 -0.5232  0.5211  0.7549
16859SOL    HW151627   3.098   0.113   1.480 -0.2073 -0.1395 -0.9785
16859SOL    HW251628   2.999   0.030   1.400 -1.9008 -0.4736  1.3416
16860SOL     OW51629   0.025   0.772   8.032 -0.2097 -0.0840  0.1663
16860SOL    HW151630  -0.068   0.791   8.025 -0.0226  0.5926 -0.5627
16860SOL    HW251631   0.046   0.789   8.124 -0.4067  1.6455 -0.0811
16861SOL     OW51632   6.791   6.675   4.187  0.2209 -0.0310  0.7915
16861SOL    HW151633   6.743   6.715   4.259  0.6152  2.4472 -0.2411
16861SOL    HW251634   6.788   6.739   4.116  1.3770 -1.6193 -0.8021
16862SOL     OW51635   4.312   0.303   5.824  0.0284  0.5576  0.7068
16862SOL    HW151636   4.269   0.229   5.781 -1.3657  1.6122  0.1666
16862SOL    HW251637   4.352   0.266   5.902  0.0912 -0.8986  0.0260
16863SOL     OW51638   4.207   7.639   1.052  0.0835  0.2683 -1.2053
16863SOL    HW151639   4.272   7.664   1.119 -1.8754  1.2292  0.4344
16863SOL    HW251640   4.255   7.644   0.970  1.6340  2.8706 -0.2787
16864SOL     OW51641   2.279   5.943   4.542 -0.4045 -0.7357 -0.0308
16864SOL    HW151642   2.315   6.019   4.497 -0.9920  1.3254  2.7179
16864SOL    HW251643   2.355   5.899   4.580 -0.2667  0.1691  0.7695
16865SOL     OW51644   6.783   5.918   7.006  0.6241  0.3039 -0.1097
16865SOL    HW151645   6.871   5.899   7.039  0.2354 -2.0870 -0.2239
16865SOL    HW251646   6.735   5.835   7.018 -1.4553  1.3756 -0.5531
16866SOL     OW51647   2.991   3.629   7.561 -0.2107  0.0548 -0.2655
16866SOL    HW151648   2.912   3.583   7.534 -0.3045  0.1155 -0.0933
16866SOL    HW251649   3.016   3.588   7.643  0.7577 -0.9559 -1.0317
16867SOL     OW51650   5.157   3.674   3.504  0.1470 -0.4024  0.0502
16867SOL    HW151651   5.163   3.749   3.563  2.2508 -0.5044  0.0483
16867SOL    HW251652   5.188   3.708   3.420 -2.4252 -0.3621 -0.9689
16868SOL     OW51653   5.959   7.985   2.890 -0.1739  0.0708 -0.1819
16868SOL    HW151654   5.996   7.967   2.804  1.4654 -0.1887  0.5274
16868SOL    HW251655   5.948   8.080   2.892  0.8706  0.2099 -0.2910
16869SOL     OW51656   7.953   3.030   6.615  0.2442 -0.3753  0.1044
16869SOL    HW151657   7.951   3.011   6.521  0.4374  0.7329 -0.1309
16869SOL    HW251658   7.915   3.117   6.623  2.1952  0.4707  0.7903
16870SOL     OW51659   4.091   3.242   8.077  0.2933 -0.3579  0.3635
16870SOL    HW151660   4.059   3.254   8.166  1.6633  0.7902  0.7188
16870SOL    HW251661   4.025   3.286   8.022  0.4285  0.5974  0.9558
16871SOL     OW51662   3.751   0.745   0.756 -0.6758 -0.3531 -0.4848
16871SOL    HW151663   3.659   0.724   0.771 -0.5288  0.3812  1.9734
16871SOL    HW251664   3.799   0.685   0.813  0.0637  2.0179  1.5847
16872SOL     OW51665   1.044   3.843   0.548 -0.5864 -0.2185  0.3753
16872SOL    HW151666   1.098   3.764   0.537 -0.5073 -0.1256  0.0738
16872SOL    HW251667   0.960   3.810   0.580 -0.8452 -0.5239 -0.5707
16873SOL     OW51668   2.546   1.005   2.340  0.0130  0.3354  0.4376
16873SOL    HW151669   2.581   0.931   2.292 -1.8085 -1.0682  1.1628
16873SOL    HW251670   2.583   0.997   2.428  0.0432  0.4611  0.4370
16874SOL     OW51671   4.159   5.546   4.595 -0.0173  0.4204 -0.0199
16874SOL    HW151672   4.191   5.498   4.671 -0.4759 -0.3029 -0.2661
16874SOL    HW251673   4.221   5.525   4.525 -1.3400 -1.5908 -0.6994
16875SOL     OW51674   7.081   2.586   3.771 -0.5842  0.0138  0.4395
16875SOL    HW151675   7.124   2.564   3.854  1.0636  0.7752 -0.1687
16875SOL    HW251676   7.129   2.537   3.705 -1.2475  0.1919 -0.1943
16876SOL     OW51677   0.989   8.075   1.196  0.5201  0.6947 -0.1222
16876SOL    HW151678   0.933   8.150   1.212 -0.2921 -0.2735  1.8177
16876SOL    HW251679   1.043   8.067   1.275  2.1119  0.4838 -1.1706
16877SOL     OW51680   2.931   5.386   4.360  0.0342 -0.0492 -0.2008
16877SOL    HW151681   2.927   5.294   4.332  0.6640 -0.0138 -0.4372
16877SOL    HW251682   2.964   5.433   4.283  2.8033 -0.0972  0.8294
16878SOL     OW51683   7.321   5.980   2.714  0.2798  0.3262 -0.0197
16878SOL    HW151684   7.299   6.072   2.700 -1.3389 -0.3383 -2.6746
16878SOL    HW251685   7.416   5.979   2.721  0.2570  2.2939  1.3544
16879SOL     OW51686   3.378   0.293   0.086 -0.1409  0.3686  0.7156
16879SOL    HW151687   3.292   0.335   0.080  0.5393  2.1976  2.4669
16879SOL    HW251688   3.395   0.286   0.180  1.1579 -1.0119  0.4179
16880SOL     OW51689   1.019   1.959   2.085 -0.5109  0.1154  0.7201
16880SOL    HW151690   0.966   1.942   2.007 -2.2377  0.7079  1.7038
16880SOL    HW251691   0.959   1.944   2.158  0.6083  1.1037  1.8811
16881SOL     OW51692   6.131   0.218   0.670 -0.0393 -0.4119 -0.2828
16881SOL    HW151693   6.140   0.175   0.585  0.5557 -0.8177 -0.0261
16881SOL    HW251694   6.152   0.149   0.734 -0.8478 -0.2173  0.2123
16882SOL     OW51695   1.699   4.118   6.626 -0.6172  0.6239  0.1069
16882SOL    HW151696   1.732   4.207   6.615 -0.9557  0.7866  0.3896
16882SOL    HW251697   1.700   4.104   6.721 -0.5764  0.3325  0.0628
16883SOL     OW51698   1.344   7.772   0.860 -0.3590  0.0043 -0.1757
16883SOL    HW151699   1.348   7.867   0.853 -0.5067 -0.0744 -1.6906
16883SOL    HW251700   1.391   7.740   0.783 -0.1104 -1.1545  0.4342
16884SOL     OW51701   1.525   0.487   4.362 -0.3651  0.8102  0.2125
16884SOL    HW151702   1.601   0.498   4.420 -0.6244  3.4113  0.1848
16884SOL    HW251703   1.462   0.552   4.394 -1.6001  0.4043 -1.3090
16885SOL     OW51704   1.947   6.171   4.256  0.4075  0.7187  0.1977
16885SOL    HW151705   1.879   6.104   4.250  0.6089  0.3875  1.3299
16885SOL    HW251706   1.900   6.254   4.259  0.0164  0.4707  1.3217
16886SOL     OW51707   1.275   7.754   7.009 -0.0364 -0.0720 -0.0116
16886SOL    HW151708   1.328   7.721   6.936  1.0680  0.7406  0.3968
16886SOL    HW251709   1.213   7.684   7.028 -0.8090 -0.0530 -2.1776
16887SOL     OW51710   7.395   4.204   5.916  0.4029 -0.4142 -0.4939
16887SOL    HW151711   7.407   4.128   5.859 -1.7755 -0.3660 -1.0929
16887SOL    HW251712   7.481   4.246   5.918  1.0121 -1.4735 -2.2156
16888SOL     OW51713   5.564   5.893   7.458  0.3261 -0.3760 -0.3992
16888SOL    HW151714   5.621   5.964   7.487  0.1481 -0.6915  0.7449
16888SOL    HW251715   5.482   5.937   7.434 -0.9166 -0.4107  3.2491
16889SOL     OW51716   3.896   7.861   3.924  0.1689 -0.2751 -0.2312
16889SOL    HW151717   3.877   7.831   3.835 -0.7139 -0.7998  0.1276
16889SOL    HW251718   3.827   7.824   3.978  0.3599  0.5269  0.5951
16890SOL     OW51719   6.192   0.281   1.985  0.1246 -0.1443 -0.3553
16890SOL    HW151720   6.109   0.326   1.971  0.3336  0.4334  0.2073
16890SOL    HW251721   6.193   0.210   1.920 -2.1573 -2.0787  1.5505
16891SOL     OW51722   0.558   4.958   0.494  0.0928  0.2410  0.8298
16891SOL    HW151723   0.519   5.041   0.523 -2.1464 -0.3915 -0.1353
16891SOL    HW251724   0.500   4.928   0.424  0.9509 -2.0661  1.0283
16892SOL     OW51725   7.078   4.597   1.322  0.1271  0.0138 -0.4632
16892SOL    HW151726   7.041   4.646   1.395  0.5146 -0.1248 -0.1719
16892SOL    HW251727   7.049   4.645   1.244  1.2422  1.2222 -0.1549
16893SOL     OW51728   5.699   5.520   2.421  0.1248 -0.0770 -1.3057
16893SOL    HW151729   5.745   5.597   2.454 -0.9713  0.1840 -0.2873
16893SOL    HW251730   5.736   5.447   2.471 -0.3892  0.1072 -0.6289
16894SOL     OW51731   3.906   1.433   3.857 -0.0838 -0.3240 -0.5648
16894SOL    HW151732   3.832   1.392   3.812 -1.7315  2.0530 -0.1586
16894SOL    HW251733   3.879   1.523   3.871  2.4676  0.3342  0.6379
16895SOL     OW51734   5.121   5.796   3.536  0.2555 -0.5059  0.1449
16895SOL    HW151735   5.104   5.717   3.586 -0.7381 -0.7280 -0.5229
16895SOL    HW251736   5.109   5.867   3.599  0.9869 -0.8658  0.7055
16896SOL     OW51737   1.670   1.683   6.381 -0.3707 -0.5351 -0.7628
16896SOL    HW151738   1.754   1.639   6.371  0.0337  0.1164 -0.3266
16896SOL    HW251739   1.605   1.617   6.357  0.0601 -2.2482  2.2964
16897SOL     OW51740   4.096   3.633   8.070  0.3428 -0.1561 -0.0211
16897SOL    HW151741   4.175   3.586   8.043  0.9066  0.8217 -0.1219
16897SOL    HW251742   4.129   3.713   8.110 -0.5894 -0.0718  0.5972
16898SOL     OW51743   7.199   0.635   7.258  0.4162  0.5432 -0.0497
16898SOL    HW151744   7.210   0.653   7.351  2.0887  2.9593 -0.6360
16898SOL    HW251745   7.237   0.548   7.245  0.2268  0.2165  1.4950
16899SOL     OW51746   1.877   2.887   2.051 -0.1722 -0.2865 -0.1057
16899SOL    HW151747   1.917   2.956   1.998  1.2445 -1.7013 -0.9862
16899SOL    HW251748   1.807   2.930   2.099  0.5696  1.7132 -0.7356
16900SOL     OW51749   5.126   5.663   0.554 -0.0140 -0.2527  0.7257
16900SOL    HW151750   5.073   5.647   0.632  0.0992  1.0066  1.0926
16900SOL    HW251751   5.170   5.747   0.572 -0.5684  0.4479 -0.9998
16901SOL     OW51752   4.615   7.701   5.205  0.1219  0.3624 -0.1830
16901SOL    HW151753   4.588   7.755   5.280  1.4121  0.0144  0.5640
16901SOL    HW251754   4.546   7.714   5.140 -1.4714  0.0597  1.3542
16902SOL     OW51755   3.097   0.397   3.162  0.0463  0.2594 -0.2006
16902SOL    HW151756   3.114   0.314   3.206 -0.3383  0.5982  0.5919
16902SOL    HW251757   3.033   0.442   3.217 -1.6878  0.0123 -1.9008
16903SOL     OW51758   5.731   2.764   0.530  0.3050 -0.0005  0.4465
16903SOL    HW151759   5.816   2.805   0.516  0.5138 -0.7258 -0.5208
16903SOL    HW251760   5.744   2.672   0.507 -0.5188 -0.3111  1.1511
16904SOL     OW51761   7.891   8.127   7.957 -0.0237 -0.1015  0.6423
16904SOL    HW151762   7.848   8.135   8.041  1.0074  0.9138  1.0961
16904SOL    HW251763   7.982   8.104   7.978  0.5540  1.3408 -0.1096
16905SOL     OW51764   1.741   3.218   2.351  0.1863  0.3677 -0.1687
16905SOL    HW151765   1.807   3.253   2.410  0.1253  1.8314 -0.9281
16905SOL    HW251766   1.671   3.186   2.409  0.2990  1.4017  0.5561
16906SOL     OW51767   7.291   3.505   7.472 -0.4017  0.0467  0.3878
16906SOL    HW151768   7.299   3.442   7.401  2.0543  1.5380 -0.7970
16906SOL    HW251769   7.297   3.590   7.429 -0.6158  1.0289  2.2196
16907SOL     OW51770   8.074   0.554   3.995  0.1987 -0.4207 -0.2908
16907SOL    HW151771   8.136   0.490   3.958  0.4109 -0.8964  0.8411
16907SOL    HW251772   8.045   0.514   4.077  0.3805  0.9759  0.4729
16908SOL     OW51773   2.429   1.591   0.039 -0.1969 -0.2640 -0.1174
16908SOL    HW151774   2.410   1.672  -0.008 -1.5199 -0.3982  0.1395
16908SOL    HW251775   2.426   1.523  -0.028  0.3776 -0.1736 -0.2409
16909SOL     OW51776   6.775   0.625   3.964  0.3377 -0.1343 -0.3283
16909SOL    HW151777   6.731   0.634   4.048 -0.4743  1.3473 -0.8770
16909SOL    HW251778   6.869   0.621   3.986  0.0666 -1.5038  0.7297
16910SOL     OW51779   0.095   4.555   7.503 -0.4436  0.3002  0.3149
16910SOL    HW151780   0.120   4.497   7.431  0.3739 -1.0748  1.6341
16910SOL    HW251781   0.166   4.618   7.509 -0.1528 -0.0303  0.3670
16911SOL     OW51782   7.028   1.062   1.259 -0.2036  0.1596  0.5587
16911SOL    HW151783   7.053   1.141   1.211 -2.2178  0.0976 -0.7190
16911SOL    HW251784   7.062   0.990   1.206  1.6993  0.0865  1.7625
16912SOL     OW51785   0.577   6.754   4.193 -0.5987 -0.8115 -0.3538
16912SOL    HW151786   0.517   6.691   4.153 -1.1939  0.2685 -1.1976
16912SOL    HW251787   0.616   6.801   4.120  0.3009 -0.5897  0.2434
16913SOL     OW51788   7.295   5.148   4.670 -0.9783 -0.3261 -0.0455
16913SOL    HW151789   7.298   5.155   4.575  2.4970 -0.7719 -0.1017
16913SOL    HW251790   7.346   5.069   4.690  0.8586  1.2685  2.2060
16914SOL     OW51791   2.671   2.733   1.088  0.4638  0.0371 -0.3308
16914SOL    HW151792   2.694   2.647   1.053 -0.2765 -0.4492  0.3185
16914SOL    HW251793   2.632   2.780   1.014 -1.7481 -1.2277 -0.0826
16915SOL     OW51794   1.932   7.038   2.119  0.1576  0.2617  0.0235
16915SOL    HW151795   2.007   7.056   2.175 -1.0961  1.9487  1.2493
16915SOL    HW251796   1.897   6.955   2.152  0.3752  0.4297  0.6956
16916SOL     OW51797   7.555   0.727   2.958  0.0295  0.2238 -0.4863
16916SOL    HW151798   7.564   0.632   2.961 -3.2440 -0.2900 -1.8746
16916SOL    HW251799   7.533   0.752   3.048  2.0617 -0.0919  0.1409
16917SOL     OW51800   6.211   2.844   5.640 -0.9011  0.1913 -0.5147
16917SOL    HW151801   6.147   2.857   5.570 -2.0741  2.5607  0.8856
16917SOL    HW251802   6.162   2.800   5.710 -0.2277 -0.5154 -0.4694
16918SOL     OW51803   6.251   4.059   4.721  0.3732 -0.2697 -0.3473
16918SOL    HW151804   6.170   4.107   4.702  1.0359  1.1069  0.2379
16918SOL    HW251805   6.321   4.118   4.695  1.2518 -0.1852  2.0197
16919SOL     OW51806   4.136   2.522   6.917 -0.3927 -0.0114 -0.1714
16919SOL    HW151807   4.089   2.516   7.000 -1.3228  0.2897 -0.6590
16919SOL    HW251808   4.067   2.529   6.851  0.3380  0.1051 -0.9394
16920SOL     OW51809   0.298   5.912   2.251  0.0604 -0.2636 -0.7116
16920SOL    HW151810   0.285   6.000   2.288  0.9365 -0.9581  1.3596
16920SOL    HW251811   0.289   5.925   2.156  0.4194  2.1053 -0.4850
16921SOL     OW51812   4.144   3.848   6.595  0.2354 -0.6336  0.8711
16921SOL    HW151813   4.233   3.824   6.568  0.5041  0.5724  0.6257
16921SOL    HW251814   4.153   3.876   6.686 -0.0757 -1.3966  1.1512
16922SOL     OW51815   6.559   3.823   4.875 -0.0992  0.1460  0.2969
16922SOL    HW151816   6.583   3.853   4.787  0.0415 -0.4852  0.1101
16922SOL    HW251817   6.475   3.780   4.863 -0.6265  1.0450  0.6836
16923SOL     OW51818   5.607   0.385   7.060 -0.2303 -0.0575 -0.2397
16923SOL    HW151819   5.589   0.328   7.135  0.6708  0.9019  0.7404
16923SOL    HW251820   5.641   0.326   6.993  0.4438 -0.7184  0.6621
16924SOL     OW51821   3.923   2.627   0.597  0.4970  0.3683  0.3300
16924SOL    HW151822   4.002   2.595   0.553 -0.3512  0.4037 -1.3134
16924SOL    HW251823   3.956   2.675   0.673  1.9806 -0.7904  0.4736
16925SOL     OW51824   1.070   3.603   4.784  0.2373  0.3940 -0.0859
16925SOL    HW151825   1.031   3.688   4.804  0.3600  0.5924 -0.6698
16925SOL    HW251826   1.000   3.540   4.801 -0.2113  0.7116 -0.7341
16926SOL     OW51827   7.413   7.867   3.455 -0.4292  0.3709 -0.1319
16926SOL    HW151828   7.463   7.901   3.529 -0.9418  0.6879  0.0770
16926SOL    HW251829   7.476   7.860   3.383  0.5194 -1.6967  0.8160
16927SOL     OW51830   1.429   0.938   3.542 -0.6078  0.3335 -0.0541
16927SOL    HW151831   1.411   0.889   3.462  0.2383 -0.6369  0.3195
16927SOL    HW251832   1.524   0.954   3.539 -0.5192  0.0505  0.8696
16928SOL     OW51833   7.785   6.826   3.381  0.3023 -0.0176  0.1652
16928SOL    HW151834   7.733   6.756   3.343 -1.8512  1.2854  0.5719
16928SOL    HW251835   7.841   6.856   3.309  3.1933 -3.6845  0.5928
16929SOL     OW51836   5.077   0.751   7.674  0.0184 -1.1368 -0.1518
16929SOL    HW151837   5.102   0.840   7.648 -3.2282 -0.5129 -1.6695
16929SOL    HW251838   5.135   0.694   7.622  0.6279  0.1077 -0.8920
16930SOL     OW51839   1.442   1.521   8.167 -0.1449  0.0931 -0.3986
16930SOL    HW151840   1.473   1.552   8.252 -1.9249  2.7602 -0.6150
16930SOL    HW251841   1.352   1.494   8.182 -0.1705 -0.3583 -1.2558
16931SOL     OW51842   0.922   1.841   1.871 -0.3990 -0.0511  0.1805
16931SOL    HW151843   0.962   1.876   1.792 -1.0520 -1.8377 -1.0253
16931SOL    HW251844   0.858   1.777   1.839 -0.6568 -0.8732  2.1496
16932SOL     OW51845   1.052   4.275   5.157  0.2701  0.3975  0.3623
16932SOL    HW151846   1.019   4.254   5.245 -0.8582  0.5613 -0.0068
16932SOL    HW251847   1.033   4.196   5.105  1.6975 -0.0314  0.4425
16933SOL     OW51848   5.149   4.906   2.920 -0.2683 -0.4984 -0.0884
16933SOL    HW151849   5.211   4.884   2.989 -1.0950 -2.0331  0.2010
16933SOL    HW251850   5.074   4.944   2.966  0.5786  1.7938 -0.4721
16934SOL     OW51851   4.991   5.478   6.751 -0.0911 -0.1907  0.4206
16934SOL    HW151852   5.004   5.456   6.658  1.1212 -1.5885  0.8950
16934SOL    HW251853   5.039   5.559   6.763 -0.9377  0.4488 -0.3432
16935SOL     OW51854   0.391   6.899   6.028  0.1994  0.0151 -0.1689
16935SOL    HW151855   0.473   6.946   6.015 -0.2159  1.0530  0.7634
16935SOL    HW251856   0.342   6.953   6.091 -0.1181 -1.8579  1.3109
16936SOL     OW51857   4.761   2.735   0.021 -0.5546 -0.0087  0.3148
16936SOL    HW151858   4.728   2.682  -0.052  1.2298  0.6451 -1.0346
16936SOL    HW251859   4.848   2.700   0.039 -0.2191  1.0621  0.8715
16937SOL     OW51860   5.404   1.237   5.100  0.0882 -0.2723  0.3693
16937SOL    HW151861   5.412   1.224   5.005  0.2109 -0.6121  0.4282
16937SOL    HW251862   5.313   1.265   5.112 -0.1898 -1.1153  0.2523
16938SOL     OW51863   6.686   7.060   1.360 -0.0190  0.2320  0.3050
16938SOL    HW151864   6.674   7.149   1.327 -0.6972  0.0717  0.1085
16938SOL    HW251865   6.781   7.047   1.357  0.1448  1.1658  0.9284
16939SOL     OW51866   0.408   3.843   6.221 -0.4441 -0.3300  0.1881
16939SOL    HW151867   0.466   3.839   6.297 -3.1204  2.2887  2.5769
16939SOL    HW251868   0.364   3.758   6.219 -0.4427 -0.3762  1.6709
16940SOL     OW51869   7.857   4.171   4.681  0.1465 -0.1742 -0.0973
16940SOL    HW151870   7.861   4.225   4.760 -1.0496  0.4696 -0.4453
16940SOL    HW251871   7.942   4.183   4.640  0.4687  0.1781  0.6499
16941SOL     OW51872   0.306   4.544   5.068 -0.1030 -0.5705  0.4110
16941SOL    HW151873   0.247   4.500   5.008  0.5697  0.3887 -0.9981
16941SOL    HW251874   0.256   4.620   5.099 -0.4198 -1.0201  1.0145
16942SOL     OW51875   7.464   5.198   3.608 -0.1018 -0.1376 -0.1572
16942SOL    HW151876   7.467   5.165   3.698  2.9424 -0.2698 -0.2093
16942SOL    HW251877   7.465   5.118   3.555 -1.1105 -0.0418 -0.3384
16943SOL     OW51878   1.163   7.937   3.783  0.5203 -0.1298 -0.0124
16943SOL    HW151879   1.219   8.011   3.759 -0.1484  0.0619 -1.0831
16943SOL    HW251880   1.091   7.941   3.720  0.6516 -1.9098 -0.3274
16944SOL     OW51881   7.964   0.732   6.752 -0.1704  0.3017  0.6567
16944SOL    HW151882   7.930   0.672   6.686 -0.2222  0.4781  0.5215
16944SOL    HW251883   7.930   0.818   6.726  1.0796  0.6330  0.0169
16945SOL     OW51884   3.056   1.889   3.585 -0.3128 -0.0740 -0.4059
16945SOL    HW151885   3.035   1.915   3.675 -0.6726 -0.2025 -0.4528
16945SOL    HW251886   2.972   1.889   3.540 -0.3441 -1.4649 -0.3710
16946SOL     OW51887   2.782   1.853   5.874 -0.7392  0.6425  0.2786
16946SOL    HW151888   2.812   1.831   5.962 -1.1516 -0.5882  0.1333
16946SOL    HW251889   2.815   1.941   5.858 -1.0887  1.0916  1.8657
16947SOL     OW51890   5.788   7.791   3.018  0.4273 -0.4288  0.8696
16947SOL    HW151891   5.842   7.857   2.974  1.4168 -0.6526  1.6970
16947SOL    HW251892   5.737   7.750   2.949  0.3154  0.7189  0.2437
16948SOL     OW51893   0.418   0.170   7.799 -0.3738 -0.2479  0.0208
16948SOL    HW151894   0.329   0.137   7.782 -0.4852  0.3930 -0.7342
16948SOL    HW251895   0.418   0.258   7.761  1.0188 -0.7808 -1.3249
16949SOL     OW51896   6.307   4.757   7.847  0.4469  0.1053 -0.5740
16949SOL    HW151897   6.328   4.819   7.777 -0.7425  0.2463 -0.8381
16949SOL    HW251898   6.212   4.764   7.856  0.5388 -0.1940  0.8054
16950SOL     OW51899   1.938   6.157   7.199 -0.3303  0.0439  0.1007
16950SOL    HW151900   1.980   6.207   7.129 -2.1258  0.0531 -1.0532
16950SOL    HW251901   2.004   6.094   7.226  0.6922  0.5701 -1.0540
16951SOL     OW51902   1.004   7.008   3.470 -0.3631  0.3863 -0.5827
16951SOL    HW151903   0.997   6.912   3.475  1.6795  0.2082  0.2434
16951SOL    HW251904   0.955   7.039   3.546  2.0951 -0.3285  1.4782
16952SOL     OW51905   2.447   2.133   8.007 -0.1123  0.8318 -0.3807
16952SOL    HW151906   2.363   2.179   8.016  0.2493  1.2327  1.1977
16952SOL    HW251907   2.503   2.195   7.959  0.6017  2.4709  2.3721
16953SOL     OW51908   7.085   5.532   4.313  0.3682  0.8645  0.5161
16953SOL    HW151909   7.050   5.448   4.341  0.2100  1.4037  2.0379
16953SOL    HW251910   7.093   5.525   4.218  2.4422 -1.6855  0.7545
16954SOL     OW51911   4.985   2.169   0.253 -0.3403 -0.1848  0.4864
16954SOL    HW151912   5.001   2.097   0.191 -4.2681 -1.0657  0.2570
16954SOL    HW251913   4.943   2.127   0.328 -1.6400  1.6878  0.8687
16955SOL     OW51914   2.339   6.675   2.130 -0.1747  0.1771  0.4111
16955SOL    HW151915   2.429   6.706   2.143 -0.1864  2.1306 -2.9038
16955SOL    HW251916   2.324   6.687   2.036 -3.4453 -1.4780  0.5979
16956SOL     OW51917   8.057   2.065   1.470 -0.0645  0.4433  0.1154
16956SOL    HW151918   8.008   2.002   1.524  0.0864  0.1376 -0.1049
16956SOL    HW251919   8.003   2.076   1.391 -1.0960  2.1011  0.9865
16957SOL     OW51920   3.273   8.193   6.713  0.1930 -0.3029  0.1806
16957SOL    HW151921   3.353   8.242   6.693 -1.6643  2.3901 -1.2674
16957SOL    HW251922   3.287   8.107   6.673  2.4513 -0.0156  0.2535
16958SOL     OW51923   5.336   2.603   7.836 -0.3082  0.0603  0.1859
16958SOL    HW151924   5.419   2.604   7.789 -1.1380 -0.1501 -1.3773
16958SOL    HW251925   5.289   2.528   7.799 -1.0446 -0.0693  1.3258
16959SOL     OW51926   5.651   5.729   3.826  0.1379 -0.2880 -0.4113
16959SOL    HW151927   5.593   5.753   3.754  0.8291 -0.2796 -0.9775
16959SOL    HW251928   5.723   5.791   3.820 -0.7595  1.0754  1.5583
16960SOL     OW51929   0.781   7.669   7.047 -0.3511  0.8546 -0.3654
16960SOL    HW151930   0.744   7.717   7.121 -0.6140  0.2229 -0.0801
16960SOL    HW251931   0.749   7.579   7.058 -0.7124  0.8418 -1.4630
16961SOL     OW51932   2.644   5.008   2.471  0.2114 -0.2282  0.1467
16961SOL    HW151933   2.695   4.938   2.429  0.7653  0.4129 -0.2698
16961SOL    HW251934   2.584   5.038   2.403 -1.1843 -1.3827  0.8096
16962SOL     OW51935   6.069   6.397   0.678  0.0681  0.1909  0.1632
16962SOL    HW151936   6.043   6.312   0.714  0.2817 -0.4226 -1.0982
16962SOL    HW251937   6.063   6.457   0.753  2.1425 -1.3596  1.7139
16963SOL     OW51938   0.624   4.548   6.982 -0.1741  0.0215 -0.5077
16963SOL    HW151939   0.651   4.547   7.074 -0.2525  1.6355 -0.4395
16963SOL    HW251940   0.674   4.619   6.943 -0.6429 -0.2069 -1.5608
16964SOL     OW51941   0.880   4.939   5.517 -0.4695  0.9116  0.1910
16964SOL    HW151942   0.900   4.952   5.425 -0.5214  0.8044  0.1640
16964SOL    HW251943   0.826   5.014   5.542  0.3907  1.4651  0.3969
16965SOL     OW51944   4.223   6.489   2.019  0.3446  0.2178 -0.2234
16965SOL    HW151945   4.186   6.463   1.934 -0.1119 -0.2149  0.1048
16965SOL    HW251946   4.184   6.428   2.082 -0.3750  1.4042  0.5081
16966SOL     OW51947   4.067   3.406   7.123  0.8895 -0.2743 -0.2699
16966SOL    HW151948   4.008   3.480   7.137  1.7125  0.6061 -1.2017
16966SOL    HW251949   4.010   3.334   7.098  0.2328  1.0111 -2.9257
16967SOL     OW51950   6.209   0.002   0.888  0.3676  0.1418 -0.0653
16967SOL    HW151951   6.287  -0.038   0.927  0.5374 -0.1624 -0.7068
16967SOL    HW251952   6.191  -0.052   0.811 -0.3674  0.3285 -0.0232
16968SOL     OW51953   7.168   3.189   0.770  0.2305  0.1147  0.4150
16968SOL    HW151954   7.116   3.205   0.849  1.8848  0.8552  1.4152
16968SOL    HW251955   7.257   3.214   0.795  1.3266 -2.1920 -0.8399
16969SOL     OW51956   7.141   3.402   3.579  0.4759  0.4358 -0.6557
16969SOL    HW151957   7.227   3.444   3.580  0.1242  1.2035 -1.1432
16969SOL    HW251958   7.080   3.473   3.555 -0.0823 -0.4506 -1.9801
16970SOL     OW51959   6.216   0.314   4.698 -0.1272  0.1449 -0.3787
16970SOL    HW151960   6.282   0.355   4.642 -0.0320  1.2866  0.5241
16970SOL    HW251961   6.261   0.302   4.782  0.2091 -2.8935 -0.8736
16971SOL     OW51962   6.649   1.662   6.650  0.0043 -0.1121 -0.0737
16971SOL    HW151963   6.676   1.712   6.727  0.5200 -0.1855 -0.1987
16971SOL    HW251964   6.561   1.631   6.670  0.0345  0.0921  0.3751
16972SOL     OW51965   2.527   2.495   7.783 -0.3080 -0.3943 -0.1424
16972SOL    HW151966   2.442   2.464   7.752 -0.4575 -0.4437  0.3047
16972SOL    HW251967   2.559   2.426   7.841 -0.0170 -0.3239 -0.2159
16973SOL     OW51968   2.878   7.212   6.308  0.0072  0.0862 -0.8826
16973SOL    HW151969   2.959   7.214   6.256  1.7351  1.4148  1.5995
16973SOL    HW251970   2.873   7.123   6.343  0.6502  0.0978 -0.7464
16974SOL     OW51971   1.772   8.142   3.708  0.0573 -0.1974 -0.1606
16974SOL    HW151972   1.722   8.199   3.766 -0.6018 -1.1419  0.2237
16974SOL    HW251973   1.726   8.147   3.624 -0.4950 -0.7866  0.0961
16975SOL     OW51974   2.000   6.698   2.991 -0.2066 -0.5212 -0.5702
16975SOL    HW151975   2.006   6.787   3.024 -0.6233 -0.3574 -0.9137
16975SOL    HW251976   1.909   6.671   3.010 -0.0779 -0.8811 -0.4451
16976SOL     OW51977   0.608   3.707   0.210 -0.1935 -0.0395 -0.0020
16976SOL    HW151978   0.550   3.740   0.278 -0.6216  2.9145 -1.6181
16976SOL    HW251979   0.686   3.763   0.215 -0.3814  0.5076 -2.0550
16977SOL     OW51980   2.203   1.377   1.536 -0.5614 -0.6526  0.4027
16977SOL    HW151981   2.202   1.282   1.540  0.5020 -0.6566  0.7982
16977SOL    HW251982   2.280   1.399   1.484 -0.3980  0.0088  0.9115
16978SOL     OW51983   6.358   4.526   1.034 -0.0260 -0.0622  0.0989
16978SOL    HW151984   6.412   4.569   1.101  0.1550 -0.1404  0.0040
16978SOL    HW251985   6.312   4.457   1.082  0.6410 -0.5763  0.0122
16979SOL     OW51986   7.060   6.639   4.437 -0.2641  0.1483  0.2434
16979SOL    HW151987   6.988   6.671   4.492 -1.5139 -1.9538 -0.0501
16979SOL    HW251988   7.022   6.565   4.389  1.5813  0.1820 -1.3779
16980SOL     OW51989   5.274   6.519   5.629  0.4092  0.0047  0.2896
16980SOL    HW151990   5.268   6.437   5.679 -1.4385 -0.2364 -0.2463
16980SOL    HW251991   5.294   6.492   5.540  0.3827  0.1673  0.2334
16981SOL     OW51992   5.592   0.451   2.100 -0.0676 -0.2805 -0.3651
16981SOL    HW151993   5.629   0.533   2.067  0.6614 -1.0858 -1.6275
16981SOL    HW251994   5.650   0.427   2.172  0.9340 -0.6911 -1.2793
16982SOL     OW51995   3.245   0.447   7.022  0.0136 -0.0348 -0.4654
16982SOL    HW151996   3.330   0.427   6.983  0.8576  0.2020  1.1494
16982SOL    HW251997   3.222   0.368   7.071 -0.1033  0.3250  0.0776
16983SOL     OW51998   1.477   5.460   1.244 -0.0535  0.0249  0.6360
16983SOL    HW151999   1.521   5.470   1.328 -0.1818  0.0472  0.7021
16983SOL    HW252000   1.391   5.425   1.267  0.0615 -0.3618  0.4807
16984SOL     OW52001   5.965   3.724   7.989 -0.0273  0.0869  0.2532
16984SOL    HW152002   6.028   3.653   7.999  0.3647  0.4739  0.5767
16984SOL    HW252003   5.982   3.760   7.902  0.0238  0.0234  0.2370
16985SOL     OW52004   5.770   6.758   5.736 -0.2207 -0.5034 -0.4011
16985SOL    HW152005   5.839   6.765   5.671 -2.3772  0.5741 -2.7666
16985SOL    HW252006   5.752   6.849   5.762 -0.3544 -0.8135  0.6565
16986SOL     OW52007   7.701   4.242   3.427 -0.0351  0.3783 -0.3264
16986SOL    HW152008   7.773   4.180   3.436  0.5517  0.5787 -2.8748
16986SOL    HW252009   7.743   4.321   3.393 -1.0763  1.4927  0.9096
16987SOL     OW52010   7.818   1.676   2.887  0.0208  0.0592 -0.3016
16987SOL    HW152011   7.764   1.615   2.937  3.0126 -1.9218  0.8360
16987SOL    HW252012   7.805   1.761   2.930 -1.5971 -0.4801  0.3427
16988SOL     OW52013   0.152   1.567   7.017  0.1173 -0.3279  0.1381
16988SOL    HW152014   0.106   1.546   6.935 -0.0032  0.1417  0.0857
16988SOL    HW252015   0.216   1.634   6.992 -1.6046  1.7034  0.8892
16989SOL     OW52016   3.317   2.367   3.064  0.5342 -0.6021 -0.1185
16989SOL    HW152017   3.343   2.420   3.139  0.6808  0.2799 -0.7791
16989SOL    HW252018   3.222   2.367   3.066  0.5333 -1.3863  0.6052
16990SOL     OW52019   2.272   7.058   5.102  0.0293  0.3883 -0.3765
16990SOL    HW152020   2.255   7.016   5.018  1.6564  2.5650 -1.9432
16990SOL    HW252021   2.204   7.125   5.110 -0.8636 -0.6180  0.6904
16991SOL     OW52022   7.228   1.939   5.030  0.3252 -0.0814  0.3409
16991SOL    HW152023   7.261   2.022   5.065 -2.0990  1.4914 -0.8335
16991SOL    HW252024   7.168   1.908   5.097 -1.2537  0.8678 -0.5682
16992SOL     OW52025   2.845   2.131   5.878 -0.3269 -0.3354 -0.4020
16992SOL    HW152026   2.813   2.179   5.802  0.0724  0.9563  0.2261
16992SOL    HW252027   2.940   2.145   5.877 -0.3719  0.0999  0.5893
16993SOL     OW52028   6.314   7.754   5.943 -0.5479  0.3874  0.4384
16993SOL    HW152029   6.331   7.836   5.898 -1.5028 -0.1125 -0.8742
16993SOL    HW252030   6.398   7.707   5.939 -0.9953 -0.3499 -2.3852
16994SOL     OW52031   1.990   4.939   6.384  0.4162  0.3413  0.2627
16994SOL    HW152032   1.996   5.029   6.351  3.5902 -0.2967 -1.1896
16994SOL    HW252033   1.945   4.891   6.315 -0.7913  0.6446  0.8046
16995SOL     OW52034   0.455   6.315   4.102 -0.1746 -0.3008  0.0424
16995SOL    HW152035   0.375   6.269   4.074  0.1542 -1.4470  0.8996
16995SOL    HW252036   0.443   6.330   4.195 -0.7217  2.3715 -0.3843
16996SOL     OW52037   4.301   4.741   4.692  0.0748 -0.1258  0.6168
16996SOL    HW152038   4.392   4.772   4.695  0.6221 -1.5515 -0.3299
16996SOL    HW252039   4.295   4.679   4.765 -0.1526 -0.0230  0.6859
16997SOL     OW52040   6.282   4.976   7.675  0.1108 -0.0050  0.1595
16997SOL    HW152041   6.271   5.071   7.679 -2.4435 -0.1011 -1.5767
16997SOL    HW252042   6.290   4.957   7.581 -0.5360 -1.5654  0.3814
16998SOL     OW52043   5.786   1.758   2.359  0.2590 -0.0099  0.1784
16998SOL    HW152044   5.737   1.677   2.342 -0.5804  0.6654 -0.7111
16998SOL    HW252045   5.763   1.816   2.287  0.7714  1.0724  0.8555
16999SOL     OW52046   7.164   0.177   0.263  0.0552 -0.4293  0.3238
16999SOL    HW152047   7.222   0.124   0.208  0.9953 -0.3111  1.1810
16999SOL    HW252048   7.118   0.233   0.200 -0.1300 -1.4517 -0.4924
17000SOL     OW52049   5.861   5.284   1.914 -0.1085 -0.7479 -0.7378
17000SOL    HW152050   5.881   5.192   1.894  0.7241 -0.5280 -0.9742
17000SOL    HW252051   5.847   5.324   1.828 -1.7208 -0.9016 -0.5852
17001SOL     OW52052   4.334   0.126   3.650  0.1063  0.1105  0.3375
17001SOL    HW152053   4.368   0.182   3.720 -0.7249 -1.1491  1.8072
17001SOL    HW252054   4.261   0.175   3.614  0.0764  0.4628  0.8588
17002SOL     OW52055   6.308   1.594   2.165  0.6942 -0.5687 -0.1352
17002SOL    HW152056   6.260   1.606   2.083 -0.5493 -0.5642  0.5622
17002SOL    HW252057   6.273   1.662   2.223  0.9609 -1.0906  0.6512
17003SOL     OW52058   7.349   4.249   6.912  0.5160  0.2541 -0.2749
17003SOL    HW152059   7.260   4.256   6.877  0.0892  0.6057  0.8435
17003SOL    HW252060   7.392   4.330   6.883 -0.5670  1.7170  1.9717
17004SOL     OW52061   3.920   6.442   7.729 -0.1840 -0.2010 -0.2180
17004SOL    HW152062   3.994   6.468   7.784  0.9573 -1.2827 -1.1720
17004SOL    HW252063   3.847   6.434   7.790  0.1236  2.1662  0.5515
17005SOL     OW52064   6.585   4.818   1.059  0.3648 -0.1548 -0.3749
17005SOL    HW152065   6.524   4.777   0.998  0.8038 -0.8514 -0.3576
17005SOL    HW252066   6.577   4.766   1.139 -1.8290  2.0475  0.9695
17006SOL     OW52067   3.724   4.157   0.042 -0.5010  0.2259  0.1356
17006SOL    HW152068   3.691   4.226   0.101 -0.3506  0.9256 -0.5763
17006SOL    HW252069   3.698   4.075   0.084  2.4265  0.5306  2.9298
17007SOL     OW52070   2.367   1.245   2.698  0.4127 -0.4143  0.3180
17007SOL    HW152071   2.434   1.188   2.736 -0.8516 -1.4686  1.0352
17007SOL    HW252072   2.290   1.190   2.690 -0.0273  0.3870 -1.7668
17008SOL     OW52073   7.313   5.933   6.522  0.1982  0.1903  0.3151
17008SOL    HW152074   7.224   5.965   6.535 -0.1526 -0.7048  0.1775
17008SOL    HW252075   7.308   5.876   6.445  0.9221  0.2700  0.1979
17009SOL     OW52076   2.653   6.925   4.551 -0.3822 -0.0511 -0.7191
17009SOL    HW152077   2.737   6.903   4.591  0.5978  1.3196 -1.9087
17009SOL    HW252078   2.590   6.866   4.592  1.2303 -1.4184 -0.1302
17010SOL     OW52079   4.736   7.067   5.512  0.0438 -0.4312  0.5927
17010SOL    HW152080   4.699   7.053   5.425  0.2476  2.8612 -0.1398
17010SOL    HW252081   4.809   7.128   5.498 -0.5263  0.9623  3.1594
17011SOL     OW52082   6.052   7.858   7.768  0.8098 -0.4305 -0.3426
17011SOL    HW152083   5.985   7.852   7.700  0.0811  1.7538  0.1257
17011SOL    HW252084   6.114   7.789   7.745 -2.7344 -4.3665  0.5906
17012SOL     OW52085   4.887   4.987   6.886 -0.5977 -0.1977 -0.2447
17012SOL    HW152086   4.827   4.914   6.874  0.7321 -1.0473 -2.3460
17012SOL    HW252087   4.834   5.056   6.926 -2.6702 -1.2739 -1.0099
17013SOL     OW52088   7.823   5.378   2.411 -0.2815  0.5385 -0.0866
17013SOL    HW152089   7.914   5.406   2.402  0.3553 -0.8557  1.5208
17013SOL    HW252090   7.823   5.287   2.382 -0.5969 -0.2475  2.1627
17014SOL     OW52091   6.429   6.904   5.245  0.3982 -0.7403 -0.1043
17014SOL    HW152092   6.440   6.855   5.163 -0.6860  1.8184 -1.9065
17014SOL    HW252093   6.335   6.901   5.263  0.0766  1.7372 -1.0533
17015SOL     OW52094   1.006   0.707   5.422  0.5791 -0.0590 -0.4891
17015SOL    HW152095   0.951   0.629   5.422 -0.5405  0.6903  0.8985
17015SOL    HW252096   1.048   0.707   5.508  2.0180 -0.0877 -1.1557
17016SOL     OW52097   2.494   7.528   7.576  0.4374  0.2052 -0.1644
17016SOL    HW152098   2.401   7.552   7.574  0.2277 -0.5365  0.1363
17016SOL    HW252099   2.538   7.598   7.529 -0.0777  1.4695  1.1520
17017SOL     OW52100   6.591   7.484   3.641 -0.0751  0.5809  0.8509
17017SOL    HW152101   6.597   7.488   3.737  1.2708  2.2070  0.7554
17017SOL    HW252102   6.587   7.576   3.614  2.6396  0.3346 -0.7714
17018SOL     OW52103   0.753   5.546   4.114 -0.1457 -0.5380 -0.3422
17018SOL    HW152104   0.840   5.509   4.128 -0.3115 -0.9320 -0.3446
17018SOL    HW252105   0.694   5.489   4.163 -0.3690 -0.0880 -0.0839
17019SOL     OW52106   7.023   0.937   4.853 -0.0338  0.3669  0.2009
17019SOL    HW152107   6.970   0.991   4.912 -2.8299 -0.0439 -1.7181
17019SOL    HW252108   6.977   0.942   4.769  1.6282 -2.1145 -0.9670
17020SOL     OW52109   2.198   4.505   5.070 -0.0832  0.2723  0.2252
17020SOL    HW152110   2.228   4.436   5.010  1.8624  0.0649  1.3340
17020SOL    HW252111   2.203   4.585   5.019  1.1308  0.0407 -0.0580
17021SOL     OW52112   5.609   1.335   7.494  0.5971  0.7488  0.0670
17021SOL    HW152113   5.652   1.319   7.410  1.4052  0.2336  0.5646
17021SOL    HW252114   5.667   1.396   7.540  0.7163  0.1845  0.6805
17022SOL     OW52115   3.056   8.019   5.398  0.2232  0.0770  0.0862
17022SOL    HW152116   3.073   8.078   5.324 -0.6284  0.0678 -0.1289
17022SOL    HW252117   3.031   7.936   5.358 -0.1405  0.0408  0.3762
17023SOL     OW52118   3.128   5.706   7.056  0.5430  0.2037  0.3548
17023SOL    HW152119   3.177   5.715   7.138  0.5046  3.2194  0.1670
17023SOL    HW252120   3.190   5.734   6.988 -0.1998  0.1205 -0.3661
17024SOL     OW52121   1.020   3.850   2.879  0.1529  0.2196 -0.4653
17024SOL    HW152122   1.042   3.859   2.972 -0.7530 -0.7758 -0.1273
17024SOL    HW252123   1.037   3.936   2.842  0.2800  0.7109  0.6853
17025SOL     OW52124   7.968   5.306   3.778 -0.4263 -0.1530 -0.5468
17025SOL    HW152125   8.035   5.332   3.715 -0.4409 -1.5979 -1.1792
17025SOL    HW252126   7.897   5.368   3.764  1.9213  3.7541  2.4838
17026SOL     OW52127   0.158   1.088   1.257  0.3180  0.3322  0.9552
17026SOL    HW152128   0.219   1.148   1.213  2.0184 -2.8725 -1.4579
17026SOL    HW252129   0.071   1.117   1.229  1.1967  0.4261 -1.9270
17027SOL     OW52130   6.644   7.089   4.718  0.2749  0.6595 -0.1780
17027SOL    HW152131   6.609   7.150   4.783  2.1127  0.7573  0.8060
17027SOL    HW252132   6.638   7.003   4.760  2.2924  0.8293  0.5697
17028SOL     OW52133   4.302   8.014   4.457  0.4895 -0.3279 -0.2716
17028SOL    HW152134   4.349   8.089   4.494  2.3238 -1.7923  0.5628
17028SOL    HW252135   4.371   7.949   4.440 -1.0057 -1.7612 -1.1367
17029SOL     OW52136   6.949   2.036   6.046 -0.3856  0.3635 -0.1945
17029SOL    HW152137   6.991   1.954   6.069 -1.4752 -0.2043 -0.1496
17029SOL    HW252138   7.018   2.102   6.054  0.4584 -0.5159 -0.0681
17030SOL     OW52139   3.530   6.577   0.969 -0.0136  0.3790  0.0560
17030SOL    HW152140   3.516   6.537   0.884  1.2729  0.2294 -0.1144
17030SOL    HW252141   3.488   6.518   1.032  0.6541 -0.5056 -0.3151
17031SOL     OW52142   2.349   3.498   4.346 -0.4298 -0.1656  0.0601
17031SOL    HW152143   2.362   3.590   4.325 -0.5365 -0.7113 -2.8044
17031SOL    HW252144   2.438   3.464   4.360 -0.2040 -0.0403 -0.9873
17032SOL     OW52145   3.119   0.392   0.307 -0.0612  0.5796  0.0958
17032SOL    HW152146   3.127   0.398   0.212 -3.5783  1.4829 -0.2790
17032SOL    HW252147   3.122   0.297   0.325  1.9177  0.4603 -0.7000
17033SOL     OW52148   3.776   7.344   3.137 -0.6769 -0.6549 -0.4121
17033SOL    HW152149   3.822   7.260   3.128 -1.4351 -1.1113 -0.0651
17033SOL    HW252150   3.808   7.379   3.220 -0.6612 -0.7890 -0.3603
17034SOL     OW52151   6.840   6.461   7.237 -0.1335  0.0783 -0.3960
17034SOL    HW152152   6.900   6.534   7.257  0.7232 -1.3076  2.8184
17034SOL    HW252153   6.897   6.385   7.231 -1.3309 -0.8965  0.1894
17035SOL     OW52154   5.081   3.124   7.736 -0.0678 -0.2419  0.1045
17035SOL    HW152155   5.068   3.065   7.662  0.6311 -0.5721  0.2285
17035SOL    HW252156   5.074   3.211   7.699 -2.1179 -0.3587  0.0965
17036SOL     OW52157   0.541   7.687   4.750  0.1109 -0.3740 -0.5623
17036SOL    HW152158   0.507   7.712   4.837 -1.6561 -1.1441 -0.9791
17036SOL    HW252159   0.583   7.603   4.765  0.7765  0.0037 -0.2626
17037SOL     OW52160   8.167   5.931   0.084  0.0476  0.1353 -0.4910
17037SOL    HW152161   8.232   5.872   0.044  0.3771  0.4653 -0.4487
17037SOL    HW252162   8.129   5.978   0.010  0.1375  0.2196 -0.4850
17038SOL     OW52163   1.813   7.323   6.864 -0.9028  0.4108 -0.5360
17038SOL    HW152164   1.885   7.261   6.850 -0.1439  0.9938  0.6606
17038SOL    HW252165   1.855   7.409   6.864 -1.4192  0.6981  1.1821
17039SOL     OW52166   0.078   3.985   4.561  0.9893  1.0117 -0.0416
17039SOL    HW152167   0.042   4.040   4.630 -3.2000 -2.3300  0.9150
17039SOL    HW252168   0.074   4.038   4.482  0.0814  3.0051  1.2759
17040SOL     OW52169   7.395   5.813   4.747  0.4413 -0.5606 -0.4647
17040SOL    HW152170   7.484   5.846   4.737  1.2195 -2.6127 -0.7665
17040SOL    HW252171   7.352   5.833   4.664  0.3684  1.0615 -0.0657
17041SOL     OW52172   6.517   8.086   2.765  0.0879  0.0329  0.2687
17041SOL    HW152173   6.539   8.162   2.709  0.7648  0.5646  1.2286
17041SOL    HW252174   6.545   8.112   2.852  1.3070 -1.7364  0.4527
17042SOL     OW52175   7.195   1.125   2.120 -0.0483  0.3523 -0.0488
17042SOL    HW152176   7.170   1.150   2.031  0.2470  0.9140  0.0247
17042SOL    HW252177   7.113   1.100   2.162 -0.3762  1.3399 -0.0803
17043SOL     OW52178   7.844   7.010   5.431 -0.3088  0.2265  0.2163
17043SOL    HW152179   7.838   6.935   5.489  1.1003 -0.5099 -0.5261
17043SOL    HW252180   7.816   6.976   5.345 -0.9392  0.9040  0.1449
17044SOL     OW52181   5.795   6.647   2.577  0.4262 -0.4659  0.4524
17044SOL    HW152182   5.730   6.632   2.507 -1.8127  2.8477  1.5523
17044SOL    HW252183   5.878   6.659   2.531 -0.4374 -1.1995 -1.3864
17045SOL     OW52184   7.514   8.247   0.948 -0.8633  0.1059  0.1205
17045SOL    HW152185   7.585   8.184   0.937 -0.6254  0.4639 -0.4523
17045SOL    HW252186   7.463   8.241   0.867 -0.7256  0.7825 -0.0260
17046SOL     OW52187   5.723   1.775   3.389 -0.1408  0.9587 -0.4318
17046SOL    HW152188   5.639   1.797   3.428  0.8353  2.4331  0.9932
17046SOL    HW252189   5.707   1.696   3.338 -1.3142 -1.9173  3.9157
17047SOL     OW52190   2.150   6.036   5.190  0.1252 -0.0273  0.0371
17047SOL    HW152191   2.115   5.976   5.124 -2.2378 -0.3968  1.5267
17047SOL    HW252192   2.195   6.103   5.139 -1.7917 -0.1633 -1.9955
17048SOL     OW52193   4.428   7.592   6.114  0.7492  0.1100  0.3995
17048SOL    HW152194   4.519   7.567   6.098  0.4882 -0.8085  0.3188
17048SOL    HW252195   4.433   7.685   6.137  1.5027  0.6007 -1.5193
17049SOL     OW52196   2.211   5.439   2.480 -0.0320 -0.0900 -0.3024
17049SOL    HW152197   2.264   5.488   2.417  0.7513 -1.4356 -0.7409
17049SOL    HW252198   2.166   5.506   2.532  1.8324  1.1107 -0.1490
17050SOL     OW52199   3.714   0.646   2.104  0.0200  0.1796  0.5716
17050SOL    HW152200   3.747   0.733   2.126 -2.6901  0.6894  3.2393
17050SOL    HW252201   3.738   0.591   2.178 -0.1448 -0.8154 -0.0888
17051SOL     OW52202   3.469   5.617   6.822  0.4533  0.1879 -0.5851
17051SOL    HW152203   3.470   5.620   6.726 -0.5484 -1.6396 -0.7060
17051SOL    HW252204   3.421   5.695   6.848  0.2633  0.4257 -1.6096
17052SOL     OW52205   0.281   4.220   8.135  0.7615 -0.6182  0.1162
17052SOL    HW152206   0.360   4.238   8.084  0.5645  0.3494  0.1404
17052SOL    HW252207   0.314   4.192   8.220  1.0861  0.1273  0.2432
17053SOL     OW52208   3.353   3.767   5.079 -0.3956 -0.0946  0.5787
17053SOL    HW152209   3.425   3.782   5.017  0.0762  0.3948  1.2325
17053SOL    HW252210   3.344   3.672   5.082 -0.1483 -0.1407  0.0709
17054SOL     OW52211   3.826   5.499   8.075  0.4027  0.5475 -1.0917
17054SOL    HW152212   3.907   5.466   8.114 -0.6525  0.2856  1.0249
17054SOL    HW252213   3.757   5.444   8.111 -0.7827  1.0210 -2.5300
17055SOL     OW52214   5.147   6.627   7.564  0.0355  0.1340  0.0146
17055SOL    HW152215   5.091   6.682   7.509 -0.2184 -0.7145 -0.6067
17055SOL    HW252216   5.126   6.537   7.537 -0.1220 -0.3116  1.5434
17056SOL     OW52217   6.635   1.126   5.567 -0.1922 -0.2328 -0.3949
17056SOL    HW152218   6.543   1.107   5.551  0.1048  0.0679 -2.8457
17056SOL    HW252219   6.683   1.057   5.521  0.8089  0.3469 -0.2598
17057SOL     OW52220   5.648   1.219   1.324  0.2104  0.5269  0.1442
17057SOL    HW152221   5.618   1.226   1.233  1.0234  1.2863 -0.0754
17057SOL    HW252222   5.743   1.213   1.318  0.1813 -1.1072  0.8740
17058SOL     OW52223   2.195   6.318   0.095 -0.3516  0.0167  0.7383
17058SOL    HW152224   2.164   6.242   0.144 -0.1093 -1.4215 -1.2000
17058SOL    HW252225   2.278   6.340   0.136 -0.4430 -0.7474  1.3742
17059SOL     OW52226   2.666   2.426   0.220 -0.1896  0.1356 -0.2227
17059SOL    HW152227   2.605   2.417   0.293  0.8376  0.4484  0.7029
17059SOL    HW252228   2.752   2.413   0.260  0.3322 -0.6626 -1.5616
17060SOL     OW52229   7.796   7.825   0.808 -0.3888 -0.2480 -0.0281
17060SOL    HW152230   7.756   7.807   0.893 -1.5329  0.4063 -0.3998
17060SOL    HW252231   7.786   7.744   0.758 -0.8290 -0.2390  0.0449
17061SOL     OW52232   7.570   6.270   5.858  0.0526  0.0011  0.4755
17061SOL    HW152233   7.595   6.178   5.848 -0.8718 -0.1968 -0.1117
17061SOL    HW252234   7.557   6.280   5.952  0.1251 -0.4731  0.5408
17062SOL     OW52235   7.239   6.699   2.137  0.6698  0.0805 -0.2338
17062SOL    HW152236   7.291   6.719   2.215 -0.2440  1.6338  0.0191
17062SOL    HW252237   7.155   6.667   2.172  0.5912 -0.1113 -0.5942
17063SOL     OW52238   0.240   0.486   3.557  0.0791  0.3813  0.2641
17063SOL    HW152239   0.228   0.392   3.573 -1.6706  0.6022  0.4502
17063SOL    HW252240   0.335   0.499   3.565  0.4314 -1.4550 -0.3414
17064SOL     OW52241   0.964   8.048   7.023 -0.0890 -0.2318 -0.3673
17064SOL    HW152242   0.934   8.055   7.114  0.8875 -1.8282  0.1079
17064SOL    HW252243   1.059   8.046   7.029 -0.0045 -0.0835 -1.4548
17065SOL     OW52244   1.782   5.292   2.454  0.3599 -0.1413 -0.0821
17065SOL    HW152245   1.852   5.270   2.516  0.4239  1.1521  0.3415
17065SOL    HW252246   1.746   5.374   2.487  0.8432  0.9670 -2.1091
17066SOL     OW52247   2.165   6.582   4.558  0.2722  0.4315  0.1530
17066SOL    HW152248   2.180   6.664   4.511 -0.0121 -0.1004 -0.9093
17066SOL    HW252249   2.221   6.519   4.514  0.8201  0.1333  1.2432
17067SOL     OW52250   5.700   1.366   0.839 -0.2040  0.7646  0.0261
17067SOL    HW152251   5.721   1.392   0.928  0.5046  0.8501 -0.1578
17067SOL    HW252252   5.715   1.271   0.837 -0.1473  0.7743 -0.0199
17068SOL     OW52253   7.062   7.069   5.671 -0.3335 -0.1297  0.0899
17068SOL    HW152254   7.021   6.992   5.710 -3.7112  0.0207 -2.6871
17068SOL    HW252255   7.072   7.130   5.744 -1.0159 -1.8679  1.7120
17069SOL     OW52256   6.338   3.013   2.452  0.8942 -0.1701 -0.9304
17069SOL    HW152257   6.344   3.102   2.417 -1.3415 -0.7438 -2.9442
17069SOL    HW252258   6.300   3.025   2.540  1.1032  0.8764 -0.9651
17070SOL     OW52259   6.863   4.668   7.005 -0.1766 -0.0246 -0.4501
17070SOL    HW152260   6.909   4.683   7.088  1.1700 -0.7431 -1.0320
17070SOL    HW252261   6.842   4.756   6.974  1.3368  0.3833 -0.4199
17071SOL     OW52262   5.707   8.189   4.653 -0.4327  0.6091  0.4069
17071SOL    HW152263   5.739   8.132   4.584  0.4047  2.0124 -0.4083
17071SOL    HW252264   5.678   8.268   4.608 -1.4313  0.8988  1.5126
17072SOL     OW52265   4.009   3.334   2.596  0.4389 -0.2132 -0.8938
17072SOL    HW152266   3.945   3.405   2.586  1.4701  0.9825  0.6047
17072SOL    HW252267   4.092   3.373   2.567  0.7477 -1.3315 -1.5729
17073SOL     OW52268   7.679   2.280   4.006 -0.4391  0.3408 -0.3707
17073SOL    HW152269   7.686   2.277   4.101  1.1272  0.4779 -0.4514
17073SOL    HW252270   7.656   2.191   3.980 -0.9150  0.3166  0.1377
17074SOL     OW52271   7.639   4.348   5.894 -0.6917  0.5014  0.5385
17074SOL    HW152272   7.636   4.431   5.846  1.0228  1.4040  1.8814
17074SOL    HW252273   7.646   4.374   5.986 -0.1246 -1.1294  0.9883
17075SOL     OW52274   5.753   4.358   2.615 -0.0050 -0.6796  0.0705
17075SOL    HW152275   5.681   4.369   2.553  1.8297  1.6160 -1.7992
17075SOL    HW252276   5.742   4.430   2.677  0.2184 -0.8118  0.2625
17076SOL     OW52277   2.551   6.827   2.435  0.5513  0.6493  0.3656
17076SOL    HW152278   2.577   6.762   2.501 -0.3494  0.3088  0.4035
17076SOL    HW252279   2.591   6.909   2.465  2.0151  0.0443  0.1069
17077SOL     OW52280   2.295   7.749   6.846  0.6683  0.0639 -0.5820
17077SOL    HW152281   2.288   7.677   6.783  0.4563 -0.0240 -0.4585
17077SOL    HW252282   2.204   7.778   6.860  0.8501  1.1552 -1.5506
17078SOL     OW52283   1.231   5.542   1.400  0.3692 -0.2482  0.0534
17078SOL    HW152284   1.224   5.611   1.466 -3.3287 -2.2562  2.0976
17078SOL    HW252285   1.173   5.570   1.329 -2.9943 -1.9422  1.8775
17079SOL     OW52286   3.592   4.979   4.546 -0.1012  0.1822 -1.0930
17079SOL    HW152287   3.640   4.910   4.500  0.0735  0.3551 -1.1715
17079SOL    HW252288   3.655   5.050   4.556  0.7379 -0.8489  1.8566
17080SOL     OW52289   2.059   5.265   5.717  0.5246  0.4609 -0.7081
17080SOL    HW152290   2.006   5.221   5.783  0.4711 -0.6065 -1.4375
17080SOL    HW252291   2.000   5.275   5.642  0.5482  1.7686 -0.5610
17081SOL     OW52292   4.287   1.434   0.961  0.3566  0.1225  0.9265
17081SOL    HW152293   4.277   1.450   0.868  1.3727  0.2089  0.8182
17081SOL    HW252294   4.241   1.352   0.977 -1.8447  1.2730  0.8112
17082SOL     OW52295   7.769   3.054   5.211 -0.1718 -0.2449 -0.3502
17082SOL    HW152296   7.829   3.106   5.157  0.3191 -0.8696 -0.4166
17082SOL    HW252297   7.720   3.119   5.261  1.5617  0.2784  0.7781
17083SOL     OW52298   5.523   5.786   4.228  0.4874  0.0615 -0.1459
17083SOL    HW152299   5.530   5.763   4.321 -0.3323 -1.6765 -0.4842
17083SOL    HW252300   5.613   5.808   4.203  1.2192 -1.9791  0.4545
17084SOL     OW52301   1.579   5.689   2.301 -0.2990  0.0058  0.0840
17084SOL    HW152302   1.587   5.774   2.257  1.0526  0.2464  0.7555
17084SOL    HW252303   1.512   5.642   2.250  1.2760  0.2191 -2.3669
17085SOL     OW52304   7.140   0.474   6.051  0.4172  0.2629  0.0204
17085SOL    HW152305   7.133   0.401   6.112  0.6684  0.1463 -0.0905
17085SOL    HW252306   7.193   0.539   6.098  0.6800  0.1396 -0.1057
17086SOL     OW52307   0.793   1.860   1.075 -0.2619 -0.7373 -0.7407
17086SOL    HW152308   0.864   1.810   1.035  1.1936  0.7727 -0.1480
17086SOL    HW252309   0.829   1.949   1.085 -1.5173 -0.4035  1.4156
17087SOL     OW52310   1.716   3.755   3.014 -0.1396 -0.3042 -0.2440
17087SOL    HW152311   1.653   3.808   2.965  0.7057  2.6014  1.5420
17087SOL    HW252312   1.663   3.683   3.048 -1.3663 -0.7297 -2.8202
17088SOL     OW52313   2.343   4.134   2.410 -0.1512 -0.1180 -0.0545
17088SOL    HW152314   2.313   4.131   2.319  0.7522 -1.6266 -0.3421
17088SOL    HW252315   2.360   4.042   2.432 -1.0576  0.1445  1.8929
17089SOL     OW52316   1.132   8.018   6.346  0.4775 -0.6021  0.4782
17089SOL    HW152317   1.160   7.960   6.275  1.7756  0.0102  0.4676
17089SOL    HW252318   1.193   8.001   6.417 -0.5559 -0.8992  1.3296
17090SOL     OW52319   4.434   0.324   3.349  0.5168  0.0656 -0.3325
17090SOL    HW152320   4.340   0.306   3.358  0.6771 -0.5851  0.0875
17090SOL    HW252321   4.439   0.419   3.346 -0.0952  0.1297  0.3761
17091SOL     OW52322   6.797   7.338   6.477  0.3767  0.0407  0.3777
17091SOL    HW152323   6.884   7.366   6.449  0.9016 -1.2489  0.6748
17091SOL    HW252324   6.781   7.257   6.429 -0.4313 -0.0258  0.7457
17092SOL     OW52325   0.483   4.037   2.160  0.3682 -0.1060  0.2000
17092SOL    HW152326   0.469   3.951   2.120 -0.4954 -0.0704  0.4036
17092SOL    HW252327   0.555   4.022   2.222 -1.3593 -1.3469  2.0677
17093SOL     OW52328   2.120   3.091   2.608 -0.0977 -0.1294  0.0121
17093SOL    HW152329   2.168   3.051   2.535 -0.9894 -1.0318 -0.0986
17093SOL    HW252330   2.040   3.125   2.569 -0.4142 -0.2961  0.5100
17094SOL     OW52331   0.528   1.183   1.977 -0.1746  0.1204 -0.1770
17094SOL    HW152332   0.468   1.234   1.922 -0.5528 -0.6509 -0.4985
17094SOL    HW252333   0.560   1.246   2.042  0.5397  1.1375 -1.4624
17095SOL     OW52334   1.308   2.962   3.036 -0.2918  0.5901 -0.2123
17095SOL    HW152335   1.278   3.001   3.118 -0.5380  1.1292 -0.5517
17095SOL    HW252336   1.254   3.003   2.969  0.1599  0.4270 -0.6832
17096SOL     OW52337   1.655   2.117   1.372  0.0283 -0.0770 -0.5845
17096SOL    HW152338   1.743   2.146   1.396  1.0204 -2.5745 -0.8872
17096SOL    HW252339   1.659   2.108   1.276  1.0173 -4.3790 -0.3343
17097SOL     OW52340   4.968   6.797   4.818 -0.0538  0.2292 -0.2191
17097SOL    HW152341   4.879   6.824   4.840 -0.2269 -0.1028 -0.5177
17097SOL    HW252342   4.958   6.740   4.742  0.3510 -0.3033  0.1158
17098SOL     OW52343   7.679   3.809   7.883 -0.0851  0.1820  0.0290
17098SOL    HW152344   7.729   3.874   7.834 -0.4660  0.7003  0.3177
17098SOL    HW252345   7.656   3.742   7.818 -1.3558  1.2977 -0.7323
17099SOL     OW52346   1.142   4.841   7.999  0.0888  0.1443 -0.0516
17099SOL    HW152347   1.226   4.797   7.986  0.4436  0.2943  1.5743
17099SOL    HW252348   1.134   4.901   7.925  0.9022 -0.6358 -0.7955
17100SOL     OW52349   3.938   7.996   0.511  0.1652 -0.6234  0.6450
17100SOL    HW152350   3.942   8.062   0.580  0.1091 -1.7802  1.8016
17100SOL    HW252351   4.029   7.968   0.500  0.3843  0.5465 -0.7876
17101SOL     OW52352   0.025   1.256   2.006 -0.2349 -0.3051  0.0125
17101SOL    HW152353  -0.049   1.260   1.945  0.3481 -0.4615 -0.7187
17101SOL    HW252354  -0.009   1.292   2.087  0.0587  3.9611 -1.4920
17102SOL     OW52355   2.585   3.363   1.530 -0.7665 -0.6708 -0.0587
17102SOL    HW152356   2.647   3.351   1.601 -1.2402  0.9510  0.6764
17102SOL    HW252357   2.545   3.277   1.518  0.6926 -1.4272  0.3108
17103SOL     OW52358   3.123   3.998   4.741  0.5031 -0.1294 -0.1992
17103SOL    HW152359   3.191   3.946   4.699  0.6726 -1.6316  1.7605
17103SOL    HW252360   3.159   4.018   4.828 -1.0921 -0.0006  0.4674
17104SOL     OW52361   4.038   2.867   1.131 -0.1804  0.1542  0.1138
17104SOL    HW152362   4.026   2.879   1.225  1.2889  2.1877  0.0976
17104SOL    HW252363   4.007   2.949   1.092  2.2431  0.6716 -0.8737
17105SOL     OW52364   3.651   0.390   6.171 -0.4161  0.3183 -0.5004
17105SOL    HW152365   3.587   0.388   6.101 -0.1718  0.7912 -0.7432
17105SOL    HW252366   3.709   0.462   6.149  0.4245 -0.3313 -0.4827
17106SOL     OW52367   1.116   7.347   4.379  0.1121  0.0840 -0.3222
17106SOL    HW152368   1.041   7.358   4.321 -0.5490  0.1387  0.5192
17106SOL    HW252369   1.113   7.254   4.404 -0.1932  0.2831  0.3944
17107SOL     OW52370   2.239   2.456   7.193  0.2406  0.0415  0.6865
17107SOL    HW152371   2.159   2.503   7.169 -1.6110 -3.3551 -0.4540
17107SOL    HW252372   2.213   2.396   7.263  0.9497 -2.9995 -1.4338
17108SOL     OW52373   1.477   1.431   6.981  0.1686 -0.4907 -0.2194
17108SOL    HW152374   1.403   1.490   6.993  0.9439  0.5988 -0.6153
17108SOL    HW252375   1.454   1.378   6.905 -0.5411 -0.7329  0.1534
17109SOL     OW52376   4.701   1.652   2.291  0.0985 -0.9162 -0.6763
17109SOL    HW152377   4.707   1.672   2.198  0.1585  0.5174 -0.3783
17109SOL    HW252378   4.609   1.669   2.314  0.0500 -1.3955 -0.5017
17110SOL     OW52379   7.201   7.842   2.892  0.8426 -0.1510 -0.3148
17110SOL    HW152380   7.253   7.775   2.936  3.6194  1.0536 -1.5739
17110SOL    HW252381   7.265   7.897   2.847 -1.6293  0.5586 -3.2619
17111SOL     OW52382   7.552   0.033   1.819 -0.5145  0.3812 -0.4751
17111SOL    HW152383   7.610  -0.040   1.843  0.2440  0.7501 -1.1222
17111SOL    HW252384   7.472   0.017   1.868  0.7768  0.8692  1.9609
17112SOL     OW52385   4.277   5.019   7.432  0.0613  0.5087 -0.2573
17112SOL    HW152386   4.250   5.111   7.432 -1.8038  0.0140 -1.4118
17112SOL    HW252387   4.291   4.998   7.525  1.9069  2.2735 -0.0654
17113SOL     OW52388   5.286   6.165   0.379 -0.2800 -0.1219 -0.1163
17113SOL    HW152389   5.344   6.158   0.455 -0.3798  0.3024  0.0063
17113SOL    HW252390   5.248   6.078   0.369 -1.8374  0.3021  1.5888
17114SOL     OW52391   0.778   7.033   0.932 -0.2336 -0.2235  0.6278
17114SOL    HW152392   0.693   7.076   0.938 -1.0025 -1.4242 -0.8326
17114SOL    HW252393   0.784   7.006   0.840  0.4694 -2.6117  1.3140
17115SOL     OW52394   6.047   3.757   3.042 -0.3275  0.5262  0.0761
17115SOL    HW152395   6.119   3.812   3.012 -1.0001  0.6456 -1.3656
17115SOL    HW252396   6.007   3.807   3.114  0.2105  1.0464  0.0194
17116SOL     OW52397   7.451   5.706   3.548 -0.6544  0.8181 -0.1069
17116SOL    HW152398   7.522   5.674   3.493  0.1733 -0.1281  1.4375
17116SOL    HW252399   7.493   5.729   3.630 -1.8757  2.0390  0.2086
17117SOL     OW52400   7.243   5.323   7.900  0.3218  0.5049 -0.0544
17117SOL    HW152401   7.325   5.370   7.880  0.0482  0.6064 -0.9987
17117SOL    HW252402   7.268   5.231   7.904 -0.0393  0.0992 -3.8697
17118SOL     OW52403   5.074   6.242   5.553  0.0728 -0.2928  0.0615
17118SOL    HW152404   5.033   6.328   5.549 -1.1123 -0.8467 -0.1514
17118SOL    HW252405   5.138   6.249   5.623 -1.3685  0.2042  1.3756
17119SOL     OW52406   2.718   3.329   1.760 -0.1449 -0.2509 -0.5387
17119SOL    HW152407   2.791   3.381   1.726 -0.6152 -0.2997 -1.6509
17119SOL    HW252408   2.760   3.262   1.814  0.6729 -0.5204 -1.4756
17120SOL     OW52409   6.645   0.065   7.597 -0.3059 -0.2344  0.0847
17120SOL    HW152410   6.570   0.120   7.576 -1.7260 -1.3105  1.9660
17120SOL    HW252411   6.617  -0.024   7.576  0.9321 -0.5467 -0.3523
17121SOL     OW52412   2.143   7.661   0.747 -0.8668 -0.2737 -0.1355
17121SOL    HW152413   2.146   7.588   0.809 -0.5431 -0.2734 -0.1453
17121SOL    HW252414   2.072   7.639   0.687 -0.5800 -0.7272 -0.3140
17122SOL     OW52415   1.622   6.653   1.803 -0.3132  0.1242  0.6323
17122SOL    HW152416   1.712   6.654   1.837 -0.4716  0.6844  1.0331
17122SOL    HW252417   1.630   6.611   1.717  0.0727 -1.4214  1.3787
17123SOL     OW52418   6.048   2.363   1.252 -0.2604  0.1731 -0.4186
17123SOL    HW152419   5.971   2.388   1.200 -0.5500 -1.4243 -0.8029
17123SOL    HW252420   6.115   2.427   1.227 -0.5924 -0.1403 -2.3024
17124SOL     OW52421   3.703   7.191   1.503 -0.3300  0.1855  0.4688
17124SOL    HW152422   3.617   7.159   1.474 -0.8880  1.6398  0.4624
17124SOL    HW252423   3.690   7.284   1.520  2.0744  1.3716 -3.0845
17125SOL     OW52424   4.852   1.142   7.490 -0.1262 -0.0647 -0.2982
17125SOL    HW152425   4.945   1.121   7.493 -0.0501 -0.3167 -2.6374
17125SOL    HW252426   4.822   1.107   7.406 -2.7391 -1.4831  1.0963
17126SOL     OW52427   2.056   0.040   2.803  0.4943  0.3606 -0.2349
17126SOL    HW152428   2.052  -0.001   2.889  0.8037  0.7221 -0.0498
17126SOL    HW252429   2.050  -0.034   2.741  1.0784  0.0317  0.0945
17127SOL     OW52430   1.803   3.401   1.603 -0.4058  0.1105 -0.1963
17127SOL    HW152431   1.859   3.336   1.560  1.7201  0.7800  1.3533
17127SOL    HW252432   1.771   3.456   1.532 -0.1327 -1.0614 -1.2705
17128SOL     OW52433   2.138   0.586   0.153  0.0840 -0.1919  0.5558
17128SOL    HW152434   2.165   0.512   0.099 -1.9616  0.4725 -1.5540
17128SOL    HW252435   2.079   0.548   0.218  1.4677 -0.7995  1.5015
17129SOL     OW52436   3.728   5.048   5.974 -0.0237  0.2053  0.6787
17129SOL    HW152437   3.817   5.013   5.967 -1.0236 -2.2216 -1.1895
17129SOL    HW252438   3.708   5.041   6.068  1.4923  0.1360  1.0310
17130SOL     OW52439   8.259   2.509   2.123 -0.0253 -0.1909 -0.0955
17130SOL    HW152440   8.279   2.519   2.216 -0.7807  0.9846 -0.0326
17130SOL    HW252441   8.166   2.533   2.116 -0.3657 -1.6478 -0.9498
17131SOL     OW52442   6.579   4.683   7.716  0.3359 -0.2366  0.5881
17131SOL    HW152443   6.673   4.665   7.707  0.2238 -1.4443  1.6903
17131SOL    HW252444   6.564   4.687   7.810 -0.4169  1.7732  0.4430
17132SOL     OW52445   2.094   4.003   0.861  0.1379  0.5606 -0.3951
17132SOL    HW152446   2.144   3.923   0.878  0.1609  0.2354 -1.8184
17132SOL    HW252447   2.158   4.064   0.824 -0.4948  0.0761 -2.4206
17133SOL     OW52448   5.735   2.120   3.644  0.0921 -0.1219  0.3354
17133SOL    HW152449   5.800   2.061   3.682  0.0178 -0.0715  0.5460
17133SOL    HW252450   5.668   2.128   3.712  1.0006  1.6917  1.0701
17134SOL     OW52451   0.488   7.280   0.435 -0.0927 -0.3894 -0.2677
17134SOL    HW152452   0.464   7.362   0.479  1.6731 -0.7915  1.5861
17134SOL    HW252453   0.423   7.217   0.466 -0.8089  0.0472 -0.8496
17135SOL     OW52454   5.314   7.488   3.140  0.1859  0.7747  0.5842
17135SOL    HW152455   5.382   7.422   3.129 -0.8995 -0.1825 -0.8884
17135SOL    HW252456   5.305   7.528   3.054 -0.5796  1.4209  0.9481
17136SOL     OW52457   0.032   2.464   2.388 -0.0018 -0.1916  0.0288
17136SOL    HW152458  -0.062   2.468   2.405  0.1698 -1.0082  1.3003
17136SOL    HW252459   0.062   2.390   2.441  1.3884  0.1816 -0.2181
17137SOL     OW52460   5.871   1.370   3.883  0.4957  0.3381  0.2457
17137SOL    HW152461   5.932   1.444   3.880 -0.1167  0.8565  0.2388
17137SOL    HW252462   5.790   1.408   3.918 -0.0040 -0.2023 -0.3014
17138SOL     OW52463   5.889   8.033   6.146  0.0752 -0.0825 -0.4662
17138SOL    HW152464   5.904   7.977   6.222  3.7434 -0.1041 -1.0305
17138SOL    HW252465   5.908   8.122   6.177  0.0109  0.1083 -0.9625
17139SOL     OW52466   6.310   3.643   6.978 -0.3478 -0.2183  0.1759
17139SOL    HW152467   6.261   3.659   7.059 -0.7977  0.2302 -0.1794
17139SOL    HW252468   6.242   3.630   6.912  0.0055  0.8530 -0.4124
17140SOL     OW52469   3.701   5.056   0.752  0.1963  0.1250  0.3592
17140SOL    HW152470   3.676   5.093   0.837  1.0952  0.7744  0.3534
17140SOL    HW252471   3.703   4.962   0.766  0.4655  0.2358  1.1002
17141SOL     OW52472   3.134   5.589   3.654  0.6758  0.1343 -0.2882
17141SOL    HW152473   3.053   5.638   3.667  0.4865 -0.7633  2.9871
17141SOL    HW252474   3.177   5.593   3.740  2.7357 -1.7992 -1.1420
17142SOL     OW52475   8.208   4.223   6.073 -0.3296 -0.0906  0.0230
17142SOL    HW152476   8.113   4.217   6.083 -0.3775 -0.7681 -0.6631
17142SOL    HW252477   8.243   4.204   6.160 -0.8299  0.4231  0.3376
17143SOL     OW52478   0.713   0.950   3.217  0.5292  0.1652  0.3061
17143SOL    HW152479   0.652   1.016   3.249 -0.0431 -0.4388  0.4953
17143SOL    HW252480   0.732   0.976   3.127 -1.2454 -0.4661 -0.3079
17144SOL     OW52481   2.525   1.932   4.993 -0.0673  0.3110 -0.6771
17144SOL    HW152482   2.583   1.989   4.943 -1.1994 -0.1926 -2.6432
17144SOL    HW252483   2.448   1.985   5.011  0.5344  0.6671  1.0997
17145SOL     OW52484   2.898   6.111   4.285 -0.2689 -0.1680 -0.1584
17145SOL    HW152485   2.883   6.118   4.191 -0.1371 -0.0984 -0.1734
17145SOL    HW252486   2.811   6.090   4.321 -0.1172 -1.2830 -0.4047
17146SOL     OW52487   1.318   4.714   7.245  0.0685  0.1473  0.2615
17146SOL    HW152488   1.228   4.686   7.265  0.6306 -0.5310  2.0776
17146SOL    HW252489   1.371   4.635   7.258  0.9167  0.4640 -1.0906
17147SOL     OW52490   1.762   2.980   2.657 -0.5045  0.1557 -0.0760
17147SOL    HW152491   1.688   3.028   2.693 -1.0422  0.3497 -1.3836
17147SOL    HW252492   1.805   3.042   2.597  0.1882 -0.2389 -0.0086
17148SOL     OW52493   3.049   6.363   0.314 -0.2170 -0.2392  0.4939
17148SOL    HW152494   3.016   6.442   0.272 -0.0697 -0.4874 -0.1030
17148SOL    HW252495   3.144   6.375   0.318  0.0109 -1.1550 -1.2745
17149SOL     OW52496   4.650   4.456   7.076  0.3570  0.0631 -0.0886
17149SOL    HW152497   4.684   4.503   7.000  0.2993 -1.7487 -1.2985
17149SOL    HW252498   4.709   4.481   7.148  0.3939  1.8310 -0.6967
17150SOL     OW52499   6.780   6.131   1.562 -0.5353  0.8121 -0.0680
17150SOL    HW152500   6.867   6.169   1.572 -0.5731  0.5119  1.6384
17150SOL    HW252501   6.796   6.044   1.525 -0.3445  1.7563 -2.4114
17151SOL     OW52502   4.294   3.484   3.066 -0.1423  0.4431 -0.1069
17151SOL    HW152503   4.376   3.522   3.037  0.0272 -0.0086 -0.2254
17151SOL    HW252504   4.274   3.529   3.148  1.4186 -1.0435  1.1505
17152SOL     OW52505   2.353   6.481   3.415  0.5669 -0.2015 -0.1860
17152SOL    HW152506   2.448   6.468   3.415  0.7369  0.7632  1.3483
17152SOL    HW252507   2.341   6.570   3.450 -0.8869 -0.1385 -0.7596
17153SOL     OW52508   0.846   1.597   6.159  0.5624  0.4701 -0.0779
17153SOL    HW152509   0.879   1.527   6.102  0.3083 -0.0464  0.3989
17153SOL    HW252510   0.893   1.675   6.130  0.9324  0.0833 -0.5482
17154SOL     OW52511   7.380   4.247   4.286  0.0564 -0.1150  0.5587
17154SOL    HW152512   7.432   4.321   4.254  0.0352 -0.3082  0.0601
17154SOL    HW252513   7.438   4.172   4.276 -0.2638 -0.3092  0.1408
17155SOL     OW52514   3.417   4.594   4.379 -0.2700  0.1151  0.0851
17155SOL    HW152515   3.432   4.667   4.440  1.3619 -0.2362  0.1412
17155SOL    HW252516   3.334   4.616   4.336 -0.1748  1.6426  0.6078
17156SOL     OW52517   0.924   7.608   2.348  0.1959 -0.0899  0.8542
17156SOL    HW152518   0.839   7.653   2.353  0.6076  1.0826 -1.4114
17156SOL    HW252519   0.987   7.673   2.379  0.5220  0.0129  0.0073
17157SOL     OW52520   1.426   0.768   3.329 -0.8436 -0.0053 -0.1155
17157SOL    HW152521   1.463   0.803   3.248 -0.9281 -0.0392 -0.1681
17157SOL    HW252522   1.354   0.713   3.301  0.1699 -1.3739 -0.1251
17158SOL     OW52523   0.009   5.417   4.287  0.3303  0.5314  0.6069
17158SOL    HW152524  -0.033   5.500   4.310 -0.3612  0.8704 -1.6122
17158SOL    HW252525  -0.061   5.352   4.295  0.3743  0.4802  0.5774
17159SOL     OW52526   6.147   6.523   1.723 -0.6401 -1.0452  0.2309
17159SOL    HW152527   6.163   6.552   1.633  0.7109 -2.6264 -0.0846
17159SOL    HW252528   6.183   6.593   1.777 -1.5634 -0.0283 -0.4222
17160SOL     OW52529   5.181   0.999   5.816 -0.2869  0.2346 -0.4547
17160SOL    HW152530   5.176   0.938   5.742  3.0418  0.8966 -1.3873
17160SOL    HW252531   5.271   1.029   5.816 -1.7071  5.3395 -0.1273
17161SOL     OW52532   3.392   6.072   0.941  0.2396 -0.7311  0.2188
17161SOL    HW152533   3.368   5.981   0.960  0.4289 -1.1951 -1.5900
17161SOL    HW252534   3.452   6.097   1.012  1.1654 -2.4287  0.0706
17162SOL     OW52535   6.455   0.886   4.940  0.1053  0.0196 -0.1045
17162SOL    HW152536   6.535   0.890   4.887 -0.0875  0.9359 -0.3513
17162SOL    HW252537   6.386   0.865   4.878  0.1376 -0.6830  0.0938
17163SOL     OW52538   2.766   0.617   5.938  0.2057  0.3427 -0.1497
17163SOL    HW152539   2.824   0.554   5.895 -2.6947 -1.9061 -1.0666
17163SOL    HW252540   2.729   0.569   6.012 -2.7816  0.5133 -1.4023
17164SOL     OW52541   6.941   7.941   1.051  0.1482  0.4771 -0.7012
17164SOL    HW152542   6.995   8.019   1.039 -0.1968  1.1619  1.6851
17164SOL    HW252543   6.950   7.893   0.969  1.8405  2.1133 -1.5543
17165SOL     OW52544   8.247   5.948   7.731  0.1529  0.5990  0.0391
17165SOL    HW152545   8.189   5.980   7.661  0.0598  1.1494  0.3622
17165SOL    HW252546   8.250   5.854   7.718 -0.7831  0.5666 -0.0090
17166SOL     OW52547   7.354   1.814   5.974  0.2924  0.7439 -0.1165
17166SOL    HW152548   7.436   1.823   5.925  1.1545 -0.7696  0.9773
17166SOL    HW252549   7.288   1.855   5.917  1.8516  2.4307 -0.7993
17167SOL     OW52550   4.857   1.444   0.184  0.2854  0.2928  0.0171
17167SOL    HW152551   4.934   1.443   0.127 -0.2526 -0.5975 -0.7342
17167SOL    HW252552   4.892   1.436   0.272  1.0731  0.2657 -0.2852
17168SOL     OW52553   3.646   7.273   2.873 -0.2551 -0.8802  0.3779
17168SOL    HW152554   3.679   7.318   2.951 -0.4604 -0.3899  0.1851
17168SOL    HW252555   3.640   7.181   2.899  3.3114 -1.4240 -0.2302
17169SOL     OW52556   3.489   7.125   6.469 -0.1728  0.4621  0.1054
17169SOL    HW152557   3.465   7.110   6.378 -0.7556  0.2002  0.2916
17169SOL    HW252558   3.572   7.173   6.466  0.1530 -0.1385 -0.5514
17170SOL     OW52559   3.740   3.452   0.844  0.7465 -0.6454 -0.5281
17170SOL    HW152560   3.818   3.472   0.792  0.6874  2.5983  0.4370
17170SOL    HW252561   3.772   3.438   0.933  0.4181 -1.8256 -0.5729
17171SOL     OW52562   3.267   2.811   0.215  0.1600 -0.0500  0.3440
17171SOL    HW152563   3.316   2.753   0.273 -0.9057  0.5251  1.8866
17171SOL    HW252564   3.180   2.773   0.210  0.1369  0.1014 -0.6218
17172SOL     OW52565   6.478   2.453   0.737 -0.3941  0.2025 -0.0456
17172SOL    HW152566   6.412   2.395   0.699  0.2250 -0.0406 -0.7895
17172SOL    HW252567   6.562   2.413   0.713  0.0324  0.8259  0.3633
17173SOL     OW52568   1.408   8.213   3.121  0.1342  0.7193 -0.2289
17173SOL    HW152569   1.365   8.232   3.037 -0.7113  0.6427  0.1773
17173SOL    HW252570   1.496   8.250   3.112 -0.2218  1.4313 -0.8481
17174SOL     OW52571   0.856   6.079   2.523  0.1773 -0.6225  0.2221
17174SOL    HW152572   0.915   6.040   2.459 -0.6736 -0.4787 -0.6596
17174SOL    HW252573   0.770   6.046   2.501  0.0471 -1.8475  2.2805
17175SOL     OW52574   7.977   7.427   7.880 -0.1163 -0.3781  0.6010
17175SOL    HW152575   7.960   7.507   7.832  1.3621 -1.4104 -1.8146
17175SOL    HW252576   8.027   7.455   7.957  1.3355  0.9476 -0.7626
17176SOL     OW52577   6.952   6.914   3.653 -0.2561  0.7826  0.3643
17176SOL    HW152578   7.007   6.904   3.731  0.2132 -1.8728 -0.2308
17176SOL    HW252579   6.964   7.006   3.628  1.7991  0.9900  1.8255
17177SOL     OW52580   6.501   6.883   5.759 -0.2136  0.3902  0.4480
17177SOL    HW152581   6.438   6.881   5.831 -0.1179  0.6043  0.5391
17177SOL    HW252582   6.540   6.970   5.764 -1.4572  1.0635 -0.9506
17178SOL     OW52583   6.624   0.568   1.112 -0.4775  0.4165  0.1181
17178SOL    HW152584   6.547   0.557   1.167 -1.5745  2.5037 -0.8739
17178SOL    HW252585   6.591   0.561   1.022  0.8943 -0.7461 -0.3408
17179SOL     OW52586   4.481   4.937   5.840 -0.1522  0.1227  0.0507
17179SOL    HW152587   4.535   5.015   5.829 -2.0354  1.8618  2.2179
17179SOL    HW252588   4.493   4.888   5.758  2.8489  1.4944 -0.4746
17180SOL     OW52589   7.611   1.693   2.491  0.0848  0.2216  0.2893
17180SOL    HW152590   7.573   1.703   2.578 -1.0190  0.2914 -0.1902
17180SOL    HW252591   7.693   1.743   2.495  0.6515 -0.7555  1.6368
17181SOL     OW52592   1.014   3.508   8.146 -0.0278  1.0364 -0.5053
17181SOL    HW152593   1.083   3.451   8.114 -0.5985 -1.3428  2.0936
17181SOL    HW252594   0.957   3.450   8.197 -2.0762  3.5178  0.2278
17182SOL     OW52595   7.005   5.019   6.135  0.8597  0.1918  0.4290
17182SOL    HW152596   7.078   5.047   6.080  0.4963 -0.5689 -0.4568
17182SOL    HW252597   6.937   5.085   6.120  1.2772  0.7982  1.1150
17183SOL     OW52598   6.810   8.222   6.115  0.1293 -0.5108 -0.1009
17183SOL    HW152599   6.857   8.237   6.196 -0.6034 -0.6543  0.3619
17183SOL    HW252600   6.877   8.223   6.047  0.4651  2.2292  0.1625
17184SOL     OW52601   7.512   1.376   1.520 -0.1589 -0.5904 -0.5393
17184SOL    HW152602   7.566   1.357   1.596 -1.5201 -0.0835  0.5845
17184SOL    HW252603   7.506   1.292   1.473 -0.0681 -1.1347  0.4036
17185SOL     OW52604   5.297   1.132   1.222  0.6042 -0.3739 -0.3273
17185SOL    HW152605   5.214   1.162   1.185 -2.2137 -2.4031  3.6033
17185SOL    HW252606   5.308   1.183   1.302  3.6260  0.2717 -1.0112
17186SOL     OW52607   3.826   6.958   3.529  0.0215 -0.4001  0.1718
17186SOL    HW152608   3.880   6.947   3.608 -0.5304 -1.4435  0.4157
17186SOL    HW252609   3.881   7.009   3.470  0.7603 -0.2950  0.9245
17187SOL     OW52610   6.829   4.412   5.920  0.5747 -0.6365 -0.2555
17187SOL    HW152611   6.749   4.365   5.897  0.1372 -0.5272  0.9947
17187SOL    HW252612   6.849   4.464   5.841 -1.1192  0.0637 -0.2696
17188SOL     OW52613   7.504   2.591   3.500 -0.2218  0.2845  0.7101
17188SOL    HW152614   7.529   2.599   3.592 -1.0688  0.4969  0.9309
17188SOL    HW252615   7.524   2.677   3.462  1.4237 -0.2197  0.3462
17189SOL     OW52616   2.348   5.225   1.491  0.2694 -0.6084  0.9244
17189SOL    HW152617   2.423   5.285   1.501 -1.3642  2.6401 -3.4312
17189SOL    HW252618   2.377   5.160   1.428 -0.5928  1.0907 -1.3528
17190SOL     OW52619   4.430   6.704   5.607 -0.2567 -0.3943 -0.3926
17190SOL    HW152620   4.457   6.716   5.697 -0.4539  1.1583 -0.5166
17190SOL    HW252621   4.404   6.792   5.577  0.0422 -0.8211 -2.0253
17191SOL     OW52622   2.746   0.361   5.256  0.6837 -0.2933  0.0465
17191SOL    HW152623   2.802   0.437   5.275 -0.9078  1.4784 -1.8835
17191SOL    HW252624   2.790   0.316   5.184  1.2944 -0.8714  0.7620
17192SOL     OW52625   7.535   4.322   4.799 -0.2660  0.2571 -0.3286
17192SOL    HW152626   7.534   4.335   4.894 -0.0381  0.9933 -0.4206
17192SOL    HW252627   7.518   4.228   4.787 -1.1426  0.3058  0.4086
17193SOL     OW52628   1.547   4.314   1.132 -0.0886  0.3873  0.5371
17193SOL    HW152629   1.559   4.391   1.188  0.9639 -0.2549  1.2378
17193SOL    HW252630   1.634   4.274   1.127 -0.8725 -1.5734  1.4328
17194SOL     OW52631   6.780   7.135   3.301 -0.8057  0.5398 -0.7168
17194SOL    HW152632   6.853   7.080   3.272 -1.2696 -2.2218  2.7834
17194SOL    HW252633   6.816   7.185   3.375 -2.4256 -1.1281  1.2939
17195SOL     OW52634   2.335   6.402   6.991 -0.0031 -0.0895  0.6914
17195SOL    HW152635   2.414   6.348   6.982  0.0513  0.2549 -1.1672
17195SOL    HW252636   2.368   6.487   7.021  0.7162  0.8276 -2.3507
17196SOL     OW52637   4.753   1.569   5.165 -0.5518 -0.0851  0.0782
17196SOL    HW152638   4.756   1.485   5.120 -0.6794 -0.3769  0.6154
17196SOL    HW252639   4.842   1.604   5.157 -0.4791 -0.3054 -0.0734
17197SOL     OW52640   5.009   0.614   5.091  0.5661 -0.4162 -0.7380
17197SOL    HW152641   5.050   0.678   5.149  3.8215 -2.6442 -0.2873
17197SOL    HW252642   4.916   0.618   5.112  1.1897  1.1309  2.3134
17198SOL     OW52643   1.885   3.651   4.800 -0.3336  0.4413  0.1154
17198SOL    HW152644   1.855   3.561   4.810  0.1106  0.3132  0.3148
17198SOL    HW252645   1.938   3.650   4.720  0.1675  0.3918  0.4459
17199SOL     OW52646   1.319   3.792   7.841  0.2426 -0.1157 -0.7695
17199SOL    HW152647   1.307   3.885   7.860 -2.5226 -0.7745  1.2917
17199SOL    HW252648   1.231   3.760   7.824  1.1685 -2.3615 -1.6672
17200SOL     OW52649   5.187   0.558   0.665 -0.2997  0.3289 -0.1934
17200SOL    HW152650   5.178   0.633   0.724  0.5831  0.1642  0.1634
17200SOL    HW252651   5.279   0.532   0.672 -0.4796 -0.4886 -0.6823
17201SOL     OW52652   1.908   5.796   7.854  0.3307 -0.0551  0.2113
17201SOL    HW152653   1.957   5.850   7.916  2.8236  3.2032 -3.9441
17201SOL    HW252654   1.820   5.833   7.854  0.2937 -0.0881  1.6654
17202SOL     OW52655   4.125   7.681   6.760 -0.7073 -0.3897 -0.2699
17202SOL    HW152656   4.142   7.772   6.785  1.5704 -1.1622  1.3165
17202SOL    HW252657   4.189   7.630   6.809 -1.2557 -2.8006 -1.8712
17203SOL     OW52658   5.571   4.965   2.540  0.9267 -0.3331 -0.0052
17203SOL    HW152659   5.620   4.959   2.622  0.1734  1.9509  0.6707
17203SOL    HW252660   5.486   4.999   2.565 -0.8509 -3.4542 -1.2673
17204SOL     OW52661   1.508   2.694   4.946  0.6918 -0.2503 -0.4171
17204SOL    HW152662   1.482   2.712   4.856  0.7910  0.3464 -0.3303
17204SOL    HW252663   1.474   2.606   4.964 -1.8379  0.7189 -0.0820
17205SOL     OW52664   2.136   3.953   3.004 -0.4743 -0.7530  0.2587
17205SOL    HW152665   2.102   3.910   2.925 -1.2700  0.9033 -0.3390
17205SOL    HW252666   2.077   4.027   3.018  2.4694  1.9337 -0.4613
17206SOL     OW52667   6.928   0.613   8.210 -0.5214 -0.2561  0.5433
17206SOL    HW152668   6.996   0.673   8.240  0.2193 -1.9001  2.3368
17206SOL    HW252669   6.856   0.625   8.271 -1.0759  0.0753 -0.1699
17207SOL     OW52670   1.711   5.135   2.253 -0.6382  0.2204 -0.1150
17207SOL    HW152671   1.749   5.178   2.177 -1.5053  0.4215 -0.4569
17207SOL    HW252672   1.743   5.185   2.328 -0.0326  0.2154 -0.3699
17208SOL     OW52673   2.279   4.620   2.225 -0.6052 -0.4422  0.1003
17208SOL    HW152674   2.295   4.618   2.131  0.4742  0.8763  0.2240
17208SOL    HW252675   2.183   4.625   2.233 -0.6727  0.2444 -0.9646
17209SOL     OW52676   3.858   0.227   4.058 -0.2623  0.3651 -0.5227
17209SOL    HW152677   3.891   0.214   4.147  1.3821  2.6687 -0.6990
17209SOL    HW252678   3.770   0.263   4.070 -0.6145 -0.6721  0.1066
17210SOL     OW52679   6.561   6.297   1.135 -0.0527  0.8492  0.1537
17210SOL    HW152680   6.631   6.241   1.167 -0.2299 -0.0269 -0.9325
17210SOL    HW252681   6.575   6.381   1.180  1.3918  0.5452  0.3204
17211SOL     OW52682   3.018   1.627   2.191 -0.3386  0.1267 -0.8807
17211SOL    HW152683   2.974   1.551   2.230  2.0283 -0.6703  0.4775
17211SOL    HW252684   2.996   1.700   2.249 -0.9046  0.0323 -0.9686
17212SOL     OW52685   3.422   4.506   1.627  0.3604 -0.0090 -0.3008
17212SOL    HW152686   3.469   4.525   1.546 -0.9469 -0.8269 -1.2950
17212SOL    HW252687   3.330   4.507   1.601 -0.0436 -1.1332  1.0032
17213SOL     OW52688   7.843   6.541   4.215 -0.6227  0.0161  0.3692
17213SOL    HW152689   7.912   6.577   4.271 -0.8385  2.5109 -0.8503
17213SOL    HW252690   7.890   6.493   4.147 -0.2181 -0.2817  0.8494
17214SOL     OW52691   7.510   7.124   1.128 -0.3210 -0.0930  0.1691
17214SOL    HW152692   7.547   7.188   1.067 -1.9306  1.3868  0.6463
17214SOL    HW252693   7.415   7.136   1.120 -0.6544 -2.0157  0.7395
17215SOL     OW52694   4.069   7.501   6.372  0.8688  0.7563 -0.1658
17215SOL    HW152695   4.149   7.469   6.413 -0.3904 -0.1859  1.6313
17215SOL    HW252696   4.018   7.538   6.443 -0.9489  0.0036 -1.0101
17216SOL     OW52697   7.351   1.544   3.018 -0.2187  0.3588  0.1994
17216SOL    HW152698   7.358   1.637   2.998 -1.7552  0.5708  0.5376
17216SOL    HW252699   7.442   1.513   3.021  0.2913  1.7016 -0.5211
17217SOL     OW52700   0.828   0.991   0.579 -0.5416  0.1589  0.6653
17217SOL    HW152701   0.819   0.917   0.519 -1.5457 -1.7780  3.0246
17217SOL    HW252702   0.900   0.965   0.638  0.2716  1.8963  0.4833
17218SOL     OW52703   2.655   3.797   0.959 -0.0859  0.1928 -0.4413
17218SOL    HW152704   2.651   3.759   1.047  1.7351  0.8264 -0.0306
17218SOL    HW252705   2.644   3.891   0.974 -1.2962  0.1643 -1.0783
17219SOL     OW52706   6.179   4.459   2.478  0.1462 -0.5963  0.3366
17219SOL    HW152707   6.105   4.495   2.528  0.0890 -1.9625  1.2696
17219SOL    HW252708   6.240   4.428   2.544  2.1424  1.5253 -0.3867
17220SOL     OW52709   1.352   4.989   2.886  0.2645  0.1742  0.3331
17220SOL    HW152710   1.339   5.003   2.793  0.6551 -0.4684  0.1737
17220SOL    HW252711   1.447   5.000   2.899  0.7319 -2.6601  0.0921
17221SOL     OW52712   4.992   4.866   6.073  0.2012 -0.3721  0.7374
17221SOL    HW152713   4.926   4.817   6.121  0.3153 -0.2005  1.0716
17221SOL    HW252714   4.945   4.942   6.037 -0.2753 -1.3951 -0.8982
17222SOL     OW52715   2.341   2.819   3.271 -0.0540 -0.1180 -0.6802
17222SOL    HW152716   2.311   2.868   3.194  1.1260  0.4594 -0.8022
17222SOL    HW252717   2.307   2.730   3.258 -2.5508  0.7073 -0.2750
17223SOL     OW52718   3.612   2.321   3.982  0.5200 -0.0271 -0.0542
17223SOL    HW152719   3.588   2.266   4.056 -1.1249 -0.3500 -0.7889
17223SOL    HW252720   3.676   2.269   3.933 -1.8852 -1.9185 -1.3918
17224SOL     OW52721   3.462   1.570   7.047 -0.2815  0.2233  0.3440
17224SOL    HW152722   3.494   1.529   7.127 -0.4725 -0.8490 -0.1213
17224SOL    HW252723   3.471   1.664   7.064 -0.3996  0.0191  1.6499
17225SOL     OW52724   2.335   2.573   4.575  0.4782  0.5452  0.3982
17225SOL    HW152725   2.428   2.585   4.593  0.2570  3.3142  0.2210
17225SOL    HW252726   2.310   2.653   4.527 -2.2275  0.4968  1.5563
17226SOL     OW52727   4.409   2.737   7.594  0.5352 -0.6822  0.0991
17226SOL    HW152728   4.462   2.764   7.519  1.9958 -0.8363  1.0343
17226SOL    HW252729   4.353   2.666   7.561  2.3389 -1.8999 -0.4708
17227SOL     OW52730   2.501   6.618   2.602  0.3562  0.3558 -0.3199
17227SOL    HW152731   2.413   6.596   2.631 -0.6170  2.5590 -1.4106
17227SOL    HW252732   2.520   6.554   2.533  0.4584 -1.3583  1.2133
17228SOL     OW52733   1.018   2.024   0.377  0.1696 -0.2193  0.1865
17228SOL    HW152734   1.104   2.026   0.334 -0.2198 -0.5997 -0.6290
17228SOL    HW252735   1.038   2.033   0.471  1.1324 -0.7020  0.0437
17229SOL     OW52736   4.585   5.065   7.705 -0.0493  0.0368 -0.1927
17229SOL    HW152737   4.643   4.995   7.676  0.1981  0.4993 -0.8282
17229SOL    HW252738   4.614   5.142   7.657 -0.1580  0.6429  0.6814
17230SOL     OW52739   5.887   4.489   3.766 -0.1263  0.1237  0.0870
17230SOL    HW152740   5.801   4.490   3.724  0.6747 -1.9475 -1.8418
17230SOL    HW252741   5.874   4.533   3.849 -3.6834 -2.2917  1.0423
17231SOL     OW52742   7.262   6.347   7.616 -0.7500  0.3154  0.2200
17231SOL    HW152743   7.184   6.396   7.641 -0.5758  0.6782  0.0530
17231SOL    HW252744   7.282   6.377   7.527  1.0607  2.1277  1.1625
17232SOL     OW52745   6.661   6.445   7.861 -0.2626  0.1401 -0.2104
17232SOL    HW152746   6.728   6.418   7.797  0.8498  0.3654  0.8271
17232SOL    HW252747   6.601   6.371   7.865  0.0937 -0.2059 -0.9264
17233SOL     OW52748   2.464   4.771   5.507  0.1042 -0.0004  0.2350
17233SOL    HW152749   2.485   4.863   5.527 -0.3847  0.0922  0.3306
17233SOL    HW252750   2.386   4.753   5.558 -0.5725 -0.0769 -0.7946
17234SOL     OW52751   4.348   7.139   8.057  0.5390 -0.3483  0.0177
17234SOL    HW152752   4.401   7.178   8.127 -2.0809  2.8335  0.4573
17234SOL    HW252753   4.275   7.097   8.103  0.3792 -0.9092 -0.7206
17235SOL     OW52754   6.652   3.099   2.077 -0.0802 -0.4116 -0.0228
17235SOL    HW152755   6.680   3.142   2.158  1.4902 -1.1910 -0.0988
17235SOL    HW252756   6.590   3.032   2.105 -3.5346  2.4957 -0.0031
17236SOL     OW52757   5.698   8.164   0.466 -0.1219 -0.1900  0.3691
17236SOL    HW152758   5.758   8.227   0.507 -0.2167  0.0818  0.0975
17236SOL    HW252759   5.612   8.203   0.478 -0.2876 -0.7474  1.0624
17237SOL     OW52760   4.653   5.778   6.256 -0.1793 -0.5435 -0.1217
17237SOL    HW152761   4.637   5.865   6.221  2.5120 -0.0142 -0.2850
17237SOL    HW252762   4.672   5.793   6.349  0.3306 -0.9234 -0.1597
17238SOL     OW52763   8.099   6.245   3.808 -0.2978  0.1040 -0.4472
17238SOL    HW152764   8.100   6.335   3.775  1.3459  0.3238  0.0929
17238SOL    HW252765   8.077   6.192   3.732  0.5296  0.8271 -1.2178
17239SOL     OW52766   2.405   7.364   1.217 -0.3504  0.6020 -0.1385
17239SOL    HW152767   2.484   7.362   1.269 -1.0963  2.7165  1.2313
17239SOL    HW252768   2.415   7.441   1.161 -0.8855  0.1290 -0.9168
17240SOL     OW52769   3.774   7.992   1.187  0.3700 -0.0311 -0.2428
17240SOL    HW152770   3.741   7.903   1.197  1.3267 -0.2649  1.1354
17240SOL    HW252771   3.711   8.035   1.129 -0.6252 -1.3269 -0.1583
17241SOL     OW52772   5.600   7.366   6.996 -0.9908 -0.3029  0.5203
17241SOL    HW152773   5.578   7.432   6.931  4.0721  1.8778  0.5380
17241SOL    HW252774   5.642   7.295   6.947 -1.1054 -0.7402  1.0333
17242SOL     OW52775   5.310   4.562   3.326 -0.6564 -0.3220 -0.0122
17242SOL    HW152776   5.277   4.478   3.294 -1.0662  0.1524 -0.8635
17242SOL    HW252777   5.403   4.561   3.305 -0.6442 -0.5942  0.0539
17243SOL     OW52778   2.030   6.439   6.746  0.0672  0.3708  0.2218
17243SOL    HW152779   2.038   6.397   6.661 -0.9345  0.4866  0.0584
17243SOL    HW252780   2.094   6.509   6.745  1.5248 -0.9089  0.3593
17244SOL     OW52781   6.795   1.352   1.779 -0.0821  0.2928 -0.2412
17244SOL    HW152782   6.772   1.361   1.872  0.1826  0.2561 -0.1708
17244SOL    HW252783   6.874   1.405   1.769  0.8071 -0.9522 -0.0951
17245SOL     OW52784   0.563   1.428   3.639  0.0303 -0.5007  0.5247
17245SOL    HW152785   0.519   1.373   3.574 -0.3199  0.3225  0.0475
17245SOL    HW252786   0.543   1.517   3.612  0.1379 -0.1369  1.6038
17246SOL     OW52787   4.937   6.195   1.062 -0.0914 -0.7140  0.4774
17246SOL    HW152788   4.916   6.122   1.003 -0.9736 -0.0547 -0.0565
17246SOL    HW252789   4.860   6.252   1.057  0.8619  0.5950  0.3431
17247SOL     OW52790   7.221   7.011   6.732 -0.7520 -0.3645 -0.0825
17247SOL    HW152791   7.208   6.916   6.736  1.9773 -0.7996  1.5730
17247SOL    HW252792   7.139   7.048   6.763 -1.2249 -2.2818  1.1492
17248SOL     OW52793   4.581   4.918   4.754  0.1765  0.3175  0.3831
17248SOL    HW152794   4.627   4.920   4.837  2.1038 -0.0729 -0.6123
17248SOL    HW252795   4.608   4.999   4.710 -1.2460  0.7875  0.3336
17249SOL     OW52796   2.002   1.197   0.782 -0.0826  0.2576 -0.1221
17249SOL    HW152797   2.075   1.221   0.725  0.9172  0.1599  1.0629
17249SOL    HW252798   1.926   1.191   0.724  0.0662  3.8301 -0.9345
17250SOL     OW52799   4.960   2.921   2.373  0.2837 -0.3543 -0.1388
17250SOL    HW152800   4.961   3.009   2.411  3.0298 -0.4118  0.1369
17250SOL    HW252801   4.928   2.935   2.283 -2.3994  0.3702  0.8433
17251SOL     OW52802   4.284   1.412   0.670 -0.4991  0.2741  0.3670
17251SOL    HW152803   4.316   1.352   0.602  0.0031 -1.6046  2.1604
17251SOL    HW252804   4.189   1.413   0.659 -0.3123  3.3104 -2.9097
17252SOL     OW52805   0.041   1.397   6.449  0.5306  0.0495  0.0787
17252SOL    HW152806   0.058   1.386   6.355 -0.6485 -2.1989  0.0719
17252SOL    HW252807  -0.005   1.317   6.475 -0.5486  1.2805  2.2626
17253SOL     OW52808   1.317   3.942   3.704 -0.3283 -0.4914 -0.4645
17253SOL    HW152809   1.295   3.987   3.786  1.4320  1.9370 -1.2241
17253SOL    HW252810   1.281   3.998   3.636  1.3181 -0.5552 -1.4300
17254SOL     OW52811   0.742   2.517   3.913 -0.1651 -0.5968  0.0231
17254SOL    HW152812   0.741   2.478   4.000 -0.1619 -1.0994 -0.1988
17254SOL    HW252813   0.785   2.602   3.925 -0.3420 -0.5794  0.5444
17255SOL     OW52814   7.513   6.950   4.616 -0.0968 -0.3878  0.2968
17255SOL    HW152815   7.480   6.910   4.697  1.5843 -0.6987  0.8606
17255SOL    HW252816   7.447   7.016   4.594 -2.5454 -2.7706 -0.1738
17256SOL     OW52817   7.326   8.191   1.950  0.3383  0.2510  0.2452
17256SOL    HW152818   7.327   8.100   1.919 -0.8953  0.9045 -1.9420
17256SOL    HW252819   7.242   8.225   1.922  0.4251  1.8711  1.7723
17257SOL     OW52820   0.758   2.720   6.067 -0.1508 -0.4262 -0.0867
17257SOL    HW152821   0.795   2.756   5.987 -0.8805  1.4575  0.3635
17257SOL    HW252822   0.831   2.717   6.129 -0.1880  0.8501  0.0335
17258SOL     OW52823   8.171   6.877   3.967  0.7613 -0.3481 -0.6031
17258SOL    HW152824   8.154   6.785   3.945  1.2175 -0.3372 -1.0414
17258SOL    HW252825   8.089   6.909   4.004  0.8675 -1.1695  0.3702
17259SOL     OW52826   1.972   6.290   4.550  0.0713  0.8207  0.1100
17259SOL    HW152827   2.064   6.288   4.523  0.1112 -2.0099  0.1554
17259SOL    HW252828   1.931   6.354   4.492  1.6228  0.3735 -1.5585
17260SOL     OW52829   2.675   5.000   0.875  0.2943  0.3877  0.7359
17260SOL    HW152830   2.598   5.050   0.904 -0.8972 -0.6779 -0.4558
17260SOL    HW252831   2.743   5.066   0.861  0.3859  1.1745  3.9358
17261SOL     OW52832   1.304   7.430   8.241  0.2346 -0.1401 -0.1769
17261SOL    HW152833   1.282   7.503   8.299  2.3244  1.0219 -0.7567
17261SOL    HW252834   1.236   7.365   8.258 -2.0560  2.1078 -0.0065
17262SOL     OW52835   4.913   5.162   1.893 -0.1725 -0.2055  0.1421
17262SOL    HW152836   4.986   5.203   1.939 -1.7996 -1.4028  4.2470
17262SOL    HW252837   4.941   5.158   1.802  3.6015  2.0054  1.0033
17263SOL     OW52838   0.605   4.916   3.103  0.1006  0.1077  0.7921
17263SOL    HW152839   0.610   4.825   3.131  0.5447  0.4146  1.7144
17263SOL    HW252840   0.653   4.918   3.020  0.1360 -0.4753  0.7936
17264SOL     OW52841   7.150   3.528   5.566  0.3764 -0.1570 -0.3846
17264SOL    HW152842   7.168   3.449   5.515  0.1934 -0.1057 -0.5268
17264SOL    HW252843   7.130   3.495   5.654 -1.0937 -0.3686 -0.7776
17265SOL     OW52844   1.566   7.330   3.918  0.1151 -0.0454  0.2783
17265SOL    HW152845   1.576   7.421   3.890 -1.2128 -0.6531 -2.5698
17265SOL    HW252846   1.479   7.327   3.958 -1.7993 -0.7074 -3.4682
17266SOL     OW52847   1.351   0.597   6.419  0.0247  0.0909 -0.1102
17266SOL    HW152848   1.442   0.585   6.445  0.2217 -1.4948 -1.3511
17266SOL    HW252849   1.336   0.529   6.352 -1.6291  1.2610 -1.0022
17267SOL     OW52850   7.807   5.137   2.322 -0.1326 -0.1753 -0.0795
17267SOL    HW152851   7.891   5.093   2.337  0.1342  0.0385 -0.8654
17267SOL    HW252852   7.750   5.104   2.391  0.7956  0.2167  0.9002
17268SOL     OW52853   4.169   3.201   4.864  0.3131  0.0970 -0.1756
17268SOL    HW152854   4.165   3.217   4.769 -1.2569  0.2827 -0.1061
17268SOL    HW252855   4.249   3.245   4.892 -0.4694  2.2136 -1.0381
17269SOL     OW52856   2.840   5.141   6.754  0.0428 -0.4553  0.3693
17269SOL    HW152857   2.784   5.109   6.825  1.0863 -0.4435  1.2314
17269SOL    HW252858   2.929   5.126   6.786  0.5345  0.6532 -0.4363
17270SOL     OW52859   6.810   2.755   3.674  0.0405 -0.0349 -0.0695
17270SOL    HW152860   6.819   2.749   3.579  0.8776  0.8158 -0.0615
17270SOL    HW252861   6.719   2.782   3.688  0.6418  2.7409 -0.8132
17271SOL     OW52862   3.118   4.158   7.729  0.2961 -0.2654 -0.1511
17271SOL    HW152863   3.067   4.215   7.671 -0.4454  0.4205  1.1444
17271SOL    HW252864   3.112   4.072   7.688 -2.0115 -0.2391  0.0037
17272SOL     OW52865   4.800   5.357   4.705 -0.1690 -0.1334 -0.3057
17272SOL    HW152866   4.779   5.448   4.685 -0.2758  0.2933  1.5492
17272SOL    HW252867   4.822   5.358   4.799 -0.9318 -2.1322 -0.0577
17273SOL     OW52868   6.430   2.281   5.282 -0.3701  0.2529  0.2066
17273SOL    HW152869   6.427   2.377   5.278 -0.3477  0.2551  0.2436
17273SOL    HW252870   6.372   2.259   5.354 -1.0563  0.1945 -0.3496
17274SOL     OW52871   1.571   7.959   1.255 -0.8309  0.1831 -0.2468
17274SOL    HW152872   1.643   7.897   1.261  0.2644  1.3560 -0.8242
17274SOL    HW252873   1.513   7.923   1.187 -0.7090 -0.6590  0.0794
17275SOL     OW52874   0.656   7.690   2.304  0.1719 -0.3126  0.3248
17275SOL    HW152875   0.595   7.621   2.276  0.8207 -1.2570  1.2077
17275SOL    HW252876   0.632   7.709   2.394  1.1235 -0.6240  0.6525
17276SOL     OW52877   6.188   3.177   3.622 -0.3927  0.3347 -0.3462
17276SOL    HW152878   6.172   3.105   3.561 -1.4629  1.6269 -1.6547
17276SOL    HW252879   6.279   3.203   3.604 -0.1558 -0.3699 -0.1967
17277SOL     OW52880   4.915   2.776   1.679 -0.5593 -0.0830  0.8905
17277SOL    HW152881   4.999   2.816   1.700 -1.5812  1.4880  2.1978
17277SOL    HW252882   4.881   2.746   1.763 -0.8911 -1.6644  0.2461
17278SOL     OW52883   0.239   1.648   4.789 -0.1928  0.2490  0.3748
17278SOL    HW152884   0.266   1.702   4.863 -1.0364  0.8226  0.2682
17278SOL    HW252885   0.269   1.697   4.712 -1.4760  0.8921  0.2531
17279SOL     OW52886   3.516   0.826   1.905  0.4651 -0.0276  0.2558
17279SOL    HW152887   3.580   0.876   1.855 -0.0362  1.9486  1.5130
17279SOL    HW252888   3.555   0.818   1.993  1.2615 -3.2975 -0.2401
17280SOL     OW52889   2.670   7.762   7.444  0.2730  0.3043 -0.1438
17280SOL    HW152890   2.759   7.740   7.471  0.4985 -0.1888 -1.2094
17280SOL    HW252891   2.663   7.727   7.355 -0.9043  0.5578 -0.1696
17281SOL     OW52892   2.604   3.642   7.388 -0.0744  0.3402  0.6172
17281SOL    HW152893   2.667   3.576   7.418 -0.0817  0.5485  1.0946
17281SOL    HW252894   2.519   3.610   7.419 -0.3130 -0.2780 -0.5787
17282SOL     OW52895   5.496   2.910   2.996 -0.3264 -0.1072 -0.6857
17282SOL    HW152896   5.403   2.934   2.992 -0.0915  0.9703 -0.1202
17282SOL    HW252897   5.531   2.935   2.911 -0.0911  1.6601 -0.1159
17283SOL     OW52898   3.209   1.852   4.750  0.1692  0.0161  0.2848
17283SOL    HW152899   3.186   1.767   4.788  0.1207  0.8134  2.1859
17283SOL    HW252900   3.222   1.909   4.826 -0.1608  1.8090 -0.9344
17284SOL     OW52901   6.086   1.556   7.678  0.3795 -0.9074 -0.2416
17284SOL    HW152902   6.168   1.560   7.727 -0.4991 -1.5849  1.3513
17284SOL    HW252903   6.052   1.468   7.696 -1.0701 -0.3638 -0.2660
17285SOL     OW52904   5.754   1.602   4.995  0.3728  0.0181 -0.1990
17285SOL    HW152905   5.730   1.648   5.075 -0.0784 -2.4137  1.1804
17285SOL    HW252906   5.671   1.566   4.963  0.4939  1.1850 -1.9836
17286SOL     OW52907   4.625   7.364   4.738  0.1279 -0.1498  0.1683
17286SOL    HW152908   4.651   7.431   4.801  0.6172  0.8098 -0.9893
17286SOL    HW252909   4.531   7.377   4.726  0.6054  2.1933 -1.9914
17287SOL     OW52910   5.568   6.340   3.069  0.4329 -0.5185  0.2329
17287SOL    HW152911   5.637   6.278   3.043  0.7654 -0.9238  1.9565
17287SOL    HW252912   5.602   6.381   3.149 -0.8305  0.1427  0.4494
17288SOL     OW52913   0.593   7.454   4.249  0.2444 -0.0921  0.2962
17288SOL    HW152914   0.605   7.464   4.343 -0.5529  2.6858  0.1962
17288SOL    HW252915   0.501   7.430   4.239  0.1020  0.4817  0.2034
17289SOL     OW52916   0.519   6.152   3.004  0.0703  0.1996  0.1518
17289SOL    HW152917   0.543   6.233   2.959 -1.2066  0.3288 -0.3439
17289SOL    HW252918   0.589   6.090   2.983  0.3560  0.7678 -0.6002
17290SOL     OW52919   5.006   4.461   1.078 -0.3410 -0.6026  0.2224
17290SOL    HW152920   5.054   4.454   1.160  1.2628 -1.5334 -0.7394
17290SOL    HW252921   4.994   4.555   1.065  0.8238 -0.3722  0.7288
17291SOL     OW52922   6.267   8.023   5.081  0.1594  0.5365  0.7940
17291SOL    HW152923   6.223   7.938   5.080 -0.5133  0.7291 -3.0953
17291SOL    HW252924   6.198   8.085   5.106 -0.4575  0.3026 -0.2694
17292SOL     OW52925   7.148   5.036   3.265  0.1840  0.0102  0.2902
17292SOL    HW152926   7.079   4.979   3.232  0.3870  0.7131 -1.4640
17292SOL    HW252927   7.229   4.999   3.231  0.5217  0.1059  0.9769
17293SOL     OW52928   6.172   1.162   8.226  0.5487 -0.1385 -0.0401
17293SOL    HW152929   6.149   1.253   8.204 -0.2491 -0.0997  0.8837
17293SOL    HW252930   6.260   1.151   8.191 -0.5774 -0.0799 -3.1641
17294SOL     OW52931   2.618   7.743   4.407 -0.3592  0.0218  0.1347
17294SOL    HW152932   2.681   7.815   4.408  0.9887 -1.1339  0.3601
17294SOL    HW252933   2.650   7.684   4.339 -0.8930 -0.8486  0.6222
17295SOL     OW52934   0.764   6.240   1.445  0.2119 -0.4045  0.0518
17295SOL    HW152935   0.787   6.319   1.395  0.3297  0.4065  1.3340
17295SOL    HW252936   0.670   6.248   1.460  0.7085  1.3579  3.1181
17296SOL     OW52937   2.266   7.615   7.354  0.0410  0.0693  0.1287
17296SOL    HW152938   2.236   7.706   7.353  0.9974  0.4144 -1.7433
17296SOL    HW252939   2.325   7.608   7.279  0.0860 -2.0828  0.2926
17297SOL     OW52940   2.553   5.359   0.431  0.2982 -0.0692  0.0282
17297SOL    HW152941   2.608   5.353   0.509 -0.7735 -2.4408  0.7086
17297SOL    HW252942   2.606   5.407   0.367  2.4698 -0.7972  1.1886
17298SOL     OW52943   1.496   3.299   6.583 -0.7322 -0.0743 -0.2961
17298SOL    HW152944   1.481   3.278   6.675 -2.1739 -1.7344 -0.8670
17298SOL    HW252945   1.419   3.267   6.538 -0.1580  0.9288 -2.0845
17299SOL     OW52946   2.754   0.316   6.566 -0.0010 -0.4989 -0.0794
17299SOL    HW152947   2.743   0.291   6.658 -0.5748  1.0497  0.3043
17299SOL    HW252948   2.756   0.411   6.567  3.1344 -0.4238 -1.3456
17300SOL     OW52949   0.459   5.701   8.000  0.4335  0.2461  0.2164
17300SOL    HW152950   0.545   5.734   8.026  0.0676  3.2205 -1.8166
17300SOL    HW252951   0.477   5.639   7.929  0.9481 -0.4511  0.9418
17301SOL     OW52952   2.228   3.237   7.890 -0.3431  1.0595 -0.0448
17301SOL    HW152953   2.285   3.225   7.967 -0.9941  0.9743  0.4313
17301SOL    HW252954   2.260   3.173   7.826 -1.6429 -0.9702  1.2278
17302SOL     OW52955   3.900   0.151   3.274  0.2512 -0.0807  0.0954
17302SOL    HW152956   3.906   0.232   3.223  1.1156  0.8380  1.5710
17302SOL    HW252957   3.987   0.112   3.267  0.4204  0.1213  0.9292
17303SOL     OW52958   2.604   2.148   3.030 -0.2031  0.1561 -0.6181
17303SOL    HW152959   2.623   2.071   3.083  0.7363  0.2287 -0.8227
17303SOL    HW252960   2.688   2.171   2.990 -0.2708  1.7540  0.0768
17304SOL     OW52961   4.052   0.347   5.589  0.2847 -0.1918  0.4810
17304SOL    HW152962   4.098   0.402   5.653 -0.4351 -0.4328  1.2229
17304SOL    HW252963   3.984   0.302   5.640 -0.0893 -0.6464 -0.3924
17305SOL     OW52964   8.248   7.137   1.111 -0.6792 -0.0196  0.3181
17305SOL    HW152965   8.273   7.230   1.108  0.5182 -0.3370 -0.6835
17305SOL    HW252966   8.217   7.118   1.022 -2.1729 -0.2834  0.8638
17306SOL     OW52967   0.185   3.315   4.224 -0.1381  0.5515  0.4157
17306SOL    HW152968   0.125   3.269   4.283 -0.2163 -1.0058 -0.8101
17306SOL    HW252969   0.142   3.399   4.207 -0.9726  0.2970  1.1697
17307SOL     OW52970   1.199   4.325   4.378  0.4920 -0.2646 -0.0828
17307SOL    HW152971   1.114   4.286   4.357  0.3043 -0.4680  1.0107
17307SOL    HW252972   1.263   4.260   4.348  0.2723 -0.1329 -0.8633
17308SOL     OW52973   0.752   6.907   1.433 -0.0794  0.4567  0.1941
17308SOL    HW152974   0.716   6.995   1.433 -0.3140  0.4068 -2.0341
17308SOL    HW252975   0.845   6.919   1.453  0.3028  1.4684 -1.9342
17309SOL     OW52976   4.798   6.597   3.081  0.2525  0.0049  0.1975
17309SOL    HW152977   4.890   6.623   3.087  0.2092  0.1091  0.4252
17309SOL    HW252978   4.790   6.526   3.146  0.4418 -0.7887 -0.6227
17310SOL     OW52979   5.950   8.264   6.252  0.5597 -0.0464 -0.0497
17310SOL    HW152980   5.964   8.314   6.172  2.0993 -0.6054 -0.1616
17310SOL    HW252981   6.038   8.241   6.282 -0.0512 -3.2066 -0.3372
17311SOL     OW52982   1.868   7.430   3.685  0.1805 -0.3976  0.1973
17311SOL    HW152983   1.816   7.366   3.637  0.9978 -1.2149  0.3740
17311SOL    HW252984   1.883   7.390   3.771 -0.1072  0.4486  0.6518
17312SOL     OW52985   6.765   1.480   4.870  0.0421 -0.3397  0.1344
17312SOL    HW152986   6.709   1.501   4.796  0.0307 -0.6863  0.0449
17312SOL    HW252987   6.745   1.389   4.891 -0.1361 -0.1713  0.7203
17313SOL     OW52988   6.785   2.282   6.388 -0.3823 -0.3678  0.6365
17313SOL    HW152989   6.857   2.341   6.409  1.0039 -1.4286 -0.9041
17313SOL    HW252990   6.807   2.200   6.433 -0.0384 -1.0376 -0.7160
17314SOL     OW52991   2.958   6.529   5.045 -0.5186  0.6873  0.3028
17314SOL    HW152992   3.049   6.501   5.052  0.2646  2.9155  0.0882
17314SOL    HW252993   2.910   6.469   5.101  1.1317 -0.3822  0.6540
17315SOL     OW52994   4.135   4.061   1.289 -0.2082 -0.1684  0.8411
17315SOL    HW152995   4.063   4.076   1.229  0.6305  0.2388 -0.0927
17315SOL    HW252996   4.094   4.052   1.375 -1.3083  0.7738  0.4363
17316SOL     OW52997   2.605   5.996   0.411 -0.3873  0.1890  0.3014
17316SOL    HW152998   2.693   6.012   0.444 -0.4478 -0.0714  0.5867
17316SOL    HW252999   2.586   6.072   0.356  0.3024 -0.1052 -0.3582
17317SOL     OW53000   4.870   0.791   6.712  0.7042 -0.3546  0.7542
17317SOL    HW153001   4.775   0.807   6.717  0.5117 -1.4276  0.8732
17317SOL    HW253002   4.906   0.872   6.675 -0.5829 -0.8802 -1.9120
17318SOL     OW53003   2.648   7.541   2.844  0.5511 -0.5095 -0.1642
17318SOL    HW153004   2.692   7.623   2.822 -1.6220  0.9220  0.4158
17318SOL    HW253005   2.602   7.516   2.765 -0.9949  0.3999  0.3912
17319SOL     OW53006   3.959   2.824   4.738 -0.5870 -0.3014  0.1112
17319SOL    HW153007   4.015   2.867   4.674 -1.0554 -0.8088 -0.6712
17319SOL    HW253008   3.989   2.856   4.823 -0.9205  1.5563 -0.4254
17320SOL     OW53009   1.628   6.634   3.807  0.7929  0.4991  0.2465
17320SOL    HW153010   1.619   6.729   3.799 -0.2302  0.3095 -1.3666
17320SOL    HW253011   1.661   6.620   3.895  1.1319  2.3641  0.4496
17321SOL     OW53012   1.665   8.164   7.459 -0.3696  0.1738 -0.3531
17321SOL    HW153013   1.734   8.203   7.513 -0.9100 -1.2352  1.4430
17321SOL    HW253014   1.584   8.183   7.507 -0.7842 -1.7778 -0.2079
17322SOL     OW53015   2.923   5.346   3.066  0.2402 -0.1214  0.0170
17322SOL    HW153016   2.992   5.300   3.018 -0.1180 -0.6465  0.0045
17322SOL    HW253017   2.842   5.305   3.037  0.0636 -0.9495  1.6185
17323SOL     OW53018   3.007   2.746   0.136 -0.0922  0.3106 -0.0036
17323SOL    HW153019   2.949   2.807   0.089  1.2611  0.2870 -1.8024
17323SOL    HW253020   2.951   2.707   0.203 -1.8524  1.1255 -0.9284
17324SOL     OW53021   0.727   7.673   7.490  0.2809  0.2440 -0.4581
17324SOL    HW153022   0.652   7.687   7.548 -0.5455  0.3009 -1.5062
17324SOL    HW253023   0.765   7.591   7.518 -0.0400  0.3304  0.2386
17325SOL     OW53024   5.213   4.772   3.779 -0.0405 -0.1129 -0.1487
17325SOL    HW153025   5.305   4.798   3.779 -0.9197  3.4625 -0.7049
17325SOL    HW253026   5.207   4.707   3.709  1.8911  0.1677 -0.6463
17326SOL     OW53027   6.277   0.323   5.265 -0.1438  0.6977 -0.1902
17326SOL    HW153028   6.282   0.418   5.279 -1.5969  0.6759  0.6172
17326SOL    HW253029   6.366   0.298   5.241  0.3799  2.1827  0.1015
17327SOL     OW53030   0.933   8.007   3.631 -0.3364  0.1798 -0.2519
17327SOL    HW153031   0.918   8.092   3.672  0.6614 -0.4939  1.6233
17327SOL    HW253032   0.862   7.952   3.663 -0.1901 -0.0464 -0.3115
17328SOL     OW53033   3.172   0.535   6.310 -0.2700 -0.1289  0.3139
17328SOL    HW153034   3.198   0.457   6.360  2.2538  0.9948  0.8677
17328SOL    HW253035   3.146   0.501   6.224 -1.3981 -1.7602  1.2418
17329SOL     OW53036   5.192   8.125   8.219  0.2762 -0.4042  0.2972
17329SOL    HW153037   5.173   8.039   8.256 -2.3226 -1.5449 -3.0771
17329SOL    HW253038   5.259   8.109   8.153  0.9789  0.5309  0.7513
17330SOL     OW53039   3.129   4.898   5.368  0.4521 -0.1685  0.2311
17330SOL    HW153040   3.067   4.967   5.345 -0.5636 -0.7672  1.1293
17330SOL    HW253041   3.194   4.942   5.424 -1.5085 -0.3642  2.8273
17331SOL     OW53042   2.551   6.724   0.543  0.6094  0.1480  0.4164
17331SOL    HW153043   2.621   6.776   0.580  2.4090 -1.5118 -0.4593
17331SOL    HW253044   2.473   6.778   0.551  2.1037  2.3455  0.8117
17332SOL     OW53045   0.166   1.095   7.233 -0.0932  0.5536  0.7926
17332SOL    HW153046   0.086   1.133   7.269  0.2503  0.5690  1.5530
17332SOL    HW253047   0.160   1.111   7.139 -1.8946 -1.0849  0.5553
17333SOL     OW53048   6.639   6.968   6.078  0.1226 -0.7755 -0.3404
17333SOL    HW153049   6.665   7.054   6.111 -2.5600  0.0904 -0.2426
17333SOL    HW253050   6.673   6.965   5.988  1.7800 -0.4112  0.2402
17334SOL     OW53051   3.740   1.071   0.508  0.1538  0.1461  0.1709
17334SOL    HW153052   3.827   1.031   0.504 -1.2187 -3.1447 -0.2074
17334SOL    HW253053   3.720   1.094   0.417 -0.0064 -0.6699 -0.0074
17335SOL     OW53054   0.518   1.274   5.930  0.0509  0.2278  0.0110
17335SOL    HW153055   0.445   1.232   5.886  0.3256 -0.9304  0.6052
17335SOL    HW253056   0.478   1.330   5.996 -0.3071 -0.6964  0.5925
17336SOL     OW53057   7.156   1.036   7.087  0.2344  0.3132  0.3518
17336SOL    HW153058   7.065   1.068   7.095  0.2889  1.1108 -1.6167
17336SOL    HW253059   7.201   1.074   7.162 -0.6954  1.3986  0.4003
17337SOL     OW53060   6.855   7.029   0.603 -0.2443  0.5365 -0.3893
17337SOL    HW153061   6.885   7.049   0.514  0.0014 -0.5047 -0.5501
17337SOL    HW253062   6.765   6.999   0.591 -1.0707  2.6752 -0.0139
17338SOL     OW53063   4.624   7.208   3.276 -0.3170  0.2238 -0.2376
17338SOL    HW153064   4.650   7.214   3.184 -0.8452  2.2426 -0.3032
17338SOL    HW253065   4.644   7.294   3.312  1.8323 -1.1030  2.1220
17339SOL     OW53066   4.172   6.048   5.670  0.4986  0.1731  0.0129
17339SOL    HW153067   4.080   6.037   5.692  0.5686 -3.3832 -0.8709
17339SOL    HW253068   4.219   6.005   5.741  1.5594  1.8049  0.3707
17340SOL     OW53069   7.503   5.737   1.079  0.7486  0.2374 -0.3179
17340SOL    HW153070   7.518   5.647   1.049  1.1759 -0.2613  1.2366
17340SOL    HW253071   7.565   5.747   1.152  0.3528  1.6309 -0.1564
17341SOL     OW53072   2.872   8.002   3.427 -0.1709 -0.6634  0.3499
17341SOL    HW153073   2.927   7.945   3.374 -0.2488 -1.7030  1.3445
17341SOL    HW253074   2.926   8.024   3.503 -0.4527 -0.1344  0.4013
17342SOL     OW53075   0.156   6.801   3.177 -0.3093 -0.0049 -0.7471
17342SOL    HW153076   0.074   6.836   3.140 -1.0745 -0.1861  0.6816
17342SOL    HW253077   0.223   6.862   3.147 -1.2186  1.1164 -0.6042
17343SOL     OW53078   2.712   5.412   6.633 -0.3909  0.0791 -0.3496
17343SOL    HW153079   2.757   5.349   6.577  1.6485 -0.4546  1.7062
17343SOL    HW253080   2.649   5.359   6.683 -1.3642  0.3538 -1.2576
17344SOL     OW53081   4.319   5.641   5.132  0.2893  0.3030 -0.3827
17344SOL    HW153082   4.319   5.637   5.227 -0.5103  2.5429 -0.2300
17344SOL    HW253083   4.410   5.622   5.107  1.1636  2.2948  1.0248
17345SOL     OW53084   0.188   0.909   2.391 -0.6240  0.0134 -0.1283
17345SOL    HW153085   0.119   0.901   2.327  0.2018  0.1239 -1.0557
17345SOL    HW253086   0.257   0.958   2.346  0.1718 -0.3464  0.6678
17346SOL     OW53087   1.447   3.283   3.216  0.2223  0.4656 -0.4258
17346SOL    HW153088   1.368   3.332   3.194 -0.0207 -0.7014 -2.4505
17346SOL    HW253089   1.473   3.315   3.303 -2.6426  0.6497  0.4516
17347SOL     OW53090   1.559   3.762   7.338  0.2125 -0.1016  0.7022
17347SOL    HW153091   1.575   3.815   7.416 -1.7946 -0.4702  1.4196
17347SOL    HW253092   1.620   3.689   7.346 -0.4286 -0.5114  2.3269
17348SOL     OW53093   4.142   5.366   5.097  0.1488 -0.6263  0.3288
17348SOL    HW153094   4.198   5.442   5.117 -0.0551 -0.8775  2.0407
17348SOL    HW253095   4.113   5.380   5.007  1.8608  0.2141 -0.1409
17349SOL     OW53096   7.794   3.273   5.416 -0.4964  0.4755  0.5062
17349SOL    HW153097   7.852   3.212   5.462  0.8153  0.6595 -0.8488
17349SOL    HW253098   7.763   3.332   5.484  0.6583  0.1825  1.3221
17350SOL     OW53099   3.197   6.828   5.459  0.1836  0.3796  0.0374
17350SOL    HW153100   3.281   6.840   5.504  0.4985 -0.1319 -0.4097
17350SOL    HW253101   3.166   6.742   5.489 -0.7676  1.0798  1.1373
17351SOL     OW53102   2.354   0.048   3.885  0.0099 -0.4632  0.5534
17351SOL    HW153103   2.342   0.011   3.798  2.2514  0.0937 -0.0612
17351SOL    HW253104   2.373   0.140   3.869  1.0093 -0.4697  1.5674
17352SOL     OW53105   3.566   7.857   3.125 -0.3506 -0.4527  0.6462
17352SOL    HW153106   3.600   7.769   3.114 -0.3649 -0.3107 -0.6788
17352SOL    HW253107   3.642   7.908   3.153 -0.2175 -0.7842  0.8915
17353SOL     OW53108   6.764   1.444   3.785 -0.2266 -0.2315 -0.4632
17353SOL    HW153109   6.794   1.373   3.728  0.4498 -0.2272 -0.1113
17353SOL    HW253110   6.818   1.519   3.761 -1.7287  0.5244 -1.6628
17354SOL     OW53111   2.940   2.690   7.479 -0.9890 -0.2042 -0.4481
17354SOL    HW153112   2.904   2.694   7.568 -1.0993  0.0484 -0.5030
17354SOL    HW253113   2.876   2.640   7.429 -0.5897 -0.9568 -0.2274
17355SOL     OW53114   1.115   4.808   5.587 -0.0147 -0.4750  0.4568
17355SOL    HW153115   1.131   4.864   5.662 -1.2693 -0.2971  0.6239
17355SOL    HW253116   1.028   4.835   5.556 -0.1640 -1.5767 -0.1249
17356SOL     OW53117   8.145   1.075   6.028  0.8271 -0.0470 -0.1615
17356SOL    HW153118   8.058   1.043   6.003 -0.5457  1.5049  2.1087
17356SOL    HW253119   8.130   1.167   6.051  3.2990  0.5205 -0.5309
17357SOL     OW53120   8.018   0.135   2.179  0.4649 -0.2148 -0.8346
17357SOL    HW153121   8.000   0.056   2.230  0.1830  0.4037  0.0728
17357SOL    HW253122   8.112   0.149   2.189  0.3576  0.0919 -0.1656
17358SOL     OW53123   7.644   0.370   0.154 -0.3496  0.4561 -0.0760
17358SOL    HW153124   7.586   0.352   0.080  0.7056  0.8573 -1.0294
17358SOL    HW253125   7.730   0.384   0.114  0.5069 -0.5249  1.3285
17359SOL     OW53126   2.176   1.963   3.910 -0.3996  0.0571 -0.5414
17359SOL    HW153127   2.197   2.049   3.874 -1.4393  0.0688 -1.1425
17359SOL    HW253128   2.168   1.906   3.834  1.0753 -0.7872 -0.1211
17360SOL     OW53129   1.628   4.658   3.897 -0.0346  0.1921  0.3450
17360SOL    HW153130   1.645   4.564   3.887  1.1176  0.4453 -0.2545
17360SOL    HW253131   1.638   4.694   3.808 -3.0649  0.5311  0.0197
17361SOL     OW53132   3.863   2.892   6.283 -0.0820 -0.8470  0.0845
17361SOL    HW153133   3.815   2.960   6.330  1.3486 -0.4740  1.0516
17361SOL    HW253134   3.795   2.841   6.240 -1.2913  0.1759  0.7101
17362SOL     OW53135   0.130   2.169   6.560  0.4361 -0.6229  0.2893
17362SOL    HW153136   0.175   2.228   6.619  1.3330  1.5414 -2.3601
17362SOL    HW253137   0.037   2.187   6.574  0.6738  2.1865 -0.9882
17363SOL     OW53138   6.187   2.678   2.355 -0.1138  0.4195 -0.1792
17363SOL    HW153139   6.198   2.596   2.403 -1.1635 -0.0394 -0.6991
17363SOL    HW253140   6.187   2.745   2.424  2.1796  0.1812  0.1559
17364SOL     OW53141   6.410   2.557   5.433 -0.6640 -0.0006  0.4893
17364SOL    HW153142   6.326   2.574   5.390 -0.6955  0.4557  0.7282
17364SOL    HW253143   6.410   2.614   5.510 -0.0371  0.1766  0.3669
17365SOL     OW53144   5.206   6.963   6.811  0.1156  0.6618 -0.3688
17365SOL    HW153145   5.263   6.903   6.859  0.1298  0.9754  0.0102
17365SOL    HW253146   5.124   6.915   6.800  0.0558  0.6465  0.1148
17366SOL     OW53147   7.108   0.312   2.458  0.0424 -0.0851  0.0332
17366SOL    HW153148   7.098   0.232   2.510  0.5758  0.6476  1.3134
17366SOL    HW253149   7.177   0.361   2.503  0.3663  0.6928 -1.2580
17367SOL     OW53150   3.413   4.370   5.934 -0.5809 -0.0972 -0.1204
17367SOL    HW153151   3.348   4.370   5.864 -0.4565  1.8473 -0.3002
17367SOL    HW253152   3.488   4.416   5.897  0.0577 -0.3743  0.7910
17368SOL     OW53153   7.178   6.348   6.783  0.1260  0.0395 -0.1858
17368SOL    HW153154   7.176   6.271   6.841  0.3847 -0.9730 -1.4829
17368SOL    HW253155   7.269   6.377   6.786  0.4799 -0.9003 -1.1849
17369SOL     OW53156   3.003   3.001   6.161  0.0524  0.4439 -0.0420
17369SOL    HW153157   3.032   2.918   6.199  1.1548  1.8172  2.3410
17369SOL    HW253158   3.081   3.036   6.118 -0.0714  0.8125  0.0318
17370SOL     OW53159   7.559   2.586   2.299  0.2095  0.0503  0.1715
17370SOL    HW153160   7.474   2.554   2.329 -0.0524  1.3220  0.8928
17370SOL    HW253161   7.620   2.561   2.368  0.2065  0.1202  0.2001
17371SOL     OW53162   7.639   2.500   6.758 -0.2463 -0.3080  0.1968
17371SOL    HW153163   7.689   2.479   6.680 -0.4013  1.1967 -0.3303
17371SOL    HW253164   7.577   2.568   6.730 -0.7593 -0.2261  1.4588
17372SOL     OW53165   0.371   6.965   4.334 -0.4888 -0.1214  0.1233
17372SOL    HW153166   0.281   6.936   4.347 -0.2557 -1.2445 -0.6092
17372SOL    HW253167   0.404   6.911   4.263  0.9743 -0.1665  0.7896
17373SOL     OW53168   6.747   5.657   2.989  0.3672  0.2916 -0.2223
17373SOL    HW153169   6.752   5.702   2.905  1.3845  2.2684  0.8235
17373SOL    HW253170   6.734   5.727   3.053 -3.1921 -1.3066  1.1114
17374SOL     OW53171   3.378   3.289   6.743 -0.0966 -0.1059 -0.2648
17374SOL    HW153172   3.449   3.342   6.706  0.4156 -0.4931  0.1541
17374SOL    HW253173   3.331   3.255   6.667 -1.2446  1.9952 -0.5588
17375SOL     OW53174   1.534   3.627   1.544 -0.3148  0.3743 -0.2085
17375SOL    HW153175   1.485   3.545   1.554  2.0494 -1.2549 -1.1453
17375SOL    HW253176   1.486   3.675   1.477 -2.4208  0.3733  1.1977
17376SOL     OW53177   6.123   2.810   2.097  0.2294 -0.5728 -0.2556
17376SOL    HW153178   6.049   2.858   2.134  0.8282  1.8683 -1.9704
17376SOL    HW253179   6.171   2.778   2.173 -0.3468  1.4100  1.0323
17377SOL     OW53180   6.303   1.557   4.920 -0.3018  0.4286  0.3710
17377SOL    HW153181   6.321   1.647   4.948 -0.0603  0.7848 -0.8363
17377SOL    HW253182   6.214   1.560   4.885 -1.0342 -0.2677  2.0666
17378SOL     OW53183   5.903   3.287   7.090 -0.1281 -0.0711  0.0430
17378SOL    HW153184   5.868   3.322   7.172  0.6733 -0.9453  0.7691
17378SOL    HW253185   5.868   3.199   7.084  1.0037 -0.5477  0.2074
17379SOL     OW53186   1.072   2.985   6.969  0.1490  0.1473 -0.5123
17379SOL    HW153187   1.024   2.931   7.033  0.8362 -0.1348 -0.2263
17379SOL    HW253188   1.144   2.929   6.940 -1.0612 -0.3594 -2.7853
17380SOL     OW53189   3.569   1.782   7.380 -0.0746 -0.3511 -0.8429
17380SOL    HW153190   3.518   1.863   7.391 -0.4810 -0.9070  2.2904
17380SOL    HW253191   3.512   1.714   7.416  2.3921 -1.1134  2.0278
17381SOL     OW53192   5.032   1.230   7.867 -0.0080 -0.0986 -0.7679
17381SOL    HW153193   5.102   1.270   7.816 -0.0641 -0.8163 -1.4260
17381SOL    HW253194   4.955   1.285   7.850  0.7821  1.8597  1.4933
17382SOL     OW53195   6.292   7.417   3.573 -0.1618  0.0197 -0.4776
17382SOL    HW153196   6.217   7.408   3.632 -0.2305 -0.3783 -0.6248
17382SOL    HW253197   6.346   7.340   3.591  1.5963  1.5890  1.5749
17383SOL     OW53198   8.095   2.046   0.122 -0.6060  0.3777 -0.1323
17383SOL    HW153199   8.103   2.060   0.027 -1.3108 -1.8719 -0.5853
17383SOL    HW253200   8.180   2.011   0.148 -0.7019  0.1724 -0.0979
17384SOL     OW53201   0.642   1.395   2.100 -0.2185  0.1140 -0.1020
17384SOL    HW153202   0.726   1.352   2.114 -0.6187 -0.1838  1.6896
17384SOL    HW253203   0.651   1.439   2.016  1.2667 -0.9643 -0.5533
17385SOL     OW53204   1.325   1.128   2.275  0.2374  0.6048  0.2786
17385SOL    HW153205   1.318   1.164   2.363  1.3709  1.6893 -0.0467
17385SOL    HW253206   1.296   1.037   2.283  0.4041  0.6722  1.7852
17386SOL     OW53207   1.436   5.813   4.319  0.0967  0.8545  0.5824
17386SOL    HW153208   1.380   5.889   4.306  1.7962  2.1334  0.3663
17386SOL    HW253209   1.500   5.818   4.248 -0.1622 -1.2068  0.1446
17387SOL     OW53210   4.382   7.011   5.169  0.5889  0.1180  0.7935
17387SOL    HW153211   4.319   7.035   5.238 -1.8643 -0.0658 -1.2524
17387SOL    HW253212   4.371   7.078   5.102  2.0958 -0.3459  0.0328
17388SOL     OW53213   6.450   3.303   3.559 -0.1076 -0.2613  0.4845
17388SOL    HW153214   6.477   3.211   3.549  0.9203 -0.0236  0.9080
17388SOL    HW253215   6.515   3.352   3.508 -0.1541  0.2876  0.9468
17389SOL     OW53216   4.431   0.740   5.696 -0.3255  0.3496  1.0029
17389SOL    HW153217   4.342   0.775   5.700 -0.0296  1.2999 -0.0722
17389SOL    HW253218   4.434   0.692   5.613  0.4730  1.2522  0.4909
17390SOL     OW53219   5.905   0.059   1.827  0.4679  0.5793  0.5184
17390SOL    HW153220   5.827   0.084   1.778 -0.5760 -1.7164  0.8849
17390SOL    HW253221   5.887   0.090   1.916 -0.4031 -0.5799  0.7704
17391SOL     OW53222   6.336   0.434   7.933  0.1234 -0.3522  0.7115
17391SOL    HW153223   6.294   0.495   7.873  0.6530  2.0990  2.6796
17391SOL    HW253224   6.297   0.349   7.912 -0.8777  0.6747 -1.9311
17392SOL     OW53225   2.788   4.686   7.349 -0.1514 -0.0609 -0.0645
17392SOL    HW153226   2.760   4.622   7.414  1.0522  0.8678  1.4376
17392SOL    HW253227   2.781   4.770   7.393  0.4371  0.6295 -1.2380
17393SOL     OW53228   0.106   5.338   6.687  0.0745  0.7500 -0.3338
17393SOL    HW153229   0.196   5.360   6.660 -0.0774 -0.0100 -1.5089
17393SOL    HW253230   0.117   5.268   6.751  0.3136  0.6429 -0.4897
17394SOL     OW53231   0.350   2.937   7.999  0.8547  0.1783  0.2292
17394SOL    HW153232   0.292   3.011   8.014 -0.3701 -0.8817  0.9315
17394SOL    HW253233   0.430   2.975   7.963 -0.9421  1.4968 -2.6374
17395SOL     OW53234   3.401   4.062   4.573  0.2499 -0.2052  0.2698
17395SOL    HW153235   3.403   3.967   4.584 -1.3486 -0.2255  0.6578
17395SOL    HW253236   3.412   4.097   4.661 -0.4382 -0.0667  0.3051
17396SOL     OW53237   4.663   4.152   7.868 -0.1810  0.6798  0.4277
17396SOL    HW153238   4.734   4.189   7.815 -2.0288  1.6931 -1.5406
17396SOL    HW253239   4.661   4.059   7.844  2.6742 -0.2781  3.2524
17397SOL     OW53240   4.030   2.981   5.780  0.4861 -0.2969  0.4898
17397SOL    HW153241   4.114   3.019   5.755  0.7082  0.3346  2.0731
17397SOL    HW253242   4.053   2.912   5.842 -0.0551 -1.6589 -0.7604
17398SOL     OW53243   0.991   0.626   1.872 -0.4386 -0.4271 -0.3633
17398SOL    HW153244   0.986   0.569   1.949  0.5103 -0.1431 -0.0805
17398SOL    HW253245   0.900   0.632   1.841 -0.9618  0.0528  1.1609
17399SOL     OW53246   3.754   4.848   6.309 -0.2825 -0.3271  0.2801
17399SOL    HW153247   3.659   4.832   6.313 -0.1937 -0.7285  0.9178
17399SOL    HW253248   3.785   4.791   6.239 -0.4846 -0.3521  0.2115
17400SOL     OW53249   2.717   2.961   6.923  0.1091 -0.0087  0.1888
17400SOL    HW153250   2.648   2.900   6.948  0.9526 -0.1545  2.4567
17400SOL    HW253251   2.711   2.968   6.828 -1.0982 -2.3058  0.0364
17401SOL     OW53252   1.821   5.035   4.339 -0.1924  0.3101  0.5022
17401SOL    HW153253   1.899   5.055   4.287 -0.0057 -0.4339  0.4763
17401SOL    HW253254   1.756   5.099   4.312 -0.3623 -0.5530 -1.2494
17402SOL     OW53255   2.766   5.444   1.714  0.2397 -0.3057 -0.7192
17402SOL    HW153256   2.835   5.430   1.650  0.8770 -2.4134  0.3127
17402SOL    HW253257   2.800   5.512   1.772  0.2587  0.5871 -1.7518
17403SOL     OW53258   0.049   1.014   3.207 -0.2152  0.4535  0.4472
17403SOL    HW153259   0.107   0.981   3.137 -1.6039  0.1887 -0.6252
17403SOL    HW253260   0.046   1.109   3.193  0.8488  0.6174  1.2284
17404SOL     OW53261   1.535   0.273   6.018 -0.3020  0.1762 -0.4530
17404SOL    HW153262   1.514   0.186   5.984  0.5736 -0.7049  1.1372
17404SOL    HW253263   1.617   0.297   5.976 -0.2928  0.0127 -0.5281
17405SOL     OW53264   1.913   4.608   4.284 -0.3225 -0.2756  0.5160
17405SOL    HW153265   1.842   4.640   4.228 -0.4581  0.2579  0.9845
17405SOL    HW253266   1.957   4.688   4.314  0.4329 -0.5953  0.2881
17406SOL     OW53267   6.345   2.622   7.926  0.0060 -0.0255  0.1349
17406SOL    HW153268   6.315   2.581   7.845  1.0419 -1.1261  0.2701
17406SOL    HW253269   6.267   2.629   7.981 -0.6929  0.6624 -0.9177
17407SOL     OW53270   2.082   3.348   5.920 -0.6671 -0.0042 -0.1830
17407SOL    HW153271   2.173   3.325   5.899 -0.7065 -1.4858  1.1127
17407SOL    HW253272   2.029   3.292   5.863 -0.7579 -0.5695  0.4470
17408SOL     OW53273   1.854   7.339   7.497 -0.1602  0.2670 -0.0604
17408SOL    HW153274   1.941   7.361   7.532 -0.8281  0.1348  1.8224
17408SOL    HW253275   1.794   7.358   7.569 -1.2408 -3.8355  0.3736
17409SOL     OW53276   7.832   4.180   0.987  0.6018  0.1969  0.1099
17409SOL    HW153277   7.850   4.179   0.893  1.6307 -0.6063  0.2993
17409SOL    HW253278   7.744   4.144   0.995  0.6009  0.0504 -0.5332
17410SOL     OW53279   5.553   5.539   1.017 -0.2389  0.0416  0.6289
17410SOL    HW153280   5.633   5.494   0.990  1.1237  1.5903  1.8208
17410SOL    HW253281   5.580   5.593   1.092 -2.3922  0.6808  1.0255
17411SOL     OW53282   3.762   6.489   2.045 -0.0160  0.3081  0.1744
17411SOL    HW153283   3.819   6.540   2.102 -0.5247 -1.2167  2.1717
17411SOL    HW253284   3.815   6.413   2.021 -0.5950 -0.2420  0.6001
17412SOL     OW53285   0.777   7.705   6.390 -0.4408  0.0230 -0.0754
17412SOL    HW153286   0.844   7.743   6.446 -1.2077 -1.3077  1.8458
17412SOL    HW253287   0.726   7.780   6.358 -0.5131  0.7886  1.7338
17413SOL     OW53288   2.201   7.405   5.042 -0.0206  0.0517  0.0893
17413SOL    HW153289   2.169   7.494   5.028  0.6825  0.5171  1.2699
17413SOL    HW253290   2.290   7.417   5.077 -0.2477 -1.0775  1.1208
17414SOL     OW53291   0.758   7.979   7.528 -0.1907  0.5612 -0.2969
17414SOL    HW153292   0.781   7.887   7.516 -1.2238  0.3545 -0.8331
17414SOL    HW253293   0.672   7.976   7.570 -0.2618  1.2832 -0.3827
17415SOL     OW53294   3.420   2.253   2.254 -0.2580 -0.7308 -0.6572
17415SOL    HW153295   3.336   2.214   2.278 -0.6683  0.1893 -0.5840
17415SOL    HW253296   3.436   2.319   2.321  0.3059 -0.5889 -0.9279
17416SOL     OW53297   2.082   4.578   3.330  0.1650 -0.7066 -0.1195
17416SOL    HW153298   2.176   4.575   3.311  0.3432  0.3704  0.5043
17416SOL    HW253299   2.040   4.552   3.249  1.0111 -1.5298 -0.3089
17417SOL     OW53300   7.323   8.073   2.652  0.8422 -0.2133 -0.2477
17417SOL    HW153301   7.230   8.055   2.661  0.9753 -0.7629  0.0363
17417SOL    HW253302   7.361   8.046   2.736  1.2037  0.3545 -0.2219
17418SOL     OW53303   0.224   7.158   3.177  0.2627 -0.7315  0.2804
17418SOL    HW153304   0.201   7.164   3.270  0.2106 -1.0801  0.2889
17418SOL    HW253305   0.233   7.250   3.150  1.5148 -0.6340  0.9340
17419SOL     OW53306   5.845   6.590   6.992  0.4634  0.1767 -0.2848
17419SOL    HW153307   5.918   6.527   6.986  0.6166  0.4541 -1.7708
17419SOL    HW253308   5.768   6.539   6.968  0.2245  0.0142  0.7739
17420SOL     OW53309   1.452   1.616   7.476 -0.4812 -0.2160 -0.3206
17420SOL    HW153310   1.515   1.582   7.412  1.0467  2.6545 -0.4677
17420SOL    HW253311   1.503   1.629   7.555 -1.8174 -1.4156  0.7841
17421SOL     OW53312   4.006   6.412   2.225 -0.7118  0.4496 -0.3198
17421SOL    HW153313   3.979   6.326   2.193 -1.0584  0.2628  0.4479
17421SOL    HW253314   4.071   6.393   2.293 -0.7259  0.7893 -0.2079
17422SOL     OW53315   0.816   3.065   4.240 -0.2839  0.4241 -0.0393
17422SOL    HW153316   0.738   3.028   4.282  0.2878  1.5888  2.2068
17422SOL    HW253317   0.793   3.156   4.223  0.4559  0.6893  0.3427
17423SOL     OW53318   1.069   2.280   3.557 -0.8802 -0.5855 -0.1397
17423SOL    HW153319   0.987   2.239   3.530 -0.3269  0.9251 -5.0189
17423SOL    HW253320   1.063   2.370   3.525  1.8454  0.2548  1.3631
17424SOL     OW53321   4.963   1.160   4.280 -0.6217 -0.0048 -0.5068
17424SOL    HW153322   4.964   1.093   4.212 -0.4984 -0.2468 -0.2679
17424SOL    HW253323   4.906   1.125   4.348 -0.4597  0.0755 -0.3269
17425SOL     OW53324   5.226   4.191   1.082  0.4520 -0.3259 -0.0286
17425SOL    HW153325   5.254   4.266   1.030 -1.0280  1.2928  1.3445
17425SOL    HW253326   5.228   4.223   1.172 -0.5637 -1.8403  0.5741
17426SOL     OW53327   5.204   6.253   5.778 -0.4706  0.4335  0.1484
17426SOL    HW153328   5.123   6.281   5.820 -0.6627 -0.0599  0.1012
17426SOL    HW253329   5.258   6.220   5.850  0.0294  1.5494  0.3082
17427SOL     OW53330   7.438   2.346   3.806 -0.6931  0.1876 -0.0120
17427SOL    HW153331   7.459   2.263   3.848 -1.7302  0.8770  2.0061
17427SOL    HW253332   7.522   2.389   3.793 -0.0270 -1.6221 -2.2043
17428SOL     OW53333   2.939   0.036   3.562  0.2572  0.5201  0.4482
17428SOL    HW153334   2.916   0.105   3.500  1.0776  0.6557  0.2867
17428SOL    HW253335   2.855   0.007   3.598 -0.1725  0.8671 -0.2680
17429SOL     OW53336   1.289   6.380   4.806  0.3732 -0.2816 -0.5747
17429SOL    HW153337   1.300   6.292   4.770  0.0891  0.1722 -1.8219
17429SOL    HW253338   1.270   6.435   4.730 -0.5212  0.6824  0.3198
17430SOL     OW53339   2.470   1.620   1.998 -0.2459 -0.0667  0.0187
17430SOL    HW153340   2.550   1.673   1.988 -0.4777  0.1364 -0.8822
17430SOL    HW253341   2.466   1.569   1.918  0.2215 -1.8457  1.0731
17431SOL     OW53342   5.553   4.967   5.853 -0.0234 -0.3757 -0.4155
17431SOL    HW153343   5.559   4.977   5.948  0.5563 -2.3732 -0.2119
17431SOL    HW253344   5.473   4.917   5.839  1.7830 -3.4309 -0.6231
17432SOL     OW53345   1.110   7.674   2.613  0.2389  0.0768 -0.4651
17432SOL    HW153346   1.180   7.734   2.636 -0.8606  1.5247 -0.7811
17432SOL    HW253347   1.145   7.624   2.539  1.0315  0.6059 -0.4573
17433SOL     OW53348   6.210   4.763   1.659 -0.2389 -0.1744 -0.1595
17433SOL    HW153349   6.257   4.680   1.665 -0.0189 -0.1287 -1.1012
17433SOL    HW253350   6.121   4.742   1.689 -0.0252 -0.6022  0.1857
17434SOL     OW53351   0.617   2.410   7.644 -0.0007  0.3242  0.2850
17434SOL    HW153352   0.525   2.427   7.667 -0.3341 -1.3673  0.3882
17434SOL    HW253353   0.655   2.496   7.630 -1.9734  1.0224 -1.1748
17435SOL     OW53354   2.253   3.692   7.250 -0.1048  0.3268 -0.2542
17435SOL    HW153355   2.323   3.650   7.201  1.4153 -0.5678  2.5115
17435SOL    HW253356   2.175   3.640   7.228  0.8603 -1.1448 -0.3585
17436SOL     OW53357   2.206   6.201   6.680  0.5882  0.4656 -0.3364
17436SOL    HW153358   2.216   6.132   6.615 -1.2906 -1.9763  1.7751
17436SOL    HW253359   2.156   6.269   6.634 -0.6940 -1.1751 -1.4893
17437SOL     OW53360   0.315   0.938   0.009  0.3216 -0.2192 -0.4550
17437SOL    HW153361   0.286   0.898  -0.073 -0.2030 -1.7079  0.4185
17437SOL    HW253362   0.402   0.901   0.025 -0.4442 -1.6385  0.7029
17438SOL     OW53363   8.013   1.988   5.576  0.3642 -0.6118 -0.0666
17438SOL    HW153364   8.030   2.049   5.504 -2.8465  0.0928 -0.3850
17438SOL    HW253365   8.005   1.902   5.534  0.4196 -0.5271 -0.2513
17439SOL     OW53366   5.608   6.914   7.021 -0.2092 -0.1502 -0.4855
17439SOL    HW153367   5.564   6.962   6.951 -1.2859 -1.0999 -0.4832
17439SOL    HW253368   5.633   6.830   6.982 -1.7744 -1.1294  0.5130
17440SOL     OW53369   1.229   0.022   1.290  0.8842  0.3333 -0.3787
17440SOL    HW153370   1.183  -0.021   1.362 -0.3890  2.0187 -0.1195
17440SOL    HW253371   1.176   0.099   1.270  2.3492  1.0647 -1.7073
17441SOL     OW53372   7.529   6.258   1.833  0.2663  0.1167  0.0842
17441SOL    HW153373   7.528   6.321   1.761 -0.8010 -0.6308 -0.5887
17441SOL    HW253374   7.533   6.312   1.912 -1.5073  1.1167 -0.4362
17442SOL     OW53375   2.851   4.036   3.691  0.2297  0.0703  0.3982
17442SOL    HW153376   2.935   4.053   3.734  0.0754 -0.8103  1.0874
17442SOL    HW253377   2.875   3.996   3.607  0.5045 -0.6253  0.7964
17443SOL     OW53378   3.332   5.277   3.668 -0.4807 -0.0915 -0.3384
17443SOL    HW153379   3.245   5.258   3.633 -0.0896 -0.8527 -0.9395
17443SOL    HW253380   3.326   5.367   3.700 -1.9406 -0.6380  1.0497
17444SOL     OW53381   0.256   6.561   0.233 -0.0961  0.0351 -0.3513
17444SOL    HW153382   0.325   6.609   0.279 -0.1851 -0.6229  0.4932
17444SOL    HW253383   0.283   6.469   0.237  1.2957  0.1033 -4.0117
17445SOL     OW53384   7.693   6.379   3.803 -0.2360  0.7507 -0.3564
17445SOL    HW153385   7.677   6.376   3.709 -1.8307  1.1398 -0.1205
17445SOL    HW253386   7.636   6.313   3.840 -0.5844  1.4758  0.4474
17446SOL     OW53387   3.994   2.042   2.811 -0.2649 -0.2078 -0.2735
17446SOL    HW153388   3.914   2.093   2.825 -0.2202 -0.1407 -0.2603
17446SOL    HW253389   4.017   2.011   2.898  0.1347  0.3909 -0.1552
17447SOL     OW53390   4.798   4.577   1.465  0.1937 -0.4234 -0.0379
17447SOL    HW153391   4.773   4.634   1.392  1.6485  0.4659  0.1272
17447SOL    HW253392   4.770   4.625   1.543 -0.3258 -0.8510  0.0481
17448SOL     OW53393   3.558   3.948   3.803 -0.8961 -0.7584  0.1637
17448SOL    HW153394   3.528   4.017   3.743 -2.7280 -1.9778 -0.4183
17448SOL    HW253395   3.487   3.884   3.804 -1.1066 -0.7193  3.8516
17449SOL     OW53396   0.244   7.997   1.655  0.1796  0.3166 -0.3436
17449SOL    HW153397   0.328   7.952   1.652  1.8732  3.1411  0.7463
17449SOL    HW253398   0.186   7.936   1.702  2.8185 -0.1476  2.6973
17450SOL     OW53399   1.889   5.995   5.635 -0.0087 -0.1580  0.0649
17450SOL    HW153400   1.963   6.021   5.581  0.5025 -1.6270  0.0039
17450SOL    HW253401   1.817   5.983   5.572  0.1783 -0.4289 -0.0974
17451SOL     OW53402   6.199   0.413   7.171  0.4254 -0.1248  0.4264
17451SOL    HW153403   6.141   0.361   7.227 -0.1959  0.9162  0.7672
17451SOL    HW253404   6.248   0.348   7.122 -0.7574 -1.0408  0.4072
17452SOL     OW53405   7.225   4.270   0.635  0.1841  0.3035  0.4567
17452SOL    HW153406   7.306   4.320   0.623  2.0559 -2.0905  2.0629
17452SOL    HW253407   7.196   4.294   0.723  0.5013 -0.6033  0.8141
17453SOL     OW53408   1.724   3.814   3.886 -0.8628 -0.0572  0.6774
17453SOL    HW153409   1.731   3.773   3.973 -1.7116 -0.6971  0.4682
17453SOL    HW253410   1.773   3.756   3.829 -1.1661 -0.2049  0.5627
17454SOL     OW53411   5.570   1.427   4.910  0.1313  0.4169 -1.1772
17454SOL    HW153412   5.524   1.346   4.888 -2.9399  2.2143 -2.0875
17454SOL    HW253413   5.558   1.483   4.833 -0.3032  2.6717  0.4297
17455SOL     OW53414   1.231   0.823   6.303  0.0220 -0.1622 -0.5693
17455SOL    HW153415   1.265   0.794   6.219  3.2266 -0.0638  0.5614
17455SOL    HW253416   1.245   0.749   6.362 -2.6178 -0.4178 -0.1278
17456SOL     OW53417   2.841   5.942   7.038  0.1246  0.1668  0.3628
17456SOL    HW153418   2.851   6.025   7.086 -1.3723 -0.0307  1.0599
17456SOL    HW253419   2.875   5.961   6.950 -0.9667  1.7895  0.2511
17457SOL     OW53420   6.655   6.002   6.091  0.1705 -0.4098  0.1752
17457SOL    HW153421   6.745   5.969   6.088  0.3051  0.0157 -0.5325
17457SOL    HW253422   6.609   5.941   6.149  0.3966 -1.8728 -1.1313
17458SOL     OW53423   0.679   6.180   3.986 -0.4414  0.4094 -0.0020
17458SOL    HW153424   0.635   6.224   4.059 -0.8972  1.2522 -0.7611
17458SOL    HW253425   0.675   6.244   3.915 -1.2241 -0.9104 -1.1890
17459SOL     OW53426   5.690   2.775   7.409 -0.1677  0.1751  0.0367
17459SOL    HW153427   5.731   2.768   7.496 -1.6742  1.7253  0.9273
17459SOL    HW253428   5.650   2.689   7.394  0.8883 -0.4063  0.4397
17460SOL     OW53429   5.058   5.826   2.137 -0.0851 -0.2867 -0.2570
17460SOL    HW153430   5.144   5.797   2.166  0.3642  2.1361  1.1131
17460SOL    HW253431   5.054   5.919   2.162 -2.9607 -0.2257 -0.5983
17461SOL     OW53432   4.427   4.498   5.249  0.2014 -0.0129 -0.1347
17461SOL    HW153433   4.364   4.453   5.193 -1.2329 -1.7851  2.6464
17461SOL    HW253434   4.373   4.558   5.302  1.1346 -0.0755  0.9228
17462SOL     OW53435   2.374   6.845   1.130 -0.4293 -0.0397 -0.0038
17462SOL    HW153436   2.375   6.766   1.076 -1.1796  0.6978 -1.1504
17462SOL    HW253437   2.282   6.869   1.135 -0.4656 -0.3855  2.1252
17463SOL     OW53438   6.347   5.044   5.866 -0.2215  0.1585 -0.0688
17463SOL    HW153439   6.275   4.999   5.910 -0.2826 -0.5984 -0.9099
17463SOL    HW253440   6.397   5.085   5.937 -1.6365  0.9569  0.5053
17464SOL     OW53441   1.731   1.510   2.557 -0.3173  0.7752  0.0242
17464SOL    HW153442   1.687   1.588   2.592  0.1737  0.2301  1.9698
17464SOL    HW253443   1.795   1.545   2.496  0.3928  2.0057  1.3971
17465SOL     OW53444   4.338   1.327   5.877 -0.1477 -0.3923  0.7101
17465SOL    HW153445   4.280   1.271   5.930 -2.5596 -2.1931 -3.3920
17465SOL    HW253446   4.281   1.397   5.845  0.7157 -0.4019 -0.9368
17466SOL     OW53447   7.125   0.168   7.712  0.0023 -0.6699  0.3708
17466SOL    HW153448   7.167   0.088   7.680  0.0217 -0.8576  0.8604
17466SOL    HW253449   7.046   0.177   7.658  0.4318 -0.5568 -0.2554
17467SOL     OW53450   4.025   5.436   0.106  0.1217 -0.3524  0.0047
17467SOL    HW153451   4.089   5.446   0.035 -0.8245  0.6452 -0.7331
17467SOL    HW253452   4.066   5.479   0.181  1.4919 -2.1296  0.3377
17468SOL     OW53453   3.190   4.468   6.551  0.0488  0.1266  0.4914
17468SOL    HW153454   3.096   4.466   6.533 -0.0574 -0.8850  1.0609
17468SOL    HW253455   3.216   4.558   6.531 -0.5014 -0.2504 -2.2890
17469SOL     OW53456   6.584   3.817   0.234  0.6817 -0.2337 -0.0505
17469SOL    HW153457   6.575   3.905   0.198  0.1628 -1.1924 -2.4872
17469SOL    HW253458   6.651   3.776   0.179  1.5275 -1.1393  1.5759
17470SOL     OW53459   7.271   4.701   2.331 -0.2894 -0.0045 -0.1148
17470SOL    HW153460   7.305   4.786   2.356  0.3796 -0.1962 -0.3494
17470SOL    HW253461   7.242   4.712   2.240  1.2011 -0.4051 -0.6697
17471SOL     OW53462   5.055   0.825   2.671  1.0274 -0.3013  0.5415
17471SOL    HW153463   5.018   0.739   2.691  1.7571 -0.0808  3.3892
17471SOL    HW253464   5.005   0.885   2.727  0.7502  1.1005 -1.1532
17472SOL     OW53465   4.351   3.121   1.487  0.2438  0.0591 -0.3793
17472SOL    HW153466   4.446   3.132   1.478  0.3256 -1.1991 -1.2254
17472SOL    HW253467   4.337   3.026   1.487 -0.7872  0.0853  2.4638
17473SOL     OW53468   5.118   6.869   6.480  0.0367  0.0532 -0.3108
17473SOL    HW153469   5.108   6.917   6.397  1.0650  2.5646  0.9134
17473SOL    HW253470   5.042   6.896   6.532  0.1648 -0.3372  0.0836
17474SOL     OW53471   6.464   7.672   7.382  0.8004  0.0125  0.8237
17474SOL    HW153472   6.374   7.656   7.355  0.7796  0.4285  0.6505
17474SOL    HW253473   6.499   7.584   7.401  1.0234 -0.3976 -1.2260
17475SOL     OW53474   2.108   2.909   7.909 -0.3670 -0.8388  0.4612
17475SOL    HW153475   2.039   2.968   7.941 -0.2650 -0.2320 -0.3875
17475SOL    HW253476   2.184   2.966   7.898 -1.1951 -0.2208 -3.7734
17476SOL     OW53477   2.781   7.465   2.062  0.5034  0.5038 -0.3068
17476SOL    HW153478   2.702   7.414   2.079  0.1869  1.2893  0.6040
17476SOL    HW253479   2.843   7.401   2.025 -1.1573  0.2613 -2.9506
17477SOL     OW53480   0.716   2.340   6.680  0.4386  0.1754  0.2404
17477SOL    HW153481   0.726   2.422   6.631  0.7732  1.0296  1.7079
17477SOL    HW253482   0.633   2.304   6.649  0.2272  1.1279 -0.3351
17478SOL     OW53483   6.919   2.804   4.201 -0.4470 -0.0600 -0.5667
17478SOL    HW153484   6.919   2.894   4.232  2.5560  0.7683 -2.5323
17478SOL    HW253485   6.975   2.757   4.263  0.2367  0.1070 -1.0410
17479SOL     OW53486   7.228   4.772   1.658 -0.1244 -0.4003  0.0262
17479SOL    HW153487   7.150   4.721   1.638  1.2296 -2.9532  0.7062
17479SOL    HW253488   7.230   4.776   1.754  1.0599 -1.2516  0.0569
17480SOL     OW53489   5.766   8.003   3.983 -0.2858 -0.1222  0.3141
17480SOL    HW153490   5.696   8.007   4.048  0.8962  2.5985  1.5515
17480SOL    HW253491   5.838   7.958   4.027 -0.5999 -1.3381 -0.3575
17481SOL     OW53492   7.134   2.123   1.356 -0.5508 -0.3586  0.1546
17481SOL    HW153493   7.225   2.142   1.381 -0.2379 -1.9564  0.3241
17481SOL    HW253494   7.099   2.207   1.327  0.9554  0.3015  0.1745
17482SOL     OW53495   5.347   4.878   1.396  0.3925  0.6227 -0.1880
17482SOL    HW153496   5.429   4.899   1.441 -0.5353  2.9686  0.5598
17482SOL    HW253497   5.288   4.850   1.466  0.2579 -0.1489 -0.5986
17483SOL     OW53498   3.889   7.971   2.616 -0.0761  0.3560  0.3132
17483SOL    HW153499   3.929   8.055   2.594  1.1237 -0.3448 -0.2640
17483SOL    HW253500   3.798   7.981   2.588  0.4395  0.8999 -1.3051
17484SOL     OW53501   3.383   4.061   6.820  0.2201  0.3856  0.0338
17484SOL    HW153502   3.467   4.016   6.820  0.1030  0.1018  2.0737
17484SOL    HW253503   3.321   3.996   6.785  0.5132 -0.1023  0.4173
17485SOL     OW53504   6.761   0.685   5.390 -0.4629 -0.3379  0.7530
17485SOL    HW153505   6.825   0.728   5.334  0.7109 -2.0453  0.7106
17485SOL    HW253506   6.727   0.755   5.446  2.0196  0.5192  1.3237
17486SOL     OW53507   7.079   6.985   6.376 -0.1002  0.7232 -0.3257
17486SOL    HW153508   7.161   6.937   6.387  1.0054  2.1212 -2.0171
17486SOL    HW253509   7.048   6.999   6.465  1.9484  0.8769  0.4214
17487SOL     OW53510   2.926   0.766   8.068  0.1004  0.0987  0.6017
17487SOL    HW153511   2.935   0.792   8.160  0.0570 -2.2052  1.3215
17487SOL    HW253512   2.944   0.846   8.019  0.2720  1.3693  2.5939
17488SOL     OW53513   2.435   8.126   7.050 -0.2051 -0.7200 -0.7379
17488SOL    HW153514   2.348   8.166   7.038 -1.0701 -2.5050 -0.7099
17488SOL    HW253515   2.450   8.128   7.144  0.7118  1.3570 -0.8648
17489SOL     OW53516   1.640   4.806   7.950  0.2711  0.2739  0.5948
17489SOL    HW153517   1.654   4.844   7.863  0.6135 -2.1397 -0.4750
17489SOL    HW253518   1.684   4.867   8.009  2.3831  0.6086 -1.1910
17490SOL     OW53519   3.970   5.802   7.840  0.9440  0.0372  0.3108
17490SOL    HW153520   3.956   5.717   7.799  2.3953  0.1615 -0.5395
17490SOL    HW253521   4.008   5.856   7.770 -0.1660  1.4727  0.7580
17491SOL     OW53522   5.236   7.800   4.300 -0.4010 -0.1309  0.1127
17491SOL    HW153523   5.268   7.849   4.225 -1.0179  0.8931  0.4939
17491SOL    HW253524   5.216   7.713   4.266  1.3958 -0.3826 -0.4271
17492SOL     OW53525   1.820   3.575   4.341  0.2146 -0.5625  0.1607
17492SOL    HW153526   1.908   3.593   4.310 -0.4868 -0.9566 -2.2426
17492SOL    HW253527   1.830   3.499   4.398  1.4800 -0.3313  0.2662
17493SOL     OW53528   0.389   6.986   4.679 -0.1898  0.2941 -0.2346
17493SOL    HW153529   0.427   7.047   4.742 -1.3125  0.4099  0.3577
17493SOL    HW253530   0.354   7.042   4.610 -0.0410  0.2372 -0.3560
17494SOL     OW53531   5.419   0.714   5.702 -0.1855 -0.1778 -0.3315
17494SOL    HW153532   5.337   0.728   5.749 -0.7238 -0.5623 -1.1215
17494SOL    HW253533   5.391   0.687   5.614  0.7865 -1.4494 -0.2746
17495SOL     OW53534   2.685   2.348   8.216  0.0626 -0.0673 -0.2195
17495SOL    HW153535   2.655   2.304   8.295 -1.7999 -1.3196 -1.5217
17495SOL    HW253536   2.781   2.345   8.221  0.0124  0.4614  2.2236
17496SOL     OW53537   6.797   4.170   7.968 -0.2994  0.5327 -0.0847
17496SOL    HW153538   6.800   4.222   7.887  0.1836  1.3100  0.4166
17496SOL    HW253539   6.860   4.213   8.026  0.9023 -1.2363 -0.0044
17497SOL     OW53540   1.832   3.986   2.550 -0.3761 -0.0258  0.6691
17497SOL    HW153541   1.807   4.070   2.588 -0.5921 -0.7407  2.1369
17497SOL    HW253542   1.820   3.999   2.455 -0.4990  1.5536  0.8743
17498SOL     OW53543   0.335   2.314   4.871 -0.0077 -0.3349  0.1273
17498SOL    HW153544   0.274   2.266   4.816  0.3091 -0.9796  0.3233
17498SOL    HW253545   0.387   2.245   4.914  1.2981  0.2115 -0.5470
17499SOL     OW53546   1.847   7.779   4.070 -0.1105  0.3511  0.0587
17499SOL    HW153547   1.797   7.728   4.006 -2.4313  0.6670  1.5203
17499SOL    HW253548   1.859   7.864   4.028 -1.8711  0.6557  0.1161
17500SOL     OW53549   4.738   7.726   6.240  0.0837 -0.1986 -0.5198
17500SOL    HW153550   4.665   7.779   6.208 -1.1743 -1.4839  0.1018
17500SOL    HW253551   4.729   7.642   6.195 -0.0705 -1.0702  1.0604
17501SOL     OW53552   2.903   5.581   2.540  0.0209  0.4609 -0.1882
17501SOL    HW153553   2.936   5.565   2.451 -2.3867 -0.1239 -1.0403
17501SOL    HW253554   2.853   5.503   2.561  0.2943  0.7280  1.6042
17502SOL     OW53555   5.922   2.116   3.268  0.0389 -0.4113  0.5799
17502SOL    HW153556   5.880   2.081   3.189 -1.2193  0.7278  0.7121
17502SOL    HW253557   5.849   2.138   3.326  0.8716  0.5602  1.2839
17503SOL     OW53558   4.786   6.461   1.751 -0.0850 -0.0428  1.0822
17503SOL    HW153559   4.852   6.444   1.819 -0.1705  0.2203  1.2299
17503SOL    HW253560   4.791   6.385   1.694 -1.3089 -1.1718  2.4087
17504SOL     OW53561   2.798   2.875   4.937  0.0700 -0.0576  0.9117
17504SOL    HW153562   2.746   2.828   4.872 -0.0120  1.8583 -0.5081
17504SOL    HW253563   2.765   2.965   4.933  1.8830  0.6907  1.6730
17505SOL     OW53564   7.386   1.799   5.592  0.0643 -0.1203  0.0031
17505SOL    HW153565   7.362   1.783   5.501 -1.7117 -0.3010  0.4696
17505SOL    HW253566   7.417   1.890   5.593 -0.7547  0.1745 -0.6234
17506SOL     OW53567   0.329   3.584   6.580  0.6965  0.4448 -0.5798
17506SOL    HW153568   0.352   3.530   6.655 -2.5717 -0.6561 -0.2145
17506SOL    HW253569   0.331   3.525   6.505 -1.3430  0.1180 -0.4291
17507SOL     OW53570   0.660   1.132   0.735  0.2565 -0.3615 -0.0757
17507SOL    HW153571   0.704   1.061   0.688  1.6280 -0.4009  1.2112
17507SOL    HW253572   0.582   1.150   0.682  2.3969  0.6438 -3.2328
17508SOL     OW53573   6.775   7.253   0.741 -0.1439 -0.1491 -0.5794
17508SOL    HW153574   6.803   7.180   0.687 -1.5434 -1.4943  0.4364
17508SOL    HW253575   6.728   7.311   0.681 -0.2572 -0.7940 -1.1239
17509SOL     OW53576   2.436   7.402   6.322  0.6009  0.3960 -0.5207
17509SOL    HW153577   2.510   7.356   6.282  0.3147  0.5259 -1.2123
17509SOL    HW253578   2.438   7.489   6.283  1.2106  1.0501  0.8659
17510SOL     OW53579   4.015   2.735   7.387 -0.0108 -0.9863 -0.3892
17510SOL    HW153580   3.969   2.730   7.303 -0.2088 -2.1271 -0.2296
17510SOL    HW253581   4.090   2.792   7.370 -0.3473 -0.7646 -1.1886
17511SOL     OW53582   3.518   4.583   2.024  0.2734  0.3057  0.2411
17511SOL    HW153583   3.486   4.656   1.971  0.0698  0.2602  0.3024
17511SOL    HW253584   3.441   4.529   2.040  0.6709 -0.6813 -1.0020
17512SOL     OW53585   0.741   5.662   5.580  0.2868 -0.3648  0.3358
17512SOL    HW153586   0.809   5.683   5.643  0.8262  0.4936 -0.4943
17512SOL    HW253587   0.717   5.746   5.541 -0.9605 -0.7046  0.3173
17513SOL     OW53588   2.317   4.480   0.444 -0.2697  0.7955 -0.2474
17513SOL    HW153589   2.382   4.478   0.375 -1.0187  0.7646 -0.9702
17513SOL    HW253590   2.334   4.401   0.496  0.7661  1.2092  0.0560
17514SOL     OW53591   1.820   7.192   7.275  0.4121 -0.0647 -0.2313
17514SOL    HW153592   1.893   7.224   7.223 -0.3324  0.7508 -0.8156
17514SOL    HW253593   1.833   7.231   7.362  1.2855 -0.8728  0.0123
17515SOL     OW53594   6.259   2.171   2.949 -0.0583  0.9381 -0.0910
17515SOL    HW153595   6.166   2.180   2.927  0.2059  2.8487 -0.6534
17515SOL    HW253596   6.260   2.166   3.045 -0.8630 -1.7374 -0.1576
17516SOL     OW53597   7.805   1.179   5.278 -0.3124  0.4589 -0.3798
17516SOL    HW153598   7.838   1.141   5.360 -0.0734  0.2783 -0.5601
17516SOL    HW253599   7.842   1.124   5.209 -2.7107 -1.1238 -0.5260
17517SOL     OW53600   0.054   2.897   0.019 -0.4204  0.0997 -0.2698
17517SOL    HW153601   0.006   2.820  -0.013 -0.3966  0.0824 -0.2646
17517SOL    HW253602   0.132   2.860   0.060 -0.2374  0.1448 -0.5703
17518SOL     OW53603   3.617   3.928   0.154  0.1854  0.4511  0.0710
17518SOL    HW153604   3.620   3.832   0.150  2.3355  0.5072 -1.2880
17518SOL    HW253605   3.575   3.947   0.238  1.8064 -1.7158  1.4814
17519SOL     OW53606   5.762   2.557   1.103  0.4587 -0.1071  0.2275
17519SOL    HW153607   5.690   2.620   1.105  1.3263  0.9100  1.8218
17519SOL    HW253608   5.721   2.472   1.116 -0.5281  0.3777  0.3510
17520SOL     OW53609   5.641   6.617   3.215 -0.1493  0.5161 -0.4103
17520SOL    HW153610   5.548   6.625   3.236 -0.4931  0.0307 -1.6331
17520SOL    HW253611   5.683   6.592   3.298 -1.0941  0.8002  0.1634
17521SOL     OW53612   5.572   2.935   2.090 -0.1438  0.1393  0.2731
17521SOL    HW153613   5.649   2.991   2.099  0.3736 -0.1897 -1.7155
17521SOL    HW253614   5.550   2.938   1.997 -2.1150 -0.3553  0.6776
17522SOL     OW53615   4.265   5.055   6.097 -0.7520  0.2141  0.5043
17522SOL    HW153616   4.243   4.982   6.039 -0.3563  0.3415  0.1943
17522SOL    HW253617   4.265   5.016   6.185 -0.3972 -0.1963  0.3270
17523SOL     OW53618   5.983   1.961   5.920 -0.1711 -0.3361  0.1676
17523SOL    HW153619   5.977   2.046   5.876 -3.3755 -0.5656 -0.1254
17523SOL    HW253620   6.061   1.920   5.884  0.2279  1.6065 -1.3239
17524SOL     OW53621   7.016   1.152   7.796  0.3572 -0.2871  0.0241
17524SOL    HW153622   7.103   1.131   7.759  0.5374  0.4985 -0.0231
17524SOL    HW253623   7.034   1.178   7.886  0.0684 -0.9284  0.2678
17525SOL     OW53624   2.032   1.636   7.190 -1.1340 -0.3404 -0.4212
17525SOL    HW153625   1.978   1.615   7.266  0.6839  0.3065  1.1284
17525SOL    HW253626   2.048   1.551   7.148 -1.0235 -0.9253  0.7405
17526SOL     OW53627   6.684   0.841   1.135 -0.3198 -0.4834  0.3575
17526SOL    HW153628   6.668   0.758   1.092 -0.2212 -0.0691 -0.5047
17526SOL    HW253629   6.707   0.818   1.225 -0.7708 -1.3492  0.2531
17527SOL     OW53630   6.633   6.652   7.648  0.0162  0.0719 -0.6059
17527SOL    HW153631   6.543   6.628   7.622 -0.1904 -0.2291  0.3304
17527SOL    HW253632   6.649   6.599   7.726  1.0517  0.0586 -0.8191
17528SOL     OW53633   2.037   4.572   5.305  0.3644 -0.5965 -0.0150
17528SOL    HW153634   2.074   4.536   5.225 -0.6743  0.4352 -0.9957
17528SOL    HW253635   2.023   4.496   5.361  0.2717 -1.4507 -1.1625
17529SOL     OW53636   3.644   4.083   4.815 -0.5036  0.2280 -0.1998
17529SOL    HW153637   3.693   4.123   4.743 -0.2184 -0.2593 -0.2756
17529SOL    HW253638   3.555   4.116   4.804 -0.5178 -0.0371 -0.9273
17530SOL     OW53639   0.468   0.506   2.522 -0.0301 -0.9977 -0.2326
17530SOL    HW153640   0.460   0.602   2.522 -0.5505 -1.0081 -2.0063
17530SOL    HW253641   0.562   0.490   2.534 -0.0023 -0.2986  0.5998
17531SOL     OW53642   6.973   2.303   1.797 -0.0865  0.4482  0.6289
17531SOL    HW153643   6.971   2.212   1.768 -2.3894  0.3704  0.8543
17531SOL    HW253644   7.059   2.313   1.838  0.3609 -1.5078  0.2677
17532SOL     OW53645   5.369   1.623   7.239 -0.2729 -0.4019 -0.3540
17532SOL    HW153646   5.378   1.573   7.321 -0.2184 -0.2250 -0.2517
17532SOL    HW253647   5.457   1.657   7.222 -0.0135 -1.3988 -1.1076
17533SOL     OW53648   1.450   3.182   2.447  0.0602  0.1476 -0.0730
17533SOL    HW153649   1.427   3.195   2.356  0.7152  0.9183 -0.1474
17533SOL    HW253650   1.390   3.239   2.496  0.1561  0.2548 -0.0788
17534SOL     OW53651   2.572   5.019   6.269  0.4410 -0.4417 -0.2038
17534SOL    HW153652   2.569   4.925   6.249 -1.9306 -0.0760 -2.0814
17534SOL    HW253653   2.552   5.024   6.362 -0.3233 -1.8053 -0.2617
17535SOL     OW53654   7.502   1.641   4.009 -0.1328 -0.4026 -0.5380
17535SOL    HW153655   7.492   1.599   4.094  2.5528 -1.0293 -0.4656
17535SOL    HW253656   7.499   1.570   3.946  1.1923 -0.3684 -0.6698
17536SOL     OW53657   7.994   3.804   1.261 -0.1135  0.3498  0.6902
17536SOL    HW153658   7.944   3.749   1.201  3.4523 -1.7833 -0.6198
17536SOL    HW253659   7.989   3.892   1.223 -0.2791 -0.4124 -1.1674
17537SOL     OW53660   1.240   6.061   8.009 -0.2677 -0.3459  0.3297
17537SOL    HW153661   1.165   6.023   7.964 -1.3643  2.5423 -0.5255
17537SOL    HW253662   1.202   6.114   8.079  1.1625 -0.8885  1.5795
17538SOL     OW53663   0.301   7.845   3.831 -0.1740  0.1280 -0.2730
17538SOL    HW153664   0.364   7.891   3.777  0.2050  0.4525  0.4380
17538SOL    HW253665   0.335   7.755   3.836  1.5213  0.8009  1.9739
17539SOL     OW53666   5.771   7.767   1.477  0.0574  0.2441 -0.2241
17539SOL    HW153667   5.775   7.813   1.561 -0.2893  2.5044 -1.3782
17539SOL    HW253668   5.681   7.777   1.447  0.2399 -0.2963 -1.0064
17540SOL     OW53669   0.681   7.036   3.438 -0.1509 -0.2848  0.0332
17540SOL    HW153670   0.739   7.106   3.408 -0.1231 -0.7383 -1.0167
17540SOL    HW253671   0.714   7.013   3.524  0.1483  0.6488  0.1860
17541SOL     OW53672   6.705   4.092   5.736  0.0094  0.3787  0.1095
17541SOL    HW153673   6.676   4.172   5.692  0.7325  1.2883  1.2042
17541SOL    HW253674   6.798   4.086   5.715 -0.4205 -1.3219 -1.6030
17542SOL     OW53675   6.395   6.431   2.086 -0.2880 -0.0040  0.0625
17542SOL    HW153676   6.438   6.380   2.155  0.4092 -2.2457 -1.8929
17542SOL    HW253677   6.423   6.521   2.103  1.9610 -0.8257  1.2126
17543SOL     OW53678   6.075   8.222   4.840  0.4015 -0.5864  0.0122
17543SOL    HW153679   6.063   8.195   4.931  1.9380 -0.1940  0.3681
17543SOL    HW253680   5.987   8.226   4.804 -0.1886 -1.3995  1.2914
17544SOL     OW53681   1.184   6.574   8.267  0.1775 -0.2507  0.0617
17544SOL    HW153682   1.108   6.552   8.321  1.5986 -0.2446  2.2137
17544SOL    HW253683   1.184   6.508   8.197 -1.0911 -1.0054  0.7418
17545SOL     OW53684   0.360   2.275   5.646  0.2500 -0.2434 -0.1412
17545SOL    HW153685   0.319   2.232   5.722 -1.3715 -0.2802 -0.9890
17545SOL    HW253686   0.297   2.342   5.620  0.8383 -0.1484 -1.3829
17546SOL     OW53687   7.494   4.567   1.199  0.0720  0.2187  0.2249
17546SOL    HW153688   7.457   4.536   1.282 -0.2855  1.9600  0.7763
17546SOL    HW253689   7.443   4.646   1.179 -1.5274 -1.4182 -2.9429
17547SOL     OW53690   4.764   8.075   1.057 -0.3782  0.0451 -0.0549
17547SOL    HW153691   4.726   8.158   1.088 -0.7387  0.2699 -1.0495
17547SOL    HW253692   4.688   8.017   1.047 -0.2261 -0.1296 -0.1875
17548SOL     OW53693   5.676   0.167   7.264  0.0491  0.2099  0.1803
17548SOL    HW153694   5.610   0.158   7.332  0.1875 -0.5224  0.2274
17548SOL    HW253695   5.660   0.093   7.205 -0.1529  0.9019 -0.6578
17549SOL     OW53696   3.955   5.480   3.303  0.6088  0.4264  0.0332
17549SOL    HW153697   4.018   5.551   3.293  0.9822 -0.0579 -1.3613
17549SOL    HW253698   3.946   5.443   3.214  0.3633 -1.1948  0.6906
17550SOL     OW53699   2.651   3.822   1.897 -0.3726 -0.6013  0.2582
17550SOL    HW153700   2.657   3.893   1.832  0.3952  0.2049  1.1679
17550SOL    HW253701   2.594   3.857   1.965 -0.8107 -1.2680  0.2379
17551SOL     OW53702   0.289   4.442   1.315  0.2754 -0.6840 -0.3701
17551SOL    HW153703   0.334   4.375   1.368  0.3340  0.9309  1.7917
17551SOL    HW253704   0.266   4.510   1.378  1.5443  2.0608 -2.6287
17552SOL     OW53705   2.049   7.971   0.788  0.2041  0.3379 -0.2053
17552SOL    HW153706   2.004   7.899   0.833  0.8455 -0.6577 -1.1155
17552SOL    HW253707   2.052   7.944   0.696  0.4413  1.5479 -0.5689
17553SOL     OW53708   0.598   4.862   5.368  0.3363 -0.0755 -0.2907
17553SOL    HW153709   0.668   4.818   5.320  1.0764  1.5757 -0.8085
17553SOL    HW253710   0.542   4.901   5.300  0.4107  0.8241  0.1471
17554SOL     OW53711   7.113   4.015   7.007  0.1360 -0.0239  0.1196
17554SOL    HW153712   7.088   4.032   6.917 -0.1666 -0.0037  0.2086
17554SOL    HW253713   7.062   4.076   7.059 -1.4696 -1.6175  0.5007
17555SOL     OW53714   1.017   1.218   2.955 -0.1982 -0.0993  0.3395
17555SOL    HW153715   0.990   1.232   2.865  1.2777 -0.1634 -0.1389
17555SOL    HW253716   1.064   1.298   2.979  0.4349 -0.5571  0.6523
17556SOL     OW53717   6.534   7.802   5.633  0.6494  0.0564  0.0355
17556SOL    HW153718   6.496   7.874   5.683  1.1173  2.3537 -2.6495
17556SOL    HW253719   6.465   7.777   5.571  1.0200 -0.7994 -0.0479
17557SOL     OW53720   1.544   3.360   3.454  0.0888  0.7042 -0.0095
17557SOL    HW153721   1.607   3.418   3.496  1.9804 -0.3154 -1.3157
17557SOL    HW253722   1.577   3.272   3.470 -0.7933  0.1580 -1.0188
17558SOL     OW53723   2.775   3.718   0.563  0.4799  0.7450  0.0101
17558SOL    HW153724   2.861   3.693   0.528  0.7369  2.6069 -0.8356
17558SOL    HW253725   2.721   3.735   0.486 -0.1388  1.1630  0.5191
17559SOL     OW53726   2.857   7.104   3.635  0.0053  0.0906 -0.2656
17559SOL    HW153727   2.824   7.019   3.604 -0.9026  0.7216 -1.1028
17559SOL    HW253728   2.813   7.117   3.720  0.7692 -0.6314  0.2486
17560SOL     OW53729   0.601   1.594   6.564  0.1780  0.5267 -0.0180
17560SOL    HW153730   0.551   1.583   6.483 -0.5577  3.1177  0.0093
17560SOL    HW253731   0.654   1.514   6.570 -0.3558 -0.1157 -2.5997
17561SOL     OW53732   1.208   0.556   0.767 -0.3639 -0.2552 -0.1764
17561SOL    HW153733   1.179   0.573   0.857 -0.2595  0.3630 -0.2544
17561SOL    HW253734   1.254   0.472   0.772 -2.4441 -1.4378 -0.1183
17562SOL     OW53735   0.156   4.611   4.517  0.0251  0.2117 -0.1407
17562SOL    HW153736   0.112   4.690   4.548  0.2902  0.6866 -0.9351
17562SOL    HW253737   0.085   4.550   4.496 -0.1713  0.1107  0.7939
17563SOL     OW53738   4.364   0.431   6.346 -0.0527 -0.3139 -0.8285
17563SOL    HW153739   4.450   0.466   6.324  0.0442 -0.3907 -0.5724
17563SOL    HW253740   4.381   0.343   6.378 -0.4362 -1.2559 -3.0451
17564SOL     OW53741   2.488   5.743   1.524  0.5332 -0.3354 -0.2887
17564SOL    HW153742   2.411   5.732   1.469  0.6246  0.8025 -0.6707
17564SOL    HW253743   2.455   5.782   1.605  0.2965 -2.6254  0.8036
17565SOL     OW53744   1.647   1.088   6.023  0.4268 -0.5306  0.7839
17565SOL    HW153745   1.552   1.088   6.030  0.1005  2.8713 -1.3132
17565SOL    HW253746   1.676   1.145   6.095  0.5050  0.9961 -0.3902
17566SOL     OW53747   7.250   2.443   6.323 -0.3180 -0.2376  1.2251
17566SOL    HW153748   7.170   2.458   6.373  0.1452 -1.4299  2.3843
17566SOL    HW253749   7.318   2.430   6.389  0.9007  0.9491  0.2601
17567SOL     OW53750   1.745   0.343   0.946  0.2835 -0.3146 -0.1545
17567SOL    HW153751   1.731   0.258   0.905 -1.7903 -0.1563  0.1077
17567SOL    HW253752   1.710   0.406   0.883 -0.2937  0.1495  0.6054
17568SOL     OW53753   5.400   3.612   7.725 -0.2259  0.2272  0.1272
17568SOL    HW153754   5.393   3.546   7.656  1.1787 -0.8264  0.9281
17568SOL    HW253755   5.378   3.566   7.806  2.2713  0.2475  0.9045
17569SOL     OW53756   7.082   3.288   1.739 -0.6291  0.2568  0.3178
17569SOL    HW153757   7.027   3.258   1.811 -1.4181  0.6482 -0.1118
17569SOL    HW253758   7.081   3.215   1.676  0.9368 -0.5410  1.1362
17570SOL     OW53759   2.254   4.494   6.883  0.3468  0.5268 -0.1836
17570SOL    HW153760   2.237   4.544   6.962 -0.9008 -0.1267 -0.0194
17570SOL    HW253761   2.241   4.403   6.909  1.5157  0.1782 -0.7440
17571SOL     OW53762   0.619   0.036   5.970  0.4867 -0.2407  0.0212
17571SOL    HW153763   0.577   0.067   5.890  2.0761 -1.7485 -1.4826
17571SOL    HW253764   0.572  -0.044   5.993 -1.3053  1.2273  1.8723
17572SOL     OW53765   8.239   3.957   5.181 -0.4321 -0.4756  0.2196
17572SOL    HW153766   8.277   4.039   5.148  0.5194 -0.8116  0.4500
17572SOL    HW253767   8.145   3.975   5.187 -0.8634 -0.6481 -3.5145
17573SOL     OW53768   7.833   0.618   0.665  0.1777  0.3605 -0.2932
17573SOL    HW153769   7.781   0.577   0.735  0.6817 -0.3167 -0.3111
17573SOL    HW253770   7.922   0.618   0.699  0.1849  1.5164 -0.2659
17574SOL     OW53771   1.514   0.001   5.525  0.3358 -0.4452 -0.3100
17574SOL    HW153772   1.455  -0.071   5.505 -0.3917  0.1053 -0.1740
17574SOL    HW253773   1.518   0.052   5.443  0.7167 -0.5489 -0.3565
17575SOL     OW53774   5.303   6.791   4.619  0.4713  0.3311  0.6442
17575SOL    HW153775   5.245   6.773   4.693  0.3762  2.1395  1.0391
17575SOL    HW253776   5.262   6.864   4.573  0.4585 -0.8205 -1.3051
17576SOL     OW53777   7.098   1.808   6.112  0.3733  0.0063  0.0804
17576SOL    HW153778   7.097   1.742   6.042  0.5407 -0.6382  0.6756
17576SOL    HW253779   7.189   1.836   6.117  0.2083  0.6842 -0.5314
17577SOL     OW53780   0.244   7.322   0.588 -0.2145  0.8450  0.4629
17577SOL    HW153781   0.242   7.236   0.631 -0.4485 -0.7451 -2.4741
17577SOL    HW253782   0.252   7.385   0.660  1.5377 -1.6836  2.6444
17578SOL     OW53783   5.083   2.808   0.180  0.5193 -0.3271  0.4423
17578SOL    HW153784   5.108   2.715   0.174 -3.3903 -1.4595 -1.0279
17578SOL    HW253785   5.070   2.823   0.273  0.5561 -1.4781  0.6482
17579SOL     OW53786   6.050   0.537   3.410  0.2824  0.4677 -0.1504
17579SOL    HW153787   6.134   0.498   3.432 -0.0332 -0.8965 -1.2207
17579SOL    HW253788   6.046   0.532   3.314 -1.2246 -0.0027 -0.0895
17580SOL     OW53789   2.163   3.574   1.750  0.4529 -0.0721  0.1979
17580SOL    HW153790   2.138   3.531   1.832 -0.0565 -1.3144 -0.5942
17580SOL    HW253791   2.192   3.504   1.693 -2.6134  0.2168 -1.9678
17581SOL     OW53792   6.663   1.352   7.979 -0.4359  0.4704  0.1042
17581SOL    HW153793   6.753   1.383   7.978  0.6893 -2.3990  1.3354
17581SOL    HW253794   6.643   1.335   7.887  0.7698 -0.0606 -0.0821
17582SOL     OW53795   6.870   5.742   2.126 -0.0929  0.4039 -0.5973
17582SOL    HW153796   6.886   5.683   2.052 -3.2085  0.3199 -1.3277
17582SOL    HW253797   6.843   5.684   2.197  1.1923  0.6502  0.1384
17583SOL     OW53798   6.178   0.446   2.998 -0.3504  0.1974 -0.5624
17583SOL    HW153799   6.147   0.361   2.968 -1.6467  0.6430 -0.5387
17583SOL    HW253800   6.099   0.493   3.023  0.5242  0.4668  1.9837
17584SOL     OW53801   2.019   7.706   5.156  0.1145 -0.1918 -0.0651
17584SOL    HW153802   1.951   7.756   5.202  0.6289  1.6585 -1.1905
17584SOL    HW253803   2.081   7.682   5.225 -0.2783  0.5118  0.5532
17585SOL     OW53804   2.239   3.764   0.644 -0.2267 -0.3418 -0.3074
17585SOL    HW153805   2.251   3.723   0.558  0.8744  0.8146 -0.7255
17585SOL    HW253806   2.177   3.835   0.628 -0.8479 -0.7762  0.0908
17586SOL     OW53807   2.109   2.450   6.064  0.2880 -0.1266  0.2193
17586SOL    HW153808   2.112   2.546   6.056  2.3944 -0.1336  0.2849
17586SOL    HW253809   2.022   2.432   6.100 -0.4196  1.6953 -0.4229
17587SOL     OW53810   7.332   5.073   7.857  0.1243  0.2502  0.4203
17587SOL    HW153811   7.374   5.049   7.774  3.3887 -0.4455  2.1019
17587SOL    HW253812   7.346   4.997   7.913 -0.7038  1.2598  2.0547
17588SOL     OW53813   4.520   2.945   2.724  0.3361  0.0668 -0.1155
17588SOL    HW153814   4.609   2.953   2.692  0.2396  1.0118 -0.1652
17588SOL    HW253815   4.469   2.915   2.649  0.0564  2.5353 -1.0188
17589SOL     OW53816   5.500   1.349   7.857 -0.0719  0.2391  0.2729
17589SOL    HW153817   5.581   1.399   7.851 -1.3676  2.4692  0.0428
17589SOL    HW253818   5.462   1.374   7.941 -0.7958 -0.2973  0.1187
17590SOL     OW53819   0.255   5.597   1.617  0.2679  0.1425 -0.3000
17590SOL    HW153820   0.279   5.540   1.544  1.2830  1.4593 -1.0314
17590SOL    HW253821   0.330   5.594   1.676 -0.4470 -0.7197  0.6050
17591SOL     OW53822   5.161   0.986   7.530 -0.2617  0.5479 -0.1739
17591SOL    HW153823   5.219   1.001   7.455 -0.4794  0.8056 -0.2931
17591SOL    HW253824   5.215   1.008   7.606  0.2060 -0.4628 -0.2029
17592SOL     OW53825   7.234   4.450   5.732 -0.4341 -0.1148  0.0622
17592SOL    HW153826   7.230   4.373   5.789  1.0489 -0.5106 -0.3173
17592SOL    HW253827   7.252   4.523   5.792 -3.0005  0.1862  0.5730
17593SOL     OW53828   7.787   4.412   6.406  0.3945  0.1824  0.3060
17593SOL    HW153829   7.792   4.488   6.464 -0.8554 -0.8849  1.9047
17593SOL    HW253830   7.764   4.339   6.464 -3.4682 -0.5283 -1.7652
17594SOL     OW53831   7.880   2.706   1.278  0.3185  0.6611  0.2445
17594SOL    HW153832   7.940   2.730   1.349  1.1914  1.8511 -0.8423
17594SOL    HW253833   7.936   2.701   1.201 -0.6730 -0.2726 -0.4394
17595SOL     OW53834   3.515   1.551   6.773 -1.0199 -0.0014  0.0646
17595SOL    HW153835   3.495   1.544   6.867 -1.6156 -0.7400 -0.1018
17595SOL    HW253836   3.483   1.637   6.748 -1.6489 -0.1388  0.3717
17596SOL     OW53837   0.663   0.475   4.090  0.3482 -0.2618 -0.7363
17596SOL    HW153838   0.736   0.510   4.038  1.4875 -1.4435  0.0138
17596SOL    HW253839   0.635   0.549   4.144  1.1436  0.1436 -0.8659
17597SOL     OW53840   7.309   1.032   3.617 -0.2315 -0.1686  0.2293
17597SOL    HW153841   7.230   1.072   3.582  0.1222  1.0173  0.7526
17597SOL    HW253842   7.368   1.026   3.541 -0.1113  0.7529  0.2432
17598SOL     OW53843   0.426   5.238   2.628 -0.1097 -0.1474  0.3914
17598SOL    HW153844   0.461   5.264   2.713 -1.0579  1.5171  0.3188
17598SOL    HW253845   0.474   5.291   2.565 -0.6453 -0.0534  0.0559
17599SOL     OW53846   7.318   5.180   4.413 -0.0219  0.4227  0.0322
17599SOL    HW153847   7.338   5.274   4.411  0.6997  0.2685 -0.5094
17599SOL    HW253848   7.273   5.163   4.330  1.1176  0.0321 -0.5198
17600SOL     OW53849   3.020   3.622   3.042  0.0601 -0.2525 -0.4016
17600SOL    HW153850   2.942   3.620   2.988 -0.1030  0.6247 -0.2083
17600SOL    HW253851   3.004   3.557   3.111  0.5413 -1.8611 -1.7290
17601SOL     OW53852   4.455   3.350   0.804 -0.6872 -0.4001 -0.7657
17601SOL    HW153853   4.405   3.431   0.799  1.1275  1.0610  2.2016
17601SOL    HW253854   4.546   3.377   0.788 -0.1031 -1.9374 -0.2457
17602SOL     OW53855   2.600   2.268   2.120 -0.0279  0.3251 -0.5379
17602SOL    HW153856   2.511   2.238   2.102 -0.7137  1.8739  0.1175
17602SOL    HW253857   2.597   2.363   2.107  1.0092  0.6869  1.3841
17603SOL     OW53858   3.895   6.977   0.405 -0.1643 -0.7492  0.0119
17603SOL    HW153859   3.811   7.024   0.398  1.5946  2.8633  0.6901
17603SOL    HW253860   3.912   6.945   0.316 -1.0156  0.9159 -0.8020
17604SOL     OW53861   2.255   6.837   7.787 -0.1595  0.2012  0.1794
17604SOL    HW153862   2.186   6.772   7.779 -0.4639  0.4175  0.9982
17604SOL    HW253863   2.298   6.836   7.701 -0.1033 -1.1235  0.2008
17605SOL     OW53864   5.019   3.015   8.010 -0.0858  0.1494 -0.1733
17605SOL    HW153865   5.080   2.960   8.058  0.0503  0.0974 -0.4062
17605SOL    HW253866   5.050   3.013   7.919 -0.6505 -0.1737 -0.3603
17606SOL     OW53867   2.247   0.889   7.362 -0.4504  0.4633  0.5074
17606SOL    HW153868   2.273   0.948   7.291 -0.9682  0.4547  0.3089
17606SOL    HW253869   2.271   0.802   7.331 -0.8708  0.4381  0.2536
17607SOL     OW53870   8.139   3.619   7.295 -0.0034 -0.4177 -0.2554
17607SOL    HW153871   8.078   3.545   7.290 -0.0593 -0.3097 -1.5106
17607SOL    HW253872   8.207   3.598   7.232  0.5321  0.1322  0.1232
17608SOL     OW53873   4.978   1.139   0.905 -0.5136  0.0711 -0.5292
17608SOL    HW153874   4.927   1.068   0.944 -1.3847  0.6503 -0.5672
17608SOL    HW253875   4.932   1.219   0.933 -0.9710  0.5236 -2.4473
17609SOL     OW53876   7.845   0.241   7.252 -0.6077  0.3105 -0.3189
17609SOL    HW153877   7.762   0.244   7.299 -0.4439 -1.0972  0.0938
17609SOL    HW253878   7.825   0.277   7.165 -1.5127  0.4883 -0.0441
17610SOL     OW53879   3.350   0.208   3.741  0.3459  0.7389  0.4893
17610SOL    HW153880   3.286   0.266   3.783 -0.1195  0.1660  0.5808
17610SOL    HW253881   3.359   0.243   3.653 -0.3485  0.6361  0.3683
17611SOL     OW53882   8.199   1.480   3.865 -0.1753  0.0578 -0.1209
17611SOL    HW153883   8.229   1.392   3.888 -0.5698  0.5311  2.5703
17611SOL    HW253884   8.104   1.473   3.866 -0.2263  0.0397 -2.1708
17612SOL     OW53885   1.358   1.300   7.974  0.3214  0.7712 -0.0310
17612SOL    HW153886   1.389   1.268   7.890  1.3118 -0.1997  0.6811
17612SOL    HW253887   1.369   1.395   7.969  0.0320  0.7537 -1.1133
17613SOL     OW53888   7.397   4.166   0.147 -0.2417  0.2367  0.2873
17613SOL    HW153889   7.482   4.179   0.189  0.0145 -1.9590  0.5544
17613SOL    HW253890   7.336   4.153   0.220 -0.8824  1.9848  0.1042
17614SOL     OW53891   6.110   7.050   8.208 -0.1616  0.1378  0.2393
17614SOL    HW153892   6.102   7.043   8.303  0.6026  0.4107  0.3278
17614SOL    HW253893   6.035   7.001   8.174 -0.4864  0.1078  0.9808
17615SOL     OW53894   5.915   5.299   0.988  0.7985 -0.1405  0.2599
17615SOL    HW153895   5.833   5.341   0.963  0.1192 -0.8950  1.1744
17615SOL    HW253896   5.940   5.248   0.911 -0.6453 -1.4819  0.6276
17616SOL     OW53897   4.251   1.166   0.972  0.1867  0.2003 -0.5075
17616SOL    HW153898   4.276   1.096   1.032 -1.3947 -0.4505 -0.5805
17616SOL    HW253899   4.196   1.124   0.906  1.2972  1.0407 -2.0509
17617SOL     OW53900   7.474   2.112   1.962 -0.0094 -0.4349  0.3896
17617SOL    HW153901   7.537   2.169   2.007 -0.1812  0.8774 -0.9419
17617SOL    HW253902   7.529   2.051   1.912  0.3074  1.0486 -1.1975
17618SOL     OW53903   0.852   3.475   2.724  0.3207  0.4835  0.3754
17618SOL    HW153904   0.898   3.558   2.731 -0.1038  0.5714  3.2649
17618SOL    HW253905   0.770   3.489   2.771 -0.3914 -1.1677 -0.2941
17619SOL     OW53906   1.117   3.186   7.295 -0.3001  0.4830  0.1684
17619SOL    HW153907   1.160   3.256   7.343  0.3293 -0.7000  1.3975
17619SOL    HW253908   1.186   3.122   7.278 -0.9650 -0.0848 -0.4892
17620SOL     OW53909   8.022   3.536   5.722 -0.6014 -0.1523  0.1291
17620SOL    HW153910   7.975   3.610   5.758 -1.6527 -0.1230 -1.2349
17620SOL    HW253911   8.088   3.515   5.788 -0.9919  1.2921  1.0157
17621SOL     OW53912   7.566   1.520   4.260  0.0073  0.0779  0.2257
17621SOL    HW153913   7.521   1.456   4.316 -0.6189 -0.0863 -0.4418
17621SOL    HW253914   7.636   1.470   4.219 -0.1262 -0.0370  0.1372
17622SOL     OW53915   4.982   6.885   6.198  0.5350 -0.4690 -0.2947
17622SOL    HW153916   4.904   6.910   6.149 -0.7223 -1.0956  1.2843
17622SOL    HW253917   4.974   6.791   6.211  0.8123 -0.3257  1.0903
17623SOL     OW53918   1.765   2.504   7.265  0.4281 -0.0390 -0.2314
17623SOL    HW153919   1.697   2.554   7.220  0.3621  1.2094  1.1901
17623SOL    HW253920   1.770   2.542   7.353  2.1667 -0.8637  0.0838
17624SOL     OW53921   8.107   0.350   3.405  0.3563  0.1824  0.0788
17624SOL    HW153922   8.171   0.420   3.416 -2.1161  2.3839  1.6531
17624SOL    HW253923   8.066   0.369   3.321 -0.2302  0.5583  0.4474
17625SOL     OW53924   2.723   4.656   3.550 -0.4114 -0.2046 -0.0519
17625SOL    HW153925   2.715   4.750   3.541 -0.5099 -0.2473 -0.4212
17625SOL    HW253926   2.817   4.641   3.561 -0.0355 -0.2816 -2.7740
17626SOL     OW53927   6.813   7.435   6.725 -0.4900 -0.4619  0.2621
17626SOL    HW153928   6.789   7.392   6.643  0.3994  2.2416 -1.5831
17626SOL    HW253929   6.730   7.451   6.769 -1.0815 -1.0897 -0.5970
17627SOL     OW53930   7.998   6.805   4.272 -0.3491 -0.1401  0.0254
17627SOL    HW153931   7.979   6.887   4.227 -0.2688 -0.8259 -1.3267
17627SOL    HW253932   8.009   6.829   4.363 -0.4485  1.3331 -0.3300
17628SOL     OW53933   6.477   8.009   6.657 -0.1637  1.0811 -0.0657
17628SOL    HW153934   6.462   8.039   6.568 -0.5718 -1.4547 -0.9253
17628SOL    HW253935   6.395   7.966   6.682  0.6468 -0.0687  0.7207
17629SOL     OW53936   1.220   2.703   6.641  0.2935  0.3184 -0.1556
17629SOL    HW153937   1.312   2.687   6.660  0.4213  0.1097 -0.9140
17629SOL    HW253938   1.173   2.640   6.695  0.7011 -1.2229 -1.5460
17630SOL     OW53939   4.433   7.128   2.787 -0.3964  0.5200 -0.0558
17630SOL    HW153940   4.388   7.140   2.871 -0.9102 -0.3823 -0.1955
17630SOL    HW253941   4.366   7.097   2.727  0.5632 -1.8828 -0.0074
17631SOL     OW53942   4.013   1.244   3.542  0.5170 -0.0938 -0.3666
17631SOL    HW153943   4.061   1.321   3.511  0.5670 -0.5193 -1.3547
17631SOL    HW253944   3.921   1.272   3.542  0.6246  0.3030  0.3110
17632SOL     OW53945   3.944   3.252   1.679  0.5217  0.1422 -0.0844
17632SOL    HW153946   4.007   3.248   1.607 -1.2328 -0.5373 -1.6803
17632SOL    HW253947   3.934   3.346   1.696  2.7703  0.2441  1.0297
17633SOL     OW53948   4.906   6.443   6.255  0.1398  0.2236 -0.0592
17633SOL    HW153949   5.000   6.444   6.270 -0.0919  0.0202  1.5434
17633SOL    HW253950   4.874   6.371   6.308 -0.7870 -0.5649 -1.6096
17634SOL     OW53951   5.701   1.916   2.159  0.3300  0.2179  0.2798
17634SOL    HW153952   5.703   1.916   2.063 -0.5623  0.2056  0.2536
17634SOL    HW253953   5.616   1.953   2.181  0.3981 -0.0764  1.0652
17635SOL     OW53954   4.883   5.975   5.551 -0.2293 -0.5666 -0.0525
17635SOL    HW153955   4.951   6.028   5.592 -1.1422  0.9602 -0.4495
17635SOL    HW253956   4.854   5.916   5.620 -0.0477  0.2934  0.7737
17636SOL     OW53957   3.720   2.658   2.676 -0.0908  0.3493  0.4093
17636SOL    HW153958   3.811   2.658   2.646 -0.0124 -1.6665  0.5498
17636SOL    HW253959   3.668   2.666   2.596  0.1912  1.0396  0.2889
17637SOL     OW53960   7.972   3.989   6.189 -0.3581 -0.2782 -0.1366
17637SOL    HW153961   8.061   3.961   6.212 -0.0613  1.8842  1.6047
17637SOL    HW253962   7.931   3.910   6.153  1.9758 -1.5548 -0.1882
17638SOL     OW53963   4.220   4.725   2.334 -0.6898 -0.0752 -0.1084
17638SOL    HW153964   4.266   4.794   2.382 -2.3201  0.0316  1.4040
17638SOL    HW253965   4.206   4.761   2.246 -0.3007  0.9576  0.2359
17639SOL     OW53966   4.245   2.274   2.753  0.4583 -0.3799 -0.3377
17639SOL    HW153967   4.287   2.215   2.816  0.1684 -0.4414 -0.1983
17639SOL    HW253968   4.157   2.289   2.789  0.1476 -0.7347 -0.9225
17640SOL     OW53969   7.567   4.834   5.695  0.4511  0.1024 -0.4060
17640SOL    HW153970   7.582   4.864   5.605  1.7685 -0.3663 -0.3695
17640SOL    HW253971   7.648   4.856   5.741 -0.0723  0.0218  0.5910
17641SOL     OW53972   8.036   2.907   0.245 -1.0105  0.1057  0.0488
17641SOL    HW153973   8.012   2.940   0.159 -0.3934  0.1633 -0.1072
17641SOL    HW253974   8.066   2.818   0.230 -0.6693  0.1988  0.1694
17642SOL     OW53975   1.586   4.578   6.613 -0.5856 -0.2350 -0.3701
17642SOL    HW153976   1.536   4.647   6.570 -0.1134  0.1071 -0.3703
17642SOL    HW253977   1.534   4.554   6.689 -2.0618 -1.6918 -1.7408
17643SOL     OW53978   5.197   5.378   0.213  0.2787 -0.8867  0.3502
17643SOL    HW153979   5.285   5.377   0.174 -0.7430 -0.3682 -2.1494
17643SOL    HW253980   5.143   5.330   0.151 -1.4239 -0.2165  1.2710
17644SOL     OW53981   2.143   5.682   6.562 -0.1132  0.0476  0.3632
17644SOL    HW153982   2.116   5.755   6.506 -3.2009 -0.4198  1.0605
17644SOL    HW253983   2.189   5.723   6.635  1.6946  0.8724 -1.1303
17645SOL     OW53984   5.551   6.526   4.912  0.0631 -0.3828 -0.3417
17645SOL    HW153985   5.618   6.549   4.847  1.9139 -0.4567  1.4323
17645SOL    HW253986   5.528   6.609   4.953 -0.1975 -0.4919 -0.2670
17646SOL     OW53987   3.519   4.784   3.486  0.2880  0.1187 -0.0229
17646SOL    HW153988   3.476   4.716   3.537  0.5427  1.1505  1.6534
17646SOL    HW253989   3.495   4.866   3.530  0.8847  1.0212 -1.3120
17647SOL     OW53990   5.872   2.826   0.808 -0.5346  0.2595 -0.1533
17647SOL    HW153991   5.961   2.857   0.821 -0.3654 -0.3985  0.3473
17647SOL    HW253992   5.881   2.731   0.798 -1.3083 -0.0325  1.5520
17648SOL     OW53993   1.767   7.452   4.537 -0.6195 -0.1045  0.2362
17648SOL    HW153994   1.791   7.490   4.452  0.6804  0.5964  0.8917
17648SOL    HW253995   1.762   7.526   4.596 -0.4255 -0.7024  1.0181
17649SOL     OW53996   3.466   4.080   0.688 -0.2905 -0.6628  0.4474
17649SOL    HW153997   3.407   4.133   0.635  1.0829  2.5588  1.8675
17649SOL    HW253998   3.409   4.037   0.752 -1.3368  0.6766  0.4566
17650SOL     OW53999   1.009   3.413   7.184  0.0772  0.2682 -0.0943
17650SOL    HW154000   0.945   3.395   7.115 -0.8278  1.0034  0.5362
17650SOL    HW254001   1.059   3.331   7.191 -1.5004 -0.7314  0.1354
17651SOL     OW54002   5.480   2.323   4.994  0.1033  0.3122 -0.5010
17651SOL    HW154003   5.447   2.410   5.017 -3.1441 -1.0460  0.5231
17651SOL    HW254004   5.516   2.289   5.075 -0.2253  0.0686 -0.4545
17652SOL     OW54005   6.814   4.345   0.770  0.4373  0.1811  0.2342
17652SOL    HW154006   6.904   4.321   0.789  0.3162 -0.2406  0.2924
17652SOL    HW254007   6.800   4.317   0.679  0.8720  1.7697 -0.3495
17653SOL     OW54008   0.836   7.848   5.396  0.0673 -0.1501  0.2615
17653SOL    HW154009   0.811   7.911   5.328  4.3525  1.7032  0.0626
17653SOL    HW254010   0.843   7.764   5.350 -0.2713  0.3847 -0.8144
17654SOL     OW54011   1.732   5.967   3.632 -0.1941  0.5075  0.8301
17654SOL    HW154012   1.730   6.036   3.566  0.0770  0.2428  0.5400
17654SOL    HW254013   1.707   5.888   3.585  1.5666  0.0122  0.6461
17655SOL     OW54014   6.535   0.423   1.363 -0.5614 -0.1094  0.2911
17655SOL    HW154015   6.520   0.336   1.400  1.2977 -0.8683 -0.6017
17655SOL    HW254016   6.479   0.481   1.415 -1.4373 -1.7408  1.2650
17656SOL     OW54017   8.209   0.297   8.117 -0.1012  0.6540  0.0186
17656SOL    HW154018   8.159   0.215   8.120  1.0196 -0.0320  2.5935
17656SOL    HW254019   8.145   0.363   8.091 -1.3365 -0.8164 -0.8596
17657SOL     OW54020   7.225   1.004   0.761  0.6161 -0.0221  0.6728
17657SOL    HW154021   7.184   0.937   0.706 -0.0655  2.1229 -1.6160
17657SOL    HW254022   7.316   1.006   0.732  0.3105  0.9455 -0.3094
17658SOL     OW54023   4.086   4.618   6.202 -0.2104  0.0920  0.3616
17658SOL    HW154024   4.167   4.613   6.253  0.8719  1.0522 -1.1758
17658SOL    HW254025   4.045   4.699   6.232 -0.1647  0.0557  0.5243
17659SOL     OW54026   6.679   2.300   0.613 -0.6819 -0.3773 -0.1818
17659SOL    HW154027   6.698   2.270   0.525  0.9412  0.0686 -0.0142
17659SOL    HW254028   6.721   2.386   0.619 -0.1493 -0.7134  1.2399
17660SOL     OW54029   0.176   0.201   3.582  0.9127  0.0484 -0.2751
17660SOL    HW154030   0.084   0.176   3.575  0.9197 -0.1076  0.1201
17660SOL    HW254031   0.203   0.169   3.669  1.2612  0.3402 -0.2708
17661SOL     OW54032   6.261   8.004   7.417  0.0506 -0.2005  0.1623
17661SOL    HW154033   6.266   7.944   7.491 -0.6510 -0.0500  0.3369
17661SOL    HW254034   6.174   7.989   7.380 -0.8011  1.8231  1.1735
17662SOL     OW54035   1.371   5.526   3.917  0.3674  0.3262 -0.0201
17662SOL    HW154036   1.298   5.573   3.957 -0.9195  0.2948 -2.1958
17662SOL    HW254037   1.342   5.435   3.914  1.0682  0.0880  0.3029
17663SOL     OW54038   1.618   0.504   6.492 -0.0843  0.3887 -0.0318
17663SOL    HW154039   1.661   0.586   6.516 -1.1122  0.9237  0.0684
17663SOL    HW254040   1.685   0.454   6.445  0.7836  0.9599  0.5670
17664SOL     OW54041   0.917   5.760   1.391  0.3586 -0.4215  0.1608
17664SOL    HW154042   0.949   5.837   1.344  2.9412 -1.1085  0.6584
17664SOL    HW254043   0.913   5.788   1.483  0.3946 -0.6235  0.2244
17665SOL     OW54044   4.816   2.342   2.829  0.0873  0.0074  0.1604
17665SOL    HW154045   4.901   2.379   2.852  0.7673 -0.4784 -1.4644
17665SOL    HW254046   4.835   2.278   2.760 -1.5178 -0.5838  0.2263
17666SOL     OW54047   6.501   6.317   5.469  0.4139 -0.1881 -0.2161
17666SOL    HW154048   6.522   6.327   5.376 -1.0911  0.5217 -0.5091
17666SOL    HW254049   6.462   6.230   5.475  1.8749 -0.8584  0.0506
17667SOL     OW54050   3.478   3.847   1.076 -0.1250  0.0509  0.2545
17667SOL    HW154051   3.495   3.764   1.032 -1.4363  1.0198 -2.2653
17667SOL    HW254052   3.438   3.902   1.009 -0.5072  2.2988  2.2019
17668SOL     OW54053   2.602   7.648   3.351  0.2539 -0.6194 -0.8539
17668SOL    HW154054   2.583   7.728   3.399  1.3961 -1.3108  0.8321
17668SOL    HW254055   2.685   7.665   3.306  1.1418 -1.2342  0.4996
17669SOL     OW54056   7.029   3.649   0.099 -0.1997 -0.0103  0.0285
17669SOL    HW154057   6.958   3.586   0.106  0.6804 -1.0062  0.3375
17669SOL    HW254058   7.081   3.619   0.024 -0.7711  1.4349 -1.0029
17670SOL     OW54059   5.382   0.854   3.429  0.3257  0.1957 -0.3440
17670SOL    HW154060   5.391   0.919   3.498  1.4253 -1.9629  1.6997
17670SOL    HW254061   5.292   0.866   3.397 -0.5609  0.7697  2.0863
17671SOL     OW54062   1.473   7.782   5.837 -0.5784 -0.2729  0.7032
17671SOL    HW154063   1.441   7.717   5.899  1.9527 -1.5823  0.7811
17671SOL    HW254064   1.538   7.736   5.785 -0.7133  1.4948 -1.1916
17672SOL     OW54065   3.565   2.317   4.462  0.2624  0.2090 -0.6921
17672SOL    HW154066   3.499   2.386   4.472  0.8752  0.6433  0.5211
17672SOL    HW254067   3.637   2.344   4.519  0.8591 -1.0247 -0.8339
17673SOL     OW54068   1.372   8.091   4.624 -0.1282 -0.5258  0.4747
17673SOL    HW154069   1.286   8.133   4.625  1.1599  2.4005 -0.7460
17673SOL    HW254070   1.424   8.142   4.687  1.4453 -0.3736 -0.8795
17674SOL     OW54071   1.920   3.697   3.719  0.2297 -0.1313  0.3420
17674SOL    HW154072   2.007   3.668   3.743 -0.0215 -1.7731 -0.5700
17674SOL    HW254073   1.934   3.777   3.667  1.0114  0.8994  2.0682
17675SOL     OW54074   0.500   3.669   5.923 -0.3129  0.5378  0.1465
17675SOL    HW154075   0.539   3.665   6.010  0.8274 -1.0560 -0.3961
17675SOL    HW254076   0.559   3.726   5.872 -0.4378  0.6673  0.1443
17676SOL     OW54077   4.062   1.667   3.569  0.2944 -0.0031  0.3960
17676SOL    HW154078   4.061   1.737   3.503 -0.5390  1.1605  1.5688
17676SOL    HW254079   3.982   1.617   3.552  0.3340 -0.0108  0.2268
17677SOL     OW54080   7.930   3.538   1.835 -0.0505  0.4523 -0.2514
17677SOL    HW154081   7.921   3.464   1.894  2.4663 -0.3683 -0.8058
17677SOL    HW254082   7.843   3.577   1.833 -1.5778 -2.6591 -0.2058
17678SOL     OW54083   5.018   7.779   0.945  0.2365  0.3438  0.3646
17678SOL    HW154084   4.922   7.771   0.944  0.2034  0.7522  0.0566
17678SOL    HW254085   5.036   7.849   0.883  0.5507  2.4229  2.6669
17679SOL     OW54086   1.854   2.633   1.224  0.4816  0.5994  1.0273
17679SOL    HW154087   1.777   2.611   1.276 -0.0313  0.1348  0.0997
17679SOL    HW254088   1.926   2.586   1.266 -0.2785 -1.4411  0.1540
17680SOL     OW54089   4.707   6.770   8.068  0.0480  0.1808 -0.0027
17680SOL    HW154090   4.624   6.721   8.066 -0.1923  0.5977 -0.6516
17680SOL    HW254091   4.742   6.761   7.980  1.1371 -0.7079  0.5023
17681SOL     OW54092   0.853   0.770   5.718 -0.7884  0.1202  0.8140
17681SOL    HW154093   0.851   0.809   5.806 -0.7076  1.4773  0.2366
17681SOL    HW254094   0.944   0.778   5.690 -1.1284  1.2759 -0.0519
17682SOL     OW54095   0.902   7.225   8.064 -0.3019 -0.0063 -0.1815
17682SOL    HW154096   0.832   7.183   8.114 -0.1169 -0.1730 -0.0617
17682SOL    HW254097   0.856   7.287   8.006 -0.6673 -1.0595 -1.0576
17683SOL     OW54098   7.847   3.047   3.021  0.8420  0.0419  0.1002
17683SOL    HW154099   7.849   3.140   2.997  1.6440  0.5697  2.0279
17683SOL    HW254100   7.786   3.043   3.095 -0.3561 -1.2544 -0.8963
17684SOL     OW54101   5.728   7.742   8.046 -0.9221 -0.1065 -0.2021
17684SOL    HW154102   5.703   7.684   7.975  0.0333 -1.1602  0.2934
17684SOL    HW254103   5.823   7.733   8.053 -1.1283 -1.2320  2.2011
17685SOL     OW54104   5.934   5.236   4.194 -0.2007 -0.2801  0.0482
17685SOL    HW154105   5.841   5.249   4.174  0.0628  0.5506 -0.6960
17685SOL    HW254106   5.972   5.207   4.111  0.1947 -0.7285  0.3796
17686SOL     OW54107   0.093   6.800   1.360  0.4331  0.0076 -0.4952
17686SOL    HW154108   0.039   6.805   1.282  0.1831  0.3314 -0.3036
17686SOL    HW254109   0.033   6.768   1.428  0.0912  1.7212  0.0620
17687SOL     OW54110   6.086   2.846   2.555  0.0109 -0.5330 -0.6472
17687SOL    HW154111   6.018   2.789   2.590 -2.8654  2.9111 -0.1053
17687SOL    HW254112   6.047   2.887   2.478  1.4109  1.5453 -0.3541
17688SOL     OW54113   2.418   3.351   2.249 -0.2536 -0.1658  0.0906
17688SOL    HW154114   2.456   3.428   2.290 -0.6871 -1.0450  2.3245
17688SOL    HW254115   2.491   3.291   2.237 -0.2469 -0.2019  0.3136
17689SOL     OW54116   6.623   1.094   6.795  0.5956  0.0405  0.2227
17689SOL    HW154117   6.624   1.000   6.774 -0.2302 -0.0257  0.4676
17689SOL    HW254118   6.715   1.115   6.813  0.6758 -0.9159  1.0115
17690SOL     OW54119   2.945   0.265   6.849  0.3899 -0.0579  0.3073
17690SOL    HW154120   2.988   0.279   6.934 -1.7138  1.7620  1.1606
17690SOL    HW254121   3.002   0.308   6.786  1.8128 -1.1297  0.8023
17691SOL     OW54122   7.271   4.535   2.639  0.8152  0.3815  0.1591
17691SOL    HW154123   7.326   4.484   2.579  0.4580 -0.0967  0.2250
17691SOL    HW254124   7.307   4.623   2.636  1.5864  0.0811  0.1984
17692SOL     OW54125   1.912   4.592   1.282 -0.1889  0.4714  0.1629
17692SOL    HW154126   1.924   4.571   1.190 -0.6512  1.5453 -0.1463
17692SOL    HW254127   1.842   4.534   1.311  0.5450 -0.4896  0.0808
17693SOL     OW54128   4.739   2.220   6.445  0.2847 -0.5191 -0.6200
17693SOL    HW154129   4.821   2.223   6.396  0.5684  1.0961 -0.1193
17693SOL    HW254130   4.742   2.298   6.501 -0.5408 -1.6730  1.1090
17694SOL     OW54131   0.768   6.665   3.441 -0.5982 -0.7981  0.2523
17694SOL    HW154132   0.837   6.724   3.474 -1.2744  0.1729 -0.0240
17694SOL    HW254133   0.778   6.585   3.492  1.9799 -1.4423 -1.0744
17695SOL     OW54134   6.580   6.031   8.056  0.7087  0.1633  0.2198
17695SOL    HW154135   6.563   6.109   8.108 -0.0702  0.5054 -0.5267
17695SOL    HW254136   6.560   5.958   8.115 -0.1607  0.5428  0.4136
17696SOL     OW54137   3.592   5.359   1.493 -0.4285  0.1596 -0.1594
17696SOL    HW154138   3.600   5.451   1.470 -0.0532  0.0892 -0.3083
17696SOL    HW254139   3.676   5.336   1.534  0.1297 -0.5533 -1.6524
17697SOL     OW54140   5.290   1.162   6.223  0.6584  0.1591  0.4008
17697SOL    HW154141   5.252   1.074   6.218  2.8333 -0.8139  0.1443
17697SOL    HW254142   5.231   1.216   6.170 -0.8998 -1.0296  0.8171
17698SOL     OW54143   1.172   7.071   4.362  0.5133 -0.7946  0.3451
17698SOL    HW154144   1.265   7.060   4.384  0.6635 -0.8928 -0.3123
17698SOL    HW254145   1.170   7.070   4.266 -0.2322 -1.2649  0.3618
17699SOL     OW54146   2.000   2.925   4.284 -0.0309  0.2832 -0.6785
17699SOL    HW154147   1.931   2.973   4.240 -2.1555 -1.9839 -0.0253
17699SOL    HW254148   2.019   2.850   4.227 -1.1402 -1.3743  1.0041
17700SOL     OW54149   6.133   5.597   6.816  0.0686  0.1737 -0.6225
17700SOL    HW154150   6.137   5.679   6.766 -2.2562  1.6253  1.3218
17700SOL    HW254151   6.046   5.562   6.797 -0.2258 -0.0813  1.0718
17701SOL     OW54152   6.855   4.787   6.061 -0.3072  0.5712 -0.1456
17701SOL    HW154153   6.932   4.773   6.005  0.3571  0.0248  0.8670
17701SOL    HW254154   6.871   4.873   6.100  0.2363  0.0858  0.7265
17702SOL     OW54155   1.096   8.210   7.904  0.6387  0.0093  0.3019
17702SOL    HW154156   1.024   8.242   7.959  2.1474  1.9570  1.2834
17702SOL    HW254157   1.163   8.183   7.966  2.3208  2.1048 -0.4626
17703SOL     OW54158   3.222   5.247   4.521 -0.4034 -0.1976 -0.0299
17703SOL    HW154159   3.278   5.188   4.571  0.4447  0.5116 -0.1186
17703SOL    HW254160   3.283   5.296   4.465 -1.2649 -0.5867 -1.3599
17704SOL     OW54161   0.823   4.684   2.540 -0.1849  0.3268  0.1460
17704SOL    HW154162   0.825   4.745   2.467 -0.0884  1.1443  0.8205
17704SOL    HW254163   0.731   4.658   2.548 -0.2508  0.4986 -0.0589
17705SOL     OW54164   4.873   3.807   7.413 -0.6837  0.1359  0.0505
17705SOL    HW154165   4.815   3.869   7.369  0.8491  0.9243 -0.9126
17705SOL    HW254166   4.865   3.828   7.506  0.4664  2.4019 -0.3066
17706SOL     OW54167   0.425   2.151   7.875  0.0198  0.2678  0.5629
17706SOL    HW154168   0.462   2.063   7.890 -0.9230  0.0777  1.8664
17706SOL    HW254169   0.354   2.159   7.938  0.4244  2.1977  0.8333
17707SOL     OW54170   6.511   4.365   8.267 -0.2166  0.5139  0.0047
17707SOL    HW154171   6.496   4.336   8.357  1.1417 -2.6687 -0.6501
17707SOL    HW254172   6.557   4.448   8.276 -1.3254  0.9819  2.1758
17708SOL     OW54173   5.995   3.193   4.915 -0.2952  0.2823  0.3813
17708SOL    HW154174   5.922   3.132   4.908  0.8633 -1.0562 -0.4694
17708SOL    HW254175   6.059   3.162   4.851  1.2531  1.0796  1.4697
17709SOL     OW54176   1.119   4.938   5.824 -0.4956 -0.5330 -0.4030
17709SOL    HW154177   1.043   4.881   5.839 -1.3790  0.4718 -0.9312
17709SOL    HW254178   1.083   5.026   5.822  0.6330 -0.0633 -1.1248
17710SOL     OW54179   5.345   4.475   2.923  0.4149 -0.1668 -0.6031
17710SOL    HW154180   5.313   4.386   2.911  0.1731 -0.3680  1.2018
17710SOL    HW254181   5.439   4.466   2.935  0.4163 -0.1547 -0.6033
17711SOL     OW54182   4.487   7.902   3.208  0.0862  0.4233  0.1682
17711SOL    HW154183   4.395   7.899   3.182  0.1478 -3.0049 -0.1266
17711SOL    HW254184   4.485   7.907   3.304 -0.5553 -1.7216  0.3258
17712SOL     OW54185   2.957   7.155   4.501 -0.7136 -0.2415 -0.3868
17712SOL    HW154186   2.958   7.061   4.518 -1.1769 -0.2837 -0.5806
17712SOL    HW254187   2.865   7.176   4.488 -0.6737  0.3334  0.1697
17713SOL     OW54188   5.482   1.268   0.269  0.1218 -0.4702  0.0951
17713SOL    HW154189   5.437   1.306   0.194 -1.4396  2.0555  2.1586
17713SOL    HW254190   5.571   1.303   0.263 -0.2910  0.6105 -0.0396
17714SOL     OW54191   4.592   1.025   5.499 -0.2421  0.3737  0.1859
17714SOL    HW154192   4.629   0.961   5.561  0.5925  0.9281  0.2819
17714SOL    HW254193   4.504   1.041   5.532 -1.0544 -1.8675 -0.7111
17715SOL     OW54194   4.640   2.561   1.436  0.0876 -0.2932 -0.6020
17715SOL    HW154195   4.693   2.611   1.374 -1.6845  0.0125 -1.9643
17715SOL    HW254196   4.618   2.480   1.388 -0.9526 -0.2495 -0.2155
17716SOL     OW54197   1.569   2.668   3.409 -0.1405  0.3616  0.2963
17716SOL    HW154198   1.589   2.689   3.318 -1.0078  2.4919  0.5548
17716SOL    HW254199   1.538   2.578   3.406  2.2907 -0.5350 -1.1240
17717SOL     OW54200   3.202   8.126   7.030 -0.1262 -0.0277 -0.3407
17717SOL    HW154201   3.228   8.039   6.998 -1.2909 -0.2244 -0.7805
17717SOL    HW254202   3.221   8.185   6.957 -0.9713 -0.1865 -0.7007
17718SOL     OW54203   1.842   0.987   6.435 -0.1701 -0.3542  0.5723
17718SOL    HW154204   1.777   0.974   6.366  0.4414 -1.9050  0.2277
17718SOL    HW254205   1.794   1.027   6.507 -0.4530  3.1512 -1.3516
17719SOL     OW54206   3.036   6.754   7.791 -0.2236  0.4176  0.0760
17719SOL    HW154207   3.057   6.731   7.882  1.0616 -1.1537 -0.5710
17719SOL    HW254208   3.104   6.711   7.739 -2.1684 -0.5364 -1.8031
17720SOL     OW54209   4.063   4.043   3.342  0.7398 -0.3042 -0.0944
17720SOL    HW154210   4.065   4.024   3.248 -1.1725 -0.0247 -0.2335
17720SOL    HW254211   4.100   4.131   3.350  1.6495 -0.6416 -0.4707
17721SOL     OW54212   7.773   6.258   0.294  0.1112  0.1648  0.2859
17721SOL    HW154213   7.685   6.281   0.325 -0.6421 -2.0691  0.0162
17721SOL    HW254214   7.777   6.292   0.205 -1.3387 -1.4679 -0.4765
17722SOL     OW54215   3.331   6.845   2.805  0.1784  0.0946  0.4109
17722SOL    HW154216   3.349   6.814   2.894 -0.0572  0.9551  0.7677
17722SOL    HW254217   3.317   6.939   2.814 -0.4215  0.1046 -0.4541
17723SOL     OW54218   1.618   1.712   3.526 -0.2801 -0.2807  0.2837
17723SOL    HW154219   1.567   1.717   3.445 -2.8246 -0.9841  1.7277
17723SOL    HW254220   1.608   1.799   3.565  0.9412  0.0557 -0.1200
17724SOL     OW54221   7.945   3.305   0.225 -0.2595 -0.5366 -0.4766
17724SOL    HW154222   7.964   3.242   0.155  0.4039  1.3230 -2.0787
17724SOL    HW254223   7.935   3.388   0.179  0.7265  0.8662  1.7077
17725SOL     OW54224   4.402   2.922   2.193  0.9842 -0.0662 -0.0352
17725SOL    HW154225   4.393   3.018   2.194  1.9983  0.0819 -1.6652
17725SOL    HW254226   4.314   2.890   2.212  0.5066  1.1965 -0.0150
17726SOL     OW54227   6.154   7.099   0.905 -0.7930 -0.6246 -0.0477
17726SOL    HW154228   6.246   7.115   0.884 -1.0992  0.6925 -0.4909
17726SOL    HW254229   6.112   7.086   0.820 -0.8942 -2.0224  0.1998
17727SOL     OW54230   1.652   2.608   6.484  0.1157 -0.3722  0.2179
17727SOL    HW154231   1.599   2.546   6.434 -0.2522  0.8925 -1.0090
17727SOL    HW254232   1.654   2.572   6.573 -2.9945 -0.3879  0.3848
17728SOL     OW54233   3.968   0.429   0.135 -0.1362  0.2461  0.1950
17728SOL    HW154234   3.955   0.339   0.165  1.3400  0.1181  0.4918
17728SOL    HW254235   3.890   0.448   0.082  0.5286 -1.9721 -1.7194
17729SOL     OW54236   1.087   5.877   1.831  0.0183 -0.8318  0.2637
17729SOL    HW154237   1.165   5.838   1.871 -0.4813 -2.8353 -0.6074
17729SOL    HW254238   1.014   5.830   1.871 -0.6719 -0.1471 -0.1728
17730SOL     OW54239   3.639   4.735   0.118 -0.0147 -0.2485  0.4019
17730SOL    HW154240   3.575   4.675   0.158 -1.6955  0.2520 -1.3665
17730SOL    HW254241   3.660   4.798   0.186  0.3370 -1.7243  1.7108
17731SOL     OW54242   6.125   3.502   7.999 -0.5920 -0.3100  0.3260
17731SOL    HW154243   6.148   3.427   7.944 -0.5053  0.3328 -0.5425
17731SOL    HW254244   6.192   3.505   8.066  0.2768 -0.1202 -0.5292
17732SOL     OW54245   1.630   4.620   5.939 -0.2844 -0.2755  0.1160
17732SOL    HW154246   1.640   4.703   5.891 -2.7933 -1.2824 -2.3838
17732SOL    HW254247   1.654   4.642   6.029  0.0370  2.9422 -0.6280
17733SOL     OW54248   4.156   8.208   1.021 -0.1771 -0.1148 -0.0099
17733SOL    HW154249   4.194   8.248   1.100  0.7306 -0.1710 -0.3994
17733SOL    HW254250   4.231   8.165   0.979 -0.8434 -0.9421 -0.3803
17734SOL     OW54251   4.013   5.833   3.897  0.0180  0.2836 -0.0551
17734SOL    HW154252   3.918   5.833   3.892  0.0851  1.0161 -2.2918
17734SOL    HW254253   4.036   5.741   3.910 -0.9712  0.0143 -0.1178
17735SOL     OW54254   3.469   0.490   1.588 -0.7195  0.0104  0.1407
17735SOL    HW154255   3.558   0.493   1.552 -0.8927 -0.8669 -0.4091
17735SOL    HW254256   3.465   0.563   1.650  0.9810 -1.0156  1.5646
17736SOL     OW54257   3.093   4.468   5.549 -0.1215 -0.0363  0.2787
17736SOL    HW154258   3.028   4.486   5.481  1.3447 -1.1911 -1.5135
17736SOL    HW254259   3.156   4.540   5.541  0.5037 -0.6250 -0.1911
17737SOL     OW54260   5.684   6.254   4.055 -0.0343  1.2355  0.2163
17737SOL    HW154261   5.629   6.332   4.057 -0.7657  0.7477 -0.1857
17737SOL    HW254262   5.660   6.206   4.134 -1.4283  0.2296 -0.7474
17738SOL     OW54263   7.675   3.978   3.953 -0.7843  0.5520 -0.3251
17738SOL    HW154264   7.655   3.885   3.951 -0.4766  0.4794 -0.1126
17738SOL    HW254265   7.755   3.987   3.901  1.4370  0.1082  2.7200
17739SOL     OW54266   0.314   3.956   5.557 -0.1591  0.5259 -0.2222
17739SOL    HW154267   0.314   3.984   5.465 -1.0157 -0.0048 -0.3965
17739SOL    HW254268   0.370   4.019   5.602  1.3205  0.0598 -1.3256
17740SOL     OW54269   8.276   4.835   4.617 -0.9253 -0.1601  0.4101
17740SOL    HW154270   8.219   4.815   4.542  0.6288  0.0146 -0.8850
17740SOL    HW254271   8.273   4.930   4.624  0.2408 -0.0230 -0.5717
17741SOL     OW54272   2.988   6.665   0.919 -0.1196  0.6294  0.4129
17741SOL    HW154273   2.976   6.758   0.939  0.0667  0.1811  2.8753
17741SOL    HW254274   2.900   6.634   0.899  0.0568  1.6888 -2.5782
17742SOL     OW54275   8.186   4.925   3.836  0.5630  0.0208  0.0846
17742SOL    HW154276   8.219   5.009   3.867 -2.8244  0.7044  2.4037
17742SOL    HW254277   8.186   4.869   3.914 -0.2744 -1.0569 -0.6674
17743SOL     OW54278   5.847   2.292   0.105  0.2483 -0.2852 -0.5420
17743SOL    HW154279   5.884   2.263   0.188 -2.2821 -1.9317  0.1372
17743SOL    HW254280   5.774   2.348   0.129 -1.3864 -1.8814 -1.5063
17744SOL     OW54281   6.098   2.035   4.422  0.0074  0.1042  0.1165
17744SOL    HW154282   6.086   2.130   4.424 -0.7412  0.0166  0.3881
17744SOL    HW254283   6.182   2.021   4.378  0.8612  0.9438  1.4147
17745SOL     OW54284   7.636   1.186   1.712  0.2322  0.1684  0.1528
17745SOL    HW154285   7.673   1.107   1.672 -1.1911 -0.2555 -0.3694
17745SOL    HW254286   7.574   1.153   1.777  2.2617  0.8466  2.6123
17746SOL     OW54287   7.754   6.584   1.448  0.5070  0.1395 -0.1409
17746SOL    HW154288   7.680   6.581   1.388 -0.4917 -2.2993  1.0625
17746SOL    HW254289   7.723   6.636   1.522  0.5575  0.4335 -0.3279
17747SOL     OW54290   4.698   4.981   5.458 -0.4679 -0.0970 -0.1483
17747SOL    HW154291   4.614   4.944   5.429  0.3180 -2.1301  0.0083
17747SOL    HW254292   4.723   5.042   5.388 -1.4663 -0.4126 -0.7957
17748SOL     OW54293   4.204   0.697   1.116 -0.4737 -0.6875 -0.0615
17748SOL    HW154294   4.131   0.680   1.057 -0.2218  0.1302 -0.6267
17748SOL    HW254295   4.243   0.611   1.131 -2.3387 -1.3576  1.3459
17749SOL     OW54296   1.764   4.142   2.159 -0.0067  0.0912 -0.5634
17749SOL    HW154297   1.742   4.158   2.067 -0.2222 -2.0801 -0.9587
17749SOL    HW254298   1.693   4.086   2.190  1.4248 -1.4269  0.1215
17750SOL     OW54299   1.859   7.532   6.626 -0.5252  0.1826  0.0522
17750SOL    HW154300   1.798   7.461   6.644  0.3036 -0.7678 -0.7443
17750SOL    HW254301   1.913   7.538   6.705  1.1001 -1.8848 -0.8076
17751SOL     OW54302   2.496   6.459   5.833  0.1317 -0.0313  0.1704
17751SOL    HW154303   2.509   6.370   5.800  0.9914 -0.8853  2.6207
17751SOL    HW254304   2.567   6.510   5.794  0.7946 -0.8611  0.2810
17752SOL     OW54305   6.523   1.245   6.387  0.7054  0.4663  0.4229
17752SOL    HW154306   6.506   1.320   6.330  1.1033  0.6957  0.6030
17752SOL    HW254307   6.503   1.277   6.475 -1.0746 -0.2453  0.3058
17753SOL     OW54308   7.476   6.868   6.393  0.9825 -0.1275 -0.2733
17753SOL    HW154309   7.399   6.907   6.351  0.7370  0.5815  0.7839
17753SOL    HW254310   7.508   6.804   6.330 -0.3857 -0.3230 -0.8087
17754SOL     OW54311   5.309   3.472   0.787 -0.3460 -0.3604  0.2823
17754SOL    HW154312   5.286   3.504   0.700  0.3043  1.5903  0.7874
17754SOL    HW254313   5.399   3.440   0.778  0.2449  1.1616  0.5261
17755SOL     OW54314   3.390   5.265   7.204  0.3709 -0.7213  0.0798
17755SOL    HW154315   3.392   5.305   7.117  1.7290  0.8917  0.7936
17755SOL    HW254316   3.482   5.261   7.231 -0.1250  1.6736  2.6294
17756SOL     OW54317   4.745   7.685   2.599 -0.3454 -0.2275  0.3361
17756SOL    HW154318   4.689   7.608   2.611  1.0437 -1.3152  0.1147
17756SOL    HW254319   4.759   7.719   2.687 -1.3024  0.0350  0.3976
17757SOL     OW54320   1.714   1.963   2.794 -0.1138  0.0270  1.1850
17757SOL    HW154321   1.768   2.037   2.822  1.6323 -0.8691  0.3308
17757SOL    HW254322   1.772   1.910   2.740 -2.2699 -0.2209 -1.0697
17758SOL     OW54323   7.350   3.759   8.174 -0.4674  0.4238 -0.0242
17758SOL    HW154324   7.283   3.691   8.173 -0.9477  0.9068 -0.5246
17758SOL    HW254325   7.433   3.710   8.173 -0.7714 -0.1679 -2.8244
17759SOL     OW54326   7.070   6.917   1.040  0.5656 -0.3453 -0.0904
17759SOL    HW154327   7.133   6.845   1.042  0.9441 -0.0411 -0.5774
17759SOL    HW254328   7.012   6.896   0.966  0.8793  0.0040 -0.4449
17760SOL     OW54329   0.405   5.762   6.241  0.0557 -0.2293  0.7784
17760SOL    HW154330   0.338   5.818   6.200 -0.2088  0.5414  2.2065
17760SOL    HW254331   0.472   5.752   6.174 -1.3003 -0.7241 -0.5773
17761SOL     OW54332   5.683   4.548   5.720 -0.2823  0.1535 -0.7863
17761SOL    HW154333   5.587   4.547   5.717 -0.3343  0.3369  0.3562
17761SOL    HW254334   5.708   4.457   5.736 -0.3640  0.3501  0.6132
17762SOL     OW54335   2.364   7.909   0.722  1.1731 -0.3067  0.6975
17762SOL    HW154336   2.413   7.868   0.794  2.0584 -0.2336  0.1567
17762SOL    HW254337   2.273   7.905   0.750  1.3444 -1.6333  1.1637
17763SOL     OW54338   3.384   1.972   4.933 -0.1607  0.5242  0.3540
17763SOL    HW154339   3.467   1.999   4.973  1.0146 -1.9104 -0.2236
17763SOL    HW254340   3.329   1.946   5.007  0.6145 -0.3825  0.6382
17764SOL     OW54341   0.426   1.991   2.242  0.3306 -0.2517 -0.0313
17764SOL    HW154342   0.354   1.942   2.281  0.4624 -0.7754 -0.4342
17764SOL    HW254343   0.502   1.971   2.296  0.6115 -1.3313 -0.7862
17765SOL     OW54344   7.761   2.660   0.550  0.1822 -0.4332 -0.6023
17765SOL    HW154345   7.841   2.632   0.507  0.3150  1.0026 -1.3403
17765SOL    HW254346   7.691   2.627   0.494  0.3098  0.0084 -1.0207
17766SOL     OW54347   5.734   4.281   5.783  0.5004  0.0517 -0.1020
17766SOL    HW154348   5.672   4.216   5.817  0.5989 -0.1102 -0.2322
17766SOL    HW254349   5.813   4.231   5.766  1.4365  0.6177  2.1625
17767SOL     OW54350   2.048   5.862   4.200 -0.3525 -0.0427 -0.3166
17767SOL    HW154351   2.128   5.815   4.220 -0.3199 -0.9345 -2.3300
17767SOL    HW254352   2.076   5.953   4.185  0.0771 -0.0875  0.2061
17768SOL     OW54353   0.389   7.952   0.088 -0.5871 -0.5522 -0.3948
17768SOL    HW154354   0.370   8.025   0.030  0.8946  0.8599  0.8021
17768SOL    HW254355   0.305   7.929   0.127 -1.2501 -0.2192 -1.5993
17769SOL     OW54356   2.220   2.995   6.732  0.6852  0.5758 -0.3100
17769SOL    HW154357   2.169   2.973   6.654 -0.8682  0.2275  0.7788
17769SOL    HW254358   2.197   2.928   6.796  0.9978  1.5529  0.8552
17770SOL     OW54359   6.304   0.837   2.921 -0.1928 -0.0243  0.5169
17770SOL    HW154360   6.249   0.905   2.881  0.5811  0.8888  0.9475
17770SOL    HW254361   6.283   0.843   3.015 -0.5654 -0.8069  0.4880
17771SOL     OW54362   7.994   5.253   0.824 -0.1217  0.2341 -0.3374
17771SOL    HW154363   7.935   5.326   0.808 -0.4610  0.1216  0.3602
17771SOL    HW254364   7.974   5.225   0.913 -0.8659 -1.4750 -0.9793
17772SOL     OW54365   6.323   1.045   2.324 -0.2711  0.4926 -0.3344
17772SOL    HW154366   6.377   0.967   2.317 -0.0409  0.2301  2.7986
17772SOL    HW254367   6.255   1.022   2.388 -2.8767  1.5118 -2.5240
17773SOL     OW54368   5.304   1.112   4.022 -0.0912 -0.3953 -0.0601
17773SOL    HW154369   5.261   1.190   4.055 -0.2513  0.0120 -1.1817
17773SOL    HW254370   5.235   1.062   3.979 -0.1308 -1.5176  1.2315
17774SOL     OW54371   5.023   0.682   1.903  0.1261  0.1094  0.5767
17774SOL    HW154372   5.005   0.704   1.994 -1.3697  0.9007  0.1308
17774SOL    HW254373   4.948   0.717   1.854  0.2055 -1.4642 -0.8088
17775SOL     OW54374   4.066   4.011   2.166  0.1917 -0.5488 -0.0195
17775SOL    HW154375   4.088   3.987   2.076  0.4229  1.6411 -0.6088
17775SOL    HW254376   4.145   4.054   2.199 -0.6869  0.8191  0.3865
17776SOL     OW54377   3.476   7.925   4.189 -0.2795 -0.1598 -0.4468
17776SOL    HW154378   3.414   7.982   4.235  1.3899 -0.2805  2.1735
17776SOL    HW254379   3.525   7.984   4.132 -0.2854  0.6169  0.3239
17777SOL     OW54380   2.520   3.702   0.721  0.0265  0.2051  0.4675
17777SOL    HW154381   2.452   3.746   0.669  0.0169  1.8448  1.8212
17777SOL    HW254382   2.472   3.664   0.795  0.5139  0.9454  1.1686
17778SOL     OW54383   1.920   6.779   5.920 -0.2993 -0.3595  0.8092
17778SOL    HW154384   2.003   6.773   5.968 -0.2871  0.5574  0.9119
17778SOL    HW254385   1.884   6.865   5.943 -0.1652  0.2300 -1.0104
17779SOL     OW54386   6.311   6.369   6.515  0.2775 -0.1411  0.3157
17779SOL    HW154387   6.265   6.411   6.588 -1.0310  0.2955 -0.7258
17779SOL    HW254388   6.353   6.441   6.468  1.6559 -0.4854  0.9553
17780SOL     OW54389   2.959   5.925   3.148 -0.0841 -0.0255  0.0648
17780SOL    HW154390   2.889   5.878   3.194  0.1223  0.1766  0.5954
17780SOL    HW254391   3.013   5.961   3.218  0.2667  0.2459 -0.3426
17781SOL     OW54392   2.392   6.066   1.650 -0.1128 -0.4511 -0.4373
17781SOL    HW154393   2.390   5.995   1.714 -1.2948 -0.6033 -0.6231
17781SOL    HW254394   2.474   6.112   1.668  0.2039 -1.2863  0.3144
17782SOL     OW54395   5.298   6.785   3.557 -0.0356 -0.2010  0.3380
17782SOL    HW154396   5.220   6.774   3.502 -0.1715  0.2896  0.4334
17782SOL    HW254397   5.267   6.833   3.633  0.4781  0.5212  0.1026
17783SOL     OW54398   3.540   5.340   3.334  0.2068 -1.0529 -0.1756
17783SOL    HW154399   3.625   5.299   3.352  1.5824  1.4252 -0.5798
17783SOL    HW254400   3.531   5.408   3.401 -0.8266 -0.4052 -0.9354
17784SOL     OW54401   8.220   6.530   3.665 -0.5280 -0.0618 -0.2481
17784SOL    HW154402   8.300   6.566   3.625 -0.2475  1.9147  1.9306
17784SOL    HW254403   8.157   6.526   3.593  1.0190 -0.1493 -1.6619
17785SOL     OW54404   5.795   3.675   5.618 -0.3478  0.4167 -0.0307
17785SOL    HW154405   5.853   3.659   5.543 -1.2704 -0.9832 -0.4774
17785SOL    HW254406   5.716   3.713   5.579 -0.7139 -0.0335  0.2702
17786SOL     OW54407   2.974   4.807   4.433 -0.3206 -0.1232  0.0389
17786SOL    HW154408   2.923   4.791   4.354  1.1528  0.6062 -1.0889
17786SOL    HW254409   2.909   4.839   4.497 -1.5410 -0.8067 -0.8138
17787SOL     OW54410   6.997   2.643   4.713  0.2197 -0.4879 -0.0174
17787SOL    HW154411   6.991   2.660   4.807  0.2244 -1.8156  0.2454
17787SOL    HW254412   6.962   2.555   4.702 -1.5472  0.3420 -1.5387
17788SOL     OW54413   3.274   5.314   4.889  0.5501 -0.3065 -0.1064
17788SOL    HW154414   3.329   5.382   4.851 -1.4097  0.7729 -1.1649
17788SOL    HW254415   3.327   5.234   4.884  1.4831  0.3747 -2.4126
17789SOL     OW54416   2.186   4.830   7.794 -0.3350 -0.3920  0.2825
17789SOL    HW154417   2.112   4.864   7.744  2.2646  0.7520 -3.2313
17789SOL    HW254418   2.214   4.753   7.745  2.5479  0.9581 -0.4303
17790SOL     OW54419   0.410   2.811   8.228  0.6632 -0.1892 -0.2093
17790SOL    HW154420   0.505   2.811   8.233  0.6271 -0.3796  0.6548
17790SOL    HW254421   0.390   2.823   8.135  1.5402 -1.6265 -0.6146
17791SOL     OW54422   6.613   0.070   4.727  0.1688 -0.1882  0.3882
17791SOL    HW154423   6.619  -0.002   4.789 -1.7986 -0.8801 -0.1205
17791SOL    HW254424   6.574   0.030   4.649 -0.2094  1.2652 -0.1966
17792SOL     OW54425   6.647   7.854   2.733  0.5519 -0.2024 -0.2375
17792SOL    HW154426   6.626   7.947   2.741  0.1906 -0.3453  0.5925
17792SOL    HW254427   6.562   7.810   2.729  0.6704 -0.6382  1.3083
17793SOL     OW54428   0.792   7.485   6.601 -0.0450 -0.4520  0.4052
17793SOL    HW154429   0.802   7.393   6.580  0.5783 -0.4099  0.5009
17793SOL    HW254430   0.814   7.531   6.520 -0.3394 -0.3851  0.3612
17794SOL     OW54431   4.851   4.051   4.384  0.4713 -0.2535  0.2070
17794SOL    HW154432   4.880   3.960   4.385  0.6824 -0.1855  0.6022
17794SOL    HW254433   4.764   4.048   4.424  0.2664 -0.3474 -0.2405
17795SOL     OW54434   1.382   3.411   1.578  0.8970  0.8756  0.2140
17795SOL    HW154435   1.337   3.364   1.508 -2.3180  2.1628  1.2132
17795SOL    HW254436   1.419   3.342   1.634 -0.3440 -0.3201 -0.3958
17796SOL     OW54437   3.924   6.924   1.696  0.2271  0.2840  0.5812
17796SOL    HW154438   3.981   6.848   1.711 -0.2487  0.1349  1.7147
17796SOL    HW254439   3.840   6.887   1.671  0.3308  0.4745 -0.0544
17797SOL     OW54440   5.320   3.320   3.619 -0.1621  0.0574 -0.0204
17797SOL    HW154441   5.288   3.232   3.642  0.5093 -0.5237 -1.2069
17797SOL    HW254442   5.335   3.362   3.703  0.0969 -1.1917  0.5843
17798SOL     OW54443   4.389   5.812   2.059 -0.1234 -0.5757  0.1680
17798SOL    HW154444   4.373   5.718   2.050 -0.8507 -0.6745  2.1008
17798SOL    HW254445   4.315   5.844   2.111 -0.2609  1.2163 -1.0376
17799SOL     OW54446   3.072   4.827   2.244 -0.1751  0.0905 -0.8214
17799SOL    HW154447   3.119   4.848   2.325 -1.9272 -2.2438  0.9818
17799SOL    HW254448   3.136   4.840   2.174  2.0768  0.2538  1.1347
17800SOL     OW54449   0.230   3.149   0.530  0.3313 -0.3666 -0.5804
17800SOL    HW154450   0.196   3.162   0.618  1.2700 -0.0263 -0.2525
17800SOL    HW254451   0.217   3.234   0.486  2.0024  0.2420  0.0043
17801SOL     OW54452   6.245   6.365   0.473  0.3134 -0.2553  0.6841
17801SOL    HW154453   6.326   6.414   0.486 -0.0333  0.5782 -0.1910
17801SOL    HW254454   6.194   6.380   0.552  0.2166  0.8008  0.4291
17802SOL     OW54455   1.505   4.046   7.535 -1.0185 -0.4453 -0.9985
17802SOL    HW154456   1.504   4.054   7.439  1.4753 -1.6714 -1.2000
17802SOL    HW254457   1.584   3.996   7.554 -1.4775 -0.2685  1.7321
17803SOL     OW54458   4.021   4.275   2.027 -0.1983 -0.6363  0.1312
17803SOL    HW154459   3.941   4.318   2.057  0.2456 -0.8032  1.6314
17803SOL    HW254460   4.010   4.183   2.053 -0.1256 -0.9697 -0.9504
17804SOL     OW54461   2.128   1.003   4.855  0.5175 -0.3855  0.2804
17804SOL    HW154462   2.101   1.084   4.899 -2.4015 -0.4330 -1.2006
17804SOL    HW254463   2.163   0.948   4.925  0.3053  1.2451  1.7253
17805SOL     OW54464   2.616   1.684   3.420  0.0065 -0.0412  0.0666
17805SOL    HW154465   2.620   1.746   3.493 -0.8543 -1.5001  1.4327
17805SOL    HW254466   2.589   1.602   3.461 -0.5955 -0.8914 -1.9461
17806SOL     OW54467   2.974   1.157   6.089 -0.5899 -0.2501  0.2273
17806SOL    HW154468   3.045   1.134   6.029 -0.9642 -1.7173  0.2982
17806SOL    HW254469   2.987   1.249   6.108  1.1695 -0.4370  0.0621
17807SOL     OW54470   2.234   3.846   5.199  0.1585  0.1254 -0.3604
17807SOL    HW154471   2.316   3.823   5.242  0.3309 -1.1198 -1.3194
17807SOL    HW254472   2.218   3.775   5.138  0.0605  1.9362 -2.5750
17808SOL     OW54473   5.709   1.980   2.521 -0.0087  0.2897  0.1869
17808SOL    HW154474   5.644   2.030   2.473 -0.7218 -0.7038  0.0962
17808SOL    HW254475   5.748   1.922   2.456  0.7457  0.6446  0.3090
17809SOL     OW54476   3.228   7.343   5.664  0.9824 -0.5549  0.4547
17809SOL    HW154477   3.183   7.265   5.696 -0.1329 -0.1542 -0.0738
17809SOL    HW254478   3.184   7.416   5.708  0.0380 -0.0602 -1.2226
17810SOL     OW54479   4.125   1.508   5.793 -0.0215  0.5619 -0.8023
17810SOL    HW154480   4.046   1.455   5.801  0.0369  0.4341 -1.0726
17810SOL    HW254481   4.127   1.559   5.874 -0.3086  0.4685 -0.7327
17811SOL     OW54482   4.984   2.931   2.834 -0.0641  0.4103 -0.1362
17811SOL    HW154483   4.919   2.943   2.765  1.4507 -0.0890 -1.7181
17811SOL    HW254484   5.031   3.014   2.838  0.6403  0.0495 -0.5939
17812SOL     OW54485   8.027   1.152   7.546 -0.0975 -0.1953  0.3031
17812SOL    HW154486   7.992   1.231   7.588  0.3614  0.8125 -1.1494
17812SOL    HW254487   8.110   1.135   7.591  0.3760  0.8527 -0.1606
17813SOL     OW54488   5.945   6.535   5.030 -0.1596  0.0496 -0.1318
17813SOL    HW154489   5.996   6.457   5.008  0.3095  0.2425  0.2532
17813SOL    HW254490   5.854   6.504   5.036 -0.0488 -0.3520 -0.5299
17814SOL     OW54491   7.472   8.101   0.366 -0.0479  0.3015  0.4922
17814SOL    HW154492   7.449   8.044   0.292 -0.7657 -0.2280  1.1064
17814SOL    HW254493   7.559   8.071   0.393 -0.0994 -0.0032  0.3259
17815SOL     OW54494   3.116   1.356   5.535 -0.4946 -0.0181  0.4217
17815SOL    HW154495   3.040   1.299   5.524 -0.6287  0.0710  0.8617
17815SOL    HW254496   3.159   1.324   5.614  0.5209 -0.7358 -0.4035
17816SOL     OW54497   1.475   2.863   0.378  0.2591  0.0518 -0.0420
17816SOL    HW154498   1.560   2.828   0.350  0.0401 -0.5012 -0.0295
17816SOL    HW254499   1.414   2.792   0.362  0.2341 -0.6290  2.6509
17817SOL     OW54500   1.070   6.077   3.800 -0.1338 -0.6506  0.4556
17817SOL    HW154501   1.024   5.997   3.827 -2.1200  0.6219  1.0053
17817SOL    HW254502   1.087   6.064   3.706 -1.4045 -1.2825  0.2897
17818SOL     OW54503   0.076   6.350   0.936  0.4831 -0.0918  0.3032
17818SOL    HW154504   0.018   6.290   0.982 -0.3852 -0.0866 -0.7465
17818SOL    HW254505   0.025   6.430   0.925  1.3628  0.5872  1.0166
17819SOL     OW54506   6.332   1.917   2.736  0.7281  0.6344 -0.2258
17819SOL    HW154507   6.400   1.963   2.787  0.8150 -1.2809  1.5160
17819SOL    HW254508   6.277   1.988   2.701  1.0227  2.1268  2.0735
17820SOL     OW54509   7.174   6.296   1.924  0.1888 -0.6222  0.2019
17820SOL    HW154510   7.213   6.211   1.943 -1.6045 -1.7909 -1.0692
17820SOL    HW254511   7.104   6.306   1.988  0.7687  0.2041  0.7288
17821SOL     OW54512   6.713   6.253   4.958 -0.6538  0.2422 -0.0172
17821SOL    HW154513   6.638   6.310   4.941 -1.1527  0.1330  1.6184
17821SOL    HW254514   6.789   6.310   4.952 -1.1053  0.9809  1.0397
17822SOL     OW54515   6.958   0.646   5.732  0.3104  0.0630  0.7743
17822SOL    HW154516   6.896   0.676   5.665  0.9544 -0.2803  0.0104
17822SOL    HW254517   7.034   0.702   5.722  0.1326  0.4997  1.7299
17823SOL     OW54518   4.651   7.620   3.653  0.0864  0.6231  0.2743
17823SOL    HW154519   4.711   7.668   3.597 -0.1351  2.2733  1.3852
17823SOL    HW254520   4.702   7.544   3.682  0.2838 -0.1262 -1.8756
17824SOL     OW54521   1.931   0.862   1.196 -0.0981 -0.0025 -0.0737
17824SOL    HW154522   1.897   0.915   1.268  0.2796  1.1404 -0.7143
17824SOL    HW254523   2.016   0.831   1.227 -0.0468  0.2803  0.0720
17825SOL     OW54524   7.774   7.235   1.854  0.7071  0.4458  0.3256
17825SOL    HW154525   7.851   7.196   1.813  0.1551 -0.2665 -0.0702
17825SOL    HW254526   7.761   7.186   1.935  1.9442  2.0198  1.5302
17826SOL     OW54527   7.900   1.752   4.821 -0.3357  0.3294 -0.0488
17826SOL    HW154528   7.955   1.828   4.843  1.4628 -1.2319  1.1935
17826SOL    HW254529   7.833   1.750   4.889  0.6865 -0.1639  0.9815
17827SOL     OW54530   5.473   1.896   6.161 -0.4113  0.6017  0.3095
17827SOL    HW154531   5.439   1.985   6.149  1.9020  1.7994  1.9252
17827SOL    HW254532   5.514   1.875   6.078 -2.4540  0.2623 -0.6889
17828SOL     OW54533   6.158   1.068   7.754 -0.5842  0.2963  0.6039
17828SOL    HW154534   6.249   1.091   7.775 -0.3042 -0.3133  0.1101
17828SOL    HW254535   6.164   1.022   7.670 -1.1783 -0.9218  1.2014
17829SOL     OW54536   6.850   3.803   6.343 -0.1915 -0.4475 -0.3666
17829SOL    HW154537   6.764   3.779   6.309 -0.6471  0.2470  0.2675
17829SOL    HW254538   6.894   3.720   6.358 -1.3088 -0.8691  0.7055
17830SOL     OW54539   5.074   2.864   2.097  0.0908 -0.1375  0.2464
17830SOL    HW154540   5.110   2.942   2.139 -1.4214 -0.4135  2.2235
17830SOL    HW254541   5.022   2.898   2.024 -2.8907  1.0991  2.7315
17831SOL     OW54542   6.164   5.834   6.691  0.3897  0.3758  0.2649
17831SOL    HW154543   6.080   5.876   6.707 -0.5260 -1.1973 -0.1543
17831SOL    HW254544   6.204   5.886   6.621 -0.4477  0.8631  0.1361
17832SOL     OW54545   5.690   1.511   2.631 -0.8061  0.1536  0.3260
17832SOL    HW154546   5.664   1.575   2.696  0.5223 -0.8072  1.8791
17832SOL    HW254547   5.783   1.529   2.616 -0.5206 -1.1249  0.4773
17833SOL     OW54548   1.583   3.081   3.495 -0.3481  0.3951  0.0791
17833SOL    HW154549   1.619   3.068   3.408 -1.7376  1.1859 -0.6515
17833SOL    HW254550   1.560   2.993   3.525  2.4009 -0.1926  0.7391
17834SOL     OW54551   3.301   5.140   2.075  0.4896 -0.1508  0.0797
17834SOL    HW154552   3.385   5.096   2.060  0.4424 -0.6586  1.2443
17834SOL    HW254553   3.322   5.233   2.078  0.6563 -0.0644 -1.9507
17835SOL     OW54554   6.976   4.351   4.618  0.1362 -0.4873 -0.7921
17835SOL    HW154555   6.907   4.413   4.593 -2.1168 -2.3339  0.3916
17835SOL    HW254556   7.051   4.374   4.563 -0.8815  2.6267 -1.0529
17836SOL     OW54557   7.977   6.014   7.047 -0.0870  0.2373  0.3112
17836SOL    HW154558   8.009   5.984   7.132  1.2906  1.3482  0.2147
17836SOL    HW254559   7.920   6.088   7.068  0.5298  0.7316  0.2521
17837SOL     OW54560   0.084   3.042   5.223 -0.4696  0.1909  0.1323
17837SOL    HW154561   0.070   2.951   5.249 -1.1569  0.1619 -0.3120
17837SOL    HW254562   0.046   3.094   5.294 -0.9059  0.1204 -0.0463
17838SOL     OW54563   6.412   6.696   5.559 -0.5976 -0.3906  0.4702
17838SOL    HW154564   6.443   6.748   5.633 -1.2604  1.1140 -0.2749
17838SOL    HW254565   6.323   6.727   5.544  0.1557  0.7282 -2.1487
17839SOL     OW54566   4.314   5.521   4.841  0.4667 -0.0900 -0.4330
17839SOL    HW154567   4.364   5.540   4.761  2.0975 -2.2658 -0.0279
17839SOL    HW254568   4.379   5.524   4.911 -0.7048  0.5573  0.6714
17840SOL     OW54569   6.883   4.713   7.656  0.6984  0.1987  0.2539
17840SOL    HW154570   6.892   4.808   7.649 -1.0920  0.4588  0.8614
17840SOL    HW254571   6.922   4.691   7.740  1.4889  0.3275 -0.0734
17841SOL     OW54572   5.100   6.673   3.025 -0.1686  0.0424 -0.4356
17841SOL    HW154573   5.172   6.617   2.996  0.3976  0.4548  0.1622
17841SOL    HW254574   5.114   6.756   2.981  0.2280  0.4070  0.3708
17842SOL     OW54575   5.642   5.406   8.143 -0.6812 -0.6793  0.2359
17842SOL    HW154576   5.618   5.320   8.108  1.5252 -0.5983 -1.7378
17842SOL    HW254577   5.724   5.390   8.190 -0.6036  0.2319  0.4153
17843SOL     OW54578   8.000   2.203   2.697 -0.3455 -0.3697 -0.2265
17843SOL    HW154579   8.040   2.122   2.663 -1.8830 -1.2644  0.0034
17843SOL    HW254580   7.952   2.175   2.775  0.8451  1.1705  1.1254
17844SOL     OW54581   3.552   7.469   6.586 -0.2439 -0.0918  0.3748
17844SOL    HW154582   3.613   7.396   6.598 -1.5487 -1.4811 -0.9531
17844SOL    HW254583   3.592   7.522   6.517 -0.1272 -0.5502  0.0825
17845SOL     OW54584   5.982   2.236   6.488  0.5900 -0.3638  0.4811
17845SOL    HW154585   5.902   2.273   6.527  0.1026 -1.1498  0.2535
17845SOL    HW254586   6.053   2.273   6.540  0.0145 -0.4480  1.3504
17846SOL     OW54587   3.979   3.037   5.378 -0.9894 -0.0731 -0.3925
17846SOL    HW154588   3.930   2.996   5.307 -2.2696  0.2131  0.2946
17846SOL    HW254589   3.985   3.129   5.352 -0.4129 -0.1876 -0.6833
17847SOL     OW54590   5.874   7.146   5.026  0.1993 -0.1633 -0.0457
17847SOL    HW154591   5.807   7.179   5.085 -0.1169 -0.2733 -0.3417
17847SOL    HW254592   5.830   7.137   4.942  1.0284  1.4300 -0.6855
17848SOL     OW54593   0.540   6.637   3.170  0.1548  0.6412  0.7516
17848SOL    HW154594   0.632   6.611   3.159  0.0282  0.4896  0.0112
17848SOL    HW254595   0.537   6.678   3.256  1.0276  1.1166  0.5639
17849SOL     OW54596   2.812   7.511   5.728  0.0968 -0.3097 -0.3721
17849SOL    HW154597   2.880   7.506   5.795  0.2710  1.4339 -0.3754
17849SOL    HW254598   2.780   7.422   5.720  1.0669 -0.8152  1.0026
17850SOL     OW54599   2.844   4.285   2.230  0.2409  0.2245  0.0705
17850SOL    HW154600   2.836   4.373   2.193 -2.6592  0.3749  0.7776
17850SOL    HW254601   2.928   4.253   2.197  1.7146  3.4427  0.2969
17851SOL     OW54602   8.088   3.562   7.001 -1.1120  0.0496  0.1663
17851SOL    HW154603   8.040   3.547   7.083 -0.1676 -2.1037  0.3812
17851SOL    HW254604   8.038   3.514   6.935 -0.8318  0.2055 -0.1579
17852SOL     OW54605   5.520   0.735   0.489  0.6535  0.0892 -0.5503
17852SOL    HW154606   5.575   0.657   0.486  3.3668  1.8684 -2.9932
17852SOL    HW254607   5.578   0.805   0.520 -0.6274  1.7573 -1.6701
17853SOL     OW54608   6.426   6.553   3.429  0.1771 -0.1003  0.2238
17853SOL    HW154609   6.359   6.503   3.381 -0.8024  0.1596  1.2823
17853SOL    HW254610   6.391   6.642   3.433  0.3846 -0.0517  1.1510
17854SOL     OW54611   2.916   4.756   6.651 -0.0660  0.0853 -0.8853
17854SOL    HW154612   2.826   4.726   6.658 -0.0320  0.2550  0.4617
17854SOL    HW254613   2.968   4.686   6.691  0.2033  0.8854  0.2210
17855SOL     OW54614   8.151   7.733   8.139 -0.6660 -0.2525  0.4884
17855SOL    HW154615   8.119   7.642   8.137 -1.8415  0.1449 -1.2386
17855SOL    HW254616   8.076   7.785   8.109  0.4895  1.1152 -0.1195
17856SOL     OW54617   2.525   6.918   0.804  0.3783  0.5065 -0.2639
17856SOL    HW154618   2.574   6.940   0.725 -0.6230  0.3257 -0.9514
17856SOL    HW254619   2.539   6.993   0.862 -0.2843  1.4631 -1.2921
17857SOL     OW54620   6.392   5.296   6.025  0.0896 -0.7216  0.2426
17857SOL    HW154621   6.383   5.390   6.042  1.9925 -0.6390  1.0223
17857SOL    HW254622   6.302   5.264   6.025 -0.6011  1.0756  0.0726
17858SOL     OW54623   4.946   6.691   1.700  0.4889  0.0389 -0.3046
17858SOL    HW154624   4.911   6.603   1.715  0.3036  0.0787 -0.5014
17858SOL    HW254625   5.024   6.676   1.647 -0.0832  0.0626 -1.1649
17859SOL     OW54626   4.629   8.158   0.315  0.4737 -0.1041  0.5566
17859SOL    HW154627   4.567   8.092   0.284  1.2837 -2.0806  2.8572
17859SOL    HW254628   4.575   8.236   0.329 -0.5020 -0.1416 -2.2584
17860SOL     OW54629   1.139   1.742   2.842 -0.2995 -0.3056 -0.7050
17860SOL    HW154630   1.144   1.793   2.761 -1.7441 -1.6169 -1.6611
17860SOL    HW254631   1.090   1.799   2.902  2.4842  1.5354  0.0328
17861SOL     OW54632   3.194   7.759   4.407  0.3467 -0.2162 -0.1838
17861SOL    HW154633   3.147   7.687   4.366  0.6504  0.7743 -2.4408
17861SOL    HW254634   3.286   7.734   4.401  0.4263  0.1642 -0.6215
17862SOL     OW54635   1.651   5.218   4.548  0.3080 -0.1996 -0.0653
17862SOL    HW154636   1.703   5.165   4.609 -0.3263  1.0048  1.5830
17862SOL    HW254637   1.711   5.286   4.518  0.5178 -0.5850 -0.5403
17863SOL     OW54638   2.435   7.210   8.037  0.4703  0.3666 -0.3762
17863SOL    HW154639   2.419   7.117   8.023  0.0276  0.3597  0.1311
17863SOL    HW254640   2.511   7.213   8.094  1.3545  0.3596 -1.5225
17864SOL     OW54641   3.403   7.321   2.573  0.3247  0.2287 -0.3866
17864SOL    HW154642   3.316   7.339   2.536  0.6532  1.1209 -0.7534
17864SOL    HW254643   3.462   7.322   2.498  0.4320 -2.2407 -0.4088
17865SOL     OW54644   0.390   4.117   2.438  0.2402 -0.5655 -0.5044
17865SOL    HW154645   0.353   4.058   2.373  0.5888 -1.7412  0.3259
17865SOL    HW254646   0.459   4.164   2.392  0.3317 -1.2166 -1.0439
17866SOL     OW54647   5.038   2.560   0.635 -0.5574  0.2205  0.0525
17866SOL    HW154648   5.033   2.523   0.547 -1.6179  1.3592 -0.3978
17866SOL    HW254649   5.106   2.627   0.630  2.2408 -2.2816  1.1752
17867SOL     OW54650   5.325   5.160   4.320  0.2061  0.5968  0.1299
17867SOL    HW154651   5.298   5.074   4.288 -0.0093  0.5943  0.3186
17867SOL    HW254652   5.266   5.179   4.393  0.1879  0.9459  0.0299
17868SOL     OW54653   4.985   0.635   8.019  0.0185  0.6539 -0.2019
17868SOL    HW154654   4.965   0.634   8.112 -0.3547  0.7319 -0.2776
17868SOL    HW254655   4.935   0.561   7.983 -0.6761  1.2586 -0.5036
17869SOL     OW54656   2.589   0.251   3.242 -0.3767 -0.1624 -0.5376
17869SOL    HW154657   2.542   0.206   3.313 -0.2490  0.9703  0.2931
17869SOL    HW254658   2.653   0.305   3.287  0.3687 -0.1579 -1.5835
17870SOL     OW54659   5.600   0.797   6.676  0.6626 -0.3393 -0.6024
17870SOL    HW154660   5.611   0.867   6.740 -0.2475  0.3774 -1.2071
17870SOL    HW254661   5.579   0.842   6.595  0.7499 -1.2894 -1.1683
17871SOL     OW54662   6.356   2.183   7.884 -0.2531  0.2091 -0.0632
17871SOL    HW154663   6.408   2.190   7.964 -1.2985  0.5647  0.6062
17871SOL    HW254664   6.413   2.137   7.822  1.4955  2.0391  0.0841
17872SOL     OW54665   2.612   1.015   6.770  0.0339 -0.2420 -0.4507
17872SOL    HW154666   2.572   1.101   6.771 -0.3369 -0.4104  0.3216
17872SOL    HW254667   2.705   1.031   6.754  0.2408  0.4395  1.2791
17873SOL     OW54668   8.230   0.633   4.442  0.5381  0.3213  0.1785
17873SOL    HW154669   8.144   0.673   4.452 -0.8744 -2.4560 -0.0053
17873SOL    HW254670   8.272   0.683   4.372 -1.0924  1.4357 -0.0613
17874SOL     OW54671   5.020   0.327   1.544 -0.1514 -0.1457  0.0868
17874SOL    HW154672   5.104   0.308   1.586  1.0400  2.8996 -0.6453
17874SOL    HW254673   5.024   0.280   1.460  1.7801  1.4742 -0.8150
17875SOL     OW54674   2.484   2.885   6.697  0.5449 -0.1299 -0.3632
17875SOL    HW154675   2.393   2.906   6.679  0.1709 -1.2951  0.0315
17875SOL    HW254676   2.534   2.944   6.641 -0.4146  1.3142  0.2658
17876SOL     OW54677   4.532   0.125   0.036  0.0316  0.0860 -0.1426
17876SOL    HW154678   4.437   0.108   0.035 -0.0651  0.5928 -0.0897
17876SOL    HW254679   4.546   0.180  -0.041  0.5844 -1.4664 -1.2096
17877SOL     OW54680   7.818   0.122   0.067 -0.4973  0.0445 -0.4761
17877SOL    HW154681   7.846   0.205   0.105 -2.2742 -0.0695  1.2675
17877SOL    HW254682   7.864   0.056   0.120 -0.5627 -0.0875 -0.5845
17878SOL     OW54683   0.865   0.390   1.227  0.0066 -0.0393 -0.0880
17878SOL    HW154684   0.886   0.483   1.218 -0.0788 -0.1815 -2.0835
17878SOL    HW254685   0.823   0.384   1.313  1.0752  1.5419  0.6163
17879SOL     OW54686   2.486   5.336   1.980  0.2040 -0.3235  0.0381
17879SOL    HW154687   2.514   5.425   1.958  1.6074 -0.7547 -0.0069
17879SOL    HW254688   2.404   5.324   1.932 -0.5355  1.2845  0.8538
17880SOL     OW54689   4.921   4.082   1.757  0.0472 -0.1800 -0.0303
17880SOL    HW154690   4.965   4.139   1.695  0.7948  0.8793  1.4121
17880SOL    HW254691   4.848   4.135   1.790 -0.3200 -0.7108  0.0105
17881SOL     OW54692   7.757   6.051   8.122 -0.2589  0.1184  0.5587
17881SOL    HW154693   7.701   5.988   8.168  1.8512 -2.3125  0.0047
17881SOL    HW254694   7.733   6.041   8.030  1.1398 -1.1077  0.2906
17882SOL     OW54695   1.926   5.795   1.673  0.7260 -0.2234  0.5165
17882SOL    HW154696   1.947   5.755   1.589  0.2847 -0.2451  0.4152
17882SOL    HW254697   1.935   5.889   1.658 -3.1245  0.1029 -0.6837
17883SOL     OW54698   0.222   1.833   3.970  0.0423 -0.2703  0.4015
17883SOL    HW154699   0.180   1.768   3.913 -0.9206 -0.5546  1.3989
17883SOL    HW254700   0.248   1.904   3.911 -0.6215 -0.7104 -0.4366
17884SOL     OW54701   0.867   4.751   1.812 -0.0100 -0.3442  0.5951
17884SOL    HW154702   0.825   4.736   1.897 -1.2817  2.1581  0.5000
17884SOL    HW254703   0.801   4.797   1.760  1.8462  1.0916 -0.6235
17885SOL     OW54704   4.498   2.213   0.224  0.1531  0.0157  0.0256
17885SOL    HW154705   4.466   2.163   0.298  1.2428  0.6273  0.9451
17885SOL    HW254706   4.547   2.149   0.171 -0.5203 -0.3923 -0.1103
17886SOL     OW54707   3.795   1.767   6.887  0.1408  0.7261 -0.3809
17886SOL    HW154708   3.848   1.801   6.959  0.1667 -1.6360  0.7982
17886SOL    HW254709   3.714   1.736   6.929  0.6924 -1.9009 -1.0444
17887SOL     OW54710   0.443   7.720   1.886 -0.1903  0.1118  0.1475
17887SOL    HW154711   0.371   7.713   1.949 -1.2187 -0.6012 -1.0532
17887SOL    HW254712   0.507   7.656   1.916 -0.2376  0.4460  0.9927
17888SOL     OW54713   7.209   1.676   1.970  0.6438  0.0495  0.3120
17888SOL    HW154714   7.139   1.735   1.999 -1.2857 -2.5103  1.2340
17888SOL    HW254715   7.258   1.657   2.050 -0.6724 -1.9088  0.7353
17889SOL     OW54716   2.048   8.076   5.934 -0.6188  0.3184  0.1806
17889SOL    HW154717   2.016   8.118   6.013 -0.7925  1.2620 -0.3800
17889SOL    HW254718   1.973   8.027   5.900  0.1880 -2.5418  2.1148
17890SOL     OW54719   1.117   2.335   0.420  0.0715  0.1644  0.4757
17890SOL    HW154720   1.127   2.240   0.414  0.4870  0.0988  1.8558
17890SOL    HW254721   1.023   2.350   0.422 -0.0019 -0.3651  1.9261
17891SOL     OW54722   1.652   5.282   6.736  0.2959  0.2474  0.7461
17891SOL    HW154723   1.627   5.218   6.803  0.7724  0.0105  0.7066
17891SOL    HW254724   1.711   5.342   6.782 -1.7397  1.9039  1.3255
17892SOL     OW54725   0.384   7.605   1.475  0.1647  0.0285 -0.0348
17892SOL    HW154726   0.389   7.532   1.413 -1.1780 -0.9265  0.9349
17892SOL    HW254727   0.473   7.639   1.479  0.8710 -1.6794 -0.3868
17893SOL     OW54728   2.204   1.127   1.436  0.2862 -0.5747 -0.6371
17893SOL    HW154729   2.218   1.062   1.368 -0.3130 -0.4920 -0.8493
17893SOL    HW254730   2.168   1.077   1.510  0.9000 -0.6585 -0.3931
17894SOL     OW54731   2.288   5.524   6.380 -0.1886 -0.3655  0.1889
17894SOL    HW154732   2.258   5.598   6.433 -0.3323 -0.0712 -0.2997
17894SOL    HW254733   2.341   5.472   6.440  1.7167  1.2323 -0.0002
17895SOL     OW54734   6.145   7.965   5.460 -0.1845  0.5865 -0.2978
17895SOL    HW154735   6.070   7.949   5.403 -1.2228  0.8194  0.9650
17895SOL    HW254736   6.118   7.931   5.546  1.9454 -1.3049 -0.2653
17896SOL     OW54737   3.942   7.580   2.817  0.2501  0.0940 -0.2488
17896SOL    HW154738   3.973   7.651   2.762  0.7933 -1.2707 -1.7991
17896SOL    HW254739   3.854   7.607   2.844  0.2570  1.1272 -1.2058
17897SOL     OW54740   2.027   5.256   3.530  0.2649  0.2174 -0.0011
17897SOL    HW154741   2.057   5.301   3.609 -1.2212 -0.8134  1.2118
17897SOL    HW254742   2.082   5.178   3.525  0.5817  0.4492 -0.1901
17898SOL     OW54743   5.010   2.553   2.065 -0.0971 -0.2026 -0.1091
17898SOL    HW154744   5.015   2.649   2.074  0.4623 -0.3234  1.0914
17898SOL    HW254745   5.101   2.526   2.057 -0.0497 -0.8319  2.1107
17899SOL     OW54746   0.284   1.659   2.457 -0.6568 -0.3209  0.1937
17899SOL    HW154747   0.345   1.627   2.391 -2.4308  0.8887 -2.1934
17899SOL    HW254748   0.249   1.580   2.497 -1.8550 -1.3348 -2.6099
17900SOL     OW54749   7.343   5.453   4.429 -0.0196  0.1577 -0.1052
17900SOL    HW154750   7.367   5.473   4.520  1.0110 -0.2707 -0.2661
17900SOL    HW254751   7.283   5.522   4.404  0.7563  1.0653  0.4740
17901SOL     OW54752   0.176   7.136   1.998 -0.3499 -0.1009  0.6317
17901SOL    HW154753   0.143   7.079   1.928 -1.1569 -0.1045  0.9998
17901SOL    HW254754   0.181   7.079   2.075 -0.8117  0.2341  0.9138
17902SOL     OW54755   3.347   6.182   1.349 -0.3029  0.1799 -0.7422
17902SOL    HW154756   3.307   6.240   1.413  1.5226  1.7204 -0.9116
17902SOL    HW254757   3.370   6.103   1.399 -0.5288  0.6294  0.0859
17903SOL     OW54758   5.727   7.540   2.562  0.1998 -0.4618 -0.6088
17903SOL    HW154759   5.718   7.535   2.467  0.0166 -0.1362 -0.6107
17903SOL    HW254760   5.790   7.472   2.584  0.6418 -0.1846 -1.0184
17904SOL     OW54761   5.301   2.087   6.504  0.0964 -0.0285  0.2363
17904SOL    HW154762   5.207   2.103   6.512  0.3765  1.7787  0.2499
17904SOL    HW254763   5.328   2.065   6.593 -0.1212  0.6740  0.4873
17905SOL     OW54764   2.436   4.460   4.240 -0.3665  0.1747  0.6985
17905SOL    HW154765   2.344   4.482   4.227  0.1674  1.1009 -2.3488
17905SOL    HW254766   2.441   4.365   4.227 -0.9334  0.0683  1.2456
17906SOL     OW54767   6.588   3.249   4.558 -0.0880  0.4595 -0.5533
17906SOL    HW154768   6.508   3.222   4.604  0.3393 -2.4630 -1.2916
17906SOL    HW254769   6.568   3.236   4.465  1.4975 -1.3053 -0.6979
17907SOL     OW54770   0.864   0.298   7.400 -0.3466 -0.3890  0.7050
17907SOL    HW154771   0.811   0.280   7.479  1.1964 -1.1002  1.6164
17907SOL    HW254772   0.942   0.245   7.411  0.3419  0.2426 -0.8754
17908SOL     OW54773   5.992   2.218   1.490 -0.4474 -0.3025 -0.1592
17908SOL    HW154774   5.899   2.216   1.466 -0.7379 -3.8186  0.6748
17908SOL    HW254775   6.037   2.243   1.409 -2.0740  0.7423 -0.7765
17909SOL     OW54776   6.273   8.278   6.897 -0.1911 -0.7185  0.2031
17909SOL    HW154777   6.240   8.188   6.910 -2.8537  0.0648 -0.5534
17909SOL    HW254778   6.228   8.309   6.819  0.3670  1.4173  0.6765
17910SOL     OW54779   2.723   4.970   4.949  0.1684  0.4057 -0.3773
17910SOL    HW154780   2.788   4.906   4.976  0.1210  0.4409 -0.1780
17910SOL    HW254781   2.742   5.047   5.002  0.1319  0.5059 -0.5100
17911SOL     OW54782   4.054   4.399   1.701 -0.4532  0.5356  0.3473
17911SOL    HW154783   3.989   4.347   1.748 -1.4847  2.3365  1.0179
17911SOL    HW254784   4.138   4.366   1.733 -1.0802 -0.1594  1.3575
17912SOL     OW54785   1.226   2.093   7.709  0.8983  0.0684  0.5059
17912SOL    HW154786   1.194   2.009   7.744  0.2352 -0.8726 -2.1341
17912SOL    HW254787   1.272   2.069   7.628  0.1829  2.3011 -0.6182
17913SOL     OW54788   4.143   1.807   2.366 -0.4239 -0.1950 -0.2555
17913SOL    HW154789   4.150   1.830   2.459  2.2191 -1.0747 -0.1657
17913SOL    HW254790   4.187   1.879   2.320 -0.0256 -0.6994 -0.6702
17914SOL     OW54791   0.489   8.111   0.916 -0.0925  0.1134  0.1332
17914SOL    HW154792   0.428   8.160   0.971 -1.1368 -0.6748 -0.2879
17914SOL    HW254793   0.531   8.177   0.862 -2.7086  0.4665 -1.6700
17915SOL     OW54794   0.863   0.972   5.372  0.4903  0.5118  0.7420
17915SOL    HW154795   0.887   0.880   5.377 -1.5234  0.0116  2.4482
17915SOL    HW254796   0.927   1.017   5.428  0.6176 -0.0415  1.0408
17916SOL     OW54797   0.428   2.600   6.416  0.3777 -0.0687 -0.3308
17916SOL    HW154798   0.373   2.521   6.420 -0.0166  0.2734  1.3749
17916SOL    HW254799   0.456   2.604   6.324 -0.3177 -1.6971 -0.6513
17917SOL     OW54800   6.373   3.799   4.088  0.2091  0.2909 -0.9056
17917SOL    HW154801   6.407   3.710   4.087 -0.9056 -0.1312 -1.2793
17917SOL    HW254802   6.338   3.813   4.000 -1.3159  0.4225 -0.3073
17918SOL     OW54803   7.332   6.407   8.249 -0.2087 -0.3622  0.4557
17918SOL    HW154804   7.278   6.457   8.188  0.5429  1.9337  1.5491
17918SOL    HW254805   7.269   6.360   8.304 -1.0467  0.6178  0.3656
17919SOL     OW54806   0.266   6.559   1.674  1.0363 -0.7067 -0.4084
17919SOL    HW154807   0.277   6.566   1.580  1.0836  0.8468 -0.3082
17919SOL    HW254808   0.230   6.471   1.688 -0.6347 -0.3424 -2.0238
17920SOL     OW54809   7.549   6.515   1.964  0.1534 -0.3483 -0.3734
17920SOL    HW154810   7.543   6.496   2.057 -1.0246  2.6309  0.2542
17920SOL    HW254811   7.625   6.573   1.956 -1.7454  2.2903 -0.6024
17921SOL     OW54812   7.665   6.804   2.587  0.1772 -0.0031  0.5261
17921SOL    HW154813   7.750   6.843   2.603 -0.2941  1.2851  0.0498
17921SOL    HW254814   7.682   6.711   2.577  1.5364  0.2582  0.3116
17922SOL     OW54815   0.822   6.045   5.693  0.4828  0.2074 -0.0404
17922SOL    HW154816   0.794   5.979   5.630  2.7298 -0.4566 -0.4607
17922SOL    HW254817   0.791   6.012   5.778 -0.5907 -0.0682 -0.5260
17923SOL     OW54818   2.509   3.498   2.988  0.0425  0.1087  0.0976
17923SOL    HW154819   2.427   3.455   3.010  0.5103 -1.1139 -0.4977
17923SOL    HW254820   2.563   3.430   2.948  2.3283  0.1698  2.7503
17924SOL     OW54821   7.199   0.808   5.873  0.1713  0.6685 -0.4583
17924SOL    HW154822   7.140   0.775   5.940 -0.9302  2.8386 -0.2604
17924SOL    HW254823   7.270   0.850   5.922 -0.2906  1.6727 -0.6265
17925SOL     OW54824   4.920   8.092   7.116 -0.4726  0.2584  0.2669
17925SOL    HW154825   4.966   8.100   7.200 -1.7522 -0.3705  1.0626
17925SOL    HW254826   4.976   8.033   7.064  0.7219  1.2664  0.3652
17926SOL     OW54827   7.527   1.390   3.874  0.0796 -0.0084  0.1933
17926SOL    HW154828   7.443   1.377   3.830 -0.6376  0.1000  1.4938
17926SOL    HW254829   7.559   1.302   3.892 -0.8990 -0.0842  1.7656
17927SOL     OW54830   7.567   5.522   5.209  0.4263  0.3260  0.1314
17927SOL    HW154831   7.631   5.523   5.138 -0.4851 -0.9638 -0.7817
17927SOL    HW254832   7.619   5.517   5.289  1.4750  1.2111 -0.4712
17928SOL     OW54833   3.316   4.331   6.772 -0.5464 -0.3596 -0.7481
17928SOL    HW154834   3.331   4.237   6.782 -0.1866 -0.5163 -2.5711
17928SOL    HW254835   3.223   4.337   6.749 -0.7268 -0.1972 -0.0168
17929SOL     OW54836   1.248   0.521   1.075  0.4250 -0.1840 -0.2694
17929SOL    HW154837   1.320   0.458   1.062  0.0854 -0.1236 -2.8799
17929SOL    HW254838   1.278   0.577   1.147  1.9901 -1.5466  0.1977
17930SOL     OW54839   5.006   1.957   3.099  0.0639 -0.0882 -0.2275
17930SOL    HW154840   5.063   2.033   3.093  0.1915  0.0549  2.0921
17930SOL    HW254841   5.035   1.900   3.028 -0.0470  1.9650 -2.0498
17931SOL     OW54842   4.527   2.323   0.935 -0.1507 -0.1602 -0.0068
17931SOL    HW154843   4.548   2.317   1.028 -0.0072  0.1116 -0.0205
17931SOL    HW254844   4.603   2.366   0.896  0.8791 -2.3732 -0.6286
17932SOL     OW54845   6.409   1.617   5.296  0.0580  0.0904  0.4056
17932SOL    HW154846   6.355   1.537   5.298 -1.1062  0.8365  0.1197
17932SOL    HW254847   6.402   1.653   5.384 -0.5563  0.5815  0.1680
17933SOL     OW54848   3.122   7.340   4.075  0.2067 -0.0356  0.7003
17933SOL    HW154849   3.215   7.361   4.086  0.6881 -2.5337  2.3176
17933SOL    HW254850   3.118   7.290   3.993 -0.0608  1.6320 -0.3377
17934SOL     OW54851   2.338   5.379   2.756 -0.0548 -0.2433 -0.0037
17934SOL    HW154852   2.360   5.379   2.663  1.8670 -4.7125  0.1673
17934SOL    HW254853   2.261   5.323   2.763 -2.1165  2.4889  0.9845
17935SOL     OW54854   5.729   6.915   0.556 -0.5429 -0.1540  0.3974
17935SOL    HW154855   5.642   6.924   0.518 -0.7010 -1.1978  0.4753
17935SOL    HW254856   5.786   6.896   0.482 -0.7434 -1.5359  0.5658
17936SOL     OW54857   4.169   4.814   4.289  0.5931  0.2408  0.6026
17936SOL    HW154858   4.197   4.880   4.353 -1.3065 -1.4466  3.3363
17936SOL    HW254859   4.084   4.845   4.258  0.8207  0.2859  0.0105
17937SOL     OW54860   3.509   6.406   5.538  0.1760  0.0733 -0.1771
17937SOL    HW154861   3.526   6.396   5.444  2.2305 -3.8870  0.4245
17937SOL    HW254862   3.583   6.457   5.570  0.3621 -0.0199 -0.4518
17938SOL     OW54863   8.051   0.040   8.184  0.5939 -0.0377 -0.1881
17938SOL    HW154864   7.972  -0.003   8.216  1.5906 -0.5572  1.7678
17938SOL    HW254865   8.095  -0.026   8.132  0.8889 -0.5837  0.7282
17939SOL     OW54866   5.009   4.678   3.046  0.0480  0.2304  0.4525
17939SOL    HW154867   4.966   4.762   3.028  0.2957 -0.1550 -2.4558
17939SOL    HW254868   5.100   4.700   3.065 -0.1801  0.6814  1.0536
17940SOL     OW54869   5.808   3.299   0.822 -0.0565 -0.1407 -0.0092
17940SOL    HW154870   5.851   3.215   0.806 -0.1712 -0.2886  0.4364
17940SOL    HW254871   5.872   3.365   0.794  0.1589 -0.3718 -0.0612
17941SOL     OW54872   1.420   5.055   2.046  0.0015 -0.6536 -0.2128
17941SOL    HW154873   1.366   5.079   2.121 -0.4112  0.7069 -0.9219
17941SOL    HW254874   1.492   5.004   2.083 -0.1894  0.0110  1.0951
17942SOL     OW54875   4.541   4.656   7.521  0.2114 -0.2993 -0.3317
17942SOL    HW154876   4.446   4.646   7.521 -0.0067  1.2722  1.2122
17942SOL    HW254877   4.575   4.567   7.524 -1.1923 -0.8938 -1.0818
17943SOL     OW54878   4.522   6.039   6.209  0.4802  0.1553 -0.5887
17943SOL    HW154879   4.523   6.131   6.234  0.1641 -0.1655  0.6405
17943SOL    HW254880   4.456   6.033   6.140 -2.2349  0.2371  1.8576
17944SOL     OW54881   5.626   6.003   1.373 -0.8831  0.2436  0.7727
17944SOL    HW154882   5.715   6.002   1.336 -1.0216 -0.4424  0.4465
17944SOL    HW254883   5.627   5.933   1.438 -1.2141  0.1612  0.6895
17945SOL     OW54884   4.515   5.731   1.673 -0.1392 -0.0424  1.1529
17945SOL    HW154885   4.516   5.684   1.590 -1.2073 -1.8776  2.1164
17945SOL    HW254886   4.601   5.714   1.712  0.4288  0.9625  0.3990
17946SOL     OW54887   4.455   0.581   5.966 -0.3587 -0.8498  0.1377
17946SOL    HW154888   4.507   0.510   6.004  0.8117 -0.6845 -1.0818
17946SOL    HW254889   4.468   0.572   5.871  0.4969  1.4801 -0.0276
17947SOL     OW54890   6.663   1.342   5.260  0.5533 -0.3641 -0.5221
17947SOL    HW154891   6.674   1.247   5.257 -1.4737 -0.6420 -0.2842
17947SOL    HW254892   6.592   1.360   5.199  0.5428  0.9485 -0.1604
17948SOL     OW54893   4.258   2.404   0.876 -0.2044 -0.3899 -0.3542
17948SOL    HW154894   4.252   2.411   0.972  0.3631 -0.8004 -0.2883
17948SOL    HW254895   4.346   2.370   0.860  0.6210  1.9200 -1.1257
17949SOL     OW54896   4.835   0.692   5.911  0.1287 -0.1855 -0.3415
17949SOL    HW154897   4.871   0.641   5.839 -0.3700 -1.1406  0.0658
17949SOL    HW254898   4.877   0.778   5.904 -0.1164 -0.1803 -1.9184
17950SOL     OW54899   6.091   4.368   0.786 -0.3236 -1.0817  0.2055
17950SOL    HW154900   6.049   4.286   0.811 -0.5433 -1.9181 -2.5513
17950SOL    HW254901   6.174   4.342   0.746  0.5354  0.2204  1.0492
17951SOL     OW54902   7.603   3.522   2.035  0.0276 -0.0234  0.0832
17951SOL    HW154903   7.587   3.526   1.940 -0.2074  0.8917  0.1569
17951SOL    HW254904   7.583   3.431   2.058 -0.2945 -0.1566 -0.6773
17952SOL     OW54905   6.960   5.145   8.111 -0.0921  0.4098  0.3119
17952SOL    HW154906   7.010   5.120   8.189 -3.5879  1.2879  3.0910
17952SOL    HW254907   6.985   5.236   8.095 -0.5081  0.7434  1.4629
17953SOL     OW54908   0.037   4.722   0.471 -0.2716  0.1085  0.6560
17953SOL    HW154909  -0.007   4.660   0.413  2.1298 -2.5170  1.3676
17953SOL    HW254910  -0.002   4.706   0.557  0.3615 -0.4972  0.8431
17954SOL     OW54911   5.069   5.605   4.251  0.0237  0.3912  0.0746
17954SOL    HW154912   5.064   5.530   4.192 -0.1422 -0.5741  1.2804
17954SOL    HW254913   5.133   5.663   4.210  0.8817 -0.8455 -0.4102
17955SOL     OW54914   3.684   4.504   5.834  0.1274 -0.3679  0.5945
17955SOL    HW154915   3.718   4.421   5.801  4.3666  1.2564  0.2075
17955SOL    HW254916   3.659   4.552   5.755 -2.2700 -1.1241  0.8144
17956SOL     OW54917   1.977   2.809   7.194  0.0492 -0.3345 -0.3068
17956SOL    HW154918   2.001   2.729   7.241 -0.0503 -0.9617 -1.2817
17956SOL    HW254919   1.884   2.822   7.215  0.0792 -0.4470 -0.1031
17957SOL     OW54920   7.030   8.155   3.708  0.1630  0.5818 -0.1892
17957SOL    HW154921   7.038   8.250   3.723 -0.7743  0.5026  0.9966
17957SOL    HW254922   7.091   8.137   3.637  2.2942  1.6672  1.2298
17958SOL     OW54923   4.438   1.803   2.133  0.0502  0.3679 -0.0100
17958SOL    HW154924   4.443   1.808   2.228 -2.0175  0.4712  0.1430
17958SOL    HW254925   4.379   1.874   2.108 -0.9959 -0.8590 -1.1762
17959SOL     OW54926   5.603   7.043   4.522  0.3306  0.6053  0.5580
17959SOL    HW154927   5.550   7.118   4.548 -0.7404 -0.3456  1.2073
17959SOL    HW254928   5.599   6.984   4.597 -0.7164 -1.1070 -0.7805
17960SOL     OW54929   3.542   2.131   6.414 -0.1520  0.3776  0.6203
17960SOL    HW154930   3.625   2.179   6.407 -0.5206  1.1083  1.1394
17960SOL    HW254931   3.522   2.104   6.324 -0.1758  1.6381  0.2312
17961SOL     OW54932   1.217   6.848   4.944  0.4209  0.8016 -0.5167
17961SOL    HW154933   1.267   6.880   5.019  1.9550 -0.4073 -0.9675
17961SOL    HW254934   1.283   6.826   4.878 -0.6965 -0.8123 -1.1760
17962SOL     OW54935   6.083   7.657   3.246 -0.3583  0.8788  0.1159
17962SOL    HW154936   6.042   7.720   3.305 -1.9770 -0.0465  0.0491
17962SOL    HW254937   6.096   7.579   3.301 -0.9462  0.3579 -0.4547
17963SOL     OW54938   5.672   7.960   0.702 -0.0674  0.4510 -0.1128
17963SOL    HW154939   5.601   8.023   0.687 -0.3291  1.1372  3.2085
17963SOL    HW254940   5.632   7.892   0.758  1.6238  0.4215  1.1492
17964SOL     OW54941   3.075   6.337   3.220 -0.1497  0.4987  0.2805
17964SOL    HW154942   3.020   6.409   3.253  2.4415  2.4920  0.5778
17964SOL    HW254943   3.058   6.337   3.126 -2.0015 -0.2197  0.5633
17965SOL     OW54944   4.156   2.745   5.218  0.6091  0.4346 -0.2256
17965SOL    HW154945   4.069   2.711   5.242  1.0357 -0.3513  0.2594
17965SOL    HW254946   4.138   2.821   5.163 -0.4183  1.2868  1.2070
17966SOL     OW54947   3.201   3.456   4.915 -0.0441  0.2628 -0.7828
17966SOL    HW154948   3.112   3.445   4.883 -0.8309  1.1021  0.9895
17966SOL    HW254949   3.230   3.367   4.935 -0.1771 -0.0907 -2.0359
17967SOL     OW54950   2.282   0.173   7.112 -0.1378  0.8539  0.7087
17967SOL    HW154951   2.250   0.085   7.091 -0.0000  1.1595 -0.9167
17967SOL    HW254952   2.222   0.205   7.179 -1.5253  0.3265 -0.2308
17968SOL     OW54953   4.728   5.519   8.208 -0.2823 -0.2155  0.7291
17968SOL    HW154954   4.677   5.585   8.256 -0.1804  1.2817 -1.0875
17968SOL    HW254955   4.819   5.540   8.227 -0.2607 -0.1209  0.5246
17969SOL     OW54956   4.697   6.238   3.152 -0.1296  0.5753  0.2999
17969SOL    HW154957   4.730   6.300   3.217  2.9007  0.3600 -0.8382
17969SOL    HW254958   4.748   6.158   3.168 -1.1428 -0.3072 -0.7297
17970SOL     OW54959   0.918   4.268   4.302 -0.0191 -0.1510 -0.5876
17970SOL    HW154960   0.948   4.189   4.347  1.2111  0.9374  0.5931
17970SOL    HW254961   0.846   4.300   4.356  0.1165  0.0313 -0.5097
17971SOL     OW54962   1.855   3.179   3.199  0.4253 -0.2434 -0.0390
17971SOL    HW154963   1.785   3.121   3.229 -0.8826  2.1623  1.9410
17971SOL    HW254964   1.929   3.159   3.256 -0.2669  0.4807  1.1570
17972SOL     OW54965   4.446   4.570   0.331  0.5417  0.2220  0.6097
17972SOL    HW154966   4.497   4.549   0.253 -2.1300  0.0210 -1.2610
17972SOL    HW254967   4.372   4.622   0.298 -3.3897 -3.7832  2.0134
17973SOL     OW54968   5.088   4.110   7.398  0.0669  0.2447 -0.3033
17973SOL    HW154969   5.080   4.016   7.384 -0.6514  0.0926  1.0300
17973SOL    HW254970   5.183   4.126   7.401  0.1901 -0.4098 -0.6247
17974SOL     OW54971   0.296   4.266   4.671  0.2884 -1.0719  0.1693
17974SOL    HW154972   0.217   4.217   4.696 -0.1105 -0.1692  0.7086
17974SOL    HW254973   0.368   4.212   4.704 -0.1380 -1.3980  0.5875
17975SOL     OW54974   6.000   4.728   6.001 -0.1090 -0.3512 -0.6415
17975SOL    HW154975   6.042   4.675   5.935 -0.4055  0.7121 -1.7207
17975SOL    HW254976   5.906   4.714   5.988 -0.1871  0.3840 -0.8983
17976SOL     OW54977   3.025   7.828   1.121  0.3544 -0.0307 -0.0849
17976SOL    HW154978   3.054   7.899   1.178 -0.7590 -0.5531  1.2051
17976SOL    HW254979   3.103   7.775   1.107  0.4942 -0.3451  1.6728
17977SOL     OW54980   7.864   3.575   6.439  0.1620 -0.6113  0.3215
17977SOL    HW154981   7.944   3.577   6.491 -0.7925 -1.6893  1.9307
17977SOL    HW254982   7.806   3.640   6.480  0.0456 -0.1395 -0.5628
17978SOL     OW54983   6.902   5.476   1.548  0.2887 -0.3106 -0.0835
17978SOL    HW154984   6.812   5.455   1.522  0.7696 -1.0557 -1.2292
17978SOL    HW254985   6.956   5.437   1.480  1.4146  1.8429 -0.4943
17979SOL     OW54986   0.066   0.682   0.056 -0.0990 -0.4725  0.7256
17979SOL    HW154987   0.122   0.610   0.025  0.7197  0.4081  0.1213
17979SOL    HW254988   0.100   0.702   0.144 -0.7501 -1.2409  1.1664
17980SOL     OW54989   0.706   5.445   0.463 -0.1632  0.7538  0.1924
17980SOL    HW154990   0.667   5.515   0.516  0.0482  0.0110  1.3612
17980SOL    HW254991   0.744   5.385   0.527  2.8827  1.3857 -0.8565
17981SOL     OW54992   5.952   6.857   3.606 -0.0320 -0.1439 -0.3139
17981SOL    HW154993   5.921   6.915   3.537 -0.5071 -0.0105  0.0112
17981SOL    HW254994   5.997   6.786   3.559  0.6978  0.5559 -0.7061
17982SOL     OW54995   3.487   8.027   5.763 -0.0998  0.0423 -0.1379
17982SOL    HW154996   3.516   7.989   5.680 -1.8452 -1.3527 -0.1576
17982SOL    HW254997   3.400   7.991   5.777 -0.2965  1.1298  1.7708
17983SOL     OW54998   4.201   2.988   7.028 -0.2377  0.0461  0.0309
17983SOL    HW154999   4.222   3.042   6.953  2.5219 -2.6369 -1.3275
17983SOL    HW255000   4.265   3.014   7.095  1.4190 -1.6717 -0.7910
17984SOL     OW55001   0.226   2.204   2.245 -0.0356  0.5271  0.1251
17984SOL    HW155002   0.291   2.134   2.253  0.2647  0.6953 -0.7163
17984SOL    HW255003   0.229   2.250   2.329 -0.1765 -0.4121  0.6552
17985SOL     OW55004   7.787   1.012   7.420  0.4084  0.4302 -0.3397
17985SOL    HW155005   7.726   1.078   7.388  0.3252  0.2897 -0.4719
17985SOL    HW255006   7.863   1.062   7.451 -0.0135  0.6358  0.3656
17986SOL     OW55007   1.762   7.432   8.101 -0.3803 -0.6802  0.2997
17986SOL    HW155008   1.725   7.497   8.161  0.8439 -1.7265  2.2909
17986SOL    HW255009   1.856   7.451   8.100 -0.4749  0.2306 -2.5484
17987SOL     OW55010   3.225   5.470   0.741 -0.2277 -0.2448 -0.1056
17987SOL    HW155011   3.240   5.465   0.836 -3.1529  1.0641  0.5472
17987SOL    HW255012   3.246   5.560   0.718 -3.6188  0.7996  0.3091
17988SOL     OW55013   7.827   6.919   5.186 -0.4547  0.2483 -0.0531
17988SOL    HW155014   7.885   6.971   5.129 -1.3265  1.2267 -0.0786
17988SOL    HW255015   7.856   6.829   5.174 -0.3492  0.4736 -1.7511
17989SOL     OW55016   6.056   2.036   6.711 -0.3364 -0.3562  0.2401
17989SOL    HW155017   6.021   2.089   6.783 -0.4089 -0.9148  0.6226
17989SOL    HW255018   6.028   2.083   6.632  3.5697  2.8379  0.4462
17990SOL     OW55019   6.341   5.168   4.232 -0.3014  0.1756  0.3395
17990SOL    HW155020   6.248   5.183   4.251 -0.2340  1.3990 -0.1933
17990SOL    HW255021   6.369   5.247   4.186  0.6758 -0.7310 -0.7117
17991SOL     OW55022   4.737   4.848   7.607  0.0832  0.0458 -0.9127
17991SOL    HW155023   4.800   4.807   7.547  0.4809  0.1169 -0.5509
17991SOL    HW255024   4.664   4.787   7.611  0.7641 -0.7610 -0.2095
17992SOL     OW55025   7.911   3.396   1.277 -0.6058 -0.7467  1.1342
17992SOL    HW155026   8.006   3.395   1.290 -0.7015 -0.3033  1.9016
17992SOL    HW255027   7.900   3.389   1.182  0.2052 -0.3258  1.0034
17993SOL     OW55028   4.007   7.352   1.845  0.0819 -0.1629  0.1721
17993SOL    HW155029   4.019   7.282   1.909  0.4924  0.1778  0.4757
17993SOL    HW255030   3.999   7.308   1.761 -3.0371 -0.8323  0.6795
17994SOL     OW55031   6.938   0.393   2.663 -0.2706  0.0846 -0.0127
17994SOL    HW155032   6.901   0.334   2.728 -1.0237 -0.5807 -1.0067
17994SOL    HW255033   6.902   0.362   2.580  1.8416 -0.0492 -0.9395
17995SOL     OW55034   0.454   4.581   6.020 -0.6309 -0.0597  0.3786
17995SOL    HW155035   0.359   4.572   6.011 -0.6991  1.0684 -0.2404
17995SOL    HW255036   0.467   4.627   6.103 -0.6751  0.4574  0.1027
17996SOL     OW55037   1.808   1.852   2.205  0.1730 -0.0248  0.0324
17996SOL    HW155038   1.834   1.924   2.147  2.2575 -1.0348 -0.4055
17996SOL    HW255039   1.844   1.874   2.290 -1.2755  0.5580  0.5277
17997SOL     OW55040   6.232   7.145   7.641  0.1950 -0.0602 -0.3297
17997SOL    HW155041   6.221   7.050   7.650  1.8535 -0.1361  1.3335
17997SOL    HW255042   6.227   7.178   7.730 -2.3109  1.7299 -1.0139
17998SOL     OW55043   7.042   2.536   5.465  0.1050 -0.3948  0.0927
17998SOL    HW155044   7.070   2.626   5.450  3.3353 -1.0134  1.6542
17998SOL    HW255045   6.986   2.542   5.543  0.0577  0.2683  0.0171
17999SOL     OW55046   8.075   0.538   0.789  0.5816 -0.1224 -0.1633
17999SOL    HW155047   8.038   0.452   0.808  0.3059  0.0632  0.1641
17999SOL    HW255048   8.160   0.520   0.750  0.3478 -0.5494 -0.4786
18000SOL     OW55049   7.464   2.408   7.615  0.3834  0.1265 -0.0203
18000SOL    HW155050   7.506   2.494   7.616  1.2240 -0.2800  0.3726
18000SOL    HW255051   7.525   2.350   7.662 -0.5581 -0.5065  0.4634
18001SOL     OW55052   3.905   2.040   6.354  0.2159 -0.3205  0.2463
18001SOL    HW155053   3.884   1.980   6.283  0.6988  1.2625 -1.2994
18001SOL    HW255054   3.845   2.113   6.342 -0.8701 -0.7277  2.5298
18002SOL     OW55055   7.676   1.244   4.746  0.0923 -0.0904 -0.2352
18002SOL    HW155056   7.604   1.186   4.722 -0.0839  0.0486 -0.0492
18002SOL    HW255057   7.748   1.185   4.769 -0.5465 -0.2885  1.4271
18003SOL     OW55058   2.477   0.070   2.069  0.4831 -0.4635 -0.0250
18003SOL    HW155059   2.482  -0.026   2.066 -0.1144 -0.5032  0.0682
18003SOL    HW255060   2.415   0.093   1.999 -1.6848 -0.3610  1.7918
18004SOL     OW55061   5.920   3.875   3.274 -0.1987 -0.8501 -0.1222
18004SOL    HW155062   5.887   3.926   3.348 -2.0048  0.5259 -1.7680
18004SOL    HW255063   5.981   3.813   3.314 -0.3939  0.4145  2.3863
18005SOL     OW55064   6.405   2.216   4.838 -0.5871  0.1805  0.0457
18005SOL    HW155065   6.476   2.248   4.894 -1.2347  2.5450 -0.3692
18005SOL    HW255066   6.448   2.155   4.778  0.7491  0.1713  0.9692
18006SOL     OW55067   2.479   5.174   0.080  0.1795  0.6452  0.4617
18006SOL    HW155068   2.438   5.221   0.153 -0.6712  0.5728  0.0372
18006SOL    HW255069   2.505   5.090   0.119  1.8994  1.4832  1.2771
18007SOL     OW55070   8.093   4.043   0.399 -0.0081 -1.1188  0.6555
18007SOL    HW155071   8.071   3.973   0.337 -0.5583 -0.2705 -0.1380
18007SOL    HW255072   8.118   4.117   0.343  0.0514 -0.5101  1.4673
18008SOL     OW55073   7.573   1.622   4.567  0.1905 -0.2777  0.4279
18008SOL    HW155074   7.657   1.586   4.541  0.9722  0.7482  1.4130
18008SOL    HW255075   7.542   1.669   4.490 -0.0144 -1.5688 -0.2925
18009SOL     OW55076   7.016   4.717   5.819 -0.1143 -0.1461 -0.2588
18009SOL    HW155077   7.078   4.758   5.759 -1.2959 -0.3158 -1.6347
18009SOL    HW255078   7.068   4.650   5.864  1.0681  0.7466 -0.2458
18010SOL     OW55079   5.161   3.980   2.209  0.3458 -0.1558  0.3769
18010SOL    HW155080   5.128   4.027   2.132  1.6883 -1.0629 -0.8057
18010SOL    HW255081   5.097   3.998   2.277 -0.3109  1.6171 -0.6249
18011SOL     OW55082   7.112   1.874   1.251 -0.1684  0.2672 -0.1037
18011SOL    HW155083   7.157   1.883   1.167 -0.6336 -2.6050 -0.7492
18011SOL    HW255084   7.145   1.947   1.304  2.3922  0.4180 -1.7579
18012SOL     OW55085   4.234   4.389   5.105  0.4244 -0.3353  0.3341
18012SOL    HW155086   4.252   4.325   5.037  0.1752 -0.7614  0.6624
18012SOL    HW255087   4.176   4.343   5.166 -0.0095  0.3072  0.4109
18013SOL     OW55088   0.496   6.701   0.344 -0.0636  0.3698 -0.6144
18013SOL    HW155089   0.495   6.791   0.310 -0.9591 -0.2475 -2.3464
18013SOL    HW255090   0.589   6.680   0.352  0.1602  1.2598 -0.7827
18014SOL     OW55091   2.612   4.931   3.499  0.2866  0.1295  0.0279
18014SOL    HW155092   2.682   4.976   3.546  1.3148 -0.4170 -0.9631
18014SOL    HW255093   2.634   4.941   3.407 -0.5727 -0.6527 -0.2781
18015SOL     OW55094   2.782   0.064   5.773 -0.1195  0.3179  0.7546
18015SOL    HW155095   2.799   0.082   5.681  2.0159  2.2958  1.4129
18015SOL    HW255096   2.812  -0.026   5.787  1.5583  0.7101 -0.0875
18016SOL     OW55097   5.813   1.556   6.634 -0.4983 -0.2450 -0.2609
18016SOL    HW155098   5.849   1.629   6.583 -0.6535  1.3158  1.7167
18016SOL    HW255099   5.886   1.496   6.644  0.2040  0.5700 -0.3446
18017SOL     OW55100   5.335   7.526   2.091  0.0990  0.6816 -0.2434
18017SOL    HW155101   5.295   7.611   2.110 -1.3366  0.5400 -2.2554
18017SOL    HW255102   5.429   7.543   2.093 -0.1574  2.3250 -0.5590
18018SOL     OW55103   5.433   1.977   2.713 -0.0923 -0.3395  0.3651
18018SOL    HW155104   5.372   2.048   2.693  0.5296 -0.2584 -1.3286
18018SOL    HW255105   5.489   2.012   2.783 -2.0492 -0.4885  2.1217
18019SOL     OW55106   1.151   1.936   2.651  0.2197 -0.8939 -0.5823
18019SOL    HW155107   1.126   1.918   2.560 -0.8675 -1.7984 -0.1304
18019SOL    HW255108   1.243   1.963   2.647  0.0806 -0.5759 -1.9793
18020SOL     OW55109   5.963   5.654   2.174  0.4780  0.3813 -0.4191
18020SOL    HW155110   5.990   5.739   2.142 -2.5100  2.1349  1.1879
18020SOL    HW255111   5.879   5.671   2.219  0.4498 -3.1435  1.2277
18021SOL     OW55112   6.294   1.946   6.827  0.4248  0.1800  0.0557
18021SOL    HW155113   6.353   1.951   6.752 -1.9199  1.2612 -1.8953
18021SOL    HW255114   6.212   1.984   6.795 -0.8552  0.2760  3.0730
18022SOL     OW55115   0.104   2.621   3.290 -0.5580  0.6692 -0.2320
18022SOL    HW155116   0.180   2.574   3.323 -0.3556  1.2814  0.1847
18022SOL    HW255117   0.031   2.559   3.302 -0.1528  0.1246 -0.5313
18023SOL     OW55118   2.670   7.536   1.305  0.3918  0.1101  0.1983
18023SOL    HW155119   2.650   7.556   1.213 -1.7494 -1.7718  0.1671
18023SOL    HW255120   2.623   7.603   1.354 -0.7239 -0.4683 -0.0501
18024SOL     OW55121   2.448   1.865   3.790  0.2342  0.0668 -0.1101
18024SOL    HW155122   2.404   1.813   3.857  0.6743 -1.2236 -0.7822
18024SOL    HW255123   2.407   1.838   3.707  0.7140  0.5299 -0.5090
18025SOL     OW55124   0.361   2.703   0.197 -0.1356  0.6126  0.4636
18025SOL    HW155125   0.416   2.748   0.261 -0.7683  1.0303  0.7186
18025SOL    HW255126   0.368   2.757   0.118 -1.2631  1.4452  0.9061
18026SOL     OW55127   4.829   1.643   0.806  0.2997 -0.1816 -0.1841
18026SOL    HW155128   4.918   1.639   0.771 -0.1221 -1.5205 -1.1539
18026SOL    HW255129   4.825   1.728   0.851  2.0311 -0.0630 -0.1920
18027SOL     OW55130   6.989   5.903   3.513  0.3555  0.0797  0.2541
18027SOL    HW155131   6.960   5.922   3.424  2.9436  1.4814 -0.4135
18027SOL    HW255132   6.994   5.808   3.517  1.6920  0.0156 -1.6915
18028SOL     OW55133   1.019   6.463   3.136  0.0468 -0.6855  0.4351
18028SOL    HW155134   0.952   6.523   3.168 -2.0545 -2.6060 -0.1333
18028SOL    HW255135   1.075   6.517   3.081 -1.7991  0.7530 -0.1350
18029SOL     OW55136   4.535   0.182   6.906  0.7632  0.3871 -0.1498
18029SOL    HW155137   4.456   0.129   6.917  0.0325  1.6455  0.9785
18029SOL    HW255138   4.606   0.125   6.933 -0.0048 -0.0556  1.0251
18030SOL     OW55139   6.308   2.639   6.152 -0.0079  0.5956 -0.3031
18030SOL    HW155140   6.341   2.729   6.155 -0.3293  0.6929  0.3573
18030SOL    HW255141   6.213   2.647   6.152 -0.0630  0.2285  1.2589
18031SOL     OW55142   6.851   1.900   4.081  0.0117  0.0197 -0.0290
18031SOL    HW155143   6.811   1.821   4.116 -0.2676  0.3883  0.4895
18031SOL    HW255144   6.943   1.876   4.067 -0.1329 -0.4785 -0.1530
18032SOL     OW55145   0.035   5.033   4.329 -0.2582  0.1849  1.1099
18032SOL    HW155146   0.009   5.083   4.252 -0.0301 -0.3152  0.7094
18032SOL    HW255147  -0.047   4.999   4.365 -0.2574 -0.5317  0.4388
18033SOL     OW55148   7.477   1.958   4.843 -0.2806 -0.6072  0.5178
18033SOL    HW155149   7.516   1.871   4.837 -0.9574 -1.0853  2.3672
18033SOL    HW255150   7.404   1.948   4.904 -1.8342  0.7823 -0.9801
18034SOL     OW55151   5.189   3.490   1.658 -0.0538  0.5343 -0.3963
18034SOL    HW155152   5.224   3.405   1.685  1.8142  1.7137  1.1681
18034SOL    HW255153   5.158   3.529   1.740 -0.2793  1.6243 -0.9914
18035SOL     OW55154   0.033   3.368   2.957  0.5505  0.6736 -0.1637
18035SOL    HW155155   0.025   3.273   2.945  0.7302  0.5633  0.5453
18035SOL    HW255156   0.127   3.385   2.950  0.4641  0.8973 -0.9228
18036SOL     OW55157   7.921   3.048   1.928  0.3643  0.3896  0.0364
18036SOL    HW155158   7.933   3.002   1.845  0.9626 -0.1287  0.3981
18036SOL    HW255159   7.830   3.029   1.953 -0.0208  1.0637 -0.7887
18037SOL     OW55160   4.372   8.211   6.512  0.0215  0.1690 -0.0125
18037SOL    HW155161   4.362   8.159   6.433  0.7255  0.5474 -0.3577
18037SOL    HW255162   4.365   8.148   6.584  0.8999 -0.4092 -0.4248
18038SOL     OW55163   1.697   3.853   6.523 -0.1616 -0.1950  0.1061
18038SOL    HW155164   1.689   3.939   6.564 -0.5348 -0.6959  1.1267
18038SOL    HW255165   1.783   3.854   6.480  0.2003  0.3924  0.8252
18039SOL     OW55166   1.459   6.858   7.471 -0.7740  0.2263  0.0881
18039SOL    HW155167   1.384   6.916   7.458  0.3953  1.3718 -2.4058
18039SOL    HW255168   1.470   6.814   7.386  0.0142 -1.6479  1.1114
18040SOL     OW55169   6.648   4.087   1.679 -0.3457  0.4129 -0.1164
18040SOL    HW155170   6.560   4.053   1.693  0.2489 -0.9394  0.5741
18040SOL    HW255171   6.635   4.180   1.660 -1.8592  0.4304  0.8148
18041SOL     OW55172   1.448   1.199   3.178 -0.5889  0.3669 -0.1918
18041SOL    HW155173   1.508   1.207   3.103  0.3353 -1.0234  0.3628
18041SOL    HW255174   1.463   1.278   3.229  0.6337  0.1554 -0.1869
18042SOL     OW55175   6.860   3.610   4.632 -0.1518 -0.2021  0.4486
18042SOL    HW155176   6.900   3.683   4.679 -1.6315  0.9270  0.0269
18042SOL    HW255177   6.831   3.551   4.702  0.7487 -0.2387  0.8066
18043SOL     OW55178   1.636   0.532   4.114  0.0410 -0.7093 -0.1286
18043SOL    HW155179   1.623   0.627   4.118  0.2840 -0.6191 -1.3138
18043SOL    HW255180   1.606   0.501   4.200 -1.4639  0.2652 -0.2648
18044SOL     OW55181   4.204   6.054   4.945  0.0503  0.1605 -0.0869
18044SOL    HW155182   4.190   5.990   5.015 -0.9764 -0.2417 -0.6373
18044SOL    HW255183   4.133   6.037   4.882  1.6836 -0.4053 -1.8956
18045SOL     OW55184   2.224   8.049   8.033  0.1117 -0.0962 -0.1949
18045SOL    HW155185   2.133   8.024   8.049 -0.4187  0.8258 -1.6084
18045SOL    HW255186   2.268   8.033   8.117 -1.2247 -1.0576  0.3552
18046SOL     OW55187   6.861   6.514   1.989  0.3559  0.1108  0.1236
18046SOL    HW155188   6.840   6.582   2.053  0.7366 -0.3467  0.7454
18046SOL    HW255189   6.850   6.432   2.036  0.8751 -0.2264 -0.3292
18047SOL     OW55190   3.770   3.177   7.253 -0.5891 -0.2818  0.7451
18047SOL    HW155191   3.831   3.154   7.182 -0.3822  1.1874  0.3961
18047SOL    HW255192   3.683   3.163   7.216 -0.5124  1.5412 -0.2557
18048SOL     OW55193   2.606   0.136   5.224  0.6819 -0.8993 -0.1834
18048SOL    HW155194   2.662   0.205   5.259 -2.8935  1.7732  0.9533
18048SOL    HW255195   2.591   0.161   5.133 -1.0042  0.3003  0.3569
18049SOL     OW55196   2.208   3.837   7.909 -0.4957 -0.1245  0.6994
18049SOL    HW155197   2.194   3.931   7.906 -2.7962 -0.3799  1.3934
18049SOL    HW255198   2.258   3.823   7.990  0.7525  0.5372  0.0793
18050SOL     OW55199   5.491   5.739   7.231  0.2610  0.3462 -0.6803
18050SOL    HW155200   5.483   5.779   7.144 -1.2917 -0.9058 -1.1711
18050SOL    HW255201   5.540   5.803   7.282 -1.3148  2.4766 -1.6609
18051SOL     OW55202   4.538   7.843   1.777 -0.1918 -0.3943  0.1948
18051SOL    HW155203   4.456   7.874   1.739 -1.9578 -0.4447  3.5408
18051SOL    HW255204   4.517   7.757   1.813  1.0290 -0.0500  1.8752
18052SOL     OW55205   1.650   5.046   2.875  0.0345  0.2140 -0.0718
18052SOL    HW155206   1.700   5.093   2.808  1.1464 -0.6991  0.1041
18052SOL    HW255207   1.702   4.969   2.894 -0.2964  0.4219  1.8104
18053SOL     OW55208   3.156   2.598   7.630 -0.4038  0.1830 -0.9378
18053SOL    HW155209   3.115   2.540   7.695  0.0998  1.3549  0.4882
18053SOL    HW255210   3.088   2.610   7.564 -1.2517 -0.3692 -0.2055
18054SOL     OW55211   5.042   5.656   7.231 -0.3157  0.1183  0.5213
18054SOL    HW155212   5.085   5.647   7.316  0.4489  2.3608  0.4194
18054SOL    HW255213   5.095   5.602   7.172  1.2625  1.3300  0.7900
18055SOL     OW55214   2.236   4.976   7.112  0.0061  0.2423 -0.0897
18055SOL    HW155215   2.187   4.895   7.112  0.0236  0.2172 -1.1171
18055SOL    HW255216   2.176   5.041   7.149 -0.2276 -0.1104  0.1524
18056SOL     OW55217   1.541   6.354   7.277  0.0703  0.8068  0.3105
18056SOL    HW155218   1.449   6.333   7.260 -0.2786  2.3201  0.1960
18056SOL    HW255219   1.589   6.277   7.247 -1.0173  0.7778 -1.4905
18057SOL     OW55220   3.661   6.346   3.403 -0.0932  0.0288 -0.2590
18057SOL    HW155221   3.697   6.279   3.461 -0.7037  0.6814  0.9085
18057SOL    HW255222   3.737   6.382   3.358  0.5654  0.3999  1.1096
18058SOL     OW55223   2.465   5.477   5.773 -0.2942 -0.6802  0.2195
18058SOL    HW155224   2.409   5.439   5.705  0.6194 -1.4925 -0.0944
18058SOL    HW255225   2.512   5.403   5.810 -1.4054 -0.3859  2.3832
18059SOL     OW55226   2.180   0.195   4.863 -0.1052  0.1566 -0.4097
18059SOL    HW155227   2.258   0.194   4.808  0.7249 -0.2804  0.7430
18059SOL    HW255228   2.155   0.287   4.868 -0.3368  0.1896 -1.6696
18060SOL     OW55229   2.459   3.485   5.355  0.0284  0.4249 -0.5605
18060SOL    HW155230   2.528   3.423   5.377  1.0983  1.8431  0.2637
18060SOL    HW255231   2.394   3.474   5.423  1.2434  1.6855  0.8740
18061SOL     OW55232   5.650   5.369   3.817  0.2844  0.2096  0.2704
18061SOL    HW155233   5.705   5.389   3.741  0.5561 -0.8977  0.1504
18061SOL    HW255234   5.614   5.453   3.844  0.5498  0.6858 -0.8099
18062SOL     OW55235   7.215   2.969   7.249  0.6065 -0.1000  0.2482
18062SOL    HW155236   7.154   3.006   7.312  1.6347  0.4128  0.9795
18062SOL    HW255237   7.302   2.992   7.283  1.1959  0.4371 -1.5079
18063SOL     OW55238   4.982   6.505   7.884  0.2517 -0.3421  0.0907
18063SOL    HW155239   5.061   6.456   7.863  0.5319 -0.2814  0.9945
18063SOL    HW255240   4.917   6.474   7.820  0.4658 -1.7752  0.5541
18064SOL     OW55241   4.601   4.285   5.982 -0.0376  0.0426 -0.0945
18064SOL    HW155242   4.582   4.258   6.072 -1.7789  1.9355  0.1730
18064SOL    HW255243   4.576   4.377   5.979  1.0296  0.3179 -2.2492
18065SOL     OW55244   8.192   6.901   4.844 -0.3216 -0.1435 -0.5287
18065SOL    HW155245   8.215   6.809   4.859 -0.9920 -0.2702 -0.2552
18065SOL    HW255246   8.260   6.933   4.785  1.4238 -0.0890  1.4065
18066SOL     OW55247   2.730   6.540   0.881 -0.3324 -0.2829  0.2082
18066SOL    HW155248   2.636   6.560   0.887 -0.2829  0.1242 -0.4016
18066SOL    HW255249   2.737   6.452   0.918 -1.1602 -0.8846 -1.0237
18067SOL     OW55250   4.691   5.083   8.079 -0.5383 -0.4298  0.0921
18067SOL    HW155251   4.720   5.094   7.988 -2.2943  0.4690 -0.4062
18067SOL    HW255252   4.708   4.990   8.098  0.7155 -0.4153 -0.8071
18068SOL     OW55253   1.851   3.837   8.196 -0.1843  0.0038 -0.0887
18068SOL    HW155254   1.777   3.885   8.158 -0.1795  0.6160  0.6518
18068SOL    HW255255   1.811   3.758   8.232 -0.4187  0.1371 -0.0511
18069SOL     OW55256   4.763   5.093   2.149  0.0953 -0.4562 -0.8545
18069SOL    HW155257   4.809   5.100   2.066  0.1890 -2.5811 -1.0316
18069SOL    HW255258   4.671   5.085   2.124  0.0961 -0.7927 -0.7623
18070SOL     OW55259   3.406   6.172   0.425  0.1261 -0.0917  0.1808
18070SOL    HW155260   3.496   6.192   0.452 -0.8465  0.8946  3.1117
18070SOL    HW255261   3.390   6.084   0.460  0.3497 -0.8960 -1.6275
18071SOL     OW55262   0.958   6.606   4.420 -0.3045 -0.6921 -0.2377
18071SOL    HW155263   1.008   6.627   4.499  0.0690 -1.3589 -0.2941
18071SOL    HW255264   0.941   6.691   4.380  0.2299 -0.4077  0.1188
18072SOL     OW55265   2.467   8.280   0.756  0.4352  0.0814  0.1736
18072SOL    HW155266   2.381   8.276   0.798  1.1575  1.2168  1.8762
18072SOL    HW255267   2.452   8.322   0.672 -0.7141 -0.0500  0.3056
18073SOL     OW55268   1.384   5.907   1.331 -0.6684  0.2647 -0.5749
18073SOL    HW155269   1.365   5.841   1.264  2.4201 -1.2148 -0.1789
18073SOL    HW255270   1.307   5.963   1.332 -2.0894 -1.4266 -3.2323
18074SOL     OW55271   0.518   6.895   3.283 -0.2704  0.1203 -0.6177
18074SOL    HW155272   0.491   6.965   3.223 -1.2127 -0.2028 -0.5948
18074SOL    HW255273   0.590   6.933   3.333 -0.7454  1.0810 -0.6278
18075SOL     OW55274   5.315   0.180   3.163 -0.3357 -0.0522 -0.4437
18075SOL    HW155275   5.328   0.097   3.118 -0.4533  0.1983 -0.9455
18075SOL    HW255276   5.259   0.159   3.238  0.5958 -0.6277  0.1017
18076SOL     OW55277   0.962   7.947   5.119 -0.2677  0.2219  0.0937
18076SOL    HW155278   0.951   7.925   5.026 -2.5477 -0.0258  0.3509
18076SOL    HW255279   0.879   7.988   5.143  0.1618 -0.0064  2.1143
18077SOL     OW55280   0.273   0.690   4.993  0.7262  0.1388 -0.0540
18077SOL    HW155281   0.209   0.625   4.963 -0.1316  0.4360  1.0512
18077SOL    HW255282   0.287   0.667   5.085  2.0384  0.2362 -0.2202
18078SOL     OW55283   2.478   6.631   7.056  0.3892  0.0471 -0.1344
18078SOL    HW155284   2.553   6.649   6.999  0.8939  0.2798  0.5910
18078SOL    HW255285   2.445   6.717   7.081 -0.3922 -0.0461 -0.7734
18079SOL     OW55286   7.875   2.467   8.096 -0.5444  1.0600  0.2249
18079SOL    HW155287   7.935   2.406   8.053 -1.4450 -0.7144  1.3484
18079SOL    HW255288   7.789   2.424   8.092 -1.4478  2.7562  0.1425
18080SOL     OW55289   7.773   6.512   2.363  0.0462 -0.2571  0.2674
18080SOL    HW155290   7.806   6.428   2.331 -0.5319  0.1426 -1.4834
18080SOL    HW255291   7.851   6.567   2.370  0.0157  0.2595 -2.4946
18081SOL     OW55292   4.398   2.941   8.236  0.0316  0.2596  0.3849
18081SOL    HW155293   4.343   2.942   8.158  0.4124  2.6593  0.0685
18081SOL    HW255294   4.336   2.949   8.309 -0.3162 -1.8898  0.4013
18082SOL     OW55295   5.572   5.682   0.074  0.0104  0.1873  0.1515
18082SOL    HW155296   5.581   5.613   0.139 -1.0062 -0.2799 -0.1851
18082SOL    HW255297   5.657   5.686   0.031  0.6462  0.3793  1.3656
18083SOL     OW55298   3.069   1.827   7.540 -0.1797 -0.1334 -0.7347
18083SOL    HW155299   3.139   1.786   7.489 -0.5958  0.0182 -1.4355
18083SOL    HW255300   3.013   1.754   7.566 -0.4936 -0.1069 -1.3195
18084SOL     OW55301   2.933   2.037   1.929 -0.1872 -0.2642  0.3917
18084SOL    HW155302   2.841   2.057   1.944 -0.1858  0.3631 -0.4144
18084SOL    HW255303   2.945   2.043   1.834  0.2826 -2.0873  0.2769
18085SOL     OW55304   0.730   5.436   7.203 -0.0059  0.0739 -0.5034
18085SOL    HW155305   0.789   5.480   7.142 -0.9814  1.7113 -0.3343
18085SOL    HW255306   0.642   5.451   7.166 -0.4675 -0.5243  0.3212
18086SOL     OW55307   2.494   3.925   2.137  0.1344  0.4374 -0.4426
18086SOL    HW155308   2.436   4.001   2.129  1.2621  1.4775  0.7689
18086SOL    HW255309   2.549   3.944   2.213 -1.3658 -2.8412  1.7150
18087SOL     OW55310   1.377   1.097   5.725  0.1862 -0.1662  0.4850
18087SOL    HW155311   1.360   1.092   5.631  2.0861 -1.8484  0.1480
18087SOL    HW255312   1.436   1.172   5.735 -1.7570  1.4009  0.7050
18088SOL     OW55313   6.662   2.051   3.976 -0.2958 -0.7649  0.1528
18088SOL    HW155314   6.739   2.004   4.007  0.0470 -0.3844 -0.1027
18088SOL    HW255315   6.694   2.102   3.901 -1.2016 -2.0762 -1.1781
18089SOL     OW55316   3.655   3.463   3.749 -0.5136 -0.2269 -0.2256
18089SOL    HW155317   3.739   3.480   3.707 -0.5237 -0.6225 -0.4165
18089SOL    HW255318   3.595   3.526   3.709  0.1050  1.4717  1.3868
18090SOL     OW55319   5.980   8.176   3.133 -0.3773 -0.6568 -0.2238
18090SOL    HW155320   5.954   8.099   3.184 -1.4399 -0.2468 -0.1370
18090SOL    HW255321   6.068   8.197   3.165 -1.3377  0.1432  2.1279
18091SOL     OW55322   3.254   1.164   6.156  0.1152  0.4851  0.2794
18091SOL    HW155323   3.175   1.113   6.170  0.1548 -0.2022 -1.7188
18091SOL    HW255324   3.325   1.101   6.170  0.2235  0.4592 -0.3807
18092SOL     OW55325   6.180   1.597   5.991  0.1240  0.4638  0.0681
18092SOL    HW155326   6.139   1.590   6.077 -0.5102  1.4608 -0.1313
18092SOL    HW255327   6.269   1.626   6.008  0.3401 -0.3878  0.4366
18093SOL     OW55328   3.856   5.971   7.575  0.3520 -0.4424  0.3757
18093SOL    HW155329   3.907   5.895   7.547 -0.1866 -1.9175  3.0742
18093SOL    HW255330   3.921   6.035   7.603  0.8047  0.1423 -1.7992
18094SOL     OW55331   3.150   3.720   4.875 -0.0359 -0.7870  0.5820
18094SOL    HW155332   3.146   3.630   4.909 -1.3110 -1.5313 -1.3376
18094SOL    HW255333   3.094   3.718   4.797  2.0204  1.0175 -1.0517
18095SOL     OW55334   1.635   1.198   1.627  0.0418  0.2329 -0.9590
18095SOL    HW155335   1.577   1.265   1.663 -1.0408 -1.8506  1.4718
18095SOL    HW255336   1.597   1.178   1.541 -1.3346  0.7080 -0.4993
18096SOL     OW55337   6.470   2.081   7.666 -0.1759  0.1206 -0.1284
18096SOL    HW155338   6.436   1.994   7.647 -0.8459  0.5730 -1.1001
18096SOL    HW255339   6.565   2.074   7.654 -0.4404  0.1251 -2.8866
18097SOL     OW55340   2.771   6.945   7.147 -0.9549 -0.1944  0.0221
18097SOL    HW155341   2.768   6.914   7.056  2.2668  1.4650 -0.8244
18097SOL    HW255342   2.708   7.017   7.149  0.7699  1.5468 -1.8500
18098SOL     OW55343   5.173   6.421   2.503  0.0466 -0.3155  0.5235
18098SOL    HW155344   5.189   6.334   2.469  0.9330 -0.2021  0.6304
18098SOL    HW255345   5.250   6.472   2.477 -0.8879  0.6963 -0.3777
18099SOL     OW55346   6.402   3.039   1.630  0.1759 -0.1854  0.1737
18099SOL    HW155347   6.465   3.110   1.634  1.4124 -1.1846 -0.7136
18099SOL    HW255348   6.356   3.043   1.714 -0.2059  1.9797 -0.0747
18100SOL     OW55349   6.836   2.471   2.008  0.4145 -0.7957 -0.3033
18100SOL    HW155350   6.881   2.437   1.931  2.1821 -1.1606  0.8505
18100SOL    HW255351   6.795   2.552   1.978 -1.3121 -2.2965 -2.3209
18101SOL     OW55352   6.800   1.961   8.207 -0.2433 -0.5741 -0.3766
18101SOL    HW155353   6.880   1.983   8.159 -0.1902  0.9448  0.3380
18101SOL    HW255354   6.740   2.032   8.188 -0.6820 -0.6254  0.7374
18102SOL     OW55355   6.127   1.190   0.458 -0.0256 -0.6283 -0.1834
18102SOL    HW155356   6.142   1.268   0.510 -1.5359  0.0024 -0.6572
18102SOL    HW255357   6.160   1.118   0.512  2.5782  0.3931 -0.2669
18103SOL     OW55358   0.996   6.696   7.439 -0.2257 -0.4293  0.2865
18103SOL    HW155359   1.018   6.784   7.471 -0.0289  0.7300 -2.7187
18103SOL    HW255360   1.072   6.670   7.387  0.1872 -2.9366  1.9589
18104SOL     OW55361   2.508   5.566   4.244 -0.2427 -0.3724 -0.4068
18104SOL    HW155362   2.477   5.492   4.296  2.1413  0.2144  2.0881
18104SOL    HW255363   2.566   5.528   4.179  0.9695 -0.8089  0.8650
18105SOL     OW55364   6.695   0.817   1.735  0.2343  0.2077 -0.5595
18105SOL    HW155365   6.668   0.729   1.762 -0.0692  0.7013  0.8142
18105SOL    HW255366   6.773   0.803   1.681 -1.4894 -1.1076 -2.9174
18106SOL     OW55367   4.314   7.883   6.408 -0.1408 -0.4615  0.0028
18106SOL    HW155368   4.270   7.878   6.493  0.8992 -0.4505  0.5591
18106SOL    HW255369   4.243   7.889   6.345 -0.9544 -1.4077  0.7990
18107SOL     OW55370   6.636   2.800   4.977  0.1503  0.3675 -0.4940
18107SOL    HW155371   6.688   2.812   4.898 -0.5259 -1.7598 -1.3343
18107SOL    HW255372   6.690   2.836   5.047  2.2222 -0.6249 -1.4865
18108SOL     OW55373   2.854   0.291   0.862  0.1023 -0.4732 -0.3377
18108SOL    HW155374   2.839   0.229   0.790  0.1669  0.5959 -1.3067
18108SOL    HW255375   2.943   0.272   0.892  0.0724 -0.9352 -0.5331
18109SOL     OW55376   2.665   6.960   4.259 -0.2039 -0.0813  0.2672
18109SOL    HW155377   2.676   6.933   4.350 -1.8918 -0.2601  0.4533
18109SOL    HW255378   2.738   7.020   4.243 -1.4434  2.2640  2.6425
18110SOL     OW55379   4.132   0.811   2.329  0.0395 -0.7549  0.1566
18110SOL    HW155380   4.153   0.811   2.423 -0.0604 -2.0675  0.1899
18110SOL    HW255381   4.207   0.852   2.288  0.8991 -1.7908  0.6535
18111SOL     OW55382   1.424   0.831   2.507 -0.0787 -0.0100  0.2355
18111SOL    HW155383   1.393   0.920   2.519 -2.1061 -0.6449  0.1109
18111SOL    HW255384   1.516   0.840   2.482 -0.3046  2.0336  0.0144
18112SOL     OW55385   5.478   0.331   4.121 -0.2108  1.0643 -0.1359
18112SOL    HW155386   5.557   0.372   4.086  0.5246 -0.1349  0.0808
18112SOL    HW255387   5.458   0.380   4.201  2.7318 -1.1071  2.1352
18113SOL     OW55388   7.368   2.917   7.813 -0.3124  0.0177  0.3911
18113SOL    HW155389   7.305   2.966   7.760  0.3212 -0.2438 -0.6285
18113SOL    HW255390   7.394   2.844   7.758 -0.4595 -0.9012  1.4978
18114SOL     OW55391   0.720   2.124   5.263  0.0975 -0.5405 -0.2647
18114SOL    HW155392   0.676   2.201   5.228  1.3733 -0.8059 -2.6352
18114SOL    HW255393   0.723   2.139   5.357 -0.5153  1.8458 -0.5632
18115SOL     OW55394   5.927   3.231   4.046 -0.0452 -0.1073  0.1726
18115SOL    HW155395   5.837   3.223   4.077 -0.6610  1.0277 -1.1703
18115SOL    HW255396   5.922   3.295   3.975  1.4632 -1.5828 -1.3770
18116SOL     OW55397   4.867   3.842   0.499 -0.8037 -0.0546  0.2283
18116SOL    HW155398   4.829   3.832   0.412 -1.4460  1.2205  0.3457
18116SOL    HW255399   4.824   3.919   0.536  0.2539  0.0803  1.2499
18117SOL     OW55400   0.311   0.429   3.188 -0.0538  0.1999 -0.0163
18117SOL    HW155401   0.330   0.425   3.094  1.2338 -1.3219  0.2834
18117SOL    HW255402   0.266   0.347   3.207  1.2075 -0.2831  0.9968
18118SOL     OW55403   6.276   2.256   7.027 -0.0790  0.2246  0.1498
18118SOL    HW155404   6.318   2.238   6.943 -0.3877 -2.3152  0.4477
18118SOL    HW255405   6.347   2.256   7.090 -0.2036 -1.9931  0.3731
18119SOL     OW55406   3.828   2.277   7.857 -0.0086  0.2206 -0.1037
18119SOL    HW155407   3.752   2.219   7.867 -0.0502  0.5801  2.5535
18119SOL    HW255408   3.895   2.221   7.818 -0.6135 -1.1098  0.6710
18120SOL     OW55409   1.022   7.566   5.834  0.6578  0.2655  0.1220
18120SOL    HW155410   1.058   7.637   5.888  3.5313 -1.6538  0.9791
18120SOL    HW255411   0.984   7.610   5.758  1.5659  2.7505  1.0037
18121SOL     OW55412   3.335   1.815   6.241 -0.0478 -0.0928 -0.0967
18121SOL    HW155413   3.334   1.774   6.155 -0.1253 -1.6555  0.5998
18121SOL    HW255414   3.426   1.808   6.269 -0.3634 -1.4017  0.7183
18122SOL     OW55415   7.348   0.077   2.168 -0.1721 -0.2146 -0.3057
18122SOL    HW155416   7.360   0.035   2.082 -2.3253 -0.1786 -0.6766
18122SOL    HW255417   7.295   0.015   2.217  0.1867  0.2331  0.6656
18123SOL     OW55418   2.694   6.209   3.154 -0.3558 -0.1811 -0.3942
18123SOL    HW155419   2.605   6.205   3.187 -0.6770  0.7949 -1.0992
18123SOL    HW255420   2.693   6.159   3.073 -0.6757  1.1698 -1.2499
18124SOL     OW55421   4.053   2.357   3.802 -0.2827 -0.4409 -0.3622
18124SOL    HW155422   3.993   2.424   3.767 -0.8854 -0.6082  0.3084
18124SOL    HW255423   4.140   2.385   3.773 -0.4408  1.0218  0.4512
18125SOL     OW55424   3.356   6.800   0.956  0.3100  0.0044  0.5523
18125SOL    HW155425   3.427   6.766   1.011  0.0487  1.6502  1.9825
18125SOL    HW255426   3.353   6.893   0.976  0.8564  0.9475 -3.0457
18126SOL     OW55427   2.014   6.940   3.075 -0.2430 -0.3176 -0.7676
18126SOL    HW155428   2.075   6.986   3.017  1.2329  0.2414  1.1136
18126SOL    HW255429   1.995   7.003   3.145  0.1290 -1.8009  0.7330
18127SOL     OW55430   1.975   4.196   1.733 -0.1331  0.2146  0.2940
18127SOL    HW155431   1.977   4.108   1.772  0.3566 -0.4892 -1.2325
18127SOL    HW255432   1.894   4.199   1.683 -0.1441  0.6321  0.3312
18128SOL     OW55433   3.275   3.226   6.478 -0.2120 -0.6330 -0.3476
18128SOL    HW155434   3.338   3.165   6.440 -0.7593 -0.7406 -1.1184
18128SOL    HW255435   3.226   3.260   6.403 -1.3795 -0.9079  0.2589
18129SOL     OW55436   3.528   2.663   2.863 -0.3780  0.0925 -0.4720
18129SOL    HW155437   3.538   2.698   2.952  0.0465 -3.4272  1.0760
18129SOL    HW255438   3.611   2.683   2.820  2.4642 -3.8077  2.4180
18130SOL     OW55439   7.373   1.717   4.320  0.1183 -0.1845 -0.4457
18130SOL    HW155440   7.409   1.804   4.335 -0.8427  0.1502 -0.0294
18130SOL    HW255441   7.450   1.662   4.303  0.8157  0.5243  0.3573
18131SOL     OW55442   2.108   6.045   6.138 -0.0748 -0.7097 -0.1976
18131SOL    HW155443   2.134   5.955   6.159 -0.6128 -0.7756  0.2154
18131SOL    HW255444   2.020   6.037   6.102  0.5847 -0.5261 -1.9455
18132SOL     OW55445   4.594   3.066   7.599 -0.2743  0.0946 -1.0458
18132SOL    HW155446   4.658   3.046   7.667  0.3060  1.5492 -1.1327
18132SOL    HW255447   4.628   3.144   7.555  0.4695 -1.9166 -4.4136
18133SOL     OW55448   1.674   5.875   4.158 -0.1374  0.3310  0.1563
18133SOL    HW155449   1.705   5.940   4.221  0.8781  0.2568 -0.2448
18133SOL    HW255450   1.673   5.921   4.074  0.6490 -0.1722 -0.1397
18134SOL     OW55451   3.202   5.625   1.529  0.2802 -0.0877  0.2535
18134SOL    HW155452   3.259   5.668   1.592  0.1901 -0.8397  0.8566
18134SOL    HW255453   3.133   5.689   1.511  0.8020  0.4713  0.2226
18135SOL     OW55454   5.554   0.016   5.671  0.1001 -0.2045  0.1259
18135SOL    HW155455   5.640   0.050   5.648 -0.1438  1.5603  1.5888
18135SOL    HW255456   5.527  -0.035   5.594  1.5962  0.8433 -1.1629
18136SOL     OW55457   4.412   2.220   6.120  0.1356  0.1600 -0.0884
18136SOL    HW155458   4.436   2.243   6.210 -3.1370  1.8200  0.5243
18136SOL    HW255459   4.454   2.287   6.066  0.3862  0.4385  0.4468
18137SOL     OW55460   4.068   2.455   7.165  0.4132 -0.7429  0.9201
18137SOL    HW155461   4.031   2.433   7.251  1.4845  0.3891  1.7058
18137SOL    HW255462   4.160   2.475   7.183  0.2586  1.2437 -0.1767
18138SOL     OW55463   3.032   4.774   1.538 -0.4968 -0.6452 -0.2017
18138SOL    HW155464   3.034   4.745   1.446 -1.5471  0.3066 -0.5514
18138SOL    HW255465   3.005   4.696   1.587 -0.6369 -0.9723 -0.7885
18139SOL     OW55466   0.741   3.768   2.449  0.3672  0.0243 -0.2819
18139SOL    HW155467   0.727   3.824   2.373  0.9401 -0.5672 -0.8452
18139SOL    HW255468   0.798   3.698   2.416  0.1190 -0.5772  0.5404
18140SOL     OW55469   5.033   7.091   5.927  0.0549 -0.1129 -0.2189
18140SOL    HW155470   5.023   7.146   5.850  1.3504  0.7455  0.1982
18140SOL    HW255471   4.984   7.012   5.907 -0.3743  0.4729 -1.5476
18141SOL     OW55472   4.765   1.580   8.093 -0.0497 -0.4615 -0.0594
18141SOL    HW155473   4.687   1.546   8.136  0.0555  0.0302  0.5271
18141SOL    HW255474   4.741   1.669   8.067  0.9392  0.4294  1.8828
18142SOL     OW55475   4.138   3.400   5.446 -0.4967 -0.1202 -0.3408
18142SOL    HW155476   4.209   3.386   5.384 -0.9506 -0.8853 -0.7011
18142SOL    HW255477   4.060   3.367   5.401 -1.2226  1.3929 -0.2633
18143SOL     OW55478   1.180   1.412   7.198  0.4539 -0.3104 -0.1529
18143SOL    HW155479   1.181   1.478   7.129 -0.8197 -1.0315 -0.8984
18143SOL    HW255480   1.239   1.344   7.167  0.0334 -0.5439 -0.4482
18144SOL     OW55481   6.294   6.916   7.943 -0.3241 -0.4771  0.1450
18144SOL    HW155482   6.362   6.961   7.993 -0.9903  0.7354  0.0083
18144SOL    HW255483   6.323   6.825   7.939  1.3952  0.0378 -0.0814
18145SOL     OW55484   1.973   3.182   5.727  0.3254  0.4846  0.1654
18145SOL    HW155485   2.034   3.196   5.655 -0.2798 -0.2338 -0.5075
18145SOL    HW255486   1.888   3.173   5.685 -0.0155 -0.0746  0.9572
18146SOL     OW55487   4.475   6.106   3.522 -0.1467  0.2870 -0.9907
18146SOL    HW155488   4.462   6.012   3.519  0.5996  0.0543  1.4307
18146SOL    HW255489   4.490   6.131   3.430 -0.1492 -1.9495 -1.6549
18147SOL     OW55490   2.827   6.467   3.196 -0.3815  0.4667  0.3409
18147SOL    HW155491   2.862   6.466   3.107 -1.2709  1.1592 -0.0280
18147SOL    HW255492   2.773   6.388   3.200  0.7056 -0.2757  0.7128
18148SOL     OW55493   7.833   0.635   7.578  0.0618  0.2473 -0.2484
18148SOL    HW155494   7.886   0.699   7.625 -0.4849  1.6291 -1.3895
18148SOL    HW255495   7.895   0.569   7.547  0.9375  1.1706 -0.5181
18149SOL     OW55496   6.589   6.132   1.772  0.2403  0.1736  0.3110
18149SOL    HW155497   6.632   6.130   1.687 -0.6581  0.6075 -0.1673
18149SOL    HW255498   6.557   6.222   1.780  1.8011  0.6606  1.8838
18150SOL     OW55499   0.876   5.549   7.891  0.6082 -0.1484  0.6236
18150SOL    HW155500   0.955   5.594   7.920  1.1882 -1.3961  1.0266
18150SOL    HW255501   0.854   5.491   7.964  0.6961 -1.5539 -0.4395
18151SOL     OW55502   5.192   2.943   3.054 -0.5429  0.2997  0.3583
18151SOL    HW155503   5.125   2.937   2.986 -0.1881  0.4021 -0.0006
18151SOL    HW255504   5.166   2.877   3.119 -0.2651 -0.5945 -0.4220
18152SOL     OW55505   1.589   6.788   6.166 -0.1574 -0.0214 -0.3793
18152SOL    HW155506   1.621   6.711   6.120  0.4205  0.0696 -0.1268
18152SOL    HW255507   1.533   6.832   6.101 -0.0052 -0.3260 -0.7237
18153SOL     OW55508   5.300   1.505   5.535 -0.0550  0.1623  0.6149
18153SOL    HW155509   5.389   1.523   5.566 -0.2541  0.3708  1.0833
18153SOL    HW255510   5.311   1.443   5.463  0.6803  2.2030 -1.1273
18154SOL     OW55511   7.809   7.706   1.584 -0.1962  0.7941 -0.5110
18154SOL    HW155512   7.829   7.665   1.500 -1.8286 -2.9074  0.6569
18154SOL    HW255513   7.883   7.682   1.641  0.1619  1.9284 -0.4900
18155SOL     OW55514   7.909   3.954   5.842 -0.4838 -0.5475  0.3066
18155SOL    HW155515   7.924   4.031   5.788 -1.2909 -0.5717  0.0285
18155SOL    HW255516   7.995   3.929   5.874 -0.1429  0.1156 -0.0870
18156SOL     OW55517   4.207   0.371   8.273 -0.3356  0.4825 -0.1311
18156SOL    HW155518   4.198   0.283   8.236 -1.5521  0.2808  0.5933
18156SOL    HW255519   4.123   0.389   8.315 -0.6078  2.5401 -1.4127
18157SOL     OW55520   0.958   3.296   1.143  0.3498  0.0989  0.0020
18157SOL    HW155521   0.884   3.325   1.197 -0.1747 -0.4008 -0.4310
18157SOL    HW255522   0.986   3.214   1.184 -0.3480 -0.5240 -0.7385
18158SOL     OW55523   4.424   6.092   3.187  0.3990  0.2118 -0.3636
18158SOL    HW155524   4.422   6.186   3.205  0.6101  0.8356 -3.1800
18158SOL    HW255525   4.511   6.075   3.153  0.2989 -0.9980 -0.0840
18159SOL     OW55526   3.007   6.459   6.670 -0.1283 -0.6728 -0.0486
18159SOL    HW155527   2.924   6.464   6.718  1.1794  0.3179  2.2791
18159SOL    HW255528   2.995   6.517   6.595 -1.5493 -0.6164  0.1956
18160SOL     OW55529   6.356   6.433   6.852  0.0602 -0.2405  0.5928
18160SOL    HW155530   6.411   6.469   6.782 -0.8671  3.5871  1.5581
18160SOL    HW255531   6.399   6.461   6.933 -1.3318 -0.4022  1.4285
18161SOL     OW55532   1.562   0.160   5.741  0.0974  0.1934 -0.1566
18161SOL    HW155533   1.529   0.106   5.669 -0.5569 -0.9531  0.9646
18161SOL    HW255534   1.634   0.210   5.703 -0.4136 -0.1867 -1.6692
18162SOL     OW55535   4.956   3.373   6.813  0.4901  0.1000 -0.2063
18162SOL    HW155536   5.048   3.368   6.786  0.1838 -0.3921 -1.2018
18162SOL    HW255537   4.913   3.420   6.741  0.0166  0.6497  0.4224
18163SOL     OW55538   1.573   3.407   8.221 -0.5974 -0.0615  0.5739
18163SOL    HW155539   1.658   3.367   8.239  0.4845  1.1220 -1.4289
18163SOL    HW255540   1.535   3.425   8.307  2.5555  2.0964  1.6807
18164SOL     OW55541   2.606   1.036   3.663  0.1620 -0.2856 -0.1085
18164SOL    HW155542   2.633   1.047   3.755 -2.1885  2.4301  0.3742
18164SOL    HW255543   2.687   1.012   3.618  1.5855 -0.8056  2.5087
18165SOL     OW55544   5.986   0.244   6.735  0.1305  0.1196  0.4100
18165SOL    HW155545   6.017   0.317   6.789 -0.2055 -0.3072  1.1848
18165SOL    HW255546   5.985   0.169   6.794  2.7969 -1.1191 -0.9633
18166SOL     OW55547   4.394   6.202   1.811 -0.0153  0.7676  0.0919
18166SOL    HW155548   4.413   6.108   1.803 -0.0458  0.8344 -0.9284
18166SOL    HW255549   4.451   6.232   1.881  1.1561  0.2846 -0.6217
18167SOL     OW55550   0.809   7.373   7.497  0.5686 -0.0304 -0.5405
18167SOL    HW155551   0.804   7.284   7.462  0.2698 -0.7760  1.2594
18167SOL    HW255552   0.847   7.361   7.584  2.6755  1.8806 -1.1127
18168SOL     OW55553   1.193   4.488   4.636  0.2069 -0.1751  0.2011
18168SOL    HW155554   1.263   4.515   4.696  0.2503  1.0026 -0.3517
18168SOL    HW255555   1.174   4.398   4.661 -1.3793  0.9341  3.5239
18169SOL     OW55556   5.450   3.407   6.882 -0.1266  0.1772 -0.5087
18169SOL    HW155557   5.504   3.334   6.914 -2.1983 -0.8169  1.0024
18169SOL    HW255558   5.423   3.452   6.962 -3.3533 -0.7876 -0.9113
18170SOL     OW55559   7.145   7.322   4.399  0.3305 -0.5929 -0.7692
18170SOL    HW155560   7.214   7.351   4.340  0.7152 -1.3653 -0.7042
18170SOL    HW255561   7.181   7.245   4.443 -0.8255 -1.4647 -1.2700
18171SOL     OW55562   6.432   4.498   0.547  0.3620 -0.3469  0.5041
18171SOL    HW155563   6.361   4.561   0.530  0.8168 -0.0399 -0.3443
18171SOL    HW255564   6.505   4.530   0.493  1.1898 -0.5763  1.4719
18172SOL     OW55565   3.259   2.887   7.294  0.0204  0.0413 -0.4191
18172SOL    HW155566   3.169   2.859   7.308 -0.6754  2.8695  1.6438
18172SOL    HW255567   3.310   2.806   7.295 -2.3808 -1.5853 -1.0762
18173SOL     OW55568   2.895   7.076   5.980 -0.1937  0.1811 -0.2849
18173SOL    HW155569   2.858   7.160   6.008 -2.4338 -0.9742  0.4314
18173SOL    HW255570   2.919   7.091   5.888 -2.6884  1.0034 -0.8849
18174SOL     OW55571   2.606   6.720   3.429 -0.3061 -0.3670  0.3354
18174SOL    HW155572   2.695   6.745   3.405 -0.8713  0.4569 -1.0315
18174SOL    HW255573   2.611   6.627   3.449  1.1220 -0.0380  1.7367
18175SOL     OW55574   0.740   3.049   6.278 -0.3173  0.3164 -0.0870
18175SOL    HW155575   0.765   3.084   6.363 -1.3590 -1.0753  0.8387
18175SOL    HW255576   0.793   3.098   6.215  1.7349  0.2078  1.4634
18176SOL     OW55577   4.562   4.270   4.751 -0.2974  0.2856 -0.1269
18176SOL    HW155578   4.618   4.253   4.675 -0.5166  0.3588 -0.3061
18176SOL    HW255579   4.582   4.199   4.812  0.3738  0.6105  0.0321
18177SOL     OW55580   6.982   5.297   3.604  0.4593 -0.2356  0.2979
18177SOL    HW155581   7.043   5.280   3.533  2.4248 -1.1404  2.1074
18177SOL    HW255582   6.898   5.262   3.572  1.6124 -2.0223 -0.9941
18178SOL     OW55583   7.011   5.558   2.367  0.7281  0.1428 -0.6535
18178SOL    HW155584   7.050   5.559   2.280 -0.5085  0.9818 -1.2404
18178SOL    HW255585   6.916   5.559   2.350  0.2583 -4.1291  0.6391
18179SOL     OW55586   3.475   8.063   4.525  0.3824  0.3036  0.4019
18179SOL    HW155587   3.529   8.045   4.602 -0.9307 -1.0376  1.0576
18179SOL    HW255588   3.486   7.987   4.469 -1.2216 -0.2685  0.8061
18180SOL     OW55589   0.449   7.243   7.510  0.3670 -0.0354 -0.7232
18180SOL    HW155590   0.502   7.258   7.588  1.7371  0.0092 -1.6257
18180SOL    HW255591   0.462   7.151   7.489  0.4702  0.0830 -1.2089
18181SOL     OW55592   8.003   4.960   1.651  0.5355 -0.4486 -0.3651
18181SOL    HW155593   7.949   4.888   1.617  0.7006 -0.6891 -0.1154
18181SOL    HW255594   7.942   5.034   1.657  0.3689 -0.5599 -0.6393
18182SOL     OW55595   7.532   0.749   7.157  0.5125  0.0385  0.6636
18182SOL    HW155596   7.577   0.758   7.241  1.8359  0.6147 -0.0843
18182SOL    HW255597   7.512   0.656   7.150  2.9074 -0.5144  0.4004
18183SOL     OW55598   5.911   5.899   7.343  0.0198 -0.2514  0.6143
18183SOL    HW155599   5.998   5.913   7.306 -1.1168  1.5349 -1.6683
18183SOL    HW255600   5.924   5.899   7.438  2.3082  1.4110  0.3696
18184SOL     OW55601   6.996   4.622   3.423 -1.0247  0.1019  0.0640
18184SOL    HW155602   6.990   4.527   3.424 -0.0150 -0.0280  2.8641
18184SOL    HW255603   7.053   4.641   3.348 -0.8519 -1.5091 -0.2580
18185SOL     OW55604   1.307   6.013   0.264  0.1735 -0.0459 -0.5190
18185SOL    HW155605   1.242   5.967   0.212 -0.2439  0.5887 -0.5783
18185SOL    HW255606   1.353   5.945   0.313  1.5749 -0.8286 -2.7905
18186SOL     OW55607   5.921   4.587   2.497  0.2387 -0.2007 -0.6083
18186SOL    HW155608   5.938   4.553   2.585  1.6890 -0.1957 -0.8673
18186SOL    HW255609   5.854   4.655   2.510  0.0783 -0.5459  0.4205
18187SOL     OW55610   8.232   5.895   0.710 -0.4534 -0.1244 -0.0461
18187SOL    HW155611   8.272   5.815   0.677  2.0883  0.1822  1.9466
18187SOL    HW255612   8.255   5.962   0.646  0.2657 -0.3814 -0.0597
18188SOL     OW55613   2.755   2.131   3.742 -0.3546 -0.8015  0.0924
18188SOL    HW155614   2.680   2.184   3.714  0.0736 -1.0323 -1.6013
18188SOL    HW255615   2.726   2.041   3.731 -0.2418 -0.9019  0.6116
18189SOL     OW55616   8.199   1.133   6.512 -0.2906 -0.1775 -0.0398
18189SOL    HW155617   8.111   1.167   6.529 -0.0426  2.1806 -2.5699
18189SOL    HW255618   8.187   1.064   6.447 -0.2974  0.3428 -0.6042
18190SOL     OW55619   1.425   7.232   0.520  0.3248 -0.2889  0.0972
18190SOL    HW155620   1.355   7.194   0.573  0.2966 -1.0693 -0.4650
18190SOL    HW255621   1.485   7.159   0.504 -0.3195 -0.4488 -1.9866
18191SOL     OW55622   0.986   0.973   0.791  0.7034  0.0127 -0.4188
18191SOL    HW155623   0.981   0.971   0.886  2.6303  0.0352 -0.2884
18191SOL    HW255624   0.981   1.066   0.768  2.8366  0.2487 -0.1187
18192SOL     OW55625   5.843   1.636   7.978  0.1242 -0.2496 -0.0367
18192SOL    HW155626   5.792   1.656   8.057  0.4202 -0.3531  0.1815
18192SOL    HW255627   5.847   1.541   7.977 -0.4394 -0.2708 -0.5363
18193SOL     OW55628   1.543   1.834   6.980  0.1311  0.3865  0.1545
18193SOL    HW155629   1.550   1.922   7.018 -1.5288 -0.0522  1.6097
18193SOL    HW255630   1.449   1.820   6.969  0.4040 -0.9146 -0.8129
18194SOL     OW55631   1.175   6.531   1.746  0.4544 -0.1690  0.1403
18194SOL    HW155632   1.235   6.457   1.755  1.3248  0.4645 -0.3286
18194SOL    HW255633   1.217   6.601   1.797  0.8618  0.7133 -1.3528
18195SOL     OW55634   5.205   0.302   4.354 -0.5054  0.1082  0.1976
18195SOL    HW155635   5.118   0.338   4.375 -1.2582 -1.3266 -0.3150
18195SOL    HW255636   5.262   0.378   4.352 -2.1446  1.3778 -1.4676
18196SOL     OW55637   6.230   6.809   1.210  0.0854  0.0685 -0.2830
18196SOL    HW155638   6.272   6.730   1.175 -0.8599 -0.5923  0.0347
18196SOL    HW255639   6.289   6.880   1.184  0.7214 -0.6810 -0.9827
18197SOL     OW55640   7.482   2.801   0.023  0.6268 -0.2412 -0.0885
18197SOL    HW155641   7.534   2.778   0.100  0.8288 -3.2502 -0.9830
18197SOL    HW255642   7.531   2.870  -0.020  0.9366  0.9093  1.9940
18198SOL     OW55643   5.869   1.185   2.002 -0.0296  0.2257 -0.4053
18198SOL    HW155644   5.890   1.254   1.940 -2.3504  1.0315 -0.3994
18198SOL    HW255645   5.807   1.128   1.955  0.3267 -0.7430  0.2460
18199SOL     OW55646   1.227   2.498   1.141  0.0318 -0.4920 -0.2293
18199SOL    HW155647   1.132   2.489   1.151 -0.1730  0.9209 -0.6759
18199SOL    HW255648   1.264   2.462   1.222 -1.1064  2.8249  1.9629
18200SOL     OW55649   7.528   7.639   1.871  0.0012 -0.6611  0.6373
18200SOL    HW155650   7.477   7.684   1.938 -1.4340  0.6125 -1.2297
18200SOL    HW255651   7.614   7.626   1.912 -0.6679  0.4738  2.5406
18201SOL     OW55652   3.252   4.543   1.288  0.0064  0.6337  0.5222
18201SOL    HW155653   3.249   4.632   1.325 -0.8569  0.5268  0.7213
18201SOL    HW255654   3.213   4.488   1.356 -3.9803  0.7410 -1.4262
18202SOL     OW55655   0.592   0.170   1.218 -0.6703 -0.0154  0.5175
18202SOL    HW155656   0.600   0.231   1.144 -1.0366 -1.7530 -1.0371
18202SOL    HW255657   0.672   0.183   1.269  1.0445 -0.7838 -1.8079
18203SOL     OW55658   6.514   7.123   5.418 -0.2393 -0.4436 -0.0785
18203SOL    HW155659   6.496   7.206   5.373 -0.0253  0.7868  1.9849
18203SOL    HW255660   6.484   7.056   5.357 -0.6980  1.1475 -1.6919
18204SOL     OW55661   2.051   4.758   7.169  0.2765 -0.1217 -0.3027
18204SOL    HW155662   2.046   4.707   7.249  0.2563  0.8819  0.3615
18204SOL    HW255663   1.991   4.716   7.109  2.5544 -2.7954 -0.9282
18205SOL     OW55664   1.223   5.444   7.731  0.6536 -0.4034 -0.0074
18205SOL    HW155665   1.170   5.434   7.652  2.3941 -1.2900 -1.1442
18205SOL    HW255666   1.260   5.532   7.725 -0.8435  0.3287  0.9372
18206SOL     OW55667   3.442   4.578   3.678  0.0709 -0.0837  0.1364
18206SOL    HW155668   3.528   4.609   3.705  0.3024  1.2165 -1.8755
18206SOL    HW255669   3.381   4.622   3.737  0.6245  1.6008 -0.4862
18207SOL     OW55670   2.990   2.814   6.871 -0.2783  0.1774  0.2950
18207SOL    HW155671   2.921   2.786   6.930  0.6369 -1.9142  0.4580
18207SOL    HW255672   2.977   2.763   6.791  1.2239 -0.4804  0.4330
18208SOL     OW55673   2.752   7.833   5.730 -0.1067  0.0879 -0.1715
18208SOL    HW155674   2.657   7.841   5.736 -0.1254  2.3733 -2.1594
18208SOL    HW255675   2.774   7.866   5.643  2.7554  2.3099  1.2141
18209SOL     OW55676   2.106   4.428   0.827 -0.2391 -0.3921 -0.2254
18209SOL    HW155677   2.097   4.508   0.776 -1.0206 -0.0808  0.3732
18209SOL    HW255678   2.165   4.373   0.776 -0.2890  0.2681 -1.0103
18210SOL     OW55679   3.202   6.922   1.458 -0.0243  0.2541  0.1806
18210SOL    HW155680   3.164   6.878   1.381 -0.6630  1.7164 -0.3893
18210SOL    HW255681   3.187   7.015   1.442  0.6928  0.6568  1.6467
18211SOL     OW55682   4.161   3.681   1.763 -0.3624  0.4370 -0.5856
18211SOL    HW155683   4.244   3.638   1.786  0.1285  1.9392  0.5965
18211SOL    HW255684   4.179   3.724   1.680  0.2913  1.3150 -0.0127
18212SOL     OW55685   2.174   7.342   2.352 -0.5527  0.0797 -0.8007
18212SOL    HW155686   2.197   7.249   2.352 -1.1609 -0.0799 -1.0559
18212SOL    HW255687   2.124   7.355   2.433  0.5985  0.4698 -0.1397
18213SOL     OW55688   1.930   4.422   2.614 -0.2061 -0.2129  0.5160
18213SOL    HW155689   1.839   4.402   2.638 -0.3557 -0.4841 -0.2358
18213SOL    HW255690   1.956   4.348   2.558  0.9429 -0.8607  1.8283
18214SOL     OW55691   0.701   4.155   5.765  0.7210 -0.3266 -0.5856
18214SOL    HW155692   0.661   4.197   5.841 -0.7146 -0.7242 -1.0825
18214SOL    HW255693   0.792   4.139   5.791 -0.1753 -2.2002  1.8024
18215SOL     OW55694   0.256   5.110   0.949 -0.1831  0.0371  0.2753
18215SOL    HW155695   0.259   5.134   0.857  0.1317 -0.3567  0.1794
18215SOL    HW255696   0.340   5.139   0.985 -0.1270 -0.2001  0.3379
18216SOL     OW55697   4.079   6.724   5.627  0.2556  0.1819 -0.3175
18216SOL    HW155698   3.988   6.718   5.658  0.5679 -1.4320  0.3775
18216SOL    HW255699   4.071   6.738   5.533 -0.7114  1.0233 -0.1235
18217SOL     OW55700   6.437   3.862   7.894  0.1647 -0.6168 -0.0549
18217SOL    HW155701   6.394   3.795   7.841 -2.8017 -1.6734  3.3412
18217SOL    HW255702   6.481   3.918   7.830 -0.1151 -3.7507 -3.3036
18218SOL     OW55703   0.137   1.093   6.675  0.2429  0.1908  0.2083
18218SOL    HW155704   0.211   1.077   6.617  0.4685  1.8909 -0.0031
18218SOL    HW255705   0.064   1.111   6.616  0.3980  1.6075  0.4332
18219SOL     OW55706   4.905   2.466   7.919  0.6386 -0.4942  0.1849
18219SOL    HW155707   4.816   2.431   7.924  0.4503  0.0068  0.4525
18219SOL    HW255708   4.899   2.552   7.960  0.8842  0.2506 -1.2577
18220SOL     OW55709   4.787   5.789   7.269  0.0482 -0.1344  0.7494
18220SOL    HW155710   4.793   5.880   7.239 -1.5679 -0.7503 -1.6848
18220SOL    HW255711   4.877   5.757   7.265  0.3488  0.7810 -0.3565
18221SOL     OW55712   3.432   1.695   7.962  0.1116  0.7876 -0.4138
18221SOL    HW155713   3.467   1.776   7.924  0.3897  0.8420 -0.0413
18221SOL    HW255714   3.387   1.724   8.041 -0.0283  0.6078 -0.4276
18222SOL     OW55715   7.568   0.010   8.014  0.2418  0.1832  0.0263
18222SOL    HW155716   7.473   0.004   8.027  0.0140  0.1940 -1.4596
18222SOL    HW255717   7.606  -0.024   8.095 -1.0002 -3.9090 -0.9231
18223SOL     OW55718   3.582   6.814   8.042  0.1787 -0.4054  0.0942
18223SOL    HW155719   3.616   6.859   7.964 -1.6188  0.8906 -0.0089
18223SOL    HW255720   3.615   6.725   8.034  1.4179  0.1299 -1.2741
18224SOL     OW55721   4.451   8.127   7.439  0.3655  0.0624 -0.4347
18224SOL    HW155722   4.383   8.064   7.462 -0.1885  1.2006  1.3046
18224SOL    HW255723   4.523   8.107   7.499 -0.0278  1.3697  0.5243
18225SOL     OW55724   7.202   2.726   0.960 -0.5593  0.1566  0.5872
18225SOL    HW155725   7.217   2.777   1.040 -0.0242  0.7380  0.1292
18225SOL    HW255726   7.287   2.726   0.916 -1.3158  1.5862 -0.9776
18226SOL     OW55727   3.169   5.284   0.032  0.0150 -0.1395  0.2074
18226SOL    HW155728   3.191   5.237   0.112  0.7457 -1.6463 -0.8319
18226SOL    HW255729   3.154   5.215  -0.033  0.3258  1.0393 -1.1729
18227SOL     OW55730   7.923   1.559   5.568 -0.0937 -0.0487 -0.2205
18227SOL    HW155731   7.921   1.519   5.481 -0.3753  0.3208 -0.3874
18227SOL    HW255732   7.857   1.629   5.564 -0.1322 -0.0501  0.2986
18228SOL     OW55733   3.191   7.473   3.597 -0.1393 -0.3476 -0.4505
18228SOL    HW155734   3.096   7.463   3.585 -0.0844 -1.4524 -0.0538
18228SOL    HW255735   3.207   7.565   3.577 -1.7080  0.5884  2.0214
18229SOL     OW55736   8.024   5.217   4.969 -0.4221 -0.2586 -0.4017
18229SOL    HW155737   7.954   5.207   5.034 -1.7915 -2.3787 -2.0659
18229SOL    HW255738   8.011   5.304   4.932 -1.1623 -0.0063  0.4267
18230SOL     OW55739   2.546   2.954   2.081 -0.1126 -0.2726  0.2943
18230SOL    HW155740   2.457   2.919   2.074 -0.3378  0.1719  0.8122
18230SOL    HW255741   2.559   3.001   1.998 -0.1135 -0.8794 -0.0548
18231SOL     OW55742   6.797   3.586   5.486 -0.1987 -0.1717 -0.1162
18231SOL    HW155743   6.869   3.636   5.446  0.4173  1.0466  2.2873
18231SOL    HW255744   6.822   3.495   5.474  0.8189  0.1922 -0.9511
18232SOL     OW55745   5.183   2.293   3.588 -0.1686  0.2344 -0.3756
18232SOL    HW155746   5.153   2.214   3.542  0.9650 -0.1557 -0.4620
18232SOL    HW255747   5.102   2.338   3.612 -0.7979  0.1458 -2.1941
18233SOL     OW55748   1.089   5.662   8.007  0.5548  0.1383 -0.5501
18233SOL    HW155749   1.109   5.720   7.933 -1.5133  0.4462 -0.9206
18233SOL    HW255750   1.084   5.721   8.082  0.2781  0.1710 -0.5946
18234SOL     OW55751   3.304   3.923   0.823 -0.3473 -0.0691 -0.6899
18234SOL    HW155752   3.232   3.987   0.817  0.1633  0.7935  1.3684
18234SOL    HW255753   3.263   3.846   0.862 -0.0810  0.6905  1.2162
18235SOL     OW55754   2.788   0.333   4.130 -0.8847 -0.7755 -0.8983
18235SOL    HW155755   2.800   0.275   4.206 -2.4939 -1.2715 -0.9954
18235SOL    HW255756   2.755   0.276   4.061 -2.5987  0.2514 -0.9706
18236SOL     OW55757   5.975   6.189   7.482 -0.5530 -0.1241 -0.3542
18236SOL    HW155758   6.001   6.250   7.550  1.5783  0.1657 -1.3581
18236SOL    HW255759   6.028   6.111   7.497 -1.5393 -0.8389 -0.4896
18237SOL     OW55760   7.008   7.450   7.824  0.0791 -0.0455  0.2370
18237SOL    HW155761   6.921   7.425   7.794  0.4650 -0.8988 -0.2166
18237SOL    HW255762   7.067   7.422   7.754  0.7269  0.4696  0.5592
18238SOL     OW55763   6.766   7.975   4.524  0.3703 -0.5273 -0.4118
18238SOL    HW155764   6.675   7.945   4.521  0.4788 -1.0717  1.0722
18238SOL    HW255765   6.809   7.928   4.452 -0.6673  0.3267 -1.6290
18239SOL     OW55766   4.176   5.596   1.325 -0.7990 -0.0760  0.3589
18239SOL    HW155767   4.148   5.678   1.284 -1.6318 -1.1952 -1.4144
18239SOL    HW255768   4.113   5.531   1.294 -0.0336 -1.4484  1.5611
18240SOL     OW55769   3.575   0.151   3.894 -0.4028 -0.3132  0.3777
18240SOL    HW155770   3.508   0.178   3.831  1.0165  0.0043 -1.0507
18240SOL    HW255771   3.632   0.092   3.846  0.4764 -0.4155  1.4927
18241SOL     OW55772   5.644   1.541   6.057  0.1451 -0.3121 -0.2064
18241SOL    HW155773   5.672   1.613   6.114  0.7842 -0.6126 -0.1242
18241SOL    HW255774   5.550   1.553   6.047 -0.0003 -0.3020  0.9888
18242SOL     OW55775   5.679   1.941   7.894  0.0703 -0.3245  0.7900
18242SOL    HW155776   5.644   1.903   7.814 -2.3871  1.7035  0.7598
18242SOL    HW255777   5.680   2.035   7.877 -1.2822  0.2311  3.3604
18243SOL     OW55778   4.242   1.296   5.393  0.0496  0.4254 -0.5152
18243SOL    HW155779   4.152   1.324   5.375 -0.4331 -0.0177  1.0253
18243SOL    HW255780   4.296   1.369   5.364 -0.6711  0.1104 -2.8345
18244SOL     OW55781   2.061   7.189   6.824 -0.1337 -0.0427  0.1801
18244SOL    HW155782   2.156   7.199   6.819 -0.3283  2.3905  0.1383
18244SOL    HW255783   2.048   7.106   6.870  1.9966 -0.1682  0.6616
18245SOL     OW55784   4.810   5.209   5.568  0.6438 -0.0766 -0.1057
18245SOL    HW155785   4.901   5.208   5.596  0.3101 -1.3116  1.0153
18245SOL    HW255786   4.787   5.116   5.556 -0.8227  0.1274  0.8650
18246SOL     OW55787   2.935   2.665   1.200  0.0640 -0.0095  0.4648
18246SOL    HW155788   2.997   2.732   1.175 -0.0941 -0.4552 -1.2287
18246SOL    HW255789   2.849   2.706   1.191 -0.2007 -1.0206 -2.9290
18247SOL     OW55790   4.381   0.094   7.483  0.2229 -0.0853 -0.1100
18247SOL    HW155791   4.451   0.144   7.524  0.2602 -0.4835  0.3142
18247SOL    HW255792   4.418   0.007   7.468 -0.0654 -0.1938 -0.2067
18248SOL     OW55793   1.864   4.086   6.311 -0.0266 -0.3714  0.5710
18248SOL    HW155794   1.785   4.033   6.321  0.4023 -1.4515 -1.2043
18248SOL    HW255795   1.936   4.024   6.321  0.4785 -0.3781 -2.1494
18249SOL     OW55796   5.617   7.867   1.140  0.7425 -0.2598 -0.1677
18249SOL    HW155797   5.567   7.817   1.075 -2.3076  2.2465  0.0381
18249SOL    HW255798   5.559   7.873   1.216  1.6339  2.1879  0.3979
18250SOL     OW55799   4.196   2.107   5.979  0.2617  0.2320 -0.0011
18250SOL    HW155800   4.262   2.136   6.042 -0.3931  1.8767 -0.0445
18250SOL    HW255801   4.237   2.118   5.894  0.1607  0.6772  0.0050
18251SOL     OW55802   0.347   2.847   2.983  0.8110  0.3177 -0.3178
18251SOL    HW155803   0.337   2.874   3.074  0.8875  0.1192 -0.2490
18251SOL    HW255804   0.264   2.871   2.941  0.8894  0.6801 -0.2668
18252SOL     OW55805   4.765   7.847   7.057  0.3491  0.1471  0.2022
18252SOL    HW155806   4.797   7.925   7.102  1.5823 -0.0164 -0.3473
18252SOL    HW255807   4.721   7.797   7.125  0.8560  0.6235  0.8992
18253SOL     OW55808   5.175   7.160   5.213  0.3074  0.3686  0.0060
18253SOL    HW155809   5.133   7.075   5.208 -0.3642  0.7472 -0.9298
18253SOL    HW255810   5.190   7.186   5.122  0.9778  1.0251  0.2855
18254SOL     OW55811   3.867   3.846   6.021 -0.1484 -0.5982 -0.1412
18254SOL    HW155812   3.930   3.907   6.060 -1.3749 -0.8117  2.3780
18254SOL    HW255813   3.918   3.767   6.002  0.6571 -0.2182  0.3846
18255SOL     OW55814   6.336   0.683   5.662  0.3585  0.5614 -0.0222
18255SOL    HW155815   6.363   0.739   5.735 -1.1420  1.2916  0.0191
18255SOL    HW255816   6.300   0.745   5.597  0.2315 -0.2087 -0.7057
18256SOL     OW55817   5.666   6.414   4.375 -0.3648 -0.4718 -0.7550
18256SOL    HW155818   5.755   6.433   4.405 -0.9266 -0.3263  0.9265
18256SOL    HW255819   5.661   6.452   4.288  0.8344  0.6485 -0.3554
18257SOL     OW55820   6.431   0.150   2.528  0.2751 -0.5356 -0.0630
18257SOL    HW155821   6.487   0.079   2.560  1.6368  0.0915 -0.9536
18257SOL    HW255822   6.414   0.127   2.436 -0.3794 -0.3681  0.0098
18258SOL     OW55823   1.948   6.357   0.668  0.0589 -0.1500  0.2946
18258SOL    HW155824   1.986   6.440   0.698  0.1642 -0.7103  1.7415
18258SOL    HW255825   1.913   6.378   0.581  2.0479  0.8388 -0.3318
18259SOL     OW55826   3.978   6.953   2.670 -0.3233  0.1899 -0.1450
18259SOL    HW155827   3.984   6.859   2.687  0.1985  0.1370 -0.5871
18259SOL    HW255828   3.914   6.960   2.599 -1.7775  0.3338  1.1305
18260SOL     OW55829   7.568   2.180   3.418 -0.0352 -0.0222 -0.0621
18260SOL    HW155830   7.541   2.102   3.467  2.4945 -0.7232  0.3578
18260SOL    HW255831   7.640   2.217   3.469  0.7175  0.9280 -1.7310
18261SOL     OW55832   8.279   0.131   0.915 -0.5604 -0.2887 -0.2183
18261SOL    HW155833   8.334   0.205   0.940  0.9154 -1.5523  0.5141
18261SOL    HW255834   8.225   0.163   0.843  1.8935  0.7580 -1.7018
18262SOL     OW55835   7.124   8.198   3.303  0.2933 -0.0999  0.3466
18262SOL    HW155836   7.158   8.159   3.383 -1.3723 -3.0117 -0.2153
18262SOL    HW255837   7.034   8.222   3.324  0.2714  0.4110 -0.2766
18263SOL     OW55838   7.033   2.820   7.818  0.4091 -0.0913  0.3133
18263SOL    HW155839   6.983   2.888   7.863  0.9012  0.8276 -0.4726
18263SOL    HW255840   7.032   2.848   7.726 -0.7965 -2.0434 -0.3238
18264SOL     OW55841   1.388   4.176   1.601 -0.1015 -0.2818  0.6946
18264SOL    HW155842   1.334   4.097   1.603  0.0976 -0.4141  1.0076
18264SOL    HW255843   1.372   4.215   1.516  0.2098 -0.9505  0.3231
18265SOL     OW55844   7.236   2.498   0.408 -0.1411 -0.5789  0.2845
18265SOL    HW155845   7.228   2.555   0.484 -0.9127 -0.3122  0.0102
18265SOL    HW255846   7.193   2.546   0.337  1.3417 -0.4133 -0.5616
18266SOL     OW55847   6.792   6.297   2.451  0.4575  0.1471  0.1644
18266SOL    HW155848   6.855   6.226   2.458 -1.2599 -1.3132  2.0795
18266SOL    HW255849   6.781   6.328   2.541  0.2945  2.0632 -0.4801
18267SOL     OW55850   4.882   6.420   2.792 -0.1007 -0.1049 -0.2190
18267SOL    HW155851   4.868   6.498   2.846 -0.1935 -0.1175 -0.2248
18267SOL    HW255852   4.959   6.378   2.831 -0.7385 -0.6229  0.4853
18268SOL     OW55853   4.403   6.466   7.694 -0.0074  0.5157 -0.3783
18268SOL    HW155854   4.343   6.484   7.622 -1.2057  1.6259  0.8521
18268SOL    HW255855   4.435   6.377   7.676 -0.4670  0.6505 -2.1118
18269SOL     OW55856   3.846   6.027   4.930 -0.2296 -0.3926  0.0180
18269SOL    HW155857   3.884   6.068   5.008  0.4675  1.3969 -1.1829
18269SOL    HW255858   3.754   6.055   4.930 -0.1762 -0.2189  0.0782
18270SOL     OW55859   2.971   4.538   2.518  0.5495 -0.3216 -0.0170
18270SOL    HW155860   3.062   4.540   2.548  0.3023 -0.4349  0.7514
18270SOL    HW255861   2.919   4.548   2.597 -0.1108  0.0981 -0.4904
18271SOL     OW55862   8.046   0.661   7.877  0.2892 -0.5299  0.3642
18271SOL    HW155863   8.055   0.591   7.812  0.2329 -0.0925 -0.1245
18271SOL    HW255864   8.034   0.740   7.825 -0.2661 -0.2426  0.9181
18272SOL     OW55865   7.253   2.255   1.880 -0.1566  0.1849 -0.3156
18272SOL    HW155866   7.275   2.334   1.931 -1.0296  0.4594 -0.3509
18272SOL    HW255867   7.328   2.196   1.894  0.3336  0.8707  0.0140
18273SOL     OW55868   7.882   8.016   1.230 -0.0011  0.1887 -0.4258
18273SOL    HW155869   7.957   7.991   1.285  1.0662 -0.2306 -1.9886
18273SOL    HW255870   7.871   7.942   1.170 -0.5383  0.9946 -1.3519
18274SOL     OW55871   1.171   1.783   0.601 -0.0040  0.3005  0.2599
18274SOL    HW155872   1.232   1.855   0.586  0.8704 -0.4469  0.1308
18274SOL    HW255873   1.223   1.704   0.589 -0.9951 -0.3677  0.1707
18275SOL     OW55874   3.744   3.346   8.149 -0.0113  0.2459  0.0095
18275SOL    HW155875   3.772   3.271   8.096 -2.0305  0.4199 -1.4384
18275SOL    HW255876   3.722   3.414   8.086  1.7115  2.1212  1.2966
18276SOL     OW55877   4.144   2.365   6.168 -0.2028  0.9235 -0.0220
18276SOL    HW155878   4.194   2.293   6.209  0.6932  1.2094 -0.6015
18276SOL    HW255879   4.122   2.423   6.241  0.1613  0.7085  0.2608
18277SOL     OW55880   3.326   1.100   2.538  0.4703  0.4902  0.6687
18277SOL    HW155881   3.268   1.087   2.613 -0.0401  0.2382  0.2382
18277SOL    HW255882   3.295   1.181   2.497  1.0778  0.9099  1.0190
18278SOL     OW55883   6.909   2.105   2.589 -0.0146 -0.2639 -0.1994
18278SOL    HW155884   6.846   2.042   2.622  0.2048  0.0443  0.8407
18278SOL    HW255885   6.955   2.059   2.518  1.3273 -1.9188  1.6310
18279SOL     OW55886   4.441   6.981   5.528 -0.1770 -0.1206  0.0779
18279SOL    HW155887   4.377   7.051   5.539 -0.3160 -0.1537 -0.4875
18279SOL    HW255888   4.522   7.018   5.563 -0.1280  0.5142 -0.6728
18280SOL     OW55889   4.088   0.686   8.152 -0.8155 -0.2760  0.7119
18280SOL    HW155890   4.141   0.655   8.225 -1.7339 -0.6023  1.2592
18280SOL    HW255891   4.084   0.781   8.163  2.8109  0.3511 -1.5032
18281SOL     OW55892   3.028   7.618   2.768  0.0784  0.1758  0.1724
18281SOL    HW155893   3.066   7.568   2.841  0.5371  0.7161  0.3070
18281SOL    HW255894   3.103   7.663   2.728  0.0793 -1.1904 -1.5155
18282SOL     OW55895   3.118   7.919   7.647 -0.3000 -0.3201 -0.4301
18282SOL    HW155896   3.107   7.945   7.738 -0.9938 -0.2935 -0.5204
18282SOL    HW255897   3.197   7.864   7.647 -0.6620 -0.8494  0.2917
18283SOL     OW55898   0.526   5.846   4.357  0.0885 -0.6169  0.7644
18283SOL    HW155899   0.488   5.918   4.306  2.5435  0.9585  1.0348
18283SOL    HW255900   0.578   5.889   4.425 -2.8378 -2.5786  4.7142
18284SOL     OW55901   7.255   7.111   1.104  0.1338  0.5576 -0.1640
18284SOL    HW155902   7.202   7.033   1.085  3.6127 -1.8390 -0.8558
18284SOL    HW255903   7.213   7.150   1.180 -1.1967 -2.6127  0.9139
18285SOL     OW55904   3.274   6.604   6.731 -0.6369  0.3198 -0.2273
18285SOL    HW155905   3.305   6.603   6.640  1.7365 -1.2830  0.4872
18285SOL    HW255906   3.236   6.517   6.745 -0.1793  0.2270  0.5176
18286SOL     OW55907   4.347   7.199   4.881  0.4043 -0.3012 -0.1237
18286SOL    HW155908   4.408   7.269   4.906 -0.1707  0.6116 -1.1802
18286SOL    HW255909   4.400   7.139   4.828  0.8838 -0.6662  0.7403
18287SOL     OW55910   3.937   2.932   3.874  0.0254 -0.1712 -0.0779
18287SOL    HW155911   3.895   2.991   3.937  1.0693  0.7910 -0.2495
18287SOL    HW255912   3.881   2.934   3.797 -0.3068  0.0613  0.1700
18288SOL     OW55913   7.934   1.888   0.550 -0.0354  0.2189  0.1278
18288SOL    HW155914   8.005   1.827   0.567 -2.0401 -1.2804  4.4141
18288SOL    HW255915   7.968   1.973   0.578  0.6170 -0.1703  0.5205
18289SOL     OW55916   5.833   0.113   5.595 -0.1192 -0.2286  0.5489
18289SOL    HW155917   5.875   0.193   5.563 -0.4578 -0.3351 -0.1770
18289SOL    HW255918   5.902   0.068   5.646  0.0238  0.5921  1.1035
18290SOL     OW55919   4.191   0.077   5.741  0.1594 -0.7595  0.6574
18290SOL    HW155920   4.251   0.010   5.707  1.4899  1.0397 -0.7676
18290SOL    HW255921   4.177   0.052   5.832  2.7184 -1.5594  0.9263
18291SOL     OW55922   4.798   3.487   4.908 -0.7698 -0.0080 -0.7920
18291SOL    HW155923   4.877   3.542   4.903 -0.8846  0.1293 -1.1230
18291SOL    HW255924   4.731   3.545   4.943 -0.7570 -0.0893 -0.6327
18292SOL     OW55925   6.178   4.137   0.481 -0.7793  0.0553  0.2297
18292SOL    HW155926   6.214   4.165   0.566  1.4010  0.3602 -0.7306
18292SOL    HW255927   6.234   4.065   0.454 -0.7737  0.6266 -1.4110
18293SOL     OW55928   6.659   8.266   2.610  0.0956  1.0553 -0.3072
18293SOL    HW155929   6.705   8.184   2.589  0.7501  0.7134  2.1658
18293SOL    HW255930   6.711   8.334   2.567  0.4745  0.3309 -1.0353
18294SOL     OW55931   1.788   1.070   7.766 -0.5117  0.2547 -0.3580
18294SOL    HW155932   1.724   1.002   7.789 -1.2455  1.5110  1.5953
18294SOL    HW255933   1.761   1.146   7.817  1.6491  1.3112 -0.6857
18295SOL     OW55934   5.028   0.333   0.705 -0.4618  0.3849 -0.2747
18295SOL    HW155935   5.040   0.427   0.722  0.9352  0.1224  0.2639
18295SOL    HW255936   5.106   0.307   0.656  1.0423 -1.2341  2.7239
18296SOL     OW55937   4.377   2.901   5.894  0.0145  0.7563  0.1021
18296SOL    HW155938   4.306   2.859   5.943 -0.0510 -0.8551 -1.2819
18296SOL    HW255939   4.333   2.944   5.821  0.3548  0.9540  0.0128
18297SOL     OW55940   4.605   0.193   1.665 -0.1348 -0.4560  0.5521
18297SOL    HW155941   4.699   0.208   1.675 -0.2216  2.3055 -1.5622
18297SOL    HW255942   4.566   0.228   1.746  0.5199  0.8426  0.3318
18298SOL     OW55943   4.487   7.346   4.297  0.6818  0.5505  0.3106
18298SOL    HW155944   4.403   7.371   4.337  0.5443 -1.2674  1.2558
18298SOL    HW255945   4.463   7.287   4.225  1.1354  0.0375  0.5705
18299SOL     OW55946   1.775   6.200   6.208  0.5971 -0.2470  0.4393
18299SOL    HW155947   1.747   6.134   6.145  2.1448 -1.1634  0.6480
18299SOL    HW255948   1.749   6.164   6.293  0.1193  0.1222  0.4489
18300SOL     OW55949   1.987   4.787   0.445  0.2934  1.3749  0.7454
18300SOL    HW155950   1.892   4.796   0.434  0.3211 -0.3949 -2.0578
18300SOL    HW255951   2.022   4.873   0.418 -0.4579  1.2941 -0.6072
18301SOL     OW55952   4.119   4.936   2.159 -0.3974 -0.2658 -0.0934
18301SOL    HW155953   4.141   5.025   2.133 -0.5484 -0.1328  0.2384
18301SOL    HW255954   4.102   4.941   2.253 -0.0833 -0.7055 -0.0116
18302SOL     OW55955   2.742   7.765   4.915  0.0562 -0.0855 -0.6049
18302SOL    HW155956   2.679   7.822   4.871  0.1235 -0.7542 -1.6067
18302SOL    HW255957   2.701   7.744   4.999 -0.6215  0.2456 -0.8444
18303SOL     OW55958   1.497   3.568   5.967  0.0277 -0.0888  0.2214
18303SOL    HW155959   1.584   3.610   5.965  0.5726 -1.1638  0.8284
18303SOL    HW255960   1.514   3.480   6.000 -1.0323 -0.9829 -1.5193
18304SOL     OW55961   2.762   5.038   4.149 -0.2769  0.1998  0.1796
18304SOL    HW155962   2.783   4.996   4.232 -0.4451 -0.4395 -0.1019
18304SOL    HW255963   2.822   5.113   4.145 -0.5975  0.5241  1.0943
18305SOL     OW55964   1.855   5.690   5.701  0.4202  0.6437 -0.1981
18305SOL    HW155965   1.792   5.753   5.736 -0.6228 -0.4833  0.0250
18305SOL    HW255966   1.928   5.692   5.763  0.0718  1.1059  0.2024
18306SOL     OW55967   5.765   7.341   3.743 -0.7267  0.5825  0.0386
18306SOL    HW155968   5.818   7.404   3.695 -0.0072  0.9077  1.2233
18306SOL    HW255969   5.689   7.391   3.774  0.5297  1.2954  2.1843
18307SOL     OW55970   6.888   7.250   3.704  0.0487  0.3390  0.1177
18307SOL    HW155971   6.972   7.239   3.749  0.5970  0.7103 -0.7986
18307SOL    HW255972   6.822   7.227   3.770  0.8926 -1.0524  0.5128
18308SOL     OW55973   2.072   7.131   8.058 -0.0104 -0.3391 -0.0618
18308SOL    HW155974   1.979   7.148   8.048 -0.2413 -1.3631  0.1526
18308SOL    HW255975   2.087   7.129   8.152 -0.2678 -2.4126 -0.0018
18309SOL     OW55976   1.083   2.246   1.965 -0.2662  0.2489 -0.3969
18309SOL    HW155977   1.092   2.273   1.874  1.7405 -0.1570 -0.3703
18309SOL    HW255978   1.138   2.168   1.973  0.4671  0.8951  1.4111
18310SOL     OW55979   2.197   3.506   2.238 -0.1910  0.2839  0.0284
18310SOL    HW155980   2.257   3.439   2.272  0.8271  2.4273  2.8923
18310SOL    HW255981   2.255   3.577   2.211 -1.2710  0.2991 -2.4394
18311SOL     OW55982   2.769   8.186   1.564 -0.1723 -0.2275 -0.1945
18311SOL    HW155983   2.856   8.225   1.570  0.8954 -2.6102  0.8965
18311SOL    HW255984   2.752   8.178   1.470 -0.1204  2.0591 -0.4495
18312SOL     OW55985   1.758   6.777   1.432  0.3344 -0.0168 -0.3018
18312SOL    HW155986   1.739   6.808   1.344  0.4860 -0.2710 -0.4233
18312SOL    HW255987   1.789   6.687   1.421 -2.3910 -1.1239  0.2352
18313SOL     OW55988   2.699   1.598   7.891  0.7332  0.0399 -0.4425
18313SOL    HW155989   2.617   1.566   7.854  0.9101  0.2715 -1.0426
18313SOL    HW255990   2.762   1.528   7.876  0.8779  0.2574 -0.8515
18314SOL     OW55991   6.188   3.062   4.737 -0.0415  0.4755 -0.2768
18314SOL    HW155992   6.170   3.008   4.815 -1.0574 -0.4273 -1.1012
18314SOL    HW255993   6.215   2.999   4.670 -1.0582  0.9979 -1.2076
18315SOL     OW55994   4.621   3.124   7.133  0.0414 -0.1558 -0.6512
18315SOL    HW155995   4.650   3.069   7.060  1.4888 -0.6488  0.2576
18315SOL    HW255996   4.697   3.131   7.190 -1.2652 -0.5017  1.2707
18316SOL     OW55997   2.678   2.405   2.681 -0.2417 -0.4571  0.4174
18316SOL    HW155998   2.632   2.329   2.646 -0.7576 -0.8418  1.8793
18316SOL    HW255999   2.653   2.409   2.773 -2.1742  2.8537 -0.0533
18317SOL     OW56000   3.743   2.178   2.809 -0.7161  0.6501  0.3922
18317SOL    HW156001   3.667   2.186   2.867 -1.9625 -2.9309 -0.4925
18317SOL    HW256002   3.716   2.221   2.728 -2.4088 -1.6319 -0.3391
18318SOL     OW56003   0.984   3.515   5.905  0.1791 -0.0764 -0.4517
18318SOL    HW156004   1.029   3.512   5.821 -0.1300  0.8886 -0.6696
18318SOL    HW256005   0.932   3.595   5.901 -0.7436 -0.6298  0.2037
18319SOL     OW56006   6.175   4.421   6.057  0.3868  0.1065  0.1919
18319SOL    HW156007   6.171   4.486   5.987  0.7122  0.3167  0.3662
18319SOL    HW256008   6.163   4.337   6.013 -0.6383  0.3172  0.0347
18320SOL     OW56009   7.113   6.903   5.161  0.3275 -0.5435 -0.5276
18320SOL    HW156010   7.073   6.947   5.235  1.5259  0.6510 -0.5417
18320SOL    HW256011   7.192   6.863   5.197  0.1664 -1.1862 -0.8760
18321SOL     OW56012   3.872   3.099   3.495 -0.0673  0.1535  0.4894
18321SOL    HW156013   3.866   3.006   3.473  1.4327 -0.0731  0.9184
18321SOL    HW256014   3.847   3.104   3.587  0.7255  0.0406  0.7126
18322SOL     OW56015   0.449   1.495   5.041  0.4202 -0.2570 -0.2500
18322SOL    HW156016   0.409   1.409   5.054  1.8371 -0.9291 -0.1690
18322SOL    HW256017   0.522   1.497   5.104 -0.5139  1.6373  0.8717
18323SOL     OW56018   6.259   7.936   8.121  0.4441  0.7967 -0.0988
18323SOL    HW156019   6.264   7.923   8.026  0.2947  1.0871 -0.1492
18323SOL    HW256020   6.312   7.866   8.158  0.2097  0.4681 -0.3822
18324SOL     OW56021   4.442   2.613   1.077 -0.5122 -0.3692  0.2486
18324SOL    HW156022   4.480   2.538   1.123  0.9134  0.7623  1.0164
18324SOL    HW256023   4.485   2.612   0.992  0.2930  0.1507  0.6375
18325SOL     OW56024   7.211   7.204   2.619  0.3555 -0.0255  0.1177
18325SOL    HW156025   7.217   7.126   2.674  0.7824 -0.9378 -1.1903
18325SOL    HW256026   7.277   7.264   2.656 -1.2456  0.5320  2.3010
18326SOL     OW56027   6.999   4.015   1.965 -0.1994 -0.4892  0.0915
18326SOL    HW156028   6.906   4.030   1.982 -0.0444  1.1788 -0.3704
18326SOL    HW256029   7.020   4.076   1.895  1.0845 -1.3923 -0.3460
18327SOL     OW56030   5.023   0.051   2.748 -0.4720 -0.2735 -0.0443
18327SOL    HW156031   4.948  -0.008   2.758  0.1688 -1.6083 -2.3363
18327SOL    HW256032   4.987   0.129   2.707 -1.1141  0.4897  1.8672
18328SOL     OW56033   1.514   0.423   0.200  0.0842  0.0723 -0.1658
18328SOL    HW156034   1.498   0.340   0.156  0.7857 -0.1884  0.0660
18328SOL    HW256035   1.564   0.400   0.278  0.9563  0.7928 -0.4983
18329SOL     OW56036   1.945   8.201   6.203  0.5224 -0.0522 -0.0593
18329SOL    HW156037   2.024   8.253   6.210 -0.1067  1.0635 -0.9339
18329SOL    HW256038   1.874   8.265   6.198 -0.3823 -1.0118  0.0375
18330SOL     OW56039   2.231   7.904   4.830 -0.6326 -0.2730 -0.0844
18330SOL    HW156040   2.191   7.867   4.752 -1.8590 -0.2490  0.5105
18330SOL    HW256041   2.324   7.881   4.823 -0.7138 -0.2534 -1.5390
18331SOL     OW56042   0.149   0.946   4.408 -0.0112 -0.2601  0.4977
18331SOL    HW156043   0.105   1.020   4.451  0.4565 -0.5823  1.5721
18331SOL    HW256044   0.241   0.955   4.435  0.6195  0.3899 -1.6886
18332SOL     OW56045   6.595   5.226   0.436 -0.2276  0.3461  0.2601
18332SOL    HW156046   6.602   5.252   0.344 -0.9755  0.0850  0.1304
18332SOL    HW256047   6.503   5.239   0.458 -0.3809 -1.1076  0.5249
18333SOL     OW56048   7.616   2.892   7.233  0.7657  0.0601 -0.1596
18333SOL    HW156049   7.567   2.829   7.180  0.3149  1.2381 -1.2012
18333SOL    HW256050   7.705   2.888   7.198  1.0871 -0.9895  0.7232
18334SOL     OW56051   2.438   2.558   0.646  0.1848 -0.0503  0.3538
18334SOL    HW156052   2.365   2.511   0.686  0.2097  1.0027  1.7222
18334SOL    HW256053   2.482   2.601   0.720  0.4203  1.7612 -0.7800
18335SOL     OW56054   2.251   0.345   4.576  0.4311 -0.2842  1.0381
18335SOL    HW156055   2.261   0.405   4.649 -0.0178  0.1885  0.7247
18335SOL    HW256056   2.280   0.396   4.500 -1.4216  0.1075  0.5415
18336SOL     OW56057   3.082   2.788   3.661 -0.1940  0.3411 -0.1872
18336SOL    HW156058   3.169   2.749   3.653 -0.3087  0.1764 -0.6323
18336SOL    HW256059   3.074   2.845   3.585 -1.1431 -0.9556 -1.0960
18337SOL     OW56060   6.506   1.769   0.930 -0.0177  0.7054 -0.2674
18337SOL    HW156061   6.436   1.821   0.889  0.8064  1.7168 -0.4318
18337SOL    HW256062   6.514   1.806   1.018 -0.3980 -0.1105  0.1157
18338SOL     OW56063   5.070   3.150   5.136  0.2963  0.0689 -0.0840
18338SOL    HW156064   5.146   3.136   5.193  0.2842 -1.8886 -0.4936
18338SOL    HW256065   5.000   3.099   5.177 -0.6350  1.3143 -0.0844
18339SOL     OW56066   4.112   0.976   0.841  0.4195  0.7417 -0.0013
18339SOL    HW156067   4.018   0.971   0.821  0.3534  1.2693  0.1492
18339SOL    HW256068   4.119   0.944   0.931  0.2851  1.3103  0.2222
18340SOL     OW56069   0.117   7.919   3.506 -0.3711 -0.3359  0.0870
18340SOL    HW156070   0.110   7.982   3.434  0.5561 -1.2788 -0.8500
18340SOL    HW256071   0.209   7.895   3.508 -0.4438 -0.5766  1.3967
18341SOL     OW56072   0.438   3.516   5.278 -0.4492  0.4952 -0.0629
18341SOL    HW156073   0.390   3.556   5.351  0.3159 -1.6036  1.6902
18341SOL    HW256074   0.530   3.523   5.304 -0.1645 -0.3222 -0.8186
18342SOL     OW56075   1.163   1.211   4.550  0.2559 -0.1998 -0.2532
18342SOL    HW156076   1.161   1.272   4.476  0.8155 -0.1660 -0.2438
18342SOL    HW256077   1.101   1.142   4.526  2.0742 -1.3872 -1.8124
18343SOL     OW56078   3.069   6.601   6.138  0.1617 -0.1093  0.4502
18343SOL    HW156079   3.073   6.689   6.101 -1.1638 -1.5394 -3.5629
18343SOL    HW256080   2.979   6.593   6.170 -0.2091 -0.5006 -0.6654
18344SOL     OW56081   1.407   2.285   5.734  0.8497 -0.2759  0.0244
18344SOL    HW156082   1.479   2.338   5.700  0.3403 -0.1281 -0.8718
18344SOL    HW256083   1.449   2.219   5.789  1.4690  1.1925  1.3839
18345SOL     OW56084   1.134   2.497   4.593  0.6764 -0.0413 -0.2412
18345SOL    HW156085   1.190   2.424   4.566 -1.3763 -1.6265 -0.4608
18345SOL    HW256086   1.144   2.562   4.523  0.8585 -1.0567 -1.1910
18346SOL     OW56087   1.606   1.295   2.807  0.5172 -0.1301  0.1760
18346SOL    HW156088   1.675   1.355   2.834 -0.6019  1.5843 -0.6517
18346SOL    HW256089   1.532   1.351   2.782 -0.6400 -1.8437 -0.4884
18347SOL     OW56090   4.715   3.906   0.287  0.5198  0.5999 -0.5131
18347SOL    HW156091   4.674   3.992   0.277 -0.2406  0.1202 -1.6673
18347SOL    HW256092   4.789   3.906   0.226  2.5296  1.5549  1.7326
18348SOL     OW56093   4.303   2.726   0.821  0.1226  0.1856  0.3636
18348SOL    HW156094   4.378   2.680   0.859  0.4055 -1.3569 -1.8611
18348SOL    HW256095   4.229   2.667   0.836 -0.0146  0.1956 -0.2583
18349SOL     OW56096   5.027   5.909   4.882 -0.1679 -0.2456 -0.2478
18349SOL    HW156097   5.015   5.923   4.788 -0.8384 -0.8622 -0.2644
18349SOL    HW256098   5.034   5.814   4.891 -1.4633 -0.2947  0.4646
18350SOL     OW56099   1.615   5.882   2.121 -0.4134  0.1331 -0.1899
18350SOL    HW156100   1.687   5.937   2.090 -0.9962  1.1026  0.1204
18350SOL    HW256101   1.542   5.904   2.064 -0.9894  0.5950  0.7050
18351SOL     OW56102   5.293   7.158   3.580 -0.3840 -0.6248  0.1034
18351SOL    HW156103   5.263   7.231   3.634  4.0596  1.1031  0.6086
18351SOL    HW256104   5.318   7.090   3.643  3.3747  0.8200  0.4009
18352SOL     OW56105   2.086   0.225   4.239 -0.5227 -0.3567 -0.0435
18352SOL    HW156106   2.135   0.146   4.218  0.3974  0.4218 -0.9671
18352SOL    HW256107   2.069   0.266   4.154  0.2943  1.1691  0.4939
18353SOL     OW56108   2.329   0.830   0.445 -0.2801 -0.0743  0.1036
18353SOL    HW156109   2.288   0.860   0.363  0.3998 -0.7659 -0.5069
18353SOL    HW256110   2.255   0.800   0.498 -1.0564  2.9362  0.9204
18354SOL     OW56111   4.034   5.756   2.885  0.8333  0.0748 -0.2612
18354SOL    HW156112   3.964   5.759   2.950 -0.4587 -1.3680 -1.5122
18354SOL    HW256113   3.992   5.724   2.806  2.8510 -0.5342 -1.1444
18355SOL     OW56114   2.301   3.000   0.710 -0.1452 -0.1032 -0.3952
18355SOL    HW156115   2.379   3.012   0.764 -0.7641  1.8367  0.1247
18355SOL    HW256116   2.329   2.940   0.640  1.6316  0.1025  0.0970
18356SOL     OW56117   8.278   4.420   3.579 -0.7674 -0.5671 -0.5409
18356SOL    HW156118   8.348   4.394   3.639  2.1471  1.9788 -2.5193
18356SOL    HW256119   8.243   4.501   3.617 -1.5095 -0.9211 -0.4459
18357SOL     OW56120   0.149   5.952   6.678 -0.2370 -0.0310  0.0266
18357SOL    HW156121   0.237   5.924   6.653 -0.2747 -0.6453  0.5419
18357SOL    HW256122   0.111   5.988   6.598  0.2312 -0.4097 -0.3715
18358SOL     OW56123   0.820   8.030   5.870  0.3522  0.6554  0.2080
18358SOL    HW156124   0.807   8.039   5.964  1.8782 -0.6410  0.5705
18358SOL    HW256125   0.815   8.120   5.837 -0.3268  1.1175  1.4908
18359SOL     OW56126   3.132   1.949   6.608  0.2445  0.1743 -0.4165
18359SOL    HW156127   3.098   1.881   6.549 -1.4040 -0.3756  1.0937
18359SOL    HW256128   3.059   1.967   6.668  1.9354  0.5315  1.6117
18360SOL     OW56129   3.522   5.689   0.012 -0.1460 -0.8071  0.0141
18360SOL    HW156130   3.472   5.630  -0.044 -1.8380  0.6088 -0.0705
18360SOL    HW256131   3.577   5.739  -0.049 -0.5409 -0.6133 -0.1886
18361SOL     OW56132   4.477   0.632   1.309  0.3879  0.5195  0.0362
18361SOL    HW156133   4.463   0.600   1.220  1.0209 -0.8789  0.3959
18361SOL    HW256134   4.534   0.708   1.300  1.4359 -0.3147 -0.7076
18362SOL     OW56135   2.063   8.073   2.717  0.3252 -0.2409  0.1477
18362SOL    HW156136   2.144   8.056   2.668  0.7930 -0.1416  0.8692
18362SOL    HW256137   2.084   8.047   2.806  0.4478  2.2823  0.9176
18363SOL     OW56138   6.698   0.582   3.518 -0.0414 -0.4530 -0.0075
18363SOL    HW156139   6.649   0.517   3.567  0.2423 -0.7225 -0.0769
18363SOL    HW256140   6.749   0.531   3.455 -0.3677 -0.1144 -0.5526
18364SOL     OW56141   5.081   4.160   1.973 -0.2967  0.7321 -0.1355
18364SOL    HW156142   5.052   4.116   1.893  0.6124 -0.0743 -0.0418
18364SOL    HW256143   5.003   4.206   2.005 -1.3898 -1.0924 -0.0604
18365SOL     OW56144   6.467   0.167   4.335 -0.2442  0.1842 -0.1700
18365SOL    HW156145   6.382   0.172   4.290 -0.0076 -0.8683 -0.7560
18365SOL    HW256146   6.447   0.124   4.418 -0.3702  0.4349 -0.0687
18366SOL     OW56147   2.634   1.197   1.057  0.1151 -0.0473  0.0246
18366SOL    HW156148   2.561   1.185   1.117 -0.1530  0.2548 -0.2407
18366SOL    HW256149   2.709   1.156   1.102 -0.1700 -0.1829  0.3793
18367SOL     OW56150   4.574   8.029   1.994  0.2967 -0.6105  0.6395
18367SOL    HW156151   4.667   8.048   2.000  0.0868  2.1177 -2.4607
18367SOL    HW256152   4.562   7.993   1.906 -1.6027 -0.8058  0.9387
18368SOL     OW56153   5.985   4.862   2.830 -0.4293  0.1712 -0.7777
18368SOL    HW156154   5.914   4.810   2.868 -0.1665 -0.1897 -0.7684
18368SOL    HW256155   5.961   4.870   2.737 -0.5593  0.1839 -0.7436
18369SOL     OW56156   5.154   1.795   6.700  0.1202 -0.5784 -0.6865
18369SOL    HW156157   5.184   1.704   6.704  0.0526 -0.6102 -0.8674
18369SOL    HW256158   5.232   1.847   6.714  0.4701 -0.6410 -2.1871
18370SOL     OW56159   1.259   5.852   3.258  0.2402 -0.2123 -0.2643
18370SOL    HW156160   1.279   5.855   3.351 -0.4421 -1.8567 -0.0434
18370SOL    HW256161   1.331   5.802   3.219 -0.0008 -0.4022 -0.4696
18371SOL     OW56162   0.926   5.081   5.278  0.3665 -0.4609 -0.2198
18371SOL    HW156163   0.943   5.080   5.184  0.1384 -0.2332 -0.2658
18371SOL    HW256164   0.992   5.141   5.313 -0.7570  0.9911 -0.4901
18372SOL     OW56165   1.126   4.704   4.989 -0.0332  0.0579  0.5785
18372SOL    HW156166   1.115   4.624   4.939 -1.3580  0.9629 -0.6582
18372SOL    HW256167   1.076   4.689   5.070  0.2957 -0.5960  0.6672
18373SOL     OW56168   0.359   5.304   3.817  0.3367 -0.4217  0.1502
18373SOL    HW156169   0.441   5.318   3.771  0.1592  0.0253 -0.0356
18373SOL    HW256170   0.357   5.373   3.884 -0.0820 -0.1691 -0.1192
18374SOL     OW56171   2.145   1.175   5.180  0.3256 -0.6175 -0.0014
18374SOL    HW156172   2.200   1.234   5.232  1.6438 -1.7444 -0.0315
18374SOL    HW256173   2.112   1.229   5.108 -0.5346  0.6625  1.3130
18375SOL     OW56174   1.157   1.366   4.983  0.4727 -0.5655  0.0273
18375SOL    HW156175   1.162   1.371   4.888  0.9461 -0.6723  0.0468
18375SOL    HW256176   1.203   1.444   5.014  0.0964 -0.3943  0.1671
18376SOL     OW56177   8.273   7.498   1.632  0.0090 -0.3010 -0.0503
18376SOL    HW156178   8.260   7.547   1.551  0.8014 -2.2416 -1.4255
18376SOL    HW256179   8.358   7.528   1.665 -1.1455  1.8883  1.1862
18377SOL     OW56180   3.481   0.695   2.711 -0.0684  0.4327 -0.2519
18377SOL    HW156181   3.518   0.680   2.624 -0.6116  0.0408 -0.4159
18377SOL    HW256182   3.558   0.711   2.766  0.5069 -2.0483 -0.2220
18378SOL     OW56183   7.103   5.350   6.139 -0.5082 -0.0474  0.1570
18378SOL    HW156184   7.167   5.384   6.077 -0.2353 -1.0036 -0.1117
18378SOL    HW256185   7.155   5.298   6.201 -0.9277 -0.1756  0.4096
18379SOL     OW56186   6.422   1.451   6.233  0.4853  0.2693  0.5421
18379SOL    HW156187   6.464   1.511   6.171  1.7983  0.1636  1.2797
18379SOL    HW256188   6.373   1.509   6.292  0.7058  0.5265  0.4789
18380SOL     OW56189   7.839   2.466   1.642 -0.2506 -0.0035  0.0624
18380SOL    HW156190   7.905   2.405   1.609 -0.7849 -0.8211  0.4570
18380SOL    HW256191   7.787   2.488   1.564  0.1247  0.1861 -0.1376
18381SOL     OW56192   7.638   6.053   1.695 -0.4732  0.0085  0.1552
18381SOL    HW156193   7.616   5.978   1.750 -2.0986  0.8097  0.6718
18381SOL    HW256194   7.617   6.129   1.749 -0.3644  0.8196 -0.9227
18382NA      NA56195   3.435   3.518   1.412  0.2363 -0.2687 -0.0332
18383NA      NA56196   4.730   7.812   6.847 -0.1522  0.4425  0.4073
18384NA      NA56197   1.994   1.916   6.572  0.0115 -0.3335  0.7673
18385NA      NA56198   5.444   0.341   3.156 -0.4672 -0.2232 -0.4051
18386NA      NA56199   0.823   7.290   1.494 -0.1706 -0.0061  0.1377
18387NA      NA56200   6.950   2.761   3.815 -0.3816 -0.0577 -0.1072
18388NA      NA56201   7.620   7.047   4.961 -0.0767  0.4370 -0.4331
18389NA      NA56202   1.425   7.898   4.561  0.2363 -0.2956 -0.1622
18390NA      NA56203   4.866   7.410   7.724  0.1617  0.0151 -0.0434
18391NA      NA56204   3.102   3.970   6.593  0.1520  0.2719 -0.1118
18392NA      NA56205   6.681   0.995   1.882 -0.5937  0.0943 -0.3806
18393NA      NA56206   4.155   4.268   5.724 -0.4805 -0.1713 -0.2965
18394NA      NA56207   2.051   6.482   3.059 -0.0622 -0.4982 -0.3197
18395NA      NA56208   1.695   4.563   0.238  0.0251 -0.1909  0.2521
18396NA      NA56209   2.374   7.575   5.710 -0.1207 -0.1459 -0.3059
18397NA      NA56210   7.003   7.495   6.794 -0.1678  0.1783 -0.1842
18398NA      NA56211   5.175   3.427   0.942 -0.0614 -0.0707  0.1904
18399NA      NA56212   0.116   5.061   1.758  0.1510  0.2494 -0.2416
18400NA      NA56213   7.566   0.199   6.862  0.2701 -0.0873 -0.1490
18401NA      NA56214   3.815   1.279   1.345 -0.1238  0.1315  0.4461
18402NA      NA56215   3.227   0.814   2.168 -0.1914 -0.6001  0.0049
18403NA      NA56216   4.251   3.180   7.679  0.1046 -0.0313 -0.2379
18404NA      NA56217   4.718   1.490   5.626  0.5877 -0.4564 -0.2263
18405NA      NA56218   2.723   3.753   0.758 -0.0872 -0.1204 -0.2770
18406NA      NA56219   7.884   3.634   2.646  0.5262 -0.2423 -0.5693
18407NA      NA56220   7.607   0.408   1.458 -0.3132  0.2771  0.0104
18408NA      NA56221   5.326   0.849   0.433 -0.0807 -0.4782  0.1805
18409NA      NA56222   6.944   1.750   1.192 -0.5288 -0.0898  0.2501
18410NA      NA56223   6.714   0.345   5.788 -0.3045 -0.0842  0.3442
18411NA      NA56224   0.071   3.095   5.027 -0.0353  0.5387  0.3292
18412NA      NA56225   1.401   6.866   7.874  0.5173  0.1846 -0.2981
18413NA      NA56226   1.229   4.532   4.418  0.1493 -0.2706  0.2830
18414NA      NA56227   0.485   7.516   7.199  0.2184  0.7255 -0.2182
18415NA      NA56228   2.300   8.129   7.841  0.4530  0.3522 -0.2038
18416NA      NA56229   7.043   2.990   4.492 -0.4076 -0.0279 -0.1700
18417NA      NA56230   0.329   2.460   0.720  0.1297  0.5489 -0.6600
18418NA      NA56231   2.975   5.565   7.029  0.1618 -0.0630 -0.0056
18419NA      NA56232   2.507   5.798   0.380  0.0086  0.3037 -0.1008
18420NA      NA56233   0.018   2.321   3.977 -0.0738 -0.0859 -0.0331
18421NA      NA56234   2.996   2.263   7.086 -0.2689  0.1212  0.3985
18422NA      NA56235   0.659   4.095   2.747  0.6568 -0.0585 -0.0297
18423NA      NA56236   0.503   7.537   0.084  0.4693  0.1280  0.2544
18424NA      NA56237   1.497   1.105   6.761 -0.0341  0.1249  0.2954
18425NA      NA56238   2.512   2.482   6.878  0.2759  0.0674  0.4932
18426NA      NA56239   0.386   4.616   4.552 -0.2983  0.0469 -0.1632
18427NA      NA56240   1.282   5.690   7.025  0.1090  0.6513 -0.1658
18428NA      NA56241   4.544   1.384   7.745 -0.6562 -0.2783 -0.0638
18429NA      NA56242   2.082   7.218   3.439  0.6034 -0.1248  0.5425
18430NA      NA56243   6.413   1.294   3.731  0.2283 -0.1691  0.0513
18431NA      NA56244   6.887   3.149   8.103 -0.5730 -0.7743  0.4746
18432NA      NA56245   5.066   0.813   7.907  0.0506  0.1043 -0.0469
18433NA      NA56246   1.820   6.648   5.524  0.5662 -0.1012  0.1174
18434CL      CL56247   0.745   4.187   4.638  0.4587  0.4843  0.2664
18435CL      CL56248   0.876   0.496   2.170 -0.0255  0.2874 -0.1318
18436CL      CL56249   4.071   0.239   1.183  0.0458  0.3518 -0.3198
18437CL      CL56250   1.358   6.470   7.587 -0.3553 -0.2814  0.0913
18438CL      CL56251   0.905   5.188   7.629 -0.4180  0.2434  0.5590
18439CL      CL56252   6.929   1.716   3.497  0.1422  0.5425  0.0701
18440CL      CL56253   1.462   3.330   6.928 -0.1123 -0.4584 -0.1880
18441CL      CL56254   0.083   1.586   7.731  0.0362 -0.0752 -0.0733
18442CL      CL56255   7.923   8.195   0.241  0.4522 -0.1351  0.1307
18443CL      CL56256   0.212   7.692   2.071  0.0742 -0.0462  0.3532
18444CL      CL56257   3.752   7.805   4.456 -0.3113  0.2354 -0.0448
18445CL      CL56258   0.021   5.024   5.632 -0.3075  0.0623  0.5333
18446CL      CL56259   6.792   1.418   7.102  0.2556  0.0578 -0.3125
18447CL      CL56260   5.480   2.223   4.572  0.3325 -0.0048 -0.0438
18448CL      CL56261   2.711   3.184   4.614 -0.4948  0.1688 -0.4262
18449CL      CL56262   3.788   1.017   4.012 -0.0423 -0.0690 -0.1763
18450CL      CL56263   6.260   3.190   0.750  0.2261 -0.1404 -0.1816
18451CL      CL56264   7.731   7.683   7.534 -0.1741 -0.1043 -0.2535
18452CL      CL56265   0.772   6.971   0.568  0.3525  0.4033 -0.5471
18453CL      CL56266   6.335   7.946   6.386  0.2899  0.3730  0.1855
18454CL      CL56267   6.557   2.138   8.108 -0.5260  0.2879  0.0918
18455CL      CL56268   4.002   4.630   7.319  0.1889  0.4186  0.1435
18456CL      CL56269   6.711   0.649   0.707  0.1569 -0.2457 -0.1568
18457CL      CL56270   2.500   7.605   1.035 -0.0558  0.1807 -0.1707
18458CL      CL56271   7.578   5.022   1.724 -0.3982 -0.4103  0.1383
18459CL      CL56272   4.461   6.707   7.277  0.3647  0.0792  0.5631
18460CL      CL56273   0.019   4.198   4.791  0.1447  0.1422  0.1527
18461CL      CL56274   1.141   4.212   3.086 -0.1877 -0.1089  0.0669
18462CL      CL56275   4.690   2.331   1.225  0.4133  0.2568 -0.0563
18463CL      CL56276   2.674   2.568   7.333  0.0155 -0.0948  0.1514
18464CL      CL56277   3.912   4.254   6.449 -0.1942 -0.2080  0.1633
18465CL      CL56278   4.449   7.648   4.924 -0.2829  0.1153  0.2553
18466CL      CL56279   0.673   2.190   3.168  0.1295 -0.0940 -0.4756
18467CL      CL56280   7.750   2.353   4.394  0.0226  0.2076  0.0845
18468CL      CL56281   3.603   5.901   3.897 -0.0912  0.0717  0.2403
18469CL      CL56282   0.196   2.130   8.097  0.1024  0.2642  0.4812
18470CL      CL56283   0.146   2.662   3.708 -0.1196  0.0633 -0.2191
18471CL      CL56284   1.661   6.569   4.105 -0.1592 -0.6724  0.7095
18472CL      CL56285   8.203   4.696   4.059  0.1773 -0.1390  0.7596
18473CL      CL56286   1.681   2.414   6.747  0.1213  0.4728 -0.2003
18474CL      CL56287   1.682   1.187   6.632  0.2302  0.1679  0.3496
18475CL      CL56288   7.472   3.241   1.037  0.0808  0.0362 -0.2317
18476CL      CL56289   8.040   6.488   7.274  0.5247  0.1453 -0.1588
18477CL      CL56290   6.807   6.391   2.765 -0.2119  0.2075 -0.3672
18478CL      CL56291   1.177   4.293   0.518  0.0556  0.3926  0.2413
18479CL      CL56292   3.153   6.002   5.948  0.0448 -0.3233 -0.1559
18480CL      CL56293   3.403   1.786   0.189  0.3334 -0.0279 -0.1944
18481CL      CL56294   1.771   0.759   7.408 -0.1909  0.1547  0.1356
18482CL      CL56295   1.018   8.149   0.164 -0.0542 -0.1221 -0.1387
18483CL      CL56296   7.262   0.424   4.130 -0.1773  0.4608  0.0466
18484CL      CL56297   3.826   1.497   3.505 -0.0683 -0.3720 -0.0623
18485CL      CL56298   6.119   6.839   5.594  0.5216  0.0664  0.3674
   8.28120   8.28120   8.28120
