;
;   File g2p_pamam.itp  was generated
;   By user: sairam (1000)
;   On host: sairam
;   At date: Sun. August  0 16:18:23 2023
;
;   This is a standalone topology file
;
;   Created by:
;   ParmEd:       amb2gro_top_gro.py, VERSION 3.4.1
;   Executable:   amb2gro_top_gro.py
;   Library dir:  /usr/local/gromacs/share/gromacs/top
;   Command line:
;     ./amb2gro_top_gro.py -p g2p_pamam.prmtop -c g2p_pamam.inpcrd -t g2p_pamam.itp -g g2p_pamam.gro -b g2p_pamam.pdb
;

;[ defaults ]
;; nbfunc        comb-rule       gen-pairs       fudgeLJ fudgeQQ
;1               2               yes             0.5          0.83333333  
;
;[ atomtypes ]
;; name    at.num    mass    charge ptype  sigma      epsilon
;c3             6  12.010000  0.00000000  A     0.33996695      0.4577296
;h1             1   1.008000  0.00000000  A      0.2471353      0.0656888
;n3             7  14.010000  0.00000000  A     0.32499985        0.71128
;hc             1   1.008000  0.00000000  A     0.26495328      0.0656888
;c              6  12.010000  0.00000000  A     0.33996695       0.359824
;o              8  16.000000  0.00000000  A     0.29599219        0.87864
;n              7  14.010000  0.00000000  A     0.32499985        0.71128
;hn             1   1.008000  0.00000000  A     0.10690785      0.0656888
;hx             1   1.008000  0.00000000  A     0.19599772      0.0656888
;n4             7  14.010000  0.00000000  A     0.32499985        0.71128


[ moleculetype ]
; Name            nrexcl
g2p_pamam        3

[ atoms ]
;   nr       type  resnr residue  atom   cgnr    charge       mass  typeB    chargeB      massB
; residue    1 aaa rtp aaa q -0.0
    1         c3      1    aaa     C1      1 0.02890000  12.010000   ; qtot 0.028900
    2         h1      1    aaa     H1      2 0.08460000   1.008000   ; qtot 0.113500
    3         h1      1    aaa     H2      3 0.08460000   1.008000   ; qtot 0.198100
    4         c3      1    aaa     C2      4 0.02890000  12.010000   ; qtot 0.227000
    5         h1      1    aaa     H3      5 0.08460000   1.008000   ; qtot 0.311600
    6         h1      1    aaa     H4      6 0.08460000   1.008000   ; qtot 0.396200
    7         n3      1    aaa     N1      7 -0.65770000  14.010000   ; qtot -0.261500
    8         n3      1    aaa     N2      8 -0.65770000  14.010000   ; qtot -0.919200
    9         c3      1    aaa     C3      9 0.36940000  12.010000   ; qtot -0.549800
   10         h1      1    aaa     H5     10 0.00650000   1.008000   ; qtot -0.543300
   11         h1      1    aaa     H6     11 0.00650000   1.008000   ; qtot -0.536800
   12         c3      1    aaa     C4     12 0.36940000  12.010000   ; qtot -0.167400
   13         h1      1    aaa     H7     13 0.00650000   1.008000   ; qtot -0.160900
   14         h1      1    aaa     H8     14 0.00650000   1.008000   ; qtot -0.154400
   15         c3      1    aaa     C5     15 0.36940000  12.010000   ; qtot 0.215000
   16         h1      1    aaa     H9     16 0.00650000   1.008000   ; qtot 0.221500
   17         h1      1    aaa    H10     17 0.00650000   1.008000   ; qtot 0.228000
   18         c3      1    aaa     C6     18 0.36940000  12.010000   ; qtot 0.597400
   19         h1      1    aaa    H11     19 0.00650000   1.008000   ; qtot 0.603900
   20         h1      1    aaa    H12     20 0.00650000   1.008000   ; qtot 0.610400
   21         c3      1    aaa     C7     21 -0.54350000  12.010000   ; qtot 0.066900
   22         hc      1    aaa    H13     22 0.15890000   1.008000   ; qtot 0.225800
   23         hc      1    aaa    H14     23 0.15890000   1.008000   ; qtot 0.384700
   24         c3      1    aaa     C8     24 -0.54350000  12.010000   ; qtot -0.158800
   25         hc      1    aaa    H15     25 0.15890000   1.008000   ; qtot 0.000100
   26         hc      1    aaa    H16     26 0.15890000   1.008000   ; qtot 0.159000
   27         c3      1    aaa     C9     27 -0.54350000  12.010000   ; qtot -0.384500
   28         hc      1    aaa    H17     28 0.15890000   1.008000   ; qtot -0.225600
   29         hc      1    aaa    H18     29 0.15890000   1.008000   ; qtot -0.066700
   30         c3      1    aaa    C10     30 -0.54350000  12.010000   ; qtot -0.610200
   31         hc      1    aaa    H19     31 0.15890000   1.008000   ; qtot -0.451300
   32         hc      1    aaa    H20     32 0.15890000   1.008000   ; qtot -0.292400
   33          c      1    aaa    C11     33 0.67800000  12.010000   ; qtot 0.385600
   34          c      1    aaa    C12     34 0.67800000  12.010000   ; qtot 1.063600
   35          c      1    aaa    C13     35 0.67800000  12.010000   ; qtot 1.741600
   36          c      1    aaa    C14     36 0.67800000  12.010000   ; qtot 2.419600
   37          o      1    aaa     O1     37 -0.60490000  16.000000   ; qtot 1.814700
   38          o      1    aaa     O2     38 -0.60490000  16.000000   ; qtot 1.209800
   39          o      1    aaa     O3     39 -0.60490000  16.000000   ; qtot 0.604900
   40          o      1    aaa     O4     40 -0.60490000  16.000000   ; qtot -0.000000
; residue    2 bbb rtp bbb q -0.0
   41         c3      2    bbb     C1     41 0.44180000  12.010000   ; qtot 0.441800
   42         h1      2    bbb     H1     42 -0.03530000   1.008000   ; qtot 0.406500
   43         h1      2    bbb     H2     43 -0.03530000   1.008000   ; qtot 0.371200
   44         c3      2    bbb     C2     44 -0.28250000  12.010000   ; qtot 0.088700
   45         h1      2    bbb     H3     45 0.15710000   1.008000   ; qtot 0.245800
   46         h1      2    bbb     H4     46 0.15710000   1.008000   ; qtot 0.402900
   47         n3      2    bbb     N1     47 -0.74090000  14.010000   ; qtot -0.338000
   48         c3      2    bbb     C3     48 0.51680000  12.010000   ; qtot 0.178800
   49         h1      2    bbb     H5     49 -0.05230000   1.008000   ; qtot 0.126500
   50         h1      2    bbb     H6     50 -0.05230000   1.008000   ; qtot 0.074200
   51         c3      2    bbb     C4     51 0.51680000  12.010000   ; qtot 0.591000
   52         h1      2    bbb     H7     52 -0.05230000   1.008000   ; qtot 0.538700
   53         h1      2    bbb     H8     53 -0.05230000   1.008000   ; qtot 0.486400
   54         c3      2    bbb     C5     54 -0.60390000  12.010000   ; qtot -0.117500
   55         hc      2    bbb     H9     55 0.16730000   1.008000   ; qtot 0.049800
   56         hc      2    bbb    H10     56 0.16730000   1.008000   ; qtot 0.217100
   57         c3      2    bbb     C6     57 -0.60390000  12.010000   ; qtot -0.386800
   58         hc      2    bbb    H11     58 0.16730000   1.008000   ; qtot -0.219500
   59         hc      2    bbb    H12     59 0.16730000   1.008000   ; qtot -0.052200
   60          c      2    bbb     C7     60 0.72110000  12.010000   ; qtot 0.668900
   61          c      2    bbb     C8     61 0.72110000  12.010000   ; qtot 1.390000
   62          o      2    bbb     O1     62 -0.61950000  16.000000   ; qtot 0.770500
   63          o      2    bbb     O2     63 -0.61950000  16.000000   ; qtot 0.151000
   64          n      2    bbb     N4     64 -0.46580000  14.010000   ; qtot -0.314800
   65         hn      2    bbb    H21     65 0.31480000   1.008000   ; qtot -0.000000
; residue    3 bbb rtp bbb q -0.0
   66         c3      3    bbb     C1     66 0.44180000  12.010000   ; qtot 0.441800
   67         h1      3    bbb     H1     67 -0.03530000   1.008000   ; qtot 0.406500
   68         h1      3    bbb     H2     68 -0.03530000   1.008000   ; qtot 0.371200
   69         c3      3    bbb     C2     69 -0.28250000  12.010000   ; qtot 0.088700
   70         h1      3    bbb     H3     70 0.15710000   1.008000   ; qtot 0.245800
   71         h1      3    bbb     H4     71 0.15710000   1.008000   ; qtot 0.402900
   72         n3      3    bbb     N1     72 -0.74090000  14.010000   ; qtot -0.338000
   73         c3      3    bbb     C3     73 0.51680000  12.010000   ; qtot 0.178800
   74         h1      3    bbb     H5     74 -0.05230000   1.008000   ; qtot 0.126500
   75         h1      3    bbb     H6     75 -0.05230000   1.008000   ; qtot 0.074200
   76         c3      3    bbb     C4     76 0.51680000  12.010000   ; qtot 0.591000
   77         h1      3    bbb     H7     77 -0.05230000   1.008000   ; qtot 0.538700
   78         h1      3    bbb     H8     78 -0.05230000   1.008000   ; qtot 0.486400
   79         c3      3    bbb     C5     79 -0.60390000  12.010000   ; qtot -0.117500
   80         hc      3    bbb     H9     80 0.16730000   1.008000   ; qtot 0.049800
   81         hc      3    bbb    H10     81 0.16730000   1.008000   ; qtot 0.217100
   82         c3      3    bbb     C6     82 -0.60390000  12.010000   ; qtot -0.386800
   83         hc      3    bbb    H11     83 0.16730000   1.008000   ; qtot -0.219500
   84         hc      3    bbb    H12     84 0.16730000   1.008000   ; qtot -0.052200
   85          c      3    bbb     C7     85 0.72110000  12.010000   ; qtot 0.668900
   86          c      3    bbb     C8     86 0.72110000  12.010000   ; qtot 1.390000
   87          o      3    bbb     O1     87 -0.61950000  16.000000   ; qtot 0.770500
   88          o      3    bbb     O2     88 -0.61950000  16.000000   ; qtot 0.151000
   89          n      3    bbb     N4     89 -0.46580000  14.010000   ; qtot -0.314800
   90         hn      3    bbb    H21     90 0.31480000   1.008000   ; qtot -0.000000
; residue    4 bbb rtp bbb q -0.0
   91         c3      4    bbb     C1     91 0.44180000  12.010000   ; qtot 0.441800
   92         h1      4    bbb     H1     92 -0.03530000   1.008000   ; qtot 0.406500
   93         h1      4    bbb     H2     93 -0.03530000   1.008000   ; qtot 0.371200
   94         c3      4    bbb     C2     94 -0.28250000  12.010000   ; qtot 0.088700
   95         h1      4    bbb     H3     95 0.15710000   1.008000   ; qtot 0.245800
   96         h1      4    bbb     H4     96 0.15710000   1.008000   ; qtot 0.402900
   97         n3      4    bbb     N1     97 -0.74090000  14.010000   ; qtot -0.338000
   98         c3      4    bbb     C3     98 0.51680000  12.010000   ; qtot 0.178800
   99         h1      4    bbb     H5     99 -0.05230000   1.008000   ; qtot 0.126500
  100         h1      4    bbb     H6    100 -0.05230000   1.008000   ; qtot 0.074200
  101         c3      4    bbb     C4    101 0.51680000  12.010000   ; qtot 0.591000
  102         h1      4    bbb     H7    102 -0.05230000   1.008000   ; qtot 0.538700
  103         h1      4    bbb     H8    103 -0.05230000   1.008000   ; qtot 0.486400
  104         c3      4    bbb     C5    104 -0.60390000  12.010000   ; qtot -0.117500
  105         hc      4    bbb     H9    105 0.16730000   1.008000   ; qtot 0.049800
  106         hc      4    bbb    H10    106 0.16730000   1.008000   ; qtot 0.217100
  107         c3      4    bbb     C6    107 -0.60390000  12.010000   ; qtot -0.386800
  108         hc      4    bbb    H11    108 0.16730000   1.008000   ; qtot -0.219500
  109         hc      4    bbb    H12    109 0.16730000   1.008000   ; qtot -0.052200
  110          c      4    bbb     C7    110 0.72110000  12.010000   ; qtot 0.668900
  111          c      4    bbb     C8    111 0.72110000  12.010000   ; qtot 1.390000
  112          o      4    bbb     O1    112 -0.61950000  16.000000   ; qtot 0.770500
  113          o      4    bbb     O2    113 -0.61950000  16.000000   ; qtot 0.151000
  114          n      4    bbb     N4    114 -0.46580000  14.010000   ; qtot -0.314800
  115         hn      4    bbb    H21    115 0.31480000   1.008000   ; qtot -0.000000
; residue    5 bbb rtp bbb q -0.0
  116         c3      5    bbb     C1    116 0.44180000  12.010000   ; qtot 0.441800
  117         h1      5    bbb     H1    117 -0.03530000   1.008000   ; qtot 0.406500
  118         h1      5    bbb     H2    118 -0.03530000   1.008000   ; qtot 0.371200
  119         c3      5    bbb     C2    119 -0.28250000  12.010000   ; qtot 0.088700
  120         h1      5    bbb     H3    120 0.15710000   1.008000   ; qtot 0.245800
  121         h1      5    bbb     H4    121 0.15710000   1.008000   ; qtot 0.402900
  122         n3      5    bbb     N1    122 -0.74090000  14.010000   ; qtot -0.338000
  123         c3      5    bbb     C3    123 0.51680000  12.010000   ; qtot 0.178800
  124         h1      5    bbb     H5    124 -0.05230000   1.008000   ; qtot 0.126500
  125         h1      5    bbb     H6    125 -0.05230000   1.008000   ; qtot 0.074200
  126         c3      5    bbb     C4    126 0.51680000  12.010000   ; qtot 0.591000
  127         h1      5    bbb     H7    127 -0.05230000   1.008000   ; qtot 0.538700
  128         h1      5    bbb     H8    128 -0.05230000   1.008000   ; qtot 0.486400
  129         c3      5    bbb     C5    129 -0.60390000  12.010000   ; qtot -0.117500
  130         hc      5    bbb     H9    130 0.16730000   1.008000   ; qtot 0.049800
  131         hc      5    bbb    H10    131 0.16730000   1.008000   ; qtot 0.217100
  132         c3      5    bbb     C6    132 -0.60390000  12.010000   ; qtot -0.386800
  133         hc      5    bbb    H11    133 0.16730000   1.008000   ; qtot -0.219500
  134         hc      5    bbb    H12    134 0.16730000   1.008000   ; qtot -0.052200
  135          c      5    bbb     C7    135 0.72110000  12.010000   ; qtot 0.668900
  136          c      5    bbb     C8    136 0.72110000  12.010000   ; qtot 1.390000
  137          o      5    bbb     O1    137 -0.61950000  16.000000   ; qtot 0.770500
  138          o      5    bbb     O2    138 -0.61950000  16.000000   ; qtot 0.151000
  139          n      5    bbb     N4    139 -0.46580000  14.010000   ; qtot -0.314800
  140         hn      5    bbb    H21    140 0.31480000   1.008000   ; qtot -0.000000
; residue    6 bbb rtp bbb q -0.0
  141         c3      6    bbb     C1    141 0.44180000  12.010000   ; qtot 0.441800
  142         h1      6    bbb     H1    142 -0.03530000   1.008000   ; qtot 0.406500
  143         h1      6    bbb     H2    143 -0.03530000   1.008000   ; qtot 0.371200
  144         c3      6    bbb     C2    144 -0.28250000  12.010000   ; qtot 0.088700
  145         h1      6    bbb     H3    145 0.15710000   1.008000   ; qtot 0.245800
  146         h1      6    bbb     H4    146 0.15710000   1.008000   ; qtot 0.402900
  147         n3      6    bbb     N1    147 -0.74090000  14.010000   ; qtot -0.338000
  148         c3      6    bbb     C3    148 0.51680000  12.010000   ; qtot 0.178800
  149         h1      6    bbb     H5    149 -0.05230000   1.008000   ; qtot 0.126500
  150         h1      6    bbb     H6    150 -0.05230000   1.008000   ; qtot 0.074200
  151         c3      6    bbb     C4    151 0.51680000  12.010000   ; qtot 0.591000
  152         h1      6    bbb     H7    152 -0.05230000   1.008000   ; qtot 0.538700
  153         h1      6    bbb     H8    153 -0.05230000   1.008000   ; qtot 0.486400
  154         c3      6    bbb     C5    154 -0.60390000  12.010000   ; qtot -0.117500
  155         hc      6    bbb     H9    155 0.16730000   1.008000   ; qtot 0.049800
  156         hc      6    bbb    H10    156 0.16730000   1.008000   ; qtot 0.217100
  157         c3      6    bbb     C6    157 -0.60390000  12.010000   ; qtot -0.386800
  158         hc      6    bbb    H11    158 0.16730000   1.008000   ; qtot -0.219500
  159         hc      6    bbb    H12    159 0.16730000   1.008000   ; qtot -0.052200
  160          c      6    bbb     C7    160 0.72110000  12.010000   ; qtot 0.668900
  161          c      6    bbb     C8    161 0.72110000  12.010000   ; qtot 1.390000
  162          o      6    bbb     O1    162 -0.61950000  16.000000   ; qtot 0.770500
  163          o      6    bbb     O2    163 -0.61950000  16.000000   ; qtot 0.151000
  164          n      6    bbb     N4    164 -0.46580000  14.010000   ; qtot -0.314800
  165         hn      6    bbb    H21    165 0.31480000   1.008000   ; qtot -0.000000
; residue    7 bbb rtp bbb q -0.0
  166         c3      7    bbb     C1    166 0.44180000  12.010000   ; qtot 0.441800
  167         h1      7    bbb     H1    167 -0.03530000   1.008000   ; qtot 0.406500
  168         h1      7    bbb     H2    168 -0.03530000   1.008000   ; qtot 0.371200
  169         c3      7    bbb     C2    169 -0.28250000  12.010000   ; qtot 0.088700
  170         h1      7    bbb     H3    170 0.15710000   1.008000   ; qtot 0.245800
  171         h1      7    bbb     H4    171 0.15710000   1.008000   ; qtot 0.402900
  172         n3      7    bbb     N1    172 -0.74090000  14.010000   ; qtot -0.338000
  173         c3      7    bbb     C3    173 0.51680000  12.010000   ; qtot 0.178800
  174         h1      7    bbb     H5    174 -0.05230000   1.008000   ; qtot 0.126500
  175         h1      7    bbb     H6    175 -0.05230000   1.008000   ; qtot 0.074200
  176         c3      7    bbb     C4    176 0.51680000  12.010000   ; qtot 0.591000
  177         h1      7    bbb     H7    177 -0.05230000   1.008000   ; qtot 0.538700
  178         h1      7    bbb     H8    178 -0.05230000   1.008000   ; qtot 0.486400
  179         c3      7    bbb     C5    179 -0.60390000  12.010000   ; qtot -0.117500
  180         hc      7    bbb     H9    180 0.16730000   1.008000   ; qtot 0.049800
  181         hc      7    bbb    H10    181 0.16730000   1.008000   ; qtot 0.217100
  182         c3      7    bbb     C6    182 -0.60390000  12.010000   ; qtot -0.386800
  183         hc      7    bbb    H11    183 0.16730000   1.008000   ; qtot -0.219500
  184         hc      7    bbb    H12    184 0.16730000   1.008000   ; qtot -0.052200
  185          c      7    bbb     C7    185 0.72110000  12.010000   ; qtot 0.668900
  186          c      7    bbb     C8    186 0.72110000  12.010000   ; qtot 1.390000
  187          o      7    bbb     O1    187 -0.61950000  16.000000   ; qtot 0.770500
  188          o      7    bbb     O2    188 -0.61950000  16.000000   ; qtot 0.151000
  189          n      7    bbb     N4    189 -0.46580000  14.010000   ; qtot -0.314800
  190         hn      7    bbb    H21    190 0.31480000   1.008000   ; qtot -0.000000
; residue    8 bbb rtp bbb q -0.0
  191         c3      8    bbb     C1    191 0.44180000  12.010000   ; qtot 0.441800
  192         h1      8    bbb     H1    192 -0.03530000   1.008000   ; qtot 0.406500
  193         h1      8    bbb     H2    193 -0.03530000   1.008000   ; qtot 0.371200
  194         c3      8    bbb     C2    194 -0.28250000  12.010000   ; qtot 0.088700
  195         h1      8    bbb     H3    195 0.15710000   1.008000   ; qtot 0.245800
  196         h1      8    bbb     H4    196 0.15710000   1.008000   ; qtot 0.402900
  197         n3      8    bbb     N1    197 -0.74090000  14.010000   ; qtot -0.338000
  198         c3      8    bbb     C3    198 0.51680000  12.010000   ; qtot 0.178800
  199         h1      8    bbb     H5    199 -0.05230000   1.008000   ; qtot 0.126500
  200         h1      8    bbb     H6    200 -0.05230000   1.008000   ; qtot 0.074200
  201         c3      8    bbb     C4    201 0.51680000  12.010000   ; qtot 0.591000
  202         h1      8    bbb     H7    202 -0.05230000   1.008000   ; qtot 0.538700
  203         h1      8    bbb     H8    203 -0.05230000   1.008000   ; qtot 0.486400
  204         c3      8    bbb     C5    204 -0.60390000  12.010000   ; qtot -0.117500
  205         hc      8    bbb     H9    205 0.16730000   1.008000   ; qtot 0.049800
  206         hc      8    bbb    H10    206 0.16730000   1.008000   ; qtot 0.217100
  207         c3      8    bbb     C6    207 -0.60390000  12.010000   ; qtot -0.386800
  208         hc      8    bbb    H11    208 0.16730000   1.008000   ; qtot -0.219500
  209         hc      8    bbb    H12    209 0.16730000   1.008000   ; qtot -0.052200
  210          c      8    bbb     C7    210 0.72110000  12.010000   ; qtot 0.668900
  211          c      8    bbb     C8    211 0.72110000  12.010000   ; qtot 1.390000
  212          o      8    bbb     O1    212 -0.61950000  16.000000   ; qtot 0.770500
  213          o      8    bbb     O2    213 -0.61950000  16.000000   ; qtot 0.151000
  214          n      8    bbb     N4    214 -0.46580000  14.010000   ; qtot -0.314800
  215         hn      8    bbb    H21    215 0.31480000   1.008000   ; qtot -0.000000
; residue    9 bbb rtp bbb q -0.0
  216         c3      9    bbb     C1    216 0.44180000  12.010000   ; qtot 0.441800
  217         h1      9    bbb     H1    217 -0.03530000   1.008000   ; qtot 0.406500
  218         h1      9    bbb     H2    218 -0.03530000   1.008000   ; qtot 0.371200
  219         c3      9    bbb     C2    219 -0.28250000  12.010000   ; qtot 0.088700
  220         h1      9    bbb     H3    220 0.15710000   1.008000   ; qtot 0.245800
  221         h1      9    bbb     H4    221 0.15710000   1.008000   ; qtot 0.402900
  222         n3      9    bbb     N1    222 -0.74090000  14.010000   ; qtot -0.338000
  223         c3      9    bbb     C3    223 0.51680000  12.010000   ; qtot 0.178800
  224         h1      9    bbb     H5    224 -0.05230000   1.008000   ; qtot 0.126500
  225         h1      9    bbb     H6    225 -0.05230000   1.008000   ; qtot 0.074200
  226         c3      9    bbb     C4    226 0.51680000  12.010000   ; qtot 0.591000
  227         h1      9    bbb     H7    227 -0.05230000   1.008000   ; qtot 0.538700
  228         h1      9    bbb     H8    228 -0.05230000   1.008000   ; qtot 0.486400
  229         c3      9    bbb     C5    229 -0.60390000  12.010000   ; qtot -0.117500
  230         hc      9    bbb     H9    230 0.16730000   1.008000   ; qtot 0.049800
  231         hc      9    bbb    H10    231 0.16730000   1.008000   ; qtot 0.217100
  232         c3      9    bbb     C6    232 -0.60390000  12.010000   ; qtot -0.386800
  233         hc      9    bbb    H11    233 0.16730000   1.008000   ; qtot -0.219500
  234         hc      9    bbb    H12    234 0.16730000   1.008000   ; qtot -0.052200
  235          c      9    bbb     C7    235 0.72110000  12.010000   ; qtot 0.668900
  236          c      9    bbb     C8    236 0.72110000  12.010000   ; qtot 1.390000
  237          o      9    bbb     O1    237 -0.61950000  16.000000   ; qtot 0.770500
  238          o      9    bbb     O2    238 -0.61950000  16.000000   ; qtot 0.151000
  239          n      9    bbb     N4    239 -0.46580000  14.010000   ; qtot -0.314800
  240         hn      9    bbb    H21    240 0.31480000   1.008000   ; qtot -0.000000
; residue   10 bbb rtp bbb q -0.0
  241         c3     10    bbb     C1    241 0.44180000  12.010000   ; qtot 0.441800
  242         h1     10    bbb     H1    242 -0.03530000   1.008000   ; qtot 0.406500
  243         h1     10    bbb     H2    243 -0.03530000   1.008000   ; qtot 0.371200
  244         c3     10    bbb     C2    244 -0.28250000  12.010000   ; qtot 0.088700
  245         h1     10    bbb     H3    245 0.15710000   1.008000   ; qtot 0.245800
  246         h1     10    bbb     H4    246 0.15710000   1.008000   ; qtot 0.402900
  247         n3     10    bbb     N1    247 -0.74090000  14.010000   ; qtot -0.338000
  248         c3     10    bbb     C3    248 0.51680000  12.010000   ; qtot 0.178800
  249         h1     10    bbb     H5    249 -0.05230000   1.008000   ; qtot 0.126500
  250         h1     10    bbb     H6    250 -0.05230000   1.008000   ; qtot 0.074200
  251         c3     10    bbb     C4    251 0.51680000  12.010000   ; qtot 0.591000
  252         h1     10    bbb     H7    252 -0.05230000   1.008000   ; qtot 0.538700
  253         h1     10    bbb     H8    253 -0.05230000   1.008000   ; qtot 0.486400
  254         c3     10    bbb     C5    254 -0.60390000  12.010000   ; qtot -0.117500
  255         hc     10    bbb     H9    255 0.16730000   1.008000   ; qtot 0.049800
  256         hc     10    bbb    H10    256 0.16730000   1.008000   ; qtot 0.217100
  257         c3     10    bbb     C6    257 -0.60390000  12.010000   ; qtot -0.386800
  258         hc     10    bbb    H11    258 0.16730000   1.008000   ; qtot -0.219500
  259         hc     10    bbb    H12    259 0.16730000   1.008000   ; qtot -0.052200
  260          c     10    bbb     C7    260 0.72110000  12.010000   ; qtot 0.668900
  261          c     10    bbb     C8    261 0.72110000  12.010000   ; qtot 1.390000
  262          o     10    bbb     O1    262 -0.61950000  16.000000   ; qtot 0.770500
  263          o     10    bbb     O2    263 -0.61950000  16.000000   ; qtot 0.151000
  264          n     10    bbb     N4    264 -0.46580000  14.010000   ; qtot -0.314800
  265         hn     10    bbb    H21    265 0.31480000   1.008000   ; qtot -0.000000
; residue   11 bbb rtp bbb q -0.0
  266         c3     11    bbb     C1    266 0.44180000  12.010000   ; qtot 0.441800
  267         h1     11    bbb     H1    267 -0.03530000   1.008000   ; qtot 0.406500
  268         h1     11    bbb     H2    268 -0.03530000   1.008000   ; qtot 0.371200
  269         c3     11    bbb     C2    269 -0.28250000  12.010000   ; qtot 0.088700
  270         h1     11    bbb     H3    270 0.15710000   1.008000   ; qtot 0.245800
  271         h1     11    bbb     H4    271 0.15710000   1.008000   ; qtot 0.402900
  272         n3     11    bbb     N1    272 -0.74090000  14.010000   ; qtot -0.338000
  273         c3     11    bbb     C3    273 0.51680000  12.010000   ; qtot 0.178800
  274         h1     11    bbb     H5    274 -0.05230000   1.008000   ; qtot 0.126500
  275         h1     11    bbb     H6    275 -0.05230000   1.008000   ; qtot 0.074200
  276         c3     11    bbb     C4    276 0.51680000  12.010000   ; qtot 0.591000
  277         h1     11    bbb     H7    277 -0.05230000   1.008000   ; qtot 0.538700
  278         h1     11    bbb     H8    278 -0.05230000   1.008000   ; qtot 0.486400
  279         c3     11    bbb     C5    279 -0.60390000  12.010000   ; qtot -0.117500
  280         hc     11    bbb     H9    280 0.16730000   1.008000   ; qtot 0.049800
  281         hc     11    bbb    H10    281 0.16730000   1.008000   ; qtot 0.217100
  282         c3     11    bbb     C6    282 -0.60390000  12.010000   ; qtot -0.386800
  283         hc     11    bbb    H11    283 0.16730000   1.008000   ; qtot -0.219500
  284         hc     11    bbb    H12    284 0.16730000   1.008000   ; qtot -0.052200
  285          c     11    bbb     C7    285 0.72110000  12.010000   ; qtot 0.668900
  286          c     11    bbb     C8    286 0.72110000  12.010000   ; qtot 1.390000
  287          o     11    bbb     O1    287 -0.61950000  16.000000   ; qtot 0.770500
  288          o     11    bbb     O2    288 -0.61950000  16.000000   ; qtot 0.151000
  289          n     11    bbb     N4    289 -0.46580000  14.010000   ; qtot -0.314800
  290         hn     11    bbb    H21    290 0.31480000   1.008000   ; qtot -0.000000
; residue   12 bbb rtp bbb q -0.0
  291         c3     12    bbb     C1    291 0.44180000  12.010000   ; qtot 0.441800
  292         h1     12    bbb     H1    292 -0.03530000   1.008000   ; qtot 0.406500
  293         h1     12    bbb     H2    293 -0.03530000   1.008000   ; qtot 0.371200
  294         c3     12    bbb     C2    294 -0.28250000  12.010000   ; qtot 0.088700
  295         h1     12    bbb     H3    295 0.15710000   1.008000   ; qtot 0.245800
  296         h1     12    bbb     H4    296 0.15710000   1.008000   ; qtot 0.402900
  297         n3     12    bbb     N1    297 -0.74090000  14.010000   ; qtot -0.338000
  298         c3     12    bbb     C3    298 0.51680000  12.010000   ; qtot 0.178800
  299         h1     12    bbb     H5    299 -0.05230000   1.008000   ; qtot 0.126500
  300         h1     12    bbb     H6    300 -0.05230000   1.008000   ; qtot 0.074200
  301         c3     12    bbb     C4    301 0.51680000  12.010000   ; qtot 0.591000
  302         h1     12    bbb     H7    302 -0.05230000   1.008000   ; qtot 0.538700
  303         h1     12    bbb     H8    303 -0.05230000   1.008000   ; qtot 0.486400
  304         c3     12    bbb     C5    304 -0.60390000  12.010000   ; qtot -0.117500
  305         hc     12    bbb     H9    305 0.16730000   1.008000   ; qtot 0.049800
  306         hc     12    bbb    H10    306 0.16730000   1.008000   ; qtot 0.217100
  307         c3     12    bbb     C6    307 -0.60390000  12.010000   ; qtot -0.386800
  308         hc     12    bbb    H11    308 0.16730000   1.008000   ; qtot -0.219500
  309         hc     12    bbb    H12    309 0.16730000   1.008000   ; qtot -0.052200
  310          c     12    bbb     C7    310 0.72110000  12.010000   ; qtot 0.668900
  311          c     12    bbb     C8    311 0.72110000  12.010000   ; qtot 1.390000
  312          o     12    bbb     O1    312 -0.61950000  16.000000   ; qtot 0.770500
  313          o     12    bbb     O2    313 -0.61950000  16.000000   ; qtot 0.151000
  314          n     12    bbb     N4    314 -0.46580000  14.010000   ; qtot -0.314800
  315         hn     12    bbb    H21    315 0.31480000   1.008000   ; qtot -0.000000
; residue   13 bbb rtp bbb q -0.0
  316         c3     13    bbb     C1    316 0.44180000  12.010000   ; qtot 0.441800
  317         h1     13    bbb     H1    317 -0.03530000   1.008000   ; qtot 0.406500
  318         h1     13    bbb     H2    318 -0.03530000   1.008000   ; qtot 0.371200
  319         c3     13    bbb     C2    319 -0.28250000  12.010000   ; qtot 0.088700
  320         h1     13    bbb     H3    320 0.15710000   1.008000   ; qtot 0.245800
  321         h1     13    bbb     H4    321 0.15710000   1.008000   ; qtot 0.402900
  322         n3     13    bbb     N1    322 -0.74090000  14.010000   ; qtot -0.338000
  323         c3     13    bbb     C3    323 0.51680000  12.010000   ; qtot 0.178800
  324         h1     13    bbb     H5    324 -0.05230000   1.008000   ; qtot 0.126500
  325         h1     13    bbb     H6    325 -0.05230000   1.008000   ; qtot 0.074200
  326         c3     13    bbb     C4    326 0.51680000  12.010000   ; qtot 0.591000
  327         h1     13    bbb     H7    327 -0.05230000   1.008000   ; qtot 0.538700
  328         h1     13    bbb     H8    328 -0.05230000   1.008000   ; qtot 0.486400
  329         c3     13    bbb     C5    329 -0.60390000  12.010000   ; qtot -0.117500
  330         hc     13    bbb     H9    330 0.16730000   1.008000   ; qtot 0.049800
  331         hc     13    bbb    H10    331 0.16730000   1.008000   ; qtot 0.217100
  332         c3     13    bbb     C6    332 -0.60390000  12.010000   ; qtot -0.386800
  333         hc     13    bbb    H11    333 0.16730000   1.008000   ; qtot -0.219500
  334         hc     13    bbb    H12    334 0.16730000   1.008000   ; qtot -0.052200
  335          c     13    bbb     C7    335 0.72110000  12.010000   ; qtot 0.668900
  336          c     13    bbb     C8    336 0.72110000  12.010000   ; qtot 1.390000
  337          o     13    bbb     O1    337 -0.61950000  16.000000   ; qtot 0.770500
  338          o     13    bbb     O2    338 -0.61950000  16.000000   ; qtot 0.151000
  339          n     13    bbb     N4    339 -0.46580000  14.010000   ; qtot -0.314800
  340         hn     13    bbb    H21    340 0.31480000   1.008000   ; qtot -0.000000
; residue   14 ccc rtp ccc q 1.0
  341          n     14    ccc     N1    341 -0.26410000  14.010000   ; qtot -0.264100
  342         hn     14    ccc     H4    342 0.27630000   1.008000   ; qtot 0.012200
  343         c3     14    ccc     C3    343 -0.17900000  12.010000   ; qtot -0.166800
  344         c3     14    ccc     C4    344 0.08000000  12.010000   ; qtot -0.086800
  345         h1     14    ccc     H5    345 0.13870000   1.008000   ; qtot 0.051900
  346         h1     14    ccc     H6    346 0.13870000   1.008000   ; qtot 0.190600
  347         hx     14    ccc     H7    347 0.07790000   1.008000   ; qtot 0.268500
  348         hx     14    ccc     H8    348 0.07790000   1.008000   ; qtot 0.346400
  349         n4     14    ccc     N2    349 -0.16780000  14.010000   ; qtot 0.178600
  350         hn     14    ccc     H9    350 0.27380000   1.008000   ; qtot 0.452400
  351         hn     14    ccc    H10    351 0.27380000   1.008000   ; qtot 0.726200
  352         hn     14    ccc    H11    352 0.27380000   1.008000   ; qtot 1.000000
; residue   15 ccc rtp ccc q 1.0
  353          n     15    ccc     N1    353 -0.26410000  14.010000   ; qtot 0.735900
  354         hn     15    ccc     H4    354 0.27630000   1.008000   ; qtot 1.012200
  355         c3     15    ccc     C3    355 -0.17900000  12.010000   ; qtot 0.833200
  356         c3     15    ccc     C4    356 0.08000000  12.010000   ; qtot 0.913200
  357         h1     15    ccc     H5    357 0.13870000   1.008000   ; qtot 1.051900
  358         h1     15    ccc     H6    358 0.13870000   1.008000   ; qtot 1.190600
  359         hx     15    ccc     H7    359 0.07790000   1.008000   ; qtot 1.268500
  360         hx     15    ccc     H8    360 0.07790000   1.008000   ; qtot 1.346400
  361         n4     15    ccc     N2    361 -0.16780000  14.010000   ; qtot 1.178600
  362         hn     15    ccc     H9    362 0.27380000   1.008000   ; qtot 1.452400
  363         hn     15    ccc    H10    363 0.27380000   1.008000   ; qtot 1.726200
  364         hn     15    ccc    H11    364 0.27380000   1.008000   ; qtot 2.000000
; residue   16 ccc rtp ccc q 1.0
  365          n     16    ccc     N1    365 -0.26410000  14.010000   ; qtot 1.735900
  366         hn     16    ccc     H4    366 0.27630000   1.008000   ; qtot 2.012200
  367         c3     16    ccc     C3    367 -0.17900000  12.010000   ; qtot 1.833200
  368         c3     16    ccc     C4    368 0.08000000  12.010000   ; qtot 1.913200
  369         h1     16    ccc     H5    369 0.13870000   1.008000   ; qtot 2.051900
  370         h1     16    ccc     H6    370 0.13870000   1.008000   ; qtot 2.190600
  371         hx     16    ccc     H7    371 0.07790000   1.008000   ; qtot 2.268500
  372         hx     16    ccc     H8    372 0.07790000   1.008000   ; qtot 2.346400
  373         n4     16    ccc     N2    373 -0.16780000  14.010000   ; qtot 2.178600
  374         hn     16    ccc     H9    374 0.27380000   1.008000   ; qtot 2.452400
  375         hn     16    ccc    H10    375 0.27380000   1.008000   ; qtot 2.726200
  376         hn     16    ccc    H11    376 0.27380000   1.008000   ; qtot 3.000000
; residue   17 ccc rtp ccc q 1.0
  377          n     17    ccc     N1    377 -0.26410000  14.010000   ; qtot 2.735900
  378         hn     17    ccc     H4    378 0.27630000   1.008000   ; qtot 3.012200
  379         c3     17    ccc     C3    379 -0.17900000  12.010000   ; qtot 2.833200
  380         c3     17    ccc     C4    380 0.08000000  12.010000   ; qtot 2.913200
  381         h1     17    ccc     H5    381 0.13870000   1.008000   ; qtot 3.051900
  382         h1     17    ccc     H6    382 0.13870000   1.008000   ; qtot 3.190600
  383         hx     17    ccc     H7    383 0.07790000   1.008000   ; qtot 3.268500
  384         hx     17    ccc     H8    384 0.07790000   1.008000   ; qtot 3.346400
  385         n4     17    ccc     N2    385 -0.16780000  14.010000   ; qtot 3.178600
  386         hn     17    ccc     H9    386 0.27380000   1.008000   ; qtot 3.452400
  387         hn     17    ccc    H10    387 0.27380000   1.008000   ; qtot 3.726200
  388         hn     17    ccc    H11    388 0.27380000   1.008000   ; qtot 4.000000
; residue   18 ccc rtp ccc q 1.0
  389          n     18    ccc     N1    389 -0.26410000  14.010000   ; qtot 3.735900
  390         hn     18    ccc     H4    390 0.27630000   1.008000   ; qtot 4.012200
  391         c3     18    ccc     C3    391 -0.17900000  12.010000   ; qtot 3.833200
  392         c3     18    ccc     C4    392 0.08000000  12.010000   ; qtot 3.913200
  393         h1     18    ccc     H5    393 0.13870000   1.008000   ; qtot 4.051900
  394         h1     18    ccc     H6    394 0.13870000   1.008000   ; qtot 4.190600
  395         hx     18    ccc     H7    395 0.07790000   1.008000   ; qtot 4.268500
  396         hx     18    ccc     H8    396 0.07790000   1.008000   ; qtot 4.346400
  397         n4     18    ccc     N2    397 -0.16780000  14.010000   ; qtot 4.178600
  398         hn     18    ccc     H9    398 0.27380000   1.008000   ; qtot 4.452400
  399         hn     18    ccc    H10    399 0.27380000   1.008000   ; qtot 4.726200
  400         hn     18    ccc    H11    400 0.27380000   1.008000   ; qtot 5.000000
; residue   19 ccc rtp ccc q 1.0
  401          n     19    ccc     N1    401 -0.26410000  14.010000   ; qtot 4.735900
  402         hn     19    ccc     H4    402 0.27630000   1.008000   ; qtot 5.012200
  403         c3     19    ccc     C3    403 -0.17900000  12.010000   ; qtot 4.833200
  404         c3     19    ccc     C4    404 0.08000000  12.010000   ; qtot 4.913200
  405         h1     19    ccc     H5    405 0.13870000   1.008000   ; qtot 5.051900
  406         h1     19    ccc     H6    406 0.13870000   1.008000   ; qtot 5.190600
  407         hx     19    ccc     H7    407 0.07790000   1.008000   ; qtot 5.268500
  408         hx     19    ccc     H8    408 0.07790000   1.008000   ; qtot 5.346400
  409         n4     19    ccc     N2    409 -0.16780000  14.010000   ; qtot 5.178600
  410         hn     19    ccc     H9    410 0.27380000   1.008000   ; qtot 5.452400
  411         hn     19    ccc    H10    411 0.27380000   1.008000   ; qtot 5.726200
  412         hn     19    ccc    H11    412 0.27380000   1.008000   ; qtot 6.000000
; residue   20 ccc rtp ccc q 1.0
  413          n     20    ccc     N1    413 -0.26410000  14.010000   ; qtot 5.735900
  414         hn     20    ccc     H4    414 0.27630000   1.008000   ; qtot 6.012200
  415         c3     20    ccc     C3    415 -0.17900000  12.010000   ; qtot 5.833200
  416         c3     20    ccc     C4    416 0.08000000  12.010000   ; qtot 5.913200
  417         h1     20    ccc     H5    417 0.13870000   1.008000   ; qtot 6.051900
  418         h1     20    ccc     H6    418 0.13870000   1.008000   ; qtot 6.190600
  419         hx     20    ccc     H7    419 0.07790000   1.008000   ; qtot 6.268500
  420         hx     20    ccc     H8    420 0.07790000   1.008000   ; qtot 6.346400
  421         n4     20    ccc     N2    421 -0.16780000  14.010000   ; qtot 6.178600
  422         hn     20    ccc     H9    422 0.27380000   1.008000   ; qtot 6.452400
  423         hn     20    ccc    H10    423 0.27380000   1.008000   ; qtot 6.726200
  424         hn     20    ccc    H11    424 0.27380000   1.008000   ; qtot 7.000000
; residue   21 ccc rtp ccc q 1.0
  425          n     21    ccc     N1    425 -0.26410000  14.010000   ; qtot 6.735900
  426         hn     21    ccc     H4    426 0.27630000   1.008000   ; qtot 7.012200
  427         c3     21    ccc     C3    427 -0.17900000  12.010000   ; qtot 6.833200
  428         c3     21    ccc     C4    428 0.08000000  12.010000   ; qtot 6.913200
  429         h1     21    ccc     H5    429 0.13870000   1.008000   ; qtot 7.051900
  430         h1     21    ccc     H6    430 0.13870000   1.008000   ; qtot 7.190600
  431         hx     21    ccc     H7    431 0.07790000   1.008000   ; qtot 7.268500
  432         hx     21    ccc     H8    432 0.07790000   1.008000   ; qtot 7.346400
  433         n4     21    ccc     N2    433 -0.16780000  14.010000   ; qtot 7.178600
  434         hn     21    ccc     H9    434 0.27380000   1.008000   ; qtot 7.452400
  435         hn     21    ccc    H10    435 0.27380000   1.008000   ; qtot 7.726200
  436         hn     21    ccc    H11    436 0.27380000   1.008000   ; qtot 8.000000
; residue   22 ccc rtp ccc q 1.0
  437          n     22    ccc     N1    437 -0.26410000  14.010000   ; qtot 7.735900
  438         hn     22    ccc     H4    438 0.27630000   1.008000   ; qtot 8.012200
  439         c3     22    ccc     C3    439 -0.17900000  12.010000   ; qtot 7.833200
  440         c3     22    ccc     C4    440 0.08000000  12.010000   ; qtot 7.913200
  441         h1     22    ccc     H5    441 0.13870000   1.008000   ; qtot 8.051900
  442         h1     22    ccc     H6    442 0.13870000   1.008000   ; qtot 8.190600
  443         hx     22    ccc     H7    443 0.07790000   1.008000   ; qtot 8.268500
  444         hx     22    ccc     H8    444 0.07790000   1.008000   ; qtot 8.346400
  445         n4     22    ccc     N2    445 -0.16780000  14.010000   ; qtot 8.178600
  446         hn     22    ccc     H9    446 0.27380000   1.008000   ; qtot 8.452400
  447         hn     22    ccc    H10    447 0.27380000   1.008000   ; qtot 8.726200
  448         hn     22    ccc    H11    448 0.27380000   1.008000   ; qtot 9.000000
; residue   23 ccc rtp ccc q 1.0
  449          n     23    ccc     N1    449 -0.26410000  14.010000   ; qtot 8.735900
  450         hn     23    ccc     H4    450 0.27630000   1.008000   ; qtot 9.012200
  451         c3     23    ccc     C3    451 -0.17900000  12.010000   ; qtot 8.833200
  452         c3     23    ccc     C4    452 0.08000000  12.010000   ; qtot 8.913200
  453         h1     23    ccc     H5    453 0.13870000   1.008000   ; qtot 9.051900
  454         h1     23    ccc     H6    454 0.13870000   1.008000   ; qtot 9.190600
  455         hx     23    ccc     H7    455 0.07790000   1.008000   ; qtot 9.268500
  456         hx     23    ccc     H8    456 0.07790000   1.008000   ; qtot 9.346400
  457         n4     23    ccc     N2    457 -0.16780000  14.010000   ; qtot 9.178600
  458         hn     23    ccc     H9    458 0.27380000   1.008000   ; qtot 9.452400
  459         hn     23    ccc    H10    459 0.27380000   1.008000   ; qtot 9.726200
  460         hn     23    ccc    H11    460 0.27380000   1.008000   ; qtot 10.000000
; residue   24 ccc rtp ccc q 1.0
  461          n     24    ccc     N1    461 -0.26410000  14.010000   ; qtot 9.735900
  462         hn     24    ccc     H4    462 0.27630000   1.008000   ; qtot 10.012200
  463         c3     24    ccc     C3    463 -0.17900000  12.010000   ; qtot 9.833200
  464         c3     24    ccc     C4    464 0.08000000  12.010000   ; qtot 9.913200
  465         h1     24    ccc     H5    465 0.13870000   1.008000   ; qtot 10.051900
  466         h1     24    ccc     H6    466 0.13870000   1.008000   ; qtot 10.190600
  467         hx     24    ccc     H7    467 0.07790000   1.008000   ; qtot 10.268500
  468         hx     24    ccc     H8    468 0.07790000   1.008000   ; qtot 10.346400
  469         n4     24    ccc     N2    469 -0.16780000  14.010000   ; qtot 10.178600
  470         hn     24    ccc     H9    470 0.27380000   1.008000   ; qtot 10.452400
  471         hn     24    ccc    H10    471 0.27380000   1.008000   ; qtot 10.726200
  472         hn     24    ccc    H11    472 0.27380000   1.008000   ; qtot 11.000000
; residue   25 ccc rtp ccc q 1.0
  473          n     25    ccc     N1    473 -0.26410000  14.010000   ; qtot 10.735900
  474         hn     25    ccc     H4    474 0.27630000   1.008000   ; qtot 11.012200
  475         c3     25    ccc     C3    475 -0.17900000  12.010000   ; qtot 10.833200
  476         c3     25    ccc     C4    476 0.08000000  12.010000   ; qtot 10.913200
  477         h1     25    ccc     H5    477 0.13870000   1.008000   ; qtot 11.051900
  478         h1     25    ccc     H6    478 0.13870000   1.008000   ; qtot 11.190600
  479         hx     25    ccc     H7    479 0.07790000   1.008000   ; qtot 11.268500
  480         hx     25    ccc     H8    480 0.07790000   1.008000   ; qtot 11.346400
  481         n4     25    ccc     N2    481 -0.16780000  14.010000   ; qtot 11.178600
  482         hn     25    ccc     H9    482 0.27380000   1.008000   ; qtot 11.452400
  483         hn     25    ccc    H10    483 0.27380000   1.008000   ; qtot 11.726200
  484         hn     25    ccc    H11    484 0.27380000   1.008000   ; qtot 12.000000
; residue   26 ccc rtp ccc q 1.0
  485          n     26    ccc     N1    485 -0.26410000  14.010000   ; qtot 11.735900
  486         hn     26    ccc     H4    486 0.27630000   1.008000   ; qtot 12.012200
  487         c3     26    ccc     C3    487 -0.17900000  12.010000   ; qtot 11.833200
  488         c3     26    ccc     C4    488 0.08000000  12.010000   ; qtot 11.913200
  489         h1     26    ccc     H5    489 0.13870000   1.008000   ; qtot 12.051900
  490         h1     26    ccc     H6    490 0.13870000   1.008000   ; qtot 12.190600
  491         hx     26    ccc     H7    491 0.07790000   1.008000   ; qtot 12.268500
  492         hx     26    ccc     H8    492 0.07790000   1.008000   ; qtot 12.346400
  493         n4     26    ccc     N2    493 -0.16780000  14.010000   ; qtot 12.178600
  494         hn     26    ccc     H9    494 0.27380000   1.008000   ; qtot 12.452400
  495         hn     26    ccc    H10    495 0.27380000   1.008000   ; qtot 12.726200
  496         hn     26    ccc    H11    496 0.27380000   1.008000   ; qtot 13.000000
; residue   27 ccc rtp ccc q 1.0
  497          n     27    ccc     N1    497 -0.26410000  14.010000   ; qtot 12.735900
  498         hn     27    ccc     H4    498 0.27630000   1.008000   ; qtot 13.012200
  499         c3     27    ccc     C3    499 -0.17900000  12.010000   ; qtot 12.833200
  500         c3     27    ccc     C4    500 0.08000000  12.010000   ; qtot 12.913200
  501         h1     27    ccc     H5    501 0.13870000   1.008000   ; qtot 13.051900
  502         h1     27    ccc     H6    502 0.13870000   1.008000   ; qtot 13.190600
  503         hx     27    ccc     H7    503 0.07790000   1.008000   ; qtot 13.268500
  504         hx     27    ccc     H8    504 0.07790000   1.008000   ; qtot 13.346400
  505         n4     27    ccc     N2    505 -0.16780000  14.010000   ; qtot 13.178600
  506         hn     27    ccc     H9    506 0.27380000   1.008000   ; qtot 13.452400
  507         hn     27    ccc    H10    507 0.27380000   1.008000   ; qtot 13.726200
  508         hn     27    ccc    H11    508 0.27380000   1.008000   ; qtot 14.000000
; residue   28 ccc rtp ccc q 1.0
  509          n     28    ccc     N1    509 -0.26410000  14.010000   ; qtot 13.735900
  510         hn     28    ccc     H4    510 0.27630000   1.008000   ; qtot 14.012200
  511         c3     28    ccc     C3    511 -0.17900000  12.010000   ; qtot 13.833200
  512         c3     28    ccc     C4    512 0.08000000  12.010000   ; qtot 13.913200
  513         h1     28    ccc     H5    513 0.13870000   1.008000   ; qtot 14.051900
  514         h1     28    ccc     H6    514 0.13870000   1.008000   ; qtot 14.190600
  515         hx     28    ccc     H7    515 0.07790000   1.008000   ; qtot 14.268500
  516         hx     28    ccc     H8    516 0.07790000   1.008000   ; qtot 14.346400
  517         n4     28    ccc     N2    517 -0.16780000  14.010000   ; qtot 14.178600
  518         hn     28    ccc     H9    518 0.27380000   1.008000   ; qtot 14.452400
  519         hn     28    ccc    H10    519 0.27380000   1.008000   ; qtot 14.726200
  520         hn     28    ccc    H11    520 0.27380000   1.008000   ; qtot 15.000000
; residue   29 ccc rtp ccc q 1.0
  521          n     29    ccc     N1    521 -0.26410000  14.010000   ; qtot 14.735900
  522         hn     29    ccc     H4    522 0.27630000   1.008000   ; qtot 15.012200
  523         c3     29    ccc     C3    523 -0.17900000  12.010000   ; qtot 14.833200
  524         c3     29    ccc     C4    524 0.08000000  12.010000   ; qtot 14.913200
  525         h1     29    ccc     H5    525 0.13870000   1.008000   ; qtot 15.051900
  526         h1     29    ccc     H6    526 0.13870000   1.008000   ; qtot 15.190600
  527         hx     29    ccc     H7    527 0.07790000   1.008000   ; qtot 15.268500
  528         hx     29    ccc     H8    528 0.07790000   1.008000   ; qtot 15.346400
  529         n4     29    ccc     N2    529 -0.16780000  14.010000   ; qtot 15.178600
  530         hn     29    ccc     H9    530 0.27380000   1.008000   ; qtot 15.452400
  531         hn     29    ccc    H10    531 0.27380000   1.008000   ; qtot 15.726200
  532         hn     29    ccc    H11    532 0.27380000   1.008000   ; qtot 16.000000

[ bonds ]
;    ai     aj funct         c0         c1         c2         c3
      1      4     1   0.15375 251793.120000
      1      8     1   0.14647 272713.120000
      4      7     1   0.14647 272713.120000
      7     15     1   0.14647 272713.120000
      7     18     1   0.14647 272713.120000
      8      9     1   0.14647 272713.120000
      8     12     1   0.14647 272713.120000
      9     30     1   0.15375 251793.120000
     12     27     1   0.15375 251793.120000
     15     21     1   0.15375 251793.120000
     18     24     1   0.15375 251793.120000
     21     35     1   0.15241 261918.400000
     24     36     1   0.15241 261918.400000
     27     33     1   0.15241 261918.400000
     30     34     1   0.15241 261918.400000
     33     37     1   0.12183 533627.360000
     33     64     1   0.13789 357815.680000
     34     40     1   0.12183 533627.360000
     34     89     1   0.13789 357815.680000
     35     38     1   0.12183 533627.360000
     35    114     1   0.13789 357815.680000
     36     39     1   0.12183 533627.360000
     36    139     1   0.13789 357815.680000
     41     44     1   0.15375 251793.120000
     41     47     1   0.14647 272713.120000
     44     64     1   0.14619 275056.160000
     47     48     1   0.14647 272713.120000
     47     51     1   0.14647 272713.120000
     48     57     1   0.15375 251793.120000
     51     54     1   0.15375 251793.120000
     54     60     1   0.15241 261918.400000
     57     61     1   0.15241 261918.400000
     60     62     1   0.12183 533627.360000
     60    164     1   0.13789 357815.680000
     61     63     1   0.12183 533627.360000
     61    189     1   0.13789 357815.680000
     66     69     1   0.15375 251793.120000
     66     72     1   0.14647 272713.120000
     69     89     1   0.14619 275056.160000
     72     73     1   0.14647 272713.120000
     72     76     1   0.14647 272713.120000
     73     82     1   0.15375 251793.120000
     76     79     1   0.15375 251793.120000
     79     85     1   0.15241 261918.400000
     82     86     1   0.15241 261918.400000
     85     87     1   0.12183 533627.360000
     85    214     1   0.13789 357815.680000
     86     88     1   0.12183 533627.360000
     86    239     1   0.13789 357815.680000
     91     94     1   0.15375 251793.120000
     91     97     1   0.14647 272713.120000
     94    114     1   0.14619 275056.160000
     97     98     1   0.14647 272713.120000
     97    101     1   0.14647 272713.120000
     98    107     1   0.15375 251793.120000
    101    104     1   0.15375 251793.120000
    104    110     1   0.15241 261918.400000
    107    111     1   0.15241 261918.400000
    110    112     1   0.12183 533627.360000
    110    264     1   0.13789 357815.680000
    111    113     1   0.12183 533627.360000
    111    289     1   0.13789 357815.680000
    116    119     1   0.15375 251793.120000
    116    122     1   0.14647 272713.120000
    119    139     1   0.14619 275056.160000
    122    123     1   0.14647 272713.120000
    122    126     1   0.14647 272713.120000
    123    132     1   0.15375 251793.120000
    126    129     1   0.15375 251793.120000
    129    135     1   0.15241 261918.400000
    132    136     1   0.15241 261918.400000
    135    137     1   0.12183 533627.360000
    135    314     1   0.13789 357815.680000
    136    138     1   0.12183 533627.360000
    136    339     1   0.13789 357815.680000
    141    144     1   0.15375 251793.120000
    141    147     1   0.14647 272713.120000
    144    164     1   0.14619 275056.160000
    147    148     1   0.14647 272713.120000
    147    151     1   0.14647 272713.120000
    148    157     1   0.15375 251793.120000
    151    154     1   0.15375 251793.120000
    154    160     1   0.15241 261918.400000
    157    161     1   0.15241 261918.400000
    160    341     1   0.13789 357815.680000
    160    162     1   0.12183 533627.360000
    161    163     1   0.12183 533627.360000
    161    353     1   0.13789 357815.680000
    166    169     1   0.15375 251793.120000
    166    172     1   0.14647 272713.120000
    169    189     1   0.14619 275056.160000
    172    173     1   0.14647 272713.120000
    172    176     1   0.14647 272713.120000
    173    182     1   0.15375 251793.120000
    176    179     1   0.15375 251793.120000
    179    185     1   0.15241 261918.400000
    182    186     1   0.15241 261918.400000
    185    365     1   0.13789 357815.680000
    185    187     1   0.12183 533627.360000
    186    188     1   0.12183 533627.360000
    186    377     1   0.13789 357815.680000
    191    194     1   0.15375 251793.120000
    191    197     1   0.14647 272713.120000
    194    214     1   0.14619 275056.160000
    197    198     1   0.14647 272713.120000
    197    201     1   0.14647 272713.120000
    198    207     1   0.15375 251793.120000
    201    204     1   0.15375 251793.120000
    204    210     1   0.15241 261918.400000
    207    211     1   0.15241 261918.400000
    210    389     1   0.13789 357815.680000
    210    212     1   0.12183 533627.360000
    211    213     1   0.12183 533627.360000
    211    401     1   0.13789 357815.680000
    216    219     1   0.15375 251793.120000
    216    222     1   0.14647 272713.120000
    219    239     1   0.14619 275056.160000
    222    223     1   0.14647 272713.120000
    222    226     1   0.14647 272713.120000
    223    232     1   0.15375 251793.120000
    226    229     1   0.15375 251793.120000
    229    235     1   0.15241 261918.400000
    232    236     1   0.15241 261918.400000
    235    413     1   0.13789 357815.680000
    235    237     1   0.12183 533627.360000
    236    238     1   0.12183 533627.360000
    236    425     1   0.13789 357815.680000
    241    244     1   0.15375 251793.120000
    241    247     1   0.14647 272713.120000
    244    264     1   0.14619 275056.160000
    247    248     1   0.14647 272713.120000
    247    251     1   0.14647 272713.120000
    248    257     1   0.15375 251793.120000
    251    254     1   0.15375 251793.120000
    254    260     1   0.15241 261918.400000
    257    261     1   0.15241 261918.400000
    260    437     1   0.13789 357815.680000
    260    262     1   0.12183 533627.360000
    261    263     1   0.12183 533627.360000
    261    449     1   0.13789 357815.680000
    266    269     1   0.15375 251793.120000
    266    272     1   0.14647 272713.120000
    269    289     1   0.14619 275056.160000
    272    273     1   0.14647 272713.120000
    272    276     1   0.14647 272713.120000
    273    282     1   0.15375 251793.120000
    276    279     1   0.15375 251793.120000
    279    285     1   0.15241 261918.400000
    282    286     1   0.15241 261918.400000
    285    461     1   0.13789 357815.680000
    285    287     1   0.12183 533627.360000
    286    288     1   0.12183 533627.360000
    286    473     1   0.13789 357815.680000
    291    294     1   0.15375 251793.120000
    291    297     1   0.14647 272713.120000
    294    314     1   0.14619 275056.160000
    297    298     1   0.14647 272713.120000
    297    301     1   0.14647 272713.120000
    298    307     1   0.15375 251793.120000
    301    304     1   0.15375 251793.120000
    304    310     1   0.15241 261918.400000
    307    311     1   0.15241 261918.400000
    310    485     1   0.13789 357815.680000
    310    312     1   0.12183 533627.360000
    311    313     1   0.12183 533627.360000
    311    497     1   0.13789 357815.680000
    316    319     1   0.15375 251793.120000
    316    322     1   0.14647 272713.120000
    319    339     1   0.14619 275056.160000
    322    323     1   0.14647 272713.120000
    322    326     1   0.14647 272713.120000
    323    332     1   0.15375 251793.120000
    326    329     1   0.15375 251793.120000
    329    335     1   0.15241 261918.400000
    332    336     1   0.15241 261918.400000
    335    509     1   0.13789 357815.680000
    335    337     1   0.12183 533627.360000
    336    521     1   0.13789 357815.680000
    336    338     1   0.12183 533627.360000
    341    343     1   0.14619 275056.160000
    343    344     1   0.15375 251793.120000
    344    349     1   0.15110 237065.440000
    353    355     1   0.14619 275056.160000
    355    356     1   0.15375 251793.120000
    356    361     1   0.15110 237065.440000
    365    367     1   0.14619 275056.160000
    367    368     1   0.15375 251793.120000
    368    373     1   0.15110 237065.440000
    377    379     1   0.14619 275056.160000
    379    380     1   0.15375 251793.120000
    380    385     1   0.15110 237065.440000
    389    391     1   0.14619 275056.160000
    391    392     1   0.15375 251793.120000
    392    397     1   0.15110 237065.440000
    401    403     1   0.14619 275056.160000
    403    404     1   0.15375 251793.120000
    404    409     1   0.15110 237065.440000
    413    415     1   0.14619 275056.160000
    415    416     1   0.15375 251793.120000
    416    421     1   0.15110 237065.440000
    425    427     1   0.14619 275056.160000
    427    428     1   0.15375 251793.120000
    428    433     1   0.15110 237065.440000
    437    439     1   0.14619 275056.160000
    439    440     1   0.15375 251793.120000
    440    445     1   0.15110 237065.440000
    449    451     1   0.14619 275056.160000
    451    452     1   0.15375 251793.120000
    452    457     1   0.15110 237065.440000
    461    463     1   0.14619 275056.160000
    463    464     1   0.15375 251793.120000
    464    469     1   0.15110 237065.440000
    473    475     1   0.14619 275056.160000
    475    476     1   0.15375 251793.120000
    476    481     1   0.15110 237065.440000
    485    487     1   0.14619 275056.160000
    487    488     1   0.15375 251793.120000
    488    493     1   0.15110 237065.440000
    497    499     1   0.14619 275056.160000
    499    500     1   0.15375 251793.120000
    500    505     1   0.15110 237065.440000
    509    511     1   0.14619 275056.160000
    511    512     1   0.15375 251793.120000
    512    517     1   0.15110 237065.440000
    521    523     1   0.14619 275056.160000
    523    524     1   0.15375 251793.120000
    524    529     1   0.15110 237065.440000
      1      2     1   0.10969 276646.080000
      1      3     1   0.10969 276646.080000
      4      5     1   0.10969 276646.080000
      4      6     1   0.10969 276646.080000
      9     10     1   0.10969 276646.080000
      9     11     1   0.10969 276646.080000
     12     13     1   0.10969 276646.080000
     12     14     1   0.10969 276646.080000
     15     16     1   0.10969 276646.080000
     15     17     1   0.10969 276646.080000
     18     19     1   0.10969 276646.080000
     18     20     1   0.10969 276646.080000
     21     22     1   0.10969 276646.080000
     21     23     1   0.10969 276646.080000
     24     25     1   0.10969 276646.080000
     24     26     1   0.10969 276646.080000
     27     28     1   0.10969 276646.080000
     27     29     1   0.10969 276646.080000
     30     31     1   0.10969 276646.080000
     30     32     1   0.10969 276646.080000
     41     42     1   0.10969 276646.080000
     41     43     1   0.10969 276646.080000
     44     45     1   0.10969 276646.080000
     44     46     1   0.10969 276646.080000
     48     49     1   0.10969 276646.080000
     48     50     1   0.10969 276646.080000
     51     52     1   0.10969 276646.080000
     51     53     1   0.10969 276646.080000
     54     55     1   0.10969 276646.080000
     54     56     1   0.10969 276646.080000
     57     58     1   0.10969 276646.080000
     57     59     1   0.10969 276646.080000
     64     65     1   0.10129 337397.760000
     66     67     1   0.10969 276646.080000
     66     68     1   0.10969 276646.080000
     69     70     1   0.10969 276646.080000
     69     71     1   0.10969 276646.080000
     73     74     1   0.10969 276646.080000
     73     75     1   0.10969 276646.080000
     76     77     1   0.10969 276646.080000
     76     78     1   0.10969 276646.080000
     79     80     1   0.10969 276646.080000
     79     81     1   0.10969 276646.080000
     82     83     1   0.10969 276646.080000
     82     84     1   0.10969 276646.080000
     89     90     1   0.10129 337397.760000
     91     92     1   0.10969 276646.080000
     91     93     1   0.10969 276646.080000
     94     95     1   0.10969 276646.080000
     94     96     1   0.10969 276646.080000
     98     99     1   0.10969 276646.080000
     98    100     1   0.10969 276646.080000
    101    102     1   0.10969 276646.080000
    101    103     1   0.10969 276646.080000
    104    105     1   0.10969 276646.080000
    104    106     1   0.10969 276646.080000
    107    108     1   0.10969 276646.080000
    107    109     1   0.10969 276646.080000
    114    115     1   0.10129 337397.760000
    116    117     1   0.10969 276646.080000
    116    118     1   0.10969 276646.080000
    119    120     1   0.10969 276646.080000
    119    121     1   0.10969 276646.080000
    123    124     1   0.10969 276646.080000
    123    125     1   0.10969 276646.080000
    126    127     1   0.10969 276646.080000
    126    128     1   0.10969 276646.080000
    129    130     1   0.10969 276646.080000
    129    131     1   0.10969 276646.080000
    132    133     1   0.10969 276646.080000
    132    134     1   0.10969 276646.080000
    139    140     1   0.10129 337397.760000
    141    142     1   0.10969 276646.080000
    141    143     1   0.10969 276646.080000
    144    145     1   0.10969 276646.080000
    144    146     1   0.10969 276646.080000
    148    149     1   0.10969 276646.080000
    148    150     1   0.10969 276646.080000
    151    152     1   0.10969 276646.080000
    151    153     1   0.10969 276646.080000
    154    155     1   0.10969 276646.080000
    154    156     1   0.10969 276646.080000
    157    158     1   0.10969 276646.080000
    157    159     1   0.10969 276646.080000
    164    165     1   0.10129 337397.760000
    166    167     1   0.10969 276646.080000
    166    168     1   0.10969 276646.080000
    169    170     1   0.10969 276646.080000
    169    171     1   0.10969 276646.080000
    173    174     1   0.10969 276646.080000
    173    175     1   0.10969 276646.080000
    176    177     1   0.10969 276646.080000
    176    178     1   0.10969 276646.080000
    179    180     1   0.10969 276646.080000
    179    181     1   0.10969 276646.080000
    182    183     1   0.10969 276646.080000
    182    184     1   0.10969 276646.080000
    189    190     1   0.10129 337397.760000
    191    192     1   0.10969 276646.080000
    191    193     1   0.10969 276646.080000
    194    195     1   0.10969 276646.080000
    194    196     1   0.10969 276646.080000
    198    199     1   0.10969 276646.080000
    198    200     1   0.10969 276646.080000
    201    202     1   0.10969 276646.080000
    201    203     1   0.10969 276646.080000
    204    205     1   0.10969 276646.080000
    204    206     1   0.10969 276646.080000
    207    208     1   0.10969 276646.080000
    207    209     1   0.10969 276646.080000
    214    215     1   0.10129 337397.760000
    216    217     1   0.10969 276646.080000
    216    218     1   0.10969 276646.080000
    219    220     1   0.10969 276646.080000
    219    221     1   0.10969 276646.080000
    223    224     1   0.10969 276646.080000
    223    225     1   0.10969 276646.080000
    226    227     1   0.10969 276646.080000
    226    228     1   0.10969 276646.080000
    229    230     1   0.10969 276646.080000
    229    231     1   0.10969 276646.080000
    232    233     1   0.10969 276646.080000
    232    234     1   0.10969 276646.080000
    239    240     1   0.10129 337397.760000
    241    242     1   0.10969 276646.080000
    241    243     1   0.10969 276646.080000
    244    245     1   0.10969 276646.080000
    244    246     1   0.10969 276646.080000
    248    249     1   0.10969 276646.080000
    248    250     1   0.10969 276646.080000
    251    252     1   0.10969 276646.080000
    251    253     1   0.10969 276646.080000
    254    255     1   0.10969 276646.080000
    254    256     1   0.10969 276646.080000
    257    258     1   0.10969 276646.080000
    257    259     1   0.10969 276646.080000
    264    265     1   0.10129 337397.760000
    266    267     1   0.10969 276646.080000
    266    268     1   0.10969 276646.080000
    269    270     1   0.10969 276646.080000
    269    271     1   0.10969 276646.080000
    273    274     1   0.10969 276646.080000
    273    275     1   0.10969 276646.080000
    276    277     1   0.10969 276646.080000
    276    278     1   0.10969 276646.080000
    279    280     1   0.10969 276646.080000
    279    281     1   0.10969 276646.080000
    282    283     1   0.10969 276646.080000
    282    284     1   0.10969 276646.080000
    289    290     1   0.10129 337397.760000
    291    292     1   0.10969 276646.080000
    291    293     1   0.10969 276646.080000
    294    295     1   0.10969 276646.080000
    294    296     1   0.10969 276646.080000
    298    299     1   0.10969 276646.080000
    298    300     1   0.10969 276646.080000
    301    302     1   0.10969 276646.080000
    301    303     1   0.10969 276646.080000
    304    305     1   0.10969 276646.080000
    304    306     1   0.10969 276646.080000
    307    308     1   0.10969 276646.080000
    307    309     1   0.10969 276646.080000
    314    315     1   0.10129 337397.760000
    316    317     1   0.10969 276646.080000
    316    318     1   0.10969 276646.080000
    319    320     1   0.10969 276646.080000
    319    321     1   0.10969 276646.080000
    323    324     1   0.10969 276646.080000
    323    325     1   0.10969 276646.080000
    326    327     1   0.10969 276646.080000
    326    328     1   0.10969 276646.080000
    329    330     1   0.10969 276646.080000
    329    331     1   0.10969 276646.080000
    332    333     1   0.10969 276646.080000
    332    334     1   0.10969 276646.080000
    339    340     1   0.10129 337397.760000
    341    342     1   0.10129 337397.760000
    343    345     1   0.10969 276646.080000
    343    346     1   0.10969 276646.080000
    344    347     1   0.10910 283424.160000
    344    348     1   0.10910 283424.160000
    349    350     1   0.10304 312293.760000
    349    351     1   0.10304 312293.760000
    349    352     1   0.10304 312293.760000
    353    354     1   0.10129 337397.760000
    355    357     1   0.10969 276646.080000
    355    358     1   0.10969 276646.080000
    356    359     1   0.10910 283424.160000
    356    360     1   0.10910 283424.160000
    361    362     1   0.10304 312293.760000
    361    363     1   0.10304 312293.760000
    361    364     1   0.10304 312293.760000
    365    366     1   0.10129 337397.760000
    367    369     1   0.10969 276646.080000
    367    370     1   0.10969 276646.080000
    368    371     1   0.10910 283424.160000
    368    372     1   0.10910 283424.160000
    373    374     1   0.10304 312293.760000
    373    375     1   0.10304 312293.760000
    373    376     1   0.10304 312293.760000
    377    378     1   0.10129 337397.760000
    379    381     1   0.10969 276646.080000
    379    382     1   0.10969 276646.080000
    380    383     1   0.10910 283424.160000
    380    384     1   0.10910 283424.160000
    385    386     1   0.10304 312293.760000
    385    387     1   0.10304 312293.760000
    385    388     1   0.10304 312293.760000
    389    390     1   0.10129 337397.760000
    391    393     1   0.10969 276646.080000
    391    394     1   0.10969 276646.080000
    392    395     1   0.10910 283424.160000
    392    396     1   0.10910 283424.160000
    397    398     1   0.10304 312293.760000
    397    399     1   0.10304 312293.760000
    397    400     1   0.10304 312293.760000
    401    402     1   0.10129 337397.760000
    403    405     1   0.10969 276646.080000
    403    406     1   0.10969 276646.080000
    404    407     1   0.10910 283424.160000
    404    408     1   0.10910 283424.160000
    409    410     1   0.10304 312293.760000
    409    411     1   0.10304 312293.760000
    409    412     1   0.10304 312293.760000
    413    414     1   0.10129 337397.760000
    415    417     1   0.10969 276646.080000
    415    418     1   0.10969 276646.080000
    416    419     1   0.10910 283424.160000
    416    420     1   0.10910 283424.160000
    421    422     1   0.10304 312293.760000
    421    423     1   0.10304 312293.760000
    421    424     1   0.10304 312293.760000
    425    426     1   0.10129 337397.760000
    427    429     1   0.10969 276646.080000
    427    430     1   0.10969 276646.080000
    428    431     1   0.10910 283424.160000
    428    432     1   0.10910 283424.160000
    433    434     1   0.10304 312293.760000
    433    435     1   0.10304 312293.760000
    433    436     1   0.10304 312293.760000
    437    438     1   0.10129 337397.760000
    439    441     1   0.10969 276646.080000
    439    442     1   0.10969 276646.080000
    440    443     1   0.10910 283424.160000
    440    444     1   0.10910 283424.160000
    445    446     1   0.10304 312293.760000
    445    447     1   0.10304 312293.760000
    445    448     1   0.10304 312293.760000
    449    450     1   0.10129 337397.760000
    451    453     1   0.10969 276646.080000
    451    454     1   0.10969 276646.080000
    452    455     1   0.10910 283424.160000
    452    456     1   0.10910 283424.160000
    457    458     1   0.10304 312293.760000
    457    459     1   0.10304 312293.760000
    457    460     1   0.10304 312293.760000
    461    462     1   0.10129 337397.760000
    463    465     1   0.10969 276646.080000
    463    466     1   0.10969 276646.080000
    464    467     1   0.10910 283424.160000
    464    468     1   0.10910 283424.160000
    469    470     1   0.10304 312293.760000
    469    471     1   0.10304 312293.760000
    469    472     1   0.10304 312293.760000
    473    474     1   0.10129 337397.760000
    475    477     1   0.10969 276646.080000
    475    478     1   0.10969 276646.080000
    476    479     1   0.10910 283424.160000
    476    480     1   0.10910 283424.160000
    481    482     1   0.10304 312293.760000
    481    483     1   0.10304 312293.760000
    481    484     1   0.10304 312293.760000
    485    486     1   0.10129 337397.760000
    487    489     1   0.10969 276646.080000
    487    490     1   0.10969 276646.080000
    488    491     1   0.10910 283424.160000
    488    492     1   0.10910 283424.160000
    493    494     1   0.10304 312293.760000
    493    495     1   0.10304 312293.760000
    493    496     1   0.10304 312293.760000
    497    498     1   0.10129 337397.760000
    499    501     1   0.10969 276646.080000
    499    502     1   0.10969 276646.080000
    500    503     1   0.10910 283424.160000
    500    504     1   0.10910 283424.160000
    505    506     1   0.10304 312293.760000
    505    507     1   0.10304 312293.760000
    505    508     1   0.10304 312293.760000
    509    510     1   0.10129 337397.760000
    511    513     1   0.10969 276646.080000
    511    514     1   0.10969 276646.080000
    512    515     1   0.10910 283424.160000
    512    516     1   0.10910 283424.160000
    517    518     1   0.10304 312293.760000
    517    519     1   0.10304 312293.760000
    517    520     1   0.10304 312293.760000
    521    522     1   0.10129 337397.760000
    523    525     1   0.10969 276646.080000
    523    526     1   0.10969 276646.080000
    524    527     1   0.10910 283424.160000
    524    528     1   0.10910 283424.160000
    529    530     1   0.10304 312293.760000
    529    531     1   0.10304 312293.760000
    529    532     1   0.10304 312293.760000

[ pairs ]
;    ai     aj funct         c0         c1         c2         c3
      1     15     1
      1     18     1
      1     30     1
      1     27     1
      4      9     1
      4     12     1
      4     21     1
      4     24     1
      8      7     1
      7     35     1
      7     36     1
      8     34     1
      8     33     1
      9     27     1
      9     40     1
      9     89     1
     12     30     1
     12     37     1
     12     64     1
     15     24     1
     15     38     1
     15    114     1
     18     21     1
     18     39     1
     18    139     1
     21     94     1
     24    119     1
     27     44     1
     30     69     1
     33     41     1
     34     66     1
     35     91     1
     36    116     1
     37     44     1
     38     94     1
     39    119     1
     40     69     1
     41     57     1
     41     54     1
     44     48     1
     44     51     1
     47     64     1
     47     61     1
     47     60     1
     48     54     1
     48     63     1
     48    189     1
     51     57     1
     51     62     1
     51    164     1
     54    144     1
     57    169     1
     60    141     1
     61    166     1
     62    144     1
     63    169     1
     66     82     1
     66     79     1
     69     73     1
     69     76     1
     72     89     1
     72     86     1
     72     85     1
     73     79     1
     73     88     1
     73    239     1
     76     82     1
     76     87     1
     76    214     1
     79    194     1
     82    219     1
     85    191     1
     86    216     1
     87    194     1
     88    219     1
     91    107     1
     91    104     1
     94     98     1
     94    101     1
     97    114     1
     97    111     1
     97    110     1
     98    104     1
     98    113     1
     98    289     1
    101    107     1
    101    112     1
    101    264     1
    104    244     1
    107    269     1
    110    241     1
    111    266     1
    112    244     1
    113    269     1
    116    132     1
    116    129     1
    119    123     1
    119    126     1
    122    139     1
    122    136     1
    122    135     1
    123    129     1
    123    138     1
    123    339     1
    126    132     1
    126    137     1
    126    314     1
    129    294     1
    132    319     1
    135    291     1
    136    316     1
    137    294     1
    138    319     1
    141    157     1
    141    154     1
    144    148     1
    144    151     1
    147    164     1
    147    161     1
    147    160     1
    148    154     1
    148    163     1
    148    353     1
    151    157     1
    151    341     1
    151    162     1
    154    343     1
    157    355     1
    160    344     1
    161    356     1
    162    343     1
    163    355     1
    166    182     1
    166    179     1
    169    173     1
    169    176     1
    172    189     1
    172    186     1
    172    185     1
    173    179     1
    173    188     1
    173    377     1
    176    182     1
    176    365     1
    176    187     1
    179    367     1
    182    379     1
    185    368     1
    186    380     1
    187    367     1
    188    379     1
    191    207     1
    191    204     1
    194    198     1
    194    201     1
    197    214     1
    197    211     1
    197    210     1
    198    204     1
    198    213     1
    198    401     1
    201    207     1
    201    389     1
    201    212     1
    204    391     1
    207    403     1
    210    392     1
    211    404     1
    212    391     1
    213    403     1
    216    232     1
    216    229     1
    219    223     1
    219    226     1
    222    239     1
    222    236     1
    222    235     1
    223    229     1
    223    238     1
    223    425     1
    226    232     1
    226    413     1
    226    237     1
    229    415     1
    232    427     1
    235    416     1
    236    428     1
    237    415     1
    238    427     1
    241    257     1
    241    254     1
    244    248     1
    244    251     1
    247    264     1
    247    261     1
    247    260     1
    248    254     1
    248    263     1
    248    449     1
    251    257     1
    251    437     1
    251    262     1
    254    439     1
    257    451     1
    260    440     1
    261    452     1
    262    439     1
    263    451     1
    266    282     1
    266    279     1
    269    273     1
    269    276     1
    272    289     1
    272    286     1
    272    285     1
    273    279     1
    273    288     1
    273    473     1
    276    282     1
    276    461     1
    276    287     1
    279    463     1
    282    475     1
    285    464     1
    286    476     1
    287    463     1
    288    475     1
    291    307     1
    291    304     1
    294    298     1
    294    301     1
    297    314     1
    297    311     1
    297    310     1
    298    304     1
    298    313     1
    298    497     1
    301    307     1
    301    485     1
    301    312     1
    304    487     1
    307    499     1
    310    488     1
    311    500     1
    312    487     1
    313    499     1
    316    332     1
    316    329     1
    319    323     1
    319    326     1
    322    339     1
    322    336     1
    322    335     1
    323    329     1
    323    521     1
    323    338     1
    326    332     1
    326    509     1
    326    337     1
    329    511     1
    332    523     1
    335    512     1
    336    524     1
    337    511     1
    338    523     1
    341    349     1
    353    361     1
    365    373     1
    377    385     1
    389    397     1
    401    409     1
    413    421     1
    425    433     1
    437    445     1
    449    457     1
    461    469     1
    473    481     1
    485    493     1
    497    505     1
    509    517     1
    521    529     1
      1     10     1
      1     11     1
      1     13     1
      1     14     1
      2      7     1
      2      5     1
      2      6     1
      2      9     1
      2     12     1
      3      7     1
      3      5     1
      3      6     1
      3      9     1
      3     12     1
      4     16     1
      4     17     1
      4     19     1
      4     20     1
      8      5     1
      5     15     1
      5     18     1
      8      6     1
      6     15     1
      6     18     1
      7     22     1
      7     23     1
      7     25     1
      7     26     1
      8     31     1
      8     32     1
      8     28     1
      8     29     1
      9     13     1
      9     14     1
     10     12     1
     10     34     1
     10     31     1
     10     32     1
     11     12     1
     11     34     1
     11     31     1
     11     32     1
     13     33     1
     13     28     1
     13     29     1
     14     33     1
     14     28     1
     14     29     1
     15     19     1
     15     20     1
     16     18     1
     16     35     1
     16     22     1
     16     23     1
     17     18     1
     17     35     1
     17     22     1
     17     23     1
     19     36     1
     19     25     1
     19     26     1
     20     36     1
     20     25     1
     20     26     1
     21    115     1
     22     38     1
     22    114     1
     23     38     1
     23    114     1
     24    140     1
     25     39     1
     25    139     1
     26     39     1
     26    139     1
     27     65     1
     28     37     1
     28     64     1
     29     37     1
     29     64     1
     30     90     1
     31     40     1
     31     89     1
     32     40     1
     32     89     1
     33     45     1
     33     46     1
     34     70     1
     34     71     1
     35     95     1
     35     96     1
     36    120     1
     36    121     1
     37     65     1
     38    115     1
     39    140     1
     40     90     1
     41     65     1
     41     49     1
     41     50     1
     41     52     1
     41     53     1
     42     64     1
     42     45     1
     42     46     1
     42     48     1
     42     51     1
     43     64     1
     43     45     1
     43     46     1
     43     48     1
     43     51     1
     45     47     1
     45     65     1
     46     47     1
     46     65     1
     47     58     1
     47     59     1
     47     55     1
     47     56     1
     48     52     1
     48     53     1
     49     51     1
     49     61     1
     49     58     1
     49     59     1
     50     51     1
     50     61     1
     50     58     1
     50     59     1
     52     60     1
     52     55     1
     52     56     1
     53     60     1
     53     55     1
     53     56     1
     54    165     1
     55     62     1
     55    164     1
     56     62     1
     56    164     1
     57    190     1
     58     63     1
     58    189     1
     59     63     1
     59    189     1
     60    145     1
     60    146     1
     61    170     1
     61    171     1
     62    165     1
     63    190     1
     66     90     1
     66     74     1
     66     75     1
     66     77     1
     66     78     1
     67     89     1
     67     70     1
     67     71     1
     67     73     1
     67     76     1
     68     89     1
     68     70     1
     68     71     1
     68     73     1
     68     76     1
     70     72     1
     70     90     1
     71     72     1
     71     90     1
     72     83     1
     72     84     1
     72     80     1
     72     81     1
     73     77     1
     73     78     1
     74     76     1
     74     86     1
     74     83     1
     74     84     1
     75     76     1
     75     86     1
     75     83     1
     75     84     1
     77     85     1
     77     80     1
     77     81     1
     78     85     1
     78     80     1
     78     81     1
     79    215     1
     80     87     1
     80    214     1
     81     87     1
     81    214     1
     82    240     1
     83     88     1
     83    239     1
     84     88     1
     84    239     1
     85    195     1
     85    196     1
     86    220     1
     86    221     1
     87    215     1
     88    240     1
     91    115     1
     91     99     1
     91    100     1
     91    102     1
     91    103     1
     92    114     1
     92     95     1
     92     96     1
     92     98     1
     92    101     1
     93    114     1
     93     95     1
     93     96     1
     93     98     1
     93    101     1
     95     97     1
     95    115     1
     96     97     1
     96    115     1
     97    108     1
     97    109     1
     97    105     1
     97    106     1
     98    102     1
     98    103     1
     99    101     1
     99    111     1
     99    108     1
     99    109     1
    100    101     1
    100    111     1
    100    108     1
    100    109     1
    102    110     1
    102    105     1
    102    106     1
    103    110     1
    103    105     1
    103    106     1
    104    265     1
    105    112     1
    105    264     1
    106    112     1
    106    264     1
    107    290     1
    108    113     1
    108    289     1
    109    113     1
    109    289     1
    110    245     1
    110    246     1
    111    270     1
    111    271     1
    112    265     1
    113    290     1
    116    140     1
    116    124     1
    116    125     1
    116    127     1
    116    128     1
    117    139     1
    117    120     1
    117    121     1
    117    123     1
    117    126     1
    118    139     1
    118    120     1
    118    121     1
    118    123     1
    118    126     1
    120    122     1
    120    140     1
    121    122     1
    121    140     1
    122    133     1
    122    134     1
    122    130     1
    122    131     1
    123    127     1
    123    128     1
    124    126     1
    124    136     1
    124    133     1
    124    134     1
    125    126     1
    125    136     1
    125    133     1
    125    134     1
    127    135     1
    127    130     1
    127    131     1
    128    135     1
    128    130     1
    128    131     1
    129    315     1
    130    137     1
    130    314     1
    131    137     1
    131    314     1
    132    340     1
    133    138     1
    133    339     1
    134    138     1
    134    339     1
    135    295     1
    135    296     1
    136    320     1
    136    321     1
    137    315     1
    138    340     1
    141    165     1
    141    149     1
    141    150     1
    141    152     1
    141    153     1
    142    164     1
    142    145     1
    142    146     1
    142    148     1
    142    151     1
    143    164     1
    143    145     1
    143    146     1
    143    148     1
    143    151     1
    145    147     1
    145    165     1
    146    147     1
    146    165     1
    147    158     1
    147    159     1
    147    155     1
    147    156     1
    148    152     1
    148    153     1
    149    151     1
    149    161     1
    149    158     1
    149    159     1
    150    151     1
    150    161     1
    150    158     1
    150    159     1
    152    160     1
    152    155     1
    152    156     1
    153    160     1
    153    155     1
    153    156     1
    154    342     1
    155    341     1
    155    162     1
    156    341     1
    156    162     1
    157    354     1
    158    163     1
    158    353     1
    159    163     1
    159    353     1
    160    345     1
    160    346     1
    161    357     1
    161    358     1
    162    342     1
    163    354     1
    166    190     1
    166    174     1
    166    175     1
    166    177     1
    166    178     1
    167    189     1
    167    170     1
    167    171     1
    167    173     1
    167    176     1
    168    189     1
    168    170     1
    168    171     1
    168    173     1
    168    176     1
    170    172     1
    170    190     1
    171    172     1
    171    190     1
    172    183     1
    172    184     1
    172    180     1
    172    181     1
    173    177     1
    173    178     1
    174    176     1
    174    186     1
    174    183     1
    174    184     1
    175    176     1
    175    186     1
    175    183     1
    175    184     1
    177    185     1
    177    180     1
    177    181     1
    178    185     1
    178    180     1
    178    181     1
    179    366     1
    180    365     1
    180    187     1
    181    365     1
    181    187     1
    182    378     1
    183    188     1
    183    377     1
    184    188     1
    184    377     1
    185    369     1
    185    370     1
    186    381     1
    186    382     1
    187    366     1
    188    378     1
    191    215     1
    191    199     1
    191    200     1
    191    202     1
    191    203     1
    192    214     1
    192    195     1
    192    196     1
    192    198     1
    192    201     1
    193    214     1
    193    195     1
    193    196     1
    193    198     1
    193    201     1
    195    197     1
    195    215     1
    196    197     1
    196    215     1
    197    208     1
    197    209     1
    197    205     1
    197    206     1
    198    202     1
    198    203     1
    199    201     1
    199    211     1
    199    208     1
    199    209     1
    200    201     1
    200    211     1
    200    208     1
    200    209     1
    202    210     1
    202    205     1
    202    206     1
    203    210     1
    203    205     1
    203    206     1
    204    390     1
    205    389     1
    205    212     1
    206    389     1
    206    212     1
    207    402     1
    208    213     1
    208    401     1
    209    213     1
    209    401     1
    210    393     1
    210    394     1
    211    405     1
    211    406     1
    212    390     1
    213    402     1
    216    240     1
    216    224     1
    216    225     1
    216    227     1
    216    228     1
    217    239     1
    217    220     1
    217    221     1
    217    223     1
    217    226     1
    218    239     1
    218    220     1
    218    221     1
    218    223     1
    218    226     1
    220    222     1
    220    240     1
    221    222     1
    221    240     1
    222    233     1
    222    234     1
    222    230     1
    222    231     1
    223    227     1
    223    228     1
    224    226     1
    224    236     1
    224    233     1
    224    234     1
    225    226     1
    225    236     1
    225    233     1
    225    234     1
    227    235     1
    227    230     1
    227    231     1
    228    235     1
    228    230     1
    228    231     1
    229    414     1
    230    413     1
    230    237     1
    231    413     1
    231    237     1
    232    426     1
    233    238     1
    233    425     1
    234    238     1
    234    425     1
    235    417     1
    235    418     1
    236    429     1
    236    430     1
    237    414     1
    238    426     1
    241    265     1
    241    249     1
    241    250     1
    241    252     1
    241    253     1
    242    264     1
    242    245     1
    242    246     1
    242    248     1
    242    251     1
    243    264     1
    243    245     1
    243    246     1
    243    248     1
    243    251     1
    245    247     1
    245    265     1
    246    247     1
    246    265     1
    247    258     1
    247    259     1
    247    255     1
    247    256     1
    248    252     1
    248    253     1
    249    251     1
    249    261     1
    249    258     1
    249    259     1
    250    251     1
    250    261     1
    250    258     1
    250    259     1
    252    260     1
    252    255     1
    252    256     1
    253    260     1
    253    255     1
    253    256     1
    254    438     1
    255    437     1
    255    262     1
    256    437     1
    256    262     1
    257    450     1
    258    263     1
    258    449     1
    259    263     1
    259    449     1
    260    441     1
    260    442     1
    261    453     1
    261    454     1
    262    438     1
    263    450     1
    266    290     1
    266    274     1
    266    275     1
    266    277     1
    266    278     1
    267    289     1
    267    270     1
    267    271     1
    267    273     1
    267    276     1
    268    289     1
    268    270     1
    268    271     1
    268    273     1
    268    276     1
    270    272     1
    270    290     1
    271    272     1
    271    290     1
    272    283     1
    272    284     1
    272    280     1
    272    281     1
    273    277     1
    273    278     1
    274    276     1
    274    286     1
    274    283     1
    274    284     1
    275    276     1
    275    286     1
    275    283     1
    275    284     1
    277    285     1
    277    280     1
    277    281     1
    278    285     1
    278    280     1
    278    281     1
    279    462     1
    280    461     1
    280    287     1
    281    461     1
    281    287     1
    282    474     1
    283    288     1
    283    473     1
    284    288     1
    284    473     1
    285    465     1
    285    466     1
    286    477     1
    286    478     1
    287    462     1
    288    474     1
    291    315     1
    291    299     1
    291    300     1
    291    302     1
    291    303     1
    292    314     1
    292    295     1
    292    296     1
    292    298     1
    292    301     1
    293    314     1
    293    295     1
    293    296     1
    293    298     1
    293    301     1
    295    297     1
    295    315     1
    296    297     1
    296    315     1
    297    308     1
    297    309     1
    297    305     1
    297    306     1
    298    302     1
    298    303     1
    299    301     1
    299    311     1
    299    308     1
    299    309     1
    300    301     1
    300    311     1
    300    308     1
    300    309     1
    302    310     1
    302    305     1
    302    306     1
    303    310     1
    303    305     1
    303    306     1
    304    486     1
    305    485     1
    305    312     1
    306    485     1
    306    312     1
    307    498     1
    308    313     1
    308    497     1
    309    313     1
    309    497     1
    310    489     1
    310    490     1
    311    501     1
    311    502     1
    312    486     1
    313    498     1
    316    340     1
    316    324     1
    316    325     1
    316    327     1
    316    328     1
    317    339     1
    317    320     1
    317    321     1
    317    323     1
    317    326     1
    318    339     1
    318    320     1
    318    321     1
    318    323     1
    318    326     1
    320    322     1
    320    340     1
    321    322     1
    321    340     1
    322    333     1
    322    334     1
    322    330     1
    322    331     1
    323    327     1
    323    328     1
    324    326     1
    324    336     1
    324    333     1
    324    334     1
    325    326     1
    325    336     1
    325    333     1
    325    334     1
    327    335     1
    327    330     1
    327    331     1
    328    335     1
    328    330     1
    328    331     1
    329    510     1
    330    509     1
    330    337     1
    331    509     1
    331    337     1
    332    522     1
    333    521     1
    333    338     1
    334    521     1
    334    338     1
    335    513     1
    335    514     1
    336    525     1
    336    526     1
    337    510     1
    338    522     1
    341    347     1
    341    348     1
    342    344     1
    342    345     1
    342    346     1
    343    350     1
    343    351     1
    343    352     1
    345    349     1
    345    347     1
    345    348     1
    346    349     1
    346    347     1
    346    348     1
    347    350     1
    347    351     1
    347    352     1
    348    350     1
    348    351     1
    348    352     1
    353    359     1
    353    360     1
    354    356     1
    354    357     1
    354    358     1
    355    362     1
    355    363     1
    355    364     1
    357    361     1
    357    359     1
    357    360     1
    358    361     1
    358    359     1
    358    360     1
    359    362     1
    359    363     1
    359    364     1
    360    362     1
    360    363     1
    360    364     1
    365    371     1
    365    372     1
    366    368     1
    366    369     1
    366    370     1
    367    374     1
    367    375     1
    367    376     1
    369    373     1
    369    371     1
    369    372     1
    370    373     1
    370    371     1
    370    372     1
    371    374     1
    371    375     1
    371    376     1
    372    374     1
    372    375     1
    372    376     1
    377    383     1
    377    384     1
    378    380     1
    378    381     1
    378    382     1
    379    386     1
    379    387     1
    379    388     1
    381    385     1
    381    383     1
    381    384     1
    382    385     1
    382    383     1
    382    384     1
    383    386     1
    383    387     1
    383    388     1
    384    386     1
    384    387     1
    384    388     1
    389    395     1
    389    396     1
    390    392     1
    390    393     1
    390    394     1
    391    398     1
    391    399     1
    391    400     1
    393    397     1
    393    395     1
    393    396     1
    394    397     1
    394    395     1
    394    396     1
    395    398     1
    395    399     1
    395    400     1
    396    398     1
    396    399     1
    396    400     1
    401    407     1
    401    408     1
    402    404     1
    402    405     1
    402    406     1
    403    410     1
    403    411     1
    403    412     1
    405    409     1
    405    407     1
    405    408     1
    406    409     1
    406    407     1
    406    408     1
    407    410     1
    407    411     1
    407    412     1
    408    410     1
    408    411     1
    408    412     1
    413    419     1
    413    420     1
    414    416     1
    414    417     1
    414    418     1
    415    422     1
    415    423     1
    415    424     1
    417    421     1
    417    419     1
    417    420     1
    418    421     1
    418    419     1
    418    420     1
    419    422     1
    419    423     1
    419    424     1
    420    422     1
    420    423     1
    420    424     1
    425    431     1
    425    432     1
    426    428     1
    426    429     1
    426    430     1
    427    434     1
    427    435     1
    427    436     1
    429    433     1
    429    431     1
    429    432     1
    430    433     1
    430    431     1
    430    432     1
    431    434     1
    431    435     1
    431    436     1
    432    434     1
    432    435     1
    432    436     1
    437    443     1
    437    444     1
    438    440     1
    438    441     1
    438    442     1
    439    446     1
    439    447     1
    439    448     1
    441    445     1
    441    443     1
    441    444     1
    442    445     1
    442    443     1
    442    444     1
    443    446     1
    443    447     1
    443    448     1
    444    446     1
    444    447     1
    444    448     1
    449    455     1
    449    456     1
    450    452     1
    450    453     1
    450    454     1
    451    458     1
    451    459     1
    451    460     1
    453    457     1
    453    455     1
    453    456     1
    454    457     1
    454    455     1
    454    456     1
    455    458     1
    455    459     1
    455    460     1
    456    458     1
    456    459     1
    456    460     1
    461    467     1
    461    468     1
    462    464     1
    462    465     1
    462    466     1
    463    470     1
    463    471     1
    463    472     1
    465    469     1
    465    467     1
    465    468     1
    466    469     1
    466    467     1
    466    468     1
    467    470     1
    467    471     1
    467    472     1
    468    470     1
    468    471     1
    468    472     1
    473    479     1
    473    480     1
    474    476     1
    474    477     1
    474    478     1
    475    482     1
    475    483     1
    475    484     1
    477    481     1
    477    479     1
    477    480     1
    478    481     1
    478    479     1
    478    480     1
    479    482     1
    479    483     1
    479    484     1
    480    482     1
    480    483     1
    480    484     1
    485    491     1
    485    492     1
    486    488     1
    486    489     1
    486    490     1
    487    494     1
    487    495     1
    487    496     1
    489    493     1
    489    491     1
    489    492     1
    490    493     1
    490    491     1
    490    492     1
    491    494     1
    491    495     1
    491    496     1
    492    494     1
    492    495     1
    492    496     1
    497    503     1
    497    504     1
    498    500     1
    498    501     1
    498    502     1
    499    506     1
    499    507     1
    499    508     1
    501    505     1
    501    503     1
    501    504     1
    502    505     1
    502    503     1
    502    504     1
    503    506     1
    503    507     1
    503    508     1
    504    506     1
    504    507     1
    504    508     1
    509    515     1
    509    516     1
    510    512     1
    510    513     1
    510    514     1
    511    518     1
    511    519     1
    511    520     1
    513    517     1
    513    515     1
    513    516     1
    514    517     1
    514    515     1
    514    516     1
    515    518     1
    515    519     1
    515    520     1
    516    518     1
    516    519     1
    516    520     1
    521    527     1
    521    528     1
    522    524     1
    522    525     1
    522    526     1
    523    530     1
    523    531     1
    523    532     1
    525    529     1
    525    527     1
    525    528     1
    526    529     1
    526    527     1
    526    528     1
    527    530     1
    527    531     1
    527    532     1
    528    530     1
    528    531     1
    528    532     1

[ angles ]
;    ai     aj     ak funct         c0         c1         c2         c3
      1      4      7     1   111.0400475 552.288000
      1      8      9     1   112.3500484 533.878400
      1      8     12     1   112.3500484 533.878400
      4      1      8     1   111.0400475 552.288000
      4      7     15     1   112.3500484 533.878400
      4      7     18     1   112.3500484 533.878400
      7     15     21     1   111.0400475 552.288000
      7     18     24     1   111.0400475 552.288000
      8      9     30     1   111.0400475 552.288000
      8     12     27     1   111.0400475 552.288000
      9      8     12     1   112.3500484 533.878400
      9     30     34     1   111.0400475 529.694400
     12     27     33     1   111.0400475 529.694400
     15      7     18     1   112.3500484 533.878400
     15     21     35     1   111.0400475 529.694400
     18     24     36     1   111.0400475 529.694400
     21     35     38     1   123.2000528 564.003200
     21     35    114     1   115.1800491 558.982400
     24     36     39     1   123.2000528 564.003200
     24     36    139     1   115.1800491 558.982400
     27     33     37     1   123.2000528 564.003200
     27     33     64     1   115.1800491 558.982400
     30     34     40     1   123.2000528 564.003200
     30     34     89     1   115.1800491 558.982400
     33     64     44     1   120.6900519 530.531200
     34     89     69     1   120.6900519 530.531200
     35    114     94     1   120.6900519 530.531200
     36    139    119     1   120.6900519 530.531200
     37     33     64     1   123.0500530 620.905600
     38     35    114     1   123.0500530 620.905600
     39     36    139     1   123.0500530 620.905600
     40     34     89     1   123.0500530 620.905600
     41     44     64     1   111.6100477 551.451200
     41     47     48     1   112.3500484 533.878400
     41     47     51     1   112.3500484 533.878400
     44     41     47     1   111.0400475 552.288000
     47     48     57     1   111.0400475 552.288000
     47     51     54     1   111.0400475 552.288000
     48     47     51     1   112.3500484 533.878400
     48     57     61     1   111.0400475 529.694400
     51     54     60     1   111.0400475 529.694400
     54     60     62     1   123.2000528 564.003200
     54     60    164     1   115.1800491 558.982400
     57     61     63     1   123.2000528 564.003200
     57     61    189     1   115.1800491 558.982400
     60    164    144     1   120.6900519 530.531200
     61    189    169     1   120.6900519 530.531200
     62     60    164     1   123.0500530 620.905600
     63     61    189     1   123.0500530 620.905600
     66     69     89     1   111.6100477 551.451200
     66     72     73     1   112.3500484 533.878400
     66     72     76     1   112.3500484 533.878400
     69     66     72     1   111.0400475 552.288000
     72     73     82     1   111.0400475 552.288000
     72     76     79     1   111.0400475 552.288000
     73     72     76     1   112.3500484 533.878400
     73     82     86     1   111.0400475 529.694400
     76     79     85     1   111.0400475 529.694400
     79     85     87     1   123.2000528 564.003200
     79     85    214     1   115.1800491 558.982400
     82     86     88     1   123.2000528 564.003200
     82     86    239     1   115.1800491 558.982400
     85    214    194     1   120.6900519 530.531200
     86    239    219     1   120.6900519 530.531200
     87     85    214     1   123.0500530 620.905600
     88     86    239     1   123.0500530 620.905600
     91     94    114     1   111.6100477 551.451200
     91     97     98     1   112.3500484 533.878400
     91     97    101     1   112.3500484 533.878400
     94     91     97     1   111.0400475 552.288000
     97     98    107     1   111.0400475 552.288000
     97    101    104     1   111.0400475 552.288000
     98     97    101     1   112.3500484 533.878400
     98    107    111     1   111.0400475 529.694400
    101    104    110     1   111.0400475 529.694400
    104    110    112     1   123.2000528 564.003200
    104    110    264     1   115.1800491 558.982400
    107    111    113     1   123.2000528 564.003200
    107    111    289     1   115.1800491 558.982400
    110    264    244     1   120.6900519 530.531200
    111    289    269     1   120.6900519 530.531200
    112    110    264     1   123.0500530 620.905600
    113    111    289     1   123.0500530 620.905600
    116    119    139     1   111.6100477 551.451200
    116    122    123     1   112.3500484 533.878400
    116    122    126     1   112.3500484 533.878400
    119    116    122     1   111.0400475 552.288000
    122    123    132     1   111.0400475 552.288000
    122    126    129     1   111.0400475 552.288000
    123    122    126     1   112.3500484 533.878400
    123    132    136     1   111.0400475 529.694400
    126    129    135     1   111.0400475 529.694400
    129    135    137     1   123.2000528 564.003200
    129    135    314     1   115.1800491 558.982400
    132    136    138     1   123.2000528 564.003200
    132    136    339     1   115.1800491 558.982400
    135    314    294     1   120.6900519 530.531200
    136    339    319     1   120.6900519 530.531200
    137    135    314     1   123.0500530 620.905600
    138    136    339     1   123.0500530 620.905600
    141    144    164     1   111.6100477 551.451200
    141    147    148     1   112.3500484 533.878400
    141    147    151     1   112.3500484 533.878400
    144    141    147     1   111.0400475 552.288000
    147    148    157     1   111.0400475 552.288000
    147    151    154     1   111.0400475 552.288000
    148    147    151     1   112.3500484 533.878400
    148    157    161     1   111.0400475 529.694400
    151    154    160     1   111.0400475 529.694400
    154    160    341     1   115.1800491 558.982400
    154    160    162     1   123.2000528 564.003200
    157    161    163     1   123.2000528 564.003200
    157    161    353     1   115.1800491 558.982400
    160    341    343     1   120.6900519 530.531200
    161    353    355     1   120.6900519 530.531200
    162    160    341     1   123.0500530 620.905600
    163    161    353     1   123.0500530 620.905600
    166    169    189     1   111.6100477 551.451200
    166    172    173     1   112.3500484 533.878400
    166    172    176     1   112.3500484 533.878400
    169    166    172     1   111.0400475 552.288000
    172    173    182     1   111.0400475 552.288000
    172    176    179     1   111.0400475 552.288000
    173    172    176     1   112.3500484 533.878400
    173    182    186     1   111.0400475 529.694400
    176    179    185     1   111.0400475 529.694400
    179    185    365     1   115.1800491 558.982400
    179    185    187     1   123.2000528 564.003200
    182    186    188     1   123.2000528 564.003200
    182    186    377     1   115.1800491 558.982400
    185    365    367     1   120.6900519 530.531200
    186    377    379     1   120.6900519 530.531200
    187    185    365     1   123.0500530 620.905600
    188    186    377     1   123.0500530 620.905600
    191    194    214     1   111.6100477 551.451200
    191    197    198     1   112.3500484 533.878400
    191    197    201     1   112.3500484 533.878400
    194    191    197     1   111.0400475 552.288000
    197    198    207     1   111.0400475 552.288000
    197    201    204     1   111.0400475 552.288000
    198    197    201     1   112.3500484 533.878400
    198    207    211     1   111.0400475 529.694400
    201    204    210     1   111.0400475 529.694400
    204    210    389     1   115.1800491 558.982400
    204    210    212     1   123.2000528 564.003200
    207    211    213     1   123.2000528 564.003200
    207    211    401     1   115.1800491 558.982400
    210    389    391     1   120.6900519 530.531200
    211    401    403     1   120.6900519 530.531200
    212    210    389     1   123.0500530 620.905600
    213    211    401     1   123.0500530 620.905600
    216    219    239     1   111.6100477 551.451200
    216    222    223     1   112.3500484 533.878400
    216    222    226     1   112.3500484 533.878400
    219    216    222     1   111.0400475 552.288000
    222    223    232     1   111.0400475 552.288000
    222    226    229     1   111.0400475 552.288000
    223    222    226     1   112.3500484 533.878400
    223    232    236     1   111.0400475 529.694400
    226    229    235     1   111.0400475 529.694400
    229    235    413     1   115.1800491 558.982400
    229    235    237     1   123.2000528 564.003200
    232    236    238     1   123.2000528 564.003200
    232    236    425     1   115.1800491 558.982400
    235    413    415     1   120.6900519 530.531200
    236    425    427     1   120.6900519 530.531200
    237    235    413     1   123.0500530 620.905600
    238    236    425     1   123.0500530 620.905600
    241    244    264     1   111.6100477 551.451200
    241    247    248     1   112.3500484 533.878400
    241    247    251     1   112.3500484 533.878400
    244    241    247     1   111.0400475 552.288000
    247    248    257     1   111.0400475 552.288000
    247    251    254     1   111.0400475 552.288000
    248    247    251     1   112.3500484 533.878400
    248    257    261     1   111.0400475 529.694400
    251    254    260     1   111.0400475 529.694400
    254    260    437     1   115.1800491 558.982400
    254    260    262     1   123.2000528 564.003200
    257    261    263     1   123.2000528 564.003200
    257    261    449     1   115.1800491 558.982400
    260    437    439     1   120.6900519 530.531200
    261    449    451     1   120.6900519 530.531200
    262    260    437     1   123.0500530 620.905600
    263    261    449     1   123.0500530 620.905600
    266    269    289     1   111.6100477 551.451200
    266    272    273     1   112.3500484 533.878400
    266    272    276     1   112.3500484 533.878400
    269    266    272     1   111.0400475 552.288000
    272    273    282     1   111.0400475 552.288000
    272    276    279     1   111.0400475 552.288000
    273    272    276     1   112.3500484 533.878400
    273    282    286     1   111.0400475 529.694400
    276    279    285     1   111.0400475 529.694400
    279    285    461     1   115.1800491 558.982400
    279    285    287     1   123.2000528 564.003200
    282    286    288     1   123.2000528 564.003200
    282    286    473     1   115.1800491 558.982400
    285    461    463     1   120.6900519 530.531200
    286    473    475     1   120.6900519 530.531200
    287    285    461     1   123.0500530 620.905600
    288    286    473     1   123.0500530 620.905600
    291    294    314     1   111.6100477 551.451200
    291    297    298     1   112.3500484 533.878400
    291    297    301     1   112.3500484 533.878400
    294    291    297     1   111.0400475 552.288000
    297    298    307     1   111.0400475 552.288000
    297    301    304     1   111.0400475 552.288000
    298    297    301     1   112.3500484 533.878400
    298    307    311     1   111.0400475 529.694400
    301    304    310     1   111.0400475 529.694400
    304    310    485     1   115.1800491 558.982400
    304    310    312     1   123.2000528 564.003200
    307    311    313     1   123.2000528 564.003200
    307    311    497     1   115.1800491 558.982400
    310    485    487     1   120.6900519 530.531200
    311    497    499     1   120.6900519 530.531200
    312    310    485     1   123.0500530 620.905600
    313    311    497     1   123.0500530 620.905600
    316    319    339     1   111.6100477 551.451200
    316    322    323     1   112.3500484 533.878400
    316    322    326     1   112.3500484 533.878400
    319    316    322     1   111.0400475 552.288000
    322    323    332     1   111.0400475 552.288000
    322    326    329     1   111.0400475 552.288000
    323    322    326     1   112.3500484 533.878400
    323    332    336     1   111.0400475 529.694400
    326    329    335     1   111.0400475 529.694400
    329    335    509     1   115.1800491 558.982400
    329    335    337     1   123.2000528 564.003200
    332    336    521     1   115.1800491 558.982400
    332    336    338     1   123.2000528 564.003200
    335    509    511     1   120.6900519 530.531200
    336    521    523     1   120.6900519 530.531200
    337    335    509     1   123.0500530 620.905600
    338    336    521     1   123.0500530 620.905600
    341    343    344     1   111.6100477 551.451200
    343    344    349     1   114.2100488 537.225600
    353    355    356     1   111.6100477 551.451200
    355    356    361     1   114.2100488 537.225600
    365    367    368     1   111.6100477 551.451200
    367    368    373     1   114.2100488 537.225600
    377    379    380     1   111.6100477 551.451200
    379    380    385     1   114.2100488 537.225600
    389    391    392     1   111.6100477 551.451200
    391    392    397     1   114.2100488 537.225600
    401    403    404     1   111.6100477 551.451200
    403    404    409     1   114.2100488 537.225600
    413    415    416     1   111.6100477 551.451200
    415    416    421     1   114.2100488 537.225600
    425    427    428     1   111.6100477 551.451200
    427    428    433     1   114.2100488 537.225600
    437    439    440     1   111.6100477 551.451200
    439    440    445     1   114.2100488 537.225600
    449    451    452     1   111.6100477 551.451200
    451    452    457     1   114.2100488 537.225600
    461    463    464     1   111.6100477 551.451200
    463    464    469     1   114.2100488 537.225600
    473    475    476     1   111.6100477 551.451200
    475    476    481     1   114.2100488 537.225600
    485    487    488     1   111.6100477 551.451200
    487    488    493     1   114.2100488 537.225600
    497    499    500     1   111.6100477 551.451200
    499    500    505     1   114.2100488 537.225600
    509    511    512     1   111.6100477 551.451200
    511    512    517     1   114.2100488 537.225600
    521    523    524     1   111.6100477 551.451200
    523    524    529     1   114.2100488 537.225600
      1      4      5     1   109.5600471 388.275200
      1      4      6     1   109.5600471 388.275200
      2      1      4     1   109.5600471 388.275200
      2      1      8     1   109.8800469 414.216000
      2      1      3     1   108.4600466 328.025600
      3      1      4     1   109.5600471 388.275200
      3      1      8     1   109.8800469 414.216000
      5      4      7     1   109.8800469 414.216000
      5      4      6     1   108.4600466 328.025600
      6      4      7     1   109.8800469 414.216000
      7     15     16     1   109.8800469 414.216000
      7     15     17     1   109.8800469 414.216000
      7     18     19     1   109.8800469 414.216000
      7     18     20     1   109.8800469 414.216000
      8      9     10     1   109.8800469 414.216000
      8      9     11     1   109.8800469 414.216000
      8     12     13     1   109.8800469 414.216000
      8     12     14     1   109.8800469 414.216000
      9     30     31     1   109.8000471 387.438400
      9     30     32     1   109.8000471 387.438400
     10      9     30     1   109.5600471 388.275200
     10      9     11     1   108.4600466 328.025600
     11      9     30     1   109.5600471 388.275200
     12     27     28     1   109.8000471 387.438400
     12     27     29     1   109.8000471 387.438400
     13     12     27     1   109.5600471 388.275200
     13     12     14     1   108.4600466 328.025600
     14     12     27     1   109.5600471 388.275200
     15     21     22     1   109.8000471 387.438400
     15     21     23     1   109.8000471 387.438400
     16     15     21     1   109.5600471 388.275200
     16     15     17     1   108.4600466 328.025600
     17     15     21     1   109.5600471 388.275200
     18     24     25     1   109.8000471 387.438400
     18     24     26     1   109.8000471 387.438400
     19     18     24     1   109.5600471 388.275200
     19     18     20     1   108.4600466 328.025600
     20     18     24     1   109.5600471 388.275200
     22     21     35     1   108.7700466 392.459200
     22     21     23     1   107.5800459 329.699200
     23     21     35     1   108.7700466 392.459200
     25     24     36     1   108.7700466 392.459200
     25     24     26     1   107.5800459 329.699200
     26     24     36     1   108.7700466 392.459200
     28     27     33     1   108.7700466 392.459200
     28     27     29     1   107.5800459 329.699200
     29     27     33     1   108.7700466 392.459200
     31     30     34     1   108.7700466 392.459200
     31     30     32     1   107.5800459 329.699200
     32     30     34     1   108.7700466 392.459200
     33     64     65     1   117.5500507 404.174400
     34     89     90     1   117.5500507 404.174400
     35    114    115     1   117.5500507 404.174400
     36    139    140     1   117.5500507 404.174400
     41     44     45     1   109.5600471 388.275200
     41     44     46     1   109.5600471 388.275200
     42     41     44     1   109.5600471 388.275200
     42     41     47     1   109.8800469 414.216000
     42     41     43     1   108.4600466 328.025600
     43     41     44     1   109.5600471 388.275200
     43     41     47     1   109.8800469 414.216000
     44     64     65     1   117.6800502 383.254400
     45     44     64     1   108.8800464 416.726400
     45     44     46     1   108.4600466 328.025600
     46     44     64     1   108.8800464 416.726400
     47     48     49     1   109.8800469 414.216000
     47     48     50     1   109.8800469 414.216000
     47     51     52     1   109.8800469 414.216000
     47     51     53     1   109.8800469 414.216000
     48     57     58     1   109.8000471 387.438400
     48     57     59     1   109.8000471 387.438400
     49     48     57     1   109.5600471 388.275200
     49     48     50     1   108.4600466 328.025600
     50     48     57     1   109.5600471 388.275200
     51     54     55     1   109.8000471 387.438400
     51     54     56     1   109.8000471 387.438400
     52     51     54     1   109.5600471 388.275200
     52     51     53     1   108.4600466 328.025600
     53     51     54     1   109.5600471 388.275200
     55     54     60     1   108.7700466 392.459200
     55     54     56     1   107.5800459 329.699200
     56     54     60     1   108.7700466 392.459200
     58     57     61     1   108.7700466 392.459200
     58     57     59     1   107.5800459 329.699200
     59     57     61     1   108.7700466 392.459200
     60    164    165     1   117.5500507 404.174400
     61    189    190     1   117.5500507 404.174400
     66     69     70     1   109.5600471 388.275200
     66     69     71     1   109.5600471 388.275200
     67     66     69     1   109.5600471 388.275200
     67     66     72     1   109.8800469 414.216000
     67     66     68     1   108.4600466 328.025600
     68     66     69     1   109.5600471 388.275200
     68     66     72     1   109.8800469 414.216000
     69     89     90     1   117.6800502 383.254400
     70     69     89     1   108.8800464 416.726400
     70     69     71     1   108.4600466 328.025600
     71     69     89     1   108.8800464 416.726400
     72     73     74     1   109.8800469 414.216000
     72     73     75     1   109.8800469 414.216000
     72     76     77     1   109.8800469 414.216000
     72     76     78     1   109.8800469 414.216000
     73     82     83     1   109.8000471 387.438400
     73     82     84     1   109.8000471 387.438400
     74     73     82     1   109.5600471 388.275200
     74     73     75     1   108.4600466 328.025600
     75     73     82     1   109.5600471 388.275200
     76     79     80     1   109.8000471 387.438400
     76     79     81     1   109.8000471 387.438400
     77     76     79     1   109.5600471 388.275200
     77     76     78     1   108.4600466 328.025600
     78     76     79     1   109.5600471 388.275200
     80     79     85     1   108.7700466 392.459200
     80     79     81     1   107.5800459 329.699200
     81     79     85     1   108.7700466 392.459200
     83     82     86     1   108.7700466 392.459200
     83     82     84     1   107.5800459 329.699200
     84     82     86     1   108.7700466 392.459200
     85    214    215     1   117.5500507 404.174400
     86    239    240     1   117.5500507 404.174400
     91     94     95     1   109.5600471 388.275200
     91     94     96     1   109.5600471 388.275200
     92     91     94     1   109.5600471 388.275200
     92     91     97     1   109.8800469 414.216000
     92     91     93     1   108.4600466 328.025600
     93     91     94     1   109.5600471 388.275200
     93     91     97     1   109.8800469 414.216000
     94    114    115     1   117.6800502 383.254400
     95     94    114     1   108.8800464 416.726400
     95     94     96     1   108.4600466 328.025600
     96     94    114     1   108.8800464 416.726400
     97     98     99     1   109.8800469 414.216000
     97     98    100     1   109.8800469 414.216000
     97    101    102     1   109.8800469 414.216000
     97    101    103     1   109.8800469 414.216000
     98    107    108     1   109.8000471 387.438400
     98    107    109     1   109.8000471 387.438400
     99     98    107     1   109.5600471 388.275200
     99     98    100     1   108.4600466 328.025600
    100     98    107     1   109.5600471 388.275200
    101    104    105     1   109.8000471 387.438400
    101    104    106     1   109.8000471 387.438400
    102    101    104     1   109.5600471 388.275200
    102    101    103     1   108.4600466 328.025600
    103    101    104     1   109.5600471 388.275200
    105    104    110     1   108.7700466 392.459200
    105    104    106     1   107.5800459 329.699200
    106    104    110     1   108.7700466 392.459200
    108    107    111     1   108.7700466 392.459200
    108    107    109     1   107.5800459 329.699200
    109    107    111     1   108.7700466 392.459200
    110    264    265     1   117.5500507 404.174400
    111    289    290     1   117.5500507 404.174400
    116    119    120     1   109.5600471 388.275200
    116    119    121     1   109.5600471 388.275200
    117    116    119     1   109.5600471 388.275200
    117    116    122     1   109.8800469 414.216000
    117    116    118     1   108.4600466 328.025600
    118    116    119     1   109.5600471 388.275200
    118    116    122     1   109.8800469 414.216000
    119    139    140     1   117.6800502 383.254400
    120    119    139     1   108.8800464 416.726400
    120    119    121     1   108.4600466 328.025600
    121    119    139     1   108.8800464 416.726400
    122    123    124     1   109.8800469 414.216000
    122    123    125     1   109.8800469 414.216000
    122    126    127     1   109.8800469 414.216000
    122    126    128     1   109.8800469 414.216000
    123    132    133     1   109.8000471 387.438400
    123    132    134     1   109.8000471 387.438400
    124    123    132     1   109.5600471 388.275200
    124    123    125     1   108.4600466 328.025600
    125    123    132     1   109.5600471 388.275200
    126    129    130     1   109.8000471 387.438400
    126    129    131     1   109.8000471 387.438400
    127    126    129     1   109.5600471 388.275200
    127    126    128     1   108.4600466 328.025600
    128    126    129     1   109.5600471 388.275200
    130    129    135     1   108.7700466 392.459200
    130    129    131     1   107.5800459 329.699200
    131    129    135     1   108.7700466 392.459200
    133    132    136     1   108.7700466 392.459200
    133    132    134     1   107.5800459 329.699200
    134    132    136     1   108.7700466 392.459200
    135    314    315     1   117.5500507 404.174400
    136    339    340     1   117.5500507 404.174400
    141    144    145     1   109.5600471 388.275200
    141    144    146     1   109.5600471 388.275200
    142    141    144     1   109.5600471 388.275200
    142    141    147     1   109.8800469 414.216000
    142    141    143     1   108.4600466 328.025600
    143    141    144     1   109.5600471 388.275200
    143    141    147     1   109.8800469 414.216000
    144    164    165     1   117.6800502 383.254400
    145    144    164     1   108.8800464 416.726400
    145    144    146     1   108.4600466 328.025600
    146    144    164     1   108.8800464 416.726400
    147    148    149     1   109.8800469 414.216000
    147    148    150     1   109.8800469 414.216000
    147    151    152     1   109.8800469 414.216000
    147    151    153     1   109.8800469 414.216000
    148    157    158     1   109.8000471 387.438400
    148    157    159     1   109.8000471 387.438400
    149    148    157     1   109.5600471 388.275200
    149    148    150     1   108.4600466 328.025600
    150    148    157     1   109.5600471 388.275200
    151    154    155     1   109.8000471 387.438400
    151    154    156     1   109.8000471 387.438400
    152    151    154     1   109.5600471 388.275200
    152    151    153     1   108.4600466 328.025600
    153    151    154     1   109.5600471 388.275200
    155    154    160     1   108.7700466 392.459200
    155    154    156     1   107.5800459 329.699200
    156    154    160     1   108.7700466 392.459200
    158    157    161     1   108.7700466 392.459200
    158    157    159     1   107.5800459 329.699200
    159    157    161     1   108.7700466 392.459200
    160    341    342     1   117.5500507 404.174400
    161    353    354     1   117.5500507 404.174400
    166    169    170     1   109.5600471 388.275200
    166    169    171     1   109.5600471 388.275200
    167    166    169     1   109.5600471 388.275200
    167    166    172     1   109.8800469 414.216000
    167    166    168     1   108.4600466 328.025600
    168    166    169     1   109.5600471 388.275200
    168    166    172     1   109.8800469 414.216000
    169    189    190     1   117.6800502 383.254400
    170    169    189     1   108.8800464 416.726400
    170    169    171     1   108.4600466 328.025600
    171    169    189     1   108.8800464 416.726400
    172    173    174     1   109.8800469 414.216000
    172    173    175     1   109.8800469 414.216000
    172    176    177     1   109.8800469 414.216000
    172    176    178     1   109.8800469 414.216000
    173    182    183     1   109.8000471 387.438400
    173    182    184     1   109.8000471 387.438400
    174    173    182     1   109.5600471 388.275200
    174    173    175     1   108.4600466 328.025600
    175    173    182     1   109.5600471 388.275200
    176    179    180     1   109.8000471 387.438400
    176    179    181     1   109.8000471 387.438400
    177    176    179     1   109.5600471 388.275200
    177    176    178     1   108.4600466 328.025600
    178    176    179     1   109.5600471 388.275200
    180    179    185     1   108.7700466 392.459200
    180    179    181     1   107.5800459 329.699200
    181    179    185     1   108.7700466 392.459200
    183    182    186     1   108.7700466 392.459200
    183    182    184     1   107.5800459 329.699200
    184    182    186     1   108.7700466 392.459200
    185    365    366     1   117.5500507 404.174400
    186    377    378     1   117.5500507 404.174400
    191    194    195     1   109.5600471 388.275200
    191    194    196     1   109.5600471 388.275200
    192    191    194     1   109.5600471 388.275200
    192    191    197     1   109.8800469 414.216000
    192    191    193     1   108.4600466 328.025600
    193    191    194     1   109.5600471 388.275200
    193    191    197     1   109.8800469 414.216000
    194    214    215     1   117.6800502 383.254400
    195    194    214     1   108.8800464 416.726400
    195    194    196     1   108.4600466 328.025600
    196    194    214     1   108.8800464 416.726400
    197    198    199     1   109.8800469 414.216000
    197    198    200     1   109.8800469 414.216000
    197    201    202     1   109.8800469 414.216000
    197    201    203     1   109.8800469 414.216000
    198    207    208     1   109.8000471 387.438400
    198    207    209     1   109.8000471 387.438400
    199    198    207     1   109.5600471 388.275200
    199    198    200     1   108.4600466 328.025600
    200    198    207     1   109.5600471 388.275200
    201    204    205     1   109.8000471 387.438400
    201    204    206     1   109.8000471 387.438400
    202    201    204     1   109.5600471 388.275200
    202    201    203     1   108.4600466 328.025600
    203    201    204     1   109.5600471 388.275200
    205    204    210     1   108.7700466 392.459200
    205    204    206     1   107.5800459 329.699200
    206    204    210     1   108.7700466 392.459200
    208    207    211     1   108.7700466 392.459200
    208    207    209     1   107.5800459 329.699200
    209    207    211     1   108.7700466 392.459200
    210    389    390     1   117.5500507 404.174400
    211    401    402     1   117.5500507 404.174400
    216    219    220     1   109.5600471 388.275200
    216    219    221     1   109.5600471 388.275200
    217    216    219     1   109.5600471 388.275200
    217    216    222     1   109.8800469 414.216000
    217    216    218     1   108.4600466 328.025600
    218    216    219     1   109.5600471 388.275200
    218    216    222     1   109.8800469 414.216000
    219    239    240     1   117.6800502 383.254400
    220    219    239     1   108.8800464 416.726400
    220    219    221     1   108.4600466 328.025600
    221    219    239     1   108.8800464 416.726400
    222    223    224     1   109.8800469 414.216000
    222    223    225     1   109.8800469 414.216000
    222    226    227     1   109.8800469 414.216000
    222    226    228     1   109.8800469 414.216000
    223    232    233     1   109.8000471 387.438400
    223    232    234     1   109.8000471 387.438400
    224    223    232     1   109.5600471 388.275200
    224    223    225     1   108.4600466 328.025600
    225    223    232     1   109.5600471 388.275200
    226    229    230     1   109.8000471 387.438400
    226    229    231     1   109.8000471 387.438400
    227    226    229     1   109.5600471 388.275200
    227    226    228     1   108.4600466 328.025600
    228    226    229     1   109.5600471 388.275200
    230    229    235     1   108.7700466 392.459200
    230    229    231     1   107.5800459 329.699200
    231    229    235     1   108.7700466 392.459200
    233    232    236     1   108.7700466 392.459200
    233    232    234     1   107.5800459 329.699200
    234    232    236     1   108.7700466 392.459200
    235    413    414     1   117.5500507 404.174400
    236    425    426     1   117.5500507 404.174400
    241    244    245     1   109.5600471 388.275200
    241    244    246     1   109.5600471 388.275200
    242    241    244     1   109.5600471 388.275200
    242    241    247     1   109.8800469 414.216000
    242    241    243     1   108.4600466 328.025600
    243    241    244     1   109.5600471 388.275200
    243    241    247     1   109.8800469 414.216000
    244    264    265     1   117.6800502 383.254400
    245    244    264     1   108.8800464 416.726400
    245    244    246     1   108.4600466 328.025600
    246    244    264     1   108.8800464 416.726400
    247    248    249     1   109.8800469 414.216000
    247    248    250     1   109.8800469 414.216000
    247    251    252     1   109.8800469 414.216000
    247    251    253     1   109.8800469 414.216000
    248    257    258     1   109.8000471 387.438400
    248    257    259     1   109.8000471 387.438400
    249    248    257     1   109.5600471 388.275200
    249    248    250     1   108.4600466 328.025600
    250    248    257     1   109.5600471 388.275200
    251    254    255     1   109.8000471 387.438400
    251    254    256     1   109.8000471 387.438400
    252    251    254     1   109.5600471 388.275200
    252    251    253     1   108.4600466 328.025600
    253    251    254     1   109.5600471 388.275200
    255    254    260     1   108.7700466 392.459200
    255    254    256     1   107.5800459 329.699200
    256    254    260     1   108.7700466 392.459200
    258    257    261     1   108.7700466 392.459200
    258    257    259     1   107.5800459 329.699200
    259    257    261     1   108.7700466 392.459200
    260    437    438     1   117.5500507 404.174400
    261    449    450     1   117.5500507 404.174400
    266    269    270     1   109.5600471 388.275200
    266    269    271     1   109.5600471 388.275200
    267    266    269     1   109.5600471 388.275200
    267    266    272     1   109.8800469 414.216000
    267    266    268     1   108.4600466 328.025600
    268    266    269     1   109.5600471 388.275200
    268    266    272     1   109.8800469 414.216000
    269    289    290     1   117.6800502 383.254400
    270    269    289     1   108.8800464 416.726400
    270    269    271     1   108.4600466 328.025600
    271    269    289     1   108.8800464 416.726400
    272    273    274     1   109.8800469 414.216000
    272    273    275     1   109.8800469 414.216000
    272    276    277     1   109.8800469 414.216000
    272    276    278     1   109.8800469 414.216000
    273    282    283     1   109.8000471 387.438400
    273    282    284     1   109.8000471 387.438400
    274    273    282     1   109.5600471 388.275200
    274    273    275     1   108.4600466 328.025600
    275    273    282     1   109.5600471 388.275200
    276    279    280     1   109.8000471 387.438400
    276    279    281     1   109.8000471 387.438400
    277    276    279     1   109.5600471 388.275200
    277    276    278     1   108.4600466 328.025600
    278    276    279     1   109.5600471 388.275200
    280    279    285     1   108.7700466 392.459200
    280    279    281     1   107.5800459 329.699200
    281    279    285     1   108.7700466 392.459200
    283    282    286     1   108.7700466 392.459200
    283    282    284     1   107.5800459 329.699200
    284    282    286     1   108.7700466 392.459200
    285    461    462     1   117.5500507 404.174400
    286    473    474     1   117.5500507 404.174400
    291    294    295     1   109.5600471 388.275200
    291    294    296     1   109.5600471 388.275200
    292    291    294     1   109.5600471 388.275200
    292    291    297     1   109.8800469 414.216000
    292    291    293     1   108.4600466 328.025600
    293    291    294     1   109.5600471 388.275200
    293    291    297     1   109.8800469 414.216000
    294    314    315     1   117.6800502 383.254400
    295    294    314     1   108.8800464 416.726400
    295    294    296     1   108.4600466 328.025600
    296    294    314     1   108.8800464 416.726400
    297    298    299     1   109.8800469 414.216000
    297    298    300     1   109.8800469 414.216000
    297    301    302     1   109.8800469 414.216000
    297    301    303     1   109.8800469 414.216000
    298    307    308     1   109.8000471 387.438400
    298    307    309     1   109.8000471 387.438400
    299    298    307     1   109.5600471 388.275200
    299    298    300     1   108.4600466 328.025600
    300    298    307     1   109.5600471 388.275200
    301    304    305     1   109.8000471 387.438400
    301    304    306     1   109.8000471 387.438400
    302    301    304     1   109.5600471 388.275200
    302    301    303     1   108.4600466 328.025600
    303    301    304     1   109.5600471 388.275200
    305    304    310     1   108.7700466 392.459200
    305    304    306     1   107.5800459 329.699200
    306    304    310     1   108.7700466 392.459200
    308    307    311     1   108.7700466 392.459200
    308    307    309     1   107.5800459 329.699200
    309    307    311     1   108.7700466 392.459200
    310    485    486     1   117.5500507 404.174400
    311    497    498     1   117.5500507 404.174400
    316    319    320     1   109.5600471 388.275200
    316    319    321     1   109.5600471 388.275200
    317    316    319     1   109.5600471 388.275200
    317    316    322     1   109.8800469 414.216000
    317    316    318     1   108.4600466 328.025600
    318    316    319     1   109.5600471 388.275200
    318    316    322     1   109.8800469 414.216000
    319    339    340     1   117.6800502 383.254400
    320    319    339     1   108.8800464 416.726400
    320    319    321     1   108.4600466 328.025600
    321    319    339     1   108.8800464 416.726400
    322    323    324     1   109.8800469 414.216000
    322    323    325     1   109.8800469 414.216000
    322    326    327     1   109.8800469 414.216000
    322    326    328     1   109.8800469 414.216000
    323    332    333     1   109.8000471 387.438400
    323    332    334     1   109.8000471 387.438400
    324    323    332     1   109.5600471 388.275200
    324    323    325     1   108.4600466 328.025600
    325    323    332     1   109.5600471 388.275200
    326    329    330     1   109.8000471 387.438400
    326    329    331     1   109.8000471 387.438400
    327    326    329     1   109.5600471 388.275200
    327    326    328     1   108.4600466 328.025600
    328    326    329     1   109.5600471 388.275200
    330    329    335     1   108.7700466 392.459200
    330    329    331     1   107.5800459 329.699200
    331    329    335     1   108.7700466 392.459200
    333    332    336     1   108.7700466 392.459200
    333    332    334     1   107.5800459 329.699200
    334    332    336     1   108.7700466 392.459200
    335    509    510     1   117.5500507 404.174400
    336    521    522     1   117.5500507 404.174400
    341    343    345     1   108.8800464 416.726400
    341    343    346     1   108.8800464 416.726400
    342    341    343     1   117.6800502 383.254400
    343    344    347     1   110.5600475 386.601600
    343    344    348     1   110.5600475 386.601600
    344    343    345     1   109.5600471 388.275200
    344    343    346     1   109.5600471 388.275200
    344    349    350     1   110.1100470 384.091200
    344    349    351     1   110.1100470 384.091200
    344    349    352     1   110.1100470 384.091200
    345    343    346     1   108.4600466 328.025600
    347    344    349     1   108.0100461 406.684800
    347    344    348     1   109.7500473 328.025600
    348    344    349     1   108.0100461 406.684800
    350    349    351     1   108.3000464 339.740800
    350    349    352     1   108.3000464 339.740800
    351    349    352     1   108.3000464 339.740800
    353    355    357     1   108.8800464 416.726400
    353    355    358     1   108.8800464 416.726400
    354    353    355     1   117.6800502 383.254400
    355    356    359     1   110.5600475 386.601600
    355    356    360     1   110.5600475 386.601600
    356    361    362     1   110.1100470 384.091200
    356    361    363     1   110.1100470 384.091200
    356    361    364     1   110.1100470 384.091200
    356    355    357     1   109.5600471 388.275200
    356    355    358     1   109.5600471 388.275200
    357    355    358     1   108.4600466 328.025600
    359    356    361     1   108.0100461 406.684800
    359    356    360     1   109.7500473 328.025600
    360    356    361     1   108.0100461 406.684800
    362    361    363     1   108.3000464 339.740800
    362    361    364     1   108.3000464 339.740800
    363    361    364     1   108.3000464 339.740800
    365    367    369     1   108.8800464 416.726400
    365    367    370     1   108.8800464 416.726400
    366    365    367     1   117.6800502 383.254400
    367    368    371     1   110.5600475 386.601600
    367    368    372     1   110.5600475 386.601600
    368    367    369     1   109.5600471 388.275200
    368    367    370     1   109.5600471 388.275200
    368    373    374     1   110.1100470 384.091200
    368    373    375     1   110.1100470 384.091200
    368    373    376     1   110.1100470 384.091200
    369    367    370     1   108.4600466 328.025600
    371    368    373     1   108.0100461 406.684800
    371    368    372     1   109.7500473 328.025600
    372    368    373     1   108.0100461 406.684800
    374    373    375     1   108.3000464 339.740800
    374    373    376     1   108.3000464 339.740800
    375    373    376     1   108.3000464 339.740800
    377    379    381     1   108.8800464 416.726400
    377    379    382     1   108.8800464 416.726400
    378    377    379     1   117.6800502 383.254400
    379    380    383     1   110.5600475 386.601600
    379    380    384     1   110.5600475 386.601600
    380    385    386     1   110.1100470 384.091200
    380    385    387     1   110.1100470 384.091200
    380    385    388     1   110.1100470 384.091200
    380    379    381     1   109.5600471 388.275200
    380    379    382     1   109.5600471 388.275200
    381    379    382     1   108.4600466 328.025600
    383    380    385     1   108.0100461 406.684800
    383    380    384     1   109.7500473 328.025600
    384    380    385     1   108.0100461 406.684800
    386    385    387     1   108.3000464 339.740800
    386    385    388     1   108.3000464 339.740800
    387    385    388     1   108.3000464 339.740800
    389    391    393     1   108.8800464 416.726400
    389    391    394     1   108.8800464 416.726400
    390    389    391     1   117.6800502 383.254400
    391    392    395     1   110.5600475 386.601600
    391    392    396     1   110.5600475 386.601600
    392    391    393     1   109.5600471 388.275200
    392    391    394     1   109.5600471 388.275200
    392    397    398     1   110.1100470 384.091200
    392    397    399     1   110.1100470 384.091200
    392    397    400     1   110.1100470 384.091200
    393    391    394     1   108.4600466 328.025600
    395    392    397     1   108.0100461 406.684800
    395    392    396     1   109.7500473 328.025600
    396    392    397     1   108.0100461 406.684800
    398    397    399     1   108.3000464 339.740800
    398    397    400     1   108.3000464 339.740800
    399    397    400     1   108.3000464 339.740800
    401    403    405     1   108.8800464 416.726400
    401    403    406     1   108.8800464 416.726400
    402    401    403     1   117.6800502 383.254400
    403    404    407     1   110.5600475 386.601600
    403    404    408     1   110.5600475 386.601600
    404    409    410     1   110.1100470 384.091200
    404    409    411     1   110.1100470 384.091200
    404    409    412     1   110.1100470 384.091200
    404    403    405     1   109.5600471 388.275200
    404    403    406     1   109.5600471 388.275200
    405    403    406     1   108.4600466 328.025600
    407    404    409     1   108.0100461 406.684800
    407    404    408     1   109.7500473 328.025600
    408    404    409     1   108.0100461 406.684800
    410    409    411     1   108.3000464 339.740800
    410    409    412     1   108.3000464 339.740800
    411    409    412     1   108.3000464 339.740800
    413    415    417     1   108.8800464 416.726400
    413    415    418     1   108.8800464 416.726400
    414    413    415     1   117.6800502 383.254400
    415    416    419     1   110.5600475 386.601600
    415    416    420     1   110.5600475 386.601600
    416    415    417     1   109.5600471 388.275200
    416    415    418     1   109.5600471 388.275200
    416    421    422     1   110.1100470 384.091200
    416    421    423     1   110.1100470 384.091200
    416    421    424     1   110.1100470 384.091200
    417    415    418     1   108.4600466 328.025600
    419    416    421     1   108.0100461 406.684800
    419    416    420     1   109.7500473 328.025600
    420    416    421     1   108.0100461 406.684800
    422    421    423     1   108.3000464 339.740800
    422    421    424     1   108.3000464 339.740800
    423    421    424     1   108.3000464 339.740800
    425    427    429     1   108.8800464 416.726400
    425    427    430     1   108.8800464 416.726400
    426    425    427     1   117.6800502 383.254400
    427    428    431     1   110.5600475 386.601600
    427    428    432     1   110.5600475 386.601600
    428    433    434     1   110.1100470 384.091200
    428    433    435     1   110.1100470 384.091200
    428    433    436     1   110.1100470 384.091200
    428    427    429     1   109.5600471 388.275200
    428    427    430     1   109.5600471 388.275200
    429    427    430     1   108.4600466 328.025600
    431    428    433     1   108.0100461 406.684800
    431    428    432     1   109.7500473 328.025600
    432    428    433     1   108.0100461 406.684800
    434    433    435     1   108.3000464 339.740800
    434    433    436     1   108.3000464 339.740800
    435    433    436     1   108.3000464 339.740800
    437    439    441     1   108.8800464 416.726400
    437    439    442     1   108.8800464 416.726400
    438    437    439     1   117.6800502 383.254400
    439    440    443     1   110.5600475 386.601600
    439    440    444     1   110.5600475 386.601600
    440    439    441     1   109.5600471 388.275200
    440    439    442     1   109.5600471 388.275200
    440    445    446     1   110.1100470 384.091200
    440    445    447     1   110.1100470 384.091200
    440    445    448     1   110.1100470 384.091200
    441    439    442     1   108.4600466 328.025600
    443    440    445     1   108.0100461 406.684800
    443    440    444     1   109.7500473 328.025600
    444    440    445     1   108.0100461 406.684800
    446    445    447     1   108.3000464 339.740800
    446    445    448     1   108.3000464 339.740800
    447    445    448     1   108.3000464 339.740800
    449    451    453     1   108.8800464 416.726400
    449    451    454     1   108.8800464 416.726400
    450    449    451     1   117.6800502 383.254400
    451    452    455     1   110.5600475 386.601600
    451    452    456     1   110.5600475 386.601600
    452    457    458     1   110.1100470 384.091200
    452    457    459     1   110.1100470 384.091200
    452    457    460     1   110.1100470 384.091200
    452    451    453     1   109.5600471 388.275200
    452    451    454     1   109.5600471 388.275200
    453    451    454     1   108.4600466 328.025600
    455    452    457     1   108.0100461 406.684800
    455    452    456     1   109.7500473 328.025600
    456    452    457     1   108.0100461 406.684800
    458    457    459     1   108.3000464 339.740800
    458    457    460     1   108.3000464 339.740800
    459    457    460     1   108.3000464 339.740800
    461    463    465     1   108.8800464 416.726400
    461    463    466     1   108.8800464 416.726400
    462    461    463     1   117.6800502 383.254400
    463    464    467     1   110.5600475 386.601600
    463    464    468     1   110.5600475 386.601600
    464    463    465     1   109.5600471 388.275200
    464    463    466     1   109.5600471 388.275200
    464    469    470     1   110.1100470 384.091200
    464    469    471     1   110.1100470 384.091200
    464    469    472     1   110.1100470 384.091200
    465    463    466     1   108.4600466 328.025600
    467    464    469     1   108.0100461 406.684800
    467    464    468     1   109.7500473 328.025600
    468    464    469     1   108.0100461 406.684800
    470    469    471     1   108.3000464 339.740800
    470    469    472     1   108.3000464 339.740800
    471    469    472     1   108.3000464 339.740800
    473    475    477     1   108.8800464 416.726400
    473    475    478     1   108.8800464 416.726400
    474    473    475     1   117.6800502 383.254400
    475    476    479     1   110.5600475 386.601600
    475    476    480     1   110.5600475 386.601600
    476    481    482     1   110.1100470 384.091200
    476    481    483     1   110.1100470 384.091200
    476    481    484     1   110.1100470 384.091200
    476    475    477     1   109.5600471 388.275200
    476    475    478     1   109.5600471 388.275200
    477    475    478     1   108.4600466 328.025600
    479    476    481     1   108.0100461 406.684800
    479    476    480     1   109.7500473 328.025600
    480    476    481     1   108.0100461 406.684800
    482    481    483     1   108.3000464 339.740800
    482    481    484     1   108.3000464 339.740800
    483    481    484     1   108.3000464 339.740800
    485    487    489     1   108.8800464 416.726400
    485    487    490     1   108.8800464 416.726400
    486    485    487     1   117.6800502 383.254400
    487    488    491     1   110.5600475 386.601600
    487    488    492     1   110.5600475 386.601600
    488    487    489     1   109.5600471 388.275200
    488    487    490     1   109.5600471 388.275200
    488    493    494     1   110.1100470 384.091200
    488    493    495     1   110.1100470 384.091200
    488    493    496     1   110.1100470 384.091200
    489    487    490     1   108.4600466 328.025600
    491    488    493     1   108.0100461 406.684800
    491    488    492     1   109.7500473 328.025600
    492    488    493     1   108.0100461 406.684800
    494    493    495     1   108.3000464 339.740800
    494    493    496     1   108.3000464 339.740800
    495    493    496     1   108.3000464 339.740800
    497    499    501     1   108.8800464 416.726400
    497    499    502     1   108.8800464 416.726400
    498    497    499     1   117.6800502 383.254400
    499    500    503     1   110.5600475 386.601600
    499    500    504     1   110.5600475 386.601600
    500    505    506     1   110.1100470 384.091200
    500    505    507     1   110.1100470 384.091200
    500    505    508     1   110.1100470 384.091200
    500    499    501     1   109.5600471 388.275200
    500    499    502     1   109.5600471 388.275200
    501    499    502     1   108.4600466 328.025600
    503    500    505     1   108.0100461 406.684800
    503    500    504     1   109.7500473 328.025600
    504    500    505     1   108.0100461 406.684800
    506    505    507     1   108.3000464 339.740800
    506    505    508     1   108.3000464 339.740800
    507    505    508     1   108.3000464 339.740800
    509    511    513     1   108.8800464 416.726400
    509    511    514     1   108.8800464 416.726400
    510    509    511     1   117.6800502 383.254400
    511    512    515     1   110.5600475 386.601600
    511    512    516     1   110.5600475 386.601600
    512    511    513     1   109.5600471 388.275200
    512    511    514     1   109.5600471 388.275200
    512    517    518     1   110.1100470 384.091200
    512    517    519     1   110.1100470 384.091200
    512    517    520     1   110.1100470 384.091200
    513    511    514     1   108.4600466 328.025600
    515    512    517     1   108.0100461 406.684800
    515    512    516     1   109.7500473 328.025600
    516    512    517     1   108.0100461 406.684800
    518    517    519     1   108.3000464 339.740800
    518    517    520     1   108.3000464 339.740800
    519    517    520     1   108.3000464 339.740800
    521    523    525     1   108.8800464 416.726400
    521    523    526     1   108.8800464 416.726400
    522    521    523     1   117.6800502 383.254400
    523    524    527     1   110.5600475 386.601600
    523    524    528     1   110.5600475 386.601600
    524    529    530     1   110.1100470 384.091200
    524    529    531     1   110.1100470 384.091200
    524    529    532     1   110.1100470 384.091200
    524    523    525     1   109.5600471 388.275200
    524    523    526     1   109.5600471 388.275200
    525    523    526     1   108.4600466 328.025600
    527    524    529     1   108.0100461 406.684800
    527    524    528     1   109.7500473 328.025600
    528    524    529     1   108.0100461 406.684800
    530    529    531     1   108.3000464 339.740800
    530    529    532     1   108.3000464 339.740800
    531    529    532     1   108.3000464 339.740800

[ dihedrals ]
;    ai     aj     ak     al funct         c0         c1         c2         c3         c4         c5
      1      4      7     15     1  180.0000771  2.0083200  2
      1      4      7     15     1  0.0000000  1.2552000  3
      1      4      7     18     1  180.0000771  2.0083200  2
      1      4      7     18     1  0.0000000  1.2552000  3
      1      8      9     30     1  180.0000771  2.0083200  2
      1      8      9     30     1  0.0000000  1.2552000  3
      1      8     12     27     1  180.0000771  2.0083200  2
      1      8     12     27     1  0.0000000  1.2552000  3
      4      1      8      9     1  180.0000771  2.0083200  2
      4      1      8      9     1  0.0000000  1.2552000  3
      4      1      8     12     1  180.0000771  2.0083200  2
      4      1      8     12     1  0.0000000  1.2552000  3
      4      7     15     21     1  180.0000771  2.0083200  2
      4      7     15     21     1  0.0000000  1.2552000  3
      4      7     18     24     1  180.0000771  2.0083200  2
      4      7     18     24     1  0.0000000  1.2552000  3
      8      1      4      7     1  0.0000000  0.6508444  3
      7     15     21     35     1  0.0000000  0.6508444  3
      7     18     24     36     1  0.0000000  0.6508444  3
      8      9     30     34     1  0.0000000  0.6508444  3
      8     12     27     33     1  0.0000000  0.6508444  3
      9      8     12     27     1  180.0000771  2.0083200  2
      9      8     12     27     1  0.0000000  1.2552000  3
      9     30     34     40     1  180.0000771  0.0000000  2
      9     30     34     89     1  0.0000000  0.2928800  2
      9     30     34     89     1  0.0000000  0.4184000  4
     12      8      9     30     1  180.0000771  2.0083200  2
     12      8      9     30     1  0.0000000  1.2552000  3
     12     27     33     37     1  180.0000771  0.0000000  2
     12     27     33     64     1  0.0000000  0.2928800  2
     12     27     33     64     1  0.0000000  0.4184000  4
     15      7     18     24     1  180.0000771  2.0083200  2
     15      7     18     24     1  0.0000000  1.2552000  3
     15     21     35     38     1  180.0000771  0.0000000  2
     15     21     35    114     1  0.0000000  0.2928800  2
     15     21     35    114     1  0.0000000  0.4184000  4
     18      7     15     21     1  180.0000771  2.0083200  2
     18      7     15     21     1  0.0000000  1.2552000  3
     18     24     36     39     1  180.0000771  0.0000000  2
     18     24     36    139     1  0.0000000  0.2928800  2
     18     24     36    139     1  0.0000000  0.4184000  4
     21     35    114     94     1  180.0000771  6.2760000  1
     21     35    114     94     1  0.0000000  0.0000000  2
     24     36    139    119     1  180.0000771  6.2760000  1
     24     36    139    119     1  0.0000000  0.0000000  2
     27     33     64     44     1  180.0000771  6.2760000  1
     27     33     64     44     1  0.0000000  0.0000000  2
     30     34     89     69     1  180.0000771  6.2760000  1
     30     34     89     69     1  0.0000000  0.0000000  2
     33     64     44     41     1  0.0000000  2.2175200  1
     33     64     44     41     1  0.0000000  0.0000000  2
     33     64     44     41     1  180.0000771  0.6276000  3
     33     64     44     41     1  180.0000771  2.0920000  4
     34     89     69     66     1  0.0000000  2.2175200  1
     34     89     69     66     1  0.0000000  0.0000000  2
     34     89     69     66     1  180.0000771  0.6276000  3
     34     89     69     66     1  180.0000771  2.0920000  4
     35    114     94     91     1  0.0000000  2.2175200  1
     35    114     94     91     1  0.0000000  0.0000000  2
     35    114     94     91     1  180.0000771  0.6276000  3
     35    114     94     91     1  180.0000771  2.0920000  4
     36    139    119    116     1  0.0000000  2.2175200  1
     36    139    119    116     1  0.0000000  0.0000000  2
     36    139    119    116     1  180.0000771  0.6276000  3
     36    139    119    116     1  180.0000771  2.0920000  4
     37     33     64     44     1  180.0000771  10.4600000  2
     38     35    114     94     1  180.0000771  10.4600000  2
     39     36    139    119     1  180.0000771  10.4600000  2
     40     34     89     69     1  180.0000771  10.4600000  2
     41     47     48     57     1  180.0000771  2.0083200  2
     41     47     48     57     1  0.0000000  1.2552000  3
     41     47     51     54     1  180.0000771  2.0083200  2
     41     47     51     54     1  0.0000000  1.2552000  3
     44     41     47     48     1  180.0000771  2.0083200  2
     44     41     47     48     1  0.0000000  1.2552000  3
     44     41     47     51     1  180.0000771  2.0083200  2
     44     41     47     51     1  0.0000000  1.2552000  3
     47     41     44     64     1  0.0000000  0.6508444  3
     47     48     57     61     1  0.0000000  0.6508444  3
     47     51     54     60     1  0.0000000  0.6508444  3
     48     47     51     54     1  180.0000771  2.0083200  2
     48     47     51     54     1  0.0000000  1.2552000  3
     48     57     61     63     1  180.0000771  0.0000000  2
     48     57     61    189     1  0.0000000  0.2928800  2
     48     57     61    189     1  0.0000000  0.4184000  4
     51     47     48     57     1  180.0000771  2.0083200  2
     51     47     48     57     1  0.0000000  1.2552000  3
     51     54     60     62     1  180.0000771  0.0000000  2
     51     54     60    164     1  0.0000000  0.2928800  2
     51     54     60    164     1  0.0000000  0.4184000  4
     54     60    164    144     1  180.0000771  6.2760000  1
     54     60    164    144     1  0.0000000  0.0000000  2
     57     61    189    169     1  180.0000771  6.2760000  1
     57     61    189    169     1  0.0000000  0.0000000  2
     60    164    144    141     1  0.0000000  2.2175200  1
     60    164    144    141     1  0.0000000  0.0000000  2
     60    164    144    141     1  180.0000771  0.6276000  3
     60    164    144    141     1  180.0000771  2.0920000  4
     61    189    169    166     1  0.0000000  2.2175200  1
     61    189    169    166     1  0.0000000  0.0000000  2
     61    189    169    166     1  180.0000771  0.6276000  3
     61    189    169    166     1  180.0000771  2.0920000  4
     62     60    164    144     1  180.0000771  10.4600000  2
     63     61    189    169     1  180.0000771  10.4600000  2
     66     72     73     82     1  180.0000771  2.0083200  2
     66     72     73     82     1  0.0000000  1.2552000  3
     66     72     76     79     1  180.0000771  2.0083200  2
     66     72     76     79     1  0.0000000  1.2552000  3
     69     66     72     73     1  180.0000771  2.0083200  2
     69     66     72     73     1  0.0000000  1.2552000  3
     69     66     72     76     1  180.0000771  2.0083200  2
     69     66     72     76     1  0.0000000  1.2552000  3
     72     66     69     89     1  0.0000000  0.6508444  3
     72     73     82     86     1  0.0000000  0.6508444  3
     72     76     79     85     1  0.0000000  0.6508444  3
     73     72     76     79     1  180.0000771  2.0083200  2
     73     72     76     79     1  0.0000000  1.2552000  3
     73     82     86     88     1  180.0000771  0.0000000  2
     73     82     86    239     1  0.0000000  0.2928800  2
     73     82     86    239     1  0.0000000  0.4184000  4
     76     72     73     82     1  180.0000771  2.0083200  2
     76     72     73     82     1  0.0000000  1.2552000  3
     76     79     85     87     1  180.0000771  0.0000000  2
     76     79     85    214     1  0.0000000  0.2928800  2
     76     79     85    214     1  0.0000000  0.4184000  4
     79     85    214    194     1  180.0000771  6.2760000  1
     79     85    214    194     1  0.0000000  0.0000000  2
     82     86    239    219     1  180.0000771  6.2760000  1
     82     86    239    219     1  0.0000000  0.0000000  2
     85    214    194    191     1  0.0000000  2.2175200  1
     85    214    194    191     1  0.0000000  0.0000000  2
     85    214    194    191     1  180.0000771  0.6276000  3
     85    214    194    191     1  180.0000771  2.0920000  4
     86    239    219    216     1  0.0000000  2.2175200  1
     86    239    219    216     1  0.0000000  0.0000000  2
     86    239    219    216     1  180.0000771  0.6276000  3
     86    239    219    216     1  180.0000771  2.0920000  4
     87     85    214    194     1  180.0000771  10.4600000  2
     88     86    239    219     1  180.0000771  10.4600000  2
     91     97     98    107     1  180.0000771  2.0083200  2
     91     97     98    107     1  0.0000000  1.2552000  3
     91     97    101    104     1  180.0000771  2.0083200  2
     91     97    101    104     1  0.0000000  1.2552000  3
     94     91     97     98     1  180.0000771  2.0083200  2
     94     91     97     98     1  0.0000000  1.2552000  3
     94     91     97    101     1  180.0000771  2.0083200  2
     94     91     97    101     1  0.0000000  1.2552000  3
     97     91     94    114     1  0.0000000  0.6508444  3
     97     98    107    111     1  0.0000000  0.6508444  3
     97    101    104    110     1  0.0000000  0.6508444  3
     98     97    101    104     1  180.0000771  2.0083200  2
     98     97    101    104     1  0.0000000  1.2552000  3
     98    107    111    113     1  180.0000771  0.0000000  2
     98    107    111    289     1  0.0000000  0.2928800  2
     98    107    111    289     1  0.0000000  0.4184000  4
    101     97     98    107     1  180.0000771  2.0083200  2
    101     97     98    107     1  0.0000000  1.2552000  3
    101    104    110    112     1  180.0000771  0.0000000  2
    101    104    110    264     1  0.0000000  0.2928800  2
    101    104    110    264     1  0.0000000  0.4184000  4
    104    110    264    244     1  180.0000771  6.2760000  1
    104    110    264    244     1  0.0000000  0.0000000  2
    107    111    289    269     1  180.0000771  6.2760000  1
    107    111    289    269     1  0.0000000  0.0000000  2
    110    264    244    241     1  0.0000000  2.2175200  1
    110    264    244    241     1  0.0000000  0.0000000  2
    110    264    244    241     1  180.0000771  0.6276000  3
    110    264    244    241     1  180.0000771  2.0920000  4
    111    289    269    266     1  0.0000000  2.2175200  1
    111    289    269    266     1  0.0000000  0.0000000  2
    111    289    269    266     1  180.0000771  0.6276000  3
    111    289    269    266     1  180.0000771  2.0920000  4
    112    110    264    244     1  180.0000771  10.4600000  2
    113    111    289    269     1  180.0000771  10.4600000  2
    116    122    123    132     1  180.0000771  2.0083200  2
    116    122    123    132     1  0.0000000  1.2552000  3
    116    122    126    129     1  180.0000771  2.0083200  2
    116    122    126    129     1  0.0000000  1.2552000  3
    119    116    122    123     1  180.0000771  2.0083200  2
    119    116    122    123     1  0.0000000  1.2552000  3
    119    116    122    126     1  180.0000771  2.0083200  2
    119    116    122    126     1  0.0000000  1.2552000  3
    122    116    119    139     1  0.0000000  0.6508444  3
    122    123    132    136     1  0.0000000  0.6508444  3
    122    126    129    135     1  0.0000000  0.6508444  3
    123    122    126    129     1  180.0000771  2.0083200  2
    123    122    126    129     1  0.0000000  1.2552000  3
    123    132    136    138     1  180.0000771  0.0000000  2
    123    132    136    339     1  0.0000000  0.2928800  2
    123    132    136    339     1  0.0000000  0.4184000  4
    126    122    123    132     1  180.0000771  2.0083200  2
    126    122    123    132     1  0.0000000  1.2552000  3
    126    129    135    137     1  180.0000771  0.0000000  2
    126    129    135    314     1  0.0000000  0.2928800  2
    126    129    135    314     1  0.0000000  0.4184000  4
    129    135    314    294     1  180.0000771  6.2760000  1
    129    135    314    294     1  0.0000000  0.0000000  2
    132    136    339    319     1  180.0000771  6.2760000  1
    132    136    339    319     1  0.0000000  0.0000000  2
    135    314    294    291     1  0.0000000  2.2175200  1
    135    314    294    291     1  0.0000000  0.0000000  2
    135    314    294    291     1  180.0000771  0.6276000  3
    135    314    294    291     1  180.0000771  2.0920000  4
    136    339    319    316     1  0.0000000  2.2175200  1
    136    339    319    316     1  0.0000000  0.0000000  2
    136    339    319    316     1  180.0000771  0.6276000  3
    136    339    319    316     1  180.0000771  2.0920000  4
    137    135    314    294     1  180.0000771  10.4600000  2
    138    136    339    319     1  180.0000771  10.4600000  2
    141    147    148    157     1  180.0000771  2.0083200  2
    141    147    148    157     1  0.0000000  1.2552000  3
    141    147    151    154     1  180.0000771  2.0083200  2
    141    147    151    154     1  0.0000000  1.2552000  3
    144    141    147    148     1  180.0000771  2.0083200  2
    144    141    147    148     1  0.0000000  1.2552000  3
    144    141    147    151     1  180.0000771  2.0083200  2
    144    141    147    151     1  0.0000000  1.2552000  3
    147    141    144    164     1  0.0000000  0.6508444  3
    147    148    157    161     1  0.0000000  0.6508444  3
    147    151    154    160     1  0.0000000  0.6508444  3
    148    147    151    154     1  180.0000771  2.0083200  2
    148    147    151    154     1  0.0000000  1.2552000  3
    148    157    161    163     1  180.0000771  0.0000000  2
    148    157    161    353     1  0.0000000  0.2928800  2
    148    157    161    353     1  0.0000000  0.4184000  4
    151    147    148    157     1  180.0000771  2.0083200  2
    151    147    148    157     1  0.0000000  1.2552000  3
    151    154    160    341     1  0.0000000  0.2928800  2
    151    154    160    341     1  0.0000000  0.4184000  4
    151    154    160    162     1  180.0000771  0.0000000  2
    154    160    341    343     1  180.0000771  6.2760000  1
    154    160    341    343     1  0.0000000  0.0000000  2
    157    161    353    355     1  180.0000771  6.2760000  1
    157    161    353    355     1  0.0000000  0.0000000  2
    160    341    343    344     1  0.0000000  2.2175200  1
    160    341    343    344     1  0.0000000  0.0000000  2
    160    341    343    344     1  180.0000771  0.6276000  3
    160    341    343    344     1  180.0000771  2.0920000  4
    161    353    355    356     1  0.0000000  2.2175200  1
    161    353    355    356     1  0.0000000  0.0000000  2
    161    353    355    356     1  180.0000771  0.6276000  3
    161    353    355    356     1  180.0000771  2.0920000  4
    162    160    341    343     1  180.0000771  10.4600000  2
    163    161    353    355     1  180.0000771  10.4600000  2
    166    172    173    182     1  180.0000771  2.0083200  2
    166    172    173    182     1  0.0000000  1.2552000  3
    166    172    176    179     1  180.0000771  2.0083200  2
    166    172    176    179     1  0.0000000  1.2552000  3
    169    166    172    173     1  180.0000771  2.0083200  2
    169    166    172    173     1  0.0000000  1.2552000  3
    169    166    172    176     1  180.0000771  2.0083200  2
    169    166    172    176     1  0.0000000  1.2552000  3
    172    166    169    189     1  0.0000000  0.6508444  3
    172    173    182    186     1  0.0000000  0.6508444  3
    172    176    179    185     1  0.0000000  0.6508444  3
    173    172    176    179     1  180.0000771  2.0083200  2
    173    172    176    179     1  0.0000000  1.2552000  3
    173    182    186    188     1  180.0000771  0.0000000  2
    173    182    186    377     1  0.0000000  0.2928800  2
    173    182    186    377     1  0.0000000  0.4184000  4
    176    172    173    182     1  180.0000771  2.0083200  2
    176    172    173    182     1  0.0000000  1.2552000  3
    176    179    185    365     1  0.0000000  0.2928800  2
    176    179    185    365     1  0.0000000  0.4184000  4
    176    179    185    187     1  180.0000771  0.0000000  2
    179    185    365    367     1  180.0000771  6.2760000  1
    179    185    365    367     1  0.0000000  0.0000000  2
    182    186    377    379     1  180.0000771  6.2760000  1
    182    186    377    379     1  0.0000000  0.0000000  2
    185    365    367    368     1  0.0000000  2.2175200  1
    185    365    367    368     1  0.0000000  0.0000000  2
    185    365    367    368     1  180.0000771  0.6276000  3
    185    365    367    368     1  180.0000771  2.0920000  4
    186    377    379    380     1  0.0000000  2.2175200  1
    186    377    379    380     1  0.0000000  0.0000000  2
    186    377    379    380     1  180.0000771  0.6276000  3
    186    377    379    380     1  180.0000771  2.0920000  4
    187    185    365    367     1  180.0000771  10.4600000  2
    188    186    377    379     1  180.0000771  10.4600000  2
    191    197    198    207     1  180.0000771  2.0083200  2
    191    197    198    207     1  0.0000000  1.2552000  3
    191    197    201    204     1  180.0000771  2.0083200  2
    191    197    201    204     1  0.0000000  1.2552000  3
    194    191    197    198     1  180.0000771  2.0083200  2
    194    191    197    198     1  0.0000000  1.2552000  3
    194    191    197    201     1  180.0000771  2.0083200  2
    194    191    197    201     1  0.0000000  1.2552000  3
    197    191    194    214     1  0.0000000  0.6508444  3
    197    198    207    211     1  0.0000000  0.6508444  3
    197    201    204    210     1  0.0000000  0.6508444  3
    198    197    201    204     1  180.0000771  2.0083200  2
    198    197    201    204     1  0.0000000  1.2552000  3
    198    207    211    213     1  180.0000771  0.0000000  2
    198    207    211    401     1  0.0000000  0.2928800  2
    198    207    211    401     1  0.0000000  0.4184000  4
    201    197    198    207     1  180.0000771  2.0083200  2
    201    197    198    207     1  0.0000000  1.2552000  3
    201    204    210    389     1  0.0000000  0.2928800  2
    201    204    210    389     1  0.0000000  0.4184000  4
    201    204    210    212     1  180.0000771  0.0000000  2
    204    210    389    391     1  180.0000771  6.2760000  1
    204    210    389    391     1  0.0000000  0.0000000  2
    207    211    401    403     1  180.0000771  6.2760000  1
    207    211    401    403     1  0.0000000  0.0000000  2
    210    389    391    392     1  0.0000000  2.2175200  1
    210    389    391    392     1  0.0000000  0.0000000  2
    210    389    391    392     1  180.0000771  0.6276000  3
    210    389    391    392     1  180.0000771  2.0920000  4
    211    401    403    404     1  0.0000000  2.2175200  1
    211    401    403    404     1  0.0000000  0.0000000  2
    211    401    403    404     1  180.0000771  0.6276000  3
    211    401    403    404     1  180.0000771  2.0920000  4
    212    210    389    391     1  180.0000771  10.4600000  2
    213    211    401    403     1  180.0000771  10.4600000  2
    216    222    223    232     1  180.0000771  2.0083200  2
    216    222    223    232     1  0.0000000  1.2552000  3
    216    222    226    229     1  180.0000771  2.0083200  2
    216    222    226    229     1  0.0000000  1.2552000  3
    219    216    222    223     1  180.0000771  2.0083200  2
    219    216    222    223     1  0.0000000  1.2552000  3
    219    216    222    226     1  180.0000771  2.0083200  2
    219    216    222    226     1  0.0000000  1.2552000  3
    222    216    219    239     1  0.0000000  0.6508444  3
    222    223    232    236     1  0.0000000  0.6508444  3
    222    226    229    235     1  0.0000000  0.6508444  3
    223    222    226    229     1  180.0000771  2.0083200  2
    223    222    226    229     1  0.0000000  1.2552000  3
    223    232    236    238     1  180.0000771  0.0000000  2
    223    232    236    425     1  0.0000000  0.2928800  2
    223    232    236    425     1  0.0000000  0.4184000  4
    226    222    223    232     1  180.0000771  2.0083200  2
    226    222    223    232     1  0.0000000  1.2552000  3
    226    229    235    413     1  0.0000000  0.2928800  2
    226    229    235    413     1  0.0000000  0.4184000  4
    226    229    235    237     1  180.0000771  0.0000000  2
    229    235    413    415     1  180.0000771  6.2760000  1
    229    235    413    415     1  0.0000000  0.0000000  2
    232    236    425    427     1  180.0000771  6.2760000  1
    232    236    425    427     1  0.0000000  0.0000000  2
    235    413    415    416     1  0.0000000  2.2175200  1
    235    413    415    416     1  0.0000000  0.0000000  2
    235    413    415    416     1  180.0000771  0.6276000  3
    235    413    415    416     1  180.0000771  2.0920000  4
    236    425    427    428     1  0.0000000  2.2175200  1
    236    425    427    428     1  0.0000000  0.0000000  2
    236    425    427    428     1  180.0000771  0.6276000  3
    236    425    427    428     1  180.0000771  2.0920000  4
    237    235    413    415     1  180.0000771  10.4600000  2
    238    236    425    427     1  180.0000771  10.4600000  2
    241    247    248    257     1  180.0000771  2.0083200  2
    241    247    248    257     1  0.0000000  1.2552000  3
    241    247    251    254     1  180.0000771  2.0083200  2
    241    247    251    254     1  0.0000000  1.2552000  3
    244    241    247    248     1  180.0000771  2.0083200  2
    244    241    247    248     1  0.0000000  1.2552000  3
    244    241    247    251     1  180.0000771  2.0083200  2
    244    241    247    251     1  0.0000000  1.2552000  3
    247    241    244    264     1  0.0000000  0.6508444  3
    247    248    257    261     1  0.0000000  0.6508444  3
    247    251    254    260     1  0.0000000  0.6508444  3
    248    247    251    254     1  180.0000771  2.0083200  2
    248    247    251    254     1  0.0000000  1.2552000  3
    248    257    261    263     1  180.0000771  0.0000000  2
    248    257    261    449     1  0.0000000  0.2928800  2
    248    257    261    449     1  0.0000000  0.4184000  4
    251    247    248    257     1  180.0000771  2.0083200  2
    251    247    248    257     1  0.0000000  1.2552000  3
    251    254    260    437     1  0.0000000  0.2928800  2
    251    254    260    437     1  0.0000000  0.4184000  4
    251    254    260    262     1  180.0000771  0.0000000  2
    254    260    437    439     1  180.0000771  6.2760000  1
    254    260    437    439     1  0.0000000  0.0000000  2
    257    261    449    451     1  180.0000771  6.2760000  1
    257    261    449    451     1  0.0000000  0.0000000  2
    260    437    439    440     1  0.0000000  2.2175200  1
    260    437    439    440     1  0.0000000  0.0000000  2
    260    437    439    440     1  180.0000771  0.6276000  3
    260    437    439    440     1  180.0000771  2.0920000  4
    261    449    451    452     1  0.0000000  2.2175200  1
    261    449    451    452     1  0.0000000  0.0000000  2
    261    449    451    452     1  180.0000771  0.6276000  3
    261    449    451    452     1  180.0000771  2.0920000  4
    262    260    437    439     1  180.0000771  10.4600000  2
    263    261    449    451     1  180.0000771  10.4600000  2
    266    272    273    282     1  180.0000771  2.0083200  2
    266    272    273    282     1  0.0000000  1.2552000  3
    266    272    276    279     1  180.0000771  2.0083200  2
    266    272    276    279     1  0.0000000  1.2552000  3
    269    266    272    273     1  180.0000771  2.0083200  2
    269    266    272    273     1  0.0000000  1.2552000  3
    269    266    272    276     1  180.0000771  2.0083200  2
    269    266    272    276     1  0.0000000  1.2552000  3
    272    266    269    289     1  0.0000000  0.6508444  3
    272    273    282    286     1  0.0000000  0.6508444  3
    272    276    279    285     1  0.0000000  0.6508444  3
    273    272    276    279     1  180.0000771  2.0083200  2
    273    272    276    279     1  0.0000000  1.2552000  3
    273    282    286    288     1  180.0000771  0.0000000  2
    273    282    286    473     1  0.0000000  0.2928800  2
    273    282    286    473     1  0.0000000  0.4184000  4
    276    272    273    282     1  180.0000771  2.0083200  2
    276    272    273    282     1  0.0000000  1.2552000  3
    276    279    285    461     1  0.0000000  0.2928800  2
    276    279    285    461     1  0.0000000  0.4184000  4
    276    279    285    287     1  180.0000771  0.0000000  2
    279    285    461    463     1  180.0000771  6.2760000  1
    279    285    461    463     1  0.0000000  0.0000000  2
    282    286    473    475     1  180.0000771  6.2760000  1
    282    286    473    475     1  0.0000000  0.0000000  2
    285    461    463    464     1  0.0000000  2.2175200  1
    285    461    463    464     1  0.0000000  0.0000000  2
    285    461    463    464     1  180.0000771  0.6276000  3
    285    461    463    464     1  180.0000771  2.0920000  4
    286    473    475    476     1  0.0000000  2.2175200  1
    286    473    475    476     1  0.0000000  0.0000000  2
    286    473    475    476     1  180.0000771  0.6276000  3
    286    473    475    476     1  180.0000771  2.0920000  4
    287    285    461    463     1  180.0000771  10.4600000  2
    288    286    473    475     1  180.0000771  10.4600000  2
    291    297    298    307     1  180.0000771  2.0083200  2
    291    297    298    307     1  0.0000000  1.2552000  3
    291    297    301    304     1  180.0000771  2.0083200  2
    291    297    301    304     1  0.0000000  1.2552000  3
    294    291    297    298     1  180.0000771  2.0083200  2
    294    291    297    298     1  0.0000000  1.2552000  3
    294    291    297    301     1  180.0000771  2.0083200  2
    294    291    297    301     1  0.0000000  1.2552000  3
    297    291    294    314     1  0.0000000  0.6508444  3
    297    298    307    311     1  0.0000000  0.6508444  3
    297    301    304    310     1  0.0000000  0.6508444  3
    298    297    301    304     1  180.0000771  2.0083200  2
    298    297    301    304     1  0.0000000  1.2552000  3
    298    307    311    313     1  180.0000771  0.0000000  2
    298    307    311    497     1  0.0000000  0.2928800  2
    298    307    311    497     1  0.0000000  0.4184000  4
    301    297    298    307     1  180.0000771  2.0083200  2
    301    297    298    307     1  0.0000000  1.2552000  3
    301    304    310    485     1  0.0000000  0.2928800  2
    301    304    310    485     1  0.0000000  0.4184000  4
    301    304    310    312     1  180.0000771  0.0000000  2
    304    310    485    487     1  180.0000771  6.2760000  1
    304    310    485    487     1  0.0000000  0.0000000  2
    307    311    497    499     1  180.0000771  6.2760000  1
    307    311    497    499     1  0.0000000  0.0000000  2
    310    485    487    488     1  0.0000000  2.2175200  1
    310    485    487    488     1  0.0000000  0.0000000  2
    310    485    487    488     1  180.0000771  0.6276000  3
    310    485    487    488     1  180.0000771  2.0920000  4
    311    497    499    500     1  0.0000000  2.2175200  1
    311    497    499    500     1  0.0000000  0.0000000  2
    311    497    499    500     1  180.0000771  0.6276000  3
    311    497    499    500     1  180.0000771  2.0920000  4
    312    310    485    487     1  180.0000771  10.4600000  2
    313    311    497    499     1  180.0000771  10.4600000  2
    316    322    323    332     1  180.0000771  2.0083200  2
    316    322    323    332     1  0.0000000  1.2552000  3
    316    322    326    329     1  180.0000771  2.0083200  2
    316    322    326    329     1  0.0000000  1.2552000  3
    319    316    322    323     1  180.0000771  2.0083200  2
    319    316    322    323     1  0.0000000  1.2552000  3
    319    316    322    326     1  180.0000771  2.0083200  2
    319    316    322    326     1  0.0000000  1.2552000  3
    322    316    319    339     1  0.0000000  0.6508444  3
    322    323    332    336     1  0.0000000  0.6508444  3
    322    326    329    335     1  0.0000000  0.6508444  3
    323    322    326    329     1  180.0000771  2.0083200  2
    323    322    326    329     1  0.0000000  1.2552000  3
    323    332    336    521     1  0.0000000  0.2928800  2
    323    332    336    521     1  0.0000000  0.4184000  4
    323    332    336    338     1  180.0000771  0.0000000  2
    326    322    323    332     1  180.0000771  2.0083200  2
    326    322    323    332     1  0.0000000  1.2552000  3
    326    329    335    509     1  0.0000000  0.2928800  2
    326    329    335    509     1  0.0000000  0.4184000  4
    326    329    335    337     1  180.0000771  0.0000000  2
    329    335    509    511     1  180.0000771  6.2760000  1
    329    335    509    511     1  0.0000000  0.0000000  2
    332    336    521    523     1  180.0000771  6.2760000  1
    332    336    521    523     1  0.0000000  0.0000000  2
    335    509    511    512     1  0.0000000  2.2175200  1
    335    509    511    512     1  0.0000000  0.0000000  2
    335    509    511    512     1  180.0000771  0.6276000  3
    335    509    511    512     1  180.0000771  2.0920000  4
    336    521    523    524     1  0.0000000  2.2175200  1
    336    521    523    524     1  0.0000000  0.0000000  2
    336    521    523    524     1  180.0000771  0.6276000  3
    336    521    523    524     1  180.0000771  2.0920000  4
    337    335    509    511     1  180.0000771  10.4600000  2
    338    336    521    523     1  180.0000771  10.4600000  2
    341    343    344    349     1  0.0000000  0.6508444  3
    353    355    356    361     1  0.0000000  0.6508444  3
    365    367    368    373     1  0.0000000  0.6508444  3
    377    379    380    385     1  0.0000000  0.6508444  3
    389    391    392    397     1  0.0000000  0.6508444  3
    401    403    404    409     1  0.0000000  0.6508444  3
    413    415    416    421     1  0.0000000  0.6508444  3
    425    427    428    433     1  0.0000000  0.6508444  3
    437    439    440    445     1  0.0000000  0.6508444  3
    449    451    452    457     1  0.0000000  0.6508444  3
    461    463    464    469     1  0.0000000  0.6508444  3
    473    475    476    481     1  0.0000000  0.6508444  3
    485    487    488    493     1  0.0000000  0.6508444  3
    497    499    500    505     1  0.0000000  0.6508444  3
    509    511    512    517     1  0.0000000  0.6508444  3
    521    523    524    529     1  0.0000000  0.6508444  3
     27     64     33     37     4  180.0000771  43.9320000  2
     30     89     34     40     4  180.0000771  43.9320000  2
     21    114     35     38     4  180.0000771  43.9320000  2
     24    139     36     39     4  180.0000771  43.9320000  2
     54    164     60     62     4  180.0000771  43.9320000  2
     57    189     61     63     4  180.0000771  43.9320000  2
     79    214     85     87     4  180.0000771  43.9320000  2
     82    239     86     88     4  180.0000771  43.9320000  2
    104    264    110    112     4  180.0000771  43.9320000  2
    107    289    111    113     4  180.0000771  43.9320000  2
    129    314    135    137     4  180.0000771  43.9320000  2
    132    339    136    138     4  180.0000771  43.9320000  2
    154    341    160    162     4  180.0000771  43.9320000  2
    157    353    161    163     4  180.0000771  43.9320000  2
    179    365    185    187     4  180.0000771  43.9320000  2
    182    377    186    188     4  180.0000771  43.9320000  2
    204    389    210    212     4  180.0000771  43.9320000  2
    207    401    211    213     4  180.0000771  43.9320000  2
    229    413    235    237     4  180.0000771  43.9320000  2
    232    425    236    238     4  180.0000771  43.9320000  2
    254    437    260    262     4  180.0000771  43.9320000  2
    257    449    261    263     4  180.0000771  43.9320000  2
    279    461    285    287     4  180.0000771  43.9320000  2
    282    473    286    288     4  180.0000771  43.9320000  2
    304    485    310    312     4  180.0000771  43.9320000  2
    307    497    311    313     4  180.0000771  43.9320000  2
    329    509    335    337     4  180.0000771  43.9320000  2
    332    521    336    338     4  180.0000771  43.9320000  2
      1      8      9     10     1  0.0000000  1.2552000  3
      1      8      9     11     1  0.0000000  1.2552000  3
      1      8     12     13     1  0.0000000  1.2552000  3
      1      8     12     14     1  0.0000000  1.2552000  3
      2      1      4      7     1  0.0000000  0.6508444  3
      2      1      4      5     1  0.0000000  0.6508444  3
      2      1      4      6     1  0.0000000  0.6508444  3
      2      1      8      9     1  0.0000000  1.2552000  3
      2      1      8     12     1  0.0000000  1.2552000  3
      3      1      4      7     1  0.0000000  0.6508444  3
      3      1      4      5     1  0.0000000  0.6508444  3
      3      1      4      6     1  0.0000000  0.6508444  3
      3      1      8      9     1  0.0000000  1.2552000  3
      3      1      8     12     1  0.0000000  1.2552000  3
      4      7     15     16     1  0.0000000  1.2552000  3
      4      7     15     17     1  0.0000000  1.2552000  3
      4      7     18     19     1  0.0000000  1.2552000  3
      4      7     18     20     1  0.0000000  1.2552000  3
      8      1      4      5     1  0.0000000  0.6508444  3
      5      4      7     15     1  0.0000000  1.2552000  3
      5      4      7     18     1  0.0000000  1.2552000  3
      8      1      4      6     1  0.0000000  0.6508444  3
      6      4      7     15     1  0.0000000  1.2552000  3
      6      4      7     18     1  0.0000000  1.2552000  3
      7     15     21     22     1  0.0000000  0.6508444  3
      7     15     21     23     1  0.0000000  0.6508444  3
      7     18     24     25     1  0.0000000  0.6508444  3
      7     18     24     26     1  0.0000000  0.6508444  3
      8      9     30     31     1  0.0000000  0.6508444  3
      8      9     30     32     1  0.0000000  0.6508444  3
      8     12     27     28     1  0.0000000  0.6508444  3
      8     12     27     29     1  0.0000000  0.6508444  3
      9      8     12     13     1  0.0000000  1.2552000  3
      9      8     12     14     1  0.0000000  1.2552000  3
     10      9      8     12     1  0.0000000  1.2552000  3
     10      9     30     34     1  0.0000000  0.6508444  3
     10      9     30     31     1  0.0000000  0.6508444  3
     10      9     30     32     1  0.0000000  0.6508444  3
     11      9      8     12     1  0.0000000  1.2552000  3
     11      9     30     34     1  0.0000000  0.6508444  3
     11      9     30     31     1  0.0000000  0.6508444  3
     11      9     30     32     1  0.0000000  0.6508444  3
     13     12     27     33     1  0.0000000  0.6508444  3
     13     12     27     28     1  0.0000000  0.6508444  3
     13     12     27     29     1  0.0000000  0.6508444  3
     14     12     27     33     1  0.0000000  0.6508444  3
     14     12     27     28     1  0.0000000  0.6508444  3
     14     12     27     29     1  0.0000000  0.6508444  3
     15      7     18     19     1  0.0000000  1.2552000  3
     15      7     18     20     1  0.0000000  1.2552000  3
     16     15      7     18     1  0.0000000  1.2552000  3
     16     15     21     35     1  0.0000000  0.6508444  3
     16     15     21     22     1  0.0000000  0.6508444  3
     16     15     21     23     1  0.0000000  0.6508444  3
     17     15      7     18     1  0.0000000  1.2552000  3
     17     15     21     35     1  0.0000000  0.6508444  3
     17     15     21     22     1  0.0000000  0.6508444  3
     17     15     21     23     1  0.0000000  0.6508444  3
     19     18     24     36     1  0.0000000  0.6508444  3
     19     18     24     25     1  0.0000000  0.6508444  3
     19     18     24     26     1  0.0000000  0.6508444  3
     20     18     24     36     1  0.0000000  0.6508444  3
     20     18     24     25     1  0.0000000  0.6508444  3
     20     18     24     26     1  0.0000000  0.6508444  3
     21     35    114    115     1  180.0000771  10.4600000  2
     22     21     35     38     1  0.0000000  3.3472000  1
     22     21     35     38     1  0.0000000  0.0000000  2
     22     21     35     38     1  180.0000771  0.3347200  3
     22     21     35    114     1  180.0000771  0.0000000  2
     23     21     35     38     1  0.0000000  3.3472000  1
     23     21     35     38     1  0.0000000  0.0000000  2
     23     21     35     38     1  180.0000771  0.3347200  3
     23     21     35    114     1  180.0000771  0.0000000  2
     24     36    139    140     1  180.0000771  10.4600000  2
     25     24     36     39     1  0.0000000  3.3472000  1
     25     24     36     39     1  0.0000000  0.0000000  2
     25     24     36     39     1  180.0000771  0.3347200  3
     25     24     36    139     1  180.0000771  0.0000000  2
     26     24     36     39     1  0.0000000  3.3472000  1
     26     24     36     39     1  0.0000000  0.0000000  2
     26     24     36     39     1  180.0000771  0.3347200  3
     26     24     36    139     1  180.0000771  0.0000000  2
     27     33     64     65     1  180.0000771  10.4600000  2
     28     27     33     37     1  0.0000000  3.3472000  1
     28     27     33     37     1  0.0000000  0.0000000  2
     28     27     33     37     1  180.0000771  0.3347200  3
     28     27     33     64     1  180.0000771  0.0000000  2
     29     27     33     37     1  0.0000000  3.3472000  1
     29     27     33     37     1  0.0000000  0.0000000  2
     29     27     33     37     1  180.0000771  0.3347200  3
     29     27     33     64     1  180.0000771  0.0000000  2
     30     34     89     90     1  180.0000771  10.4600000  2
     31     30     34     40     1  0.0000000  3.3472000  1
     31     30     34     40     1  0.0000000  0.0000000  2
     31     30     34     40     1  180.0000771  0.3347200  3
     31     30     34     89     1  180.0000771  0.0000000  2
     32     30     34     40     1  0.0000000  3.3472000  1
     32     30     34     40     1  0.0000000  0.0000000  2
     32     30     34     40     1  180.0000771  0.3347200  3
     32     30     34     89     1  180.0000771  0.0000000  2
     33     64     44     45     1  0.0000000  0.0000000  2
     33     64     44     46     1  0.0000000  0.0000000  2
     34     89     69     70     1  0.0000000  0.0000000  2
     34     89     69     71     1  0.0000000  0.0000000  2
     35    114     94     95     1  0.0000000  0.0000000  2
     35    114     94     96     1  0.0000000  0.0000000  2
     36    139    119    120     1  0.0000000  0.0000000  2
     36    139    119    121     1  0.0000000  0.0000000  2
     37     33     64     65     1  0.0000000  8.3680000  1
     37     33     64     65     1  180.0000771  10.4600000  2
     38     35    114    115     1  0.0000000  8.3680000  1
     38     35    114    115     1  180.0000771  10.4600000  2
     39     36    139    140     1  0.0000000  8.3680000  1
     39     36    139    140     1  180.0000771  10.4600000  2
     40     34     89     90     1  0.0000000  8.3680000  1
     40     34     89     90     1  180.0000771  10.4600000  2
     41     44     64     65     1  0.0000000  0.0000000  2
     41     47     48     49     1  0.0000000  1.2552000  3
     41     47     48     50     1  0.0000000  1.2552000  3
     41     47     51     52     1  0.0000000  1.2552000  3
     41     47     51     53     1  0.0000000  1.2552000  3
     42     41     44     64     1  0.0000000  0.6508444  3
     42     41     44     45     1  0.0000000  0.6508444  3
     42     41     44     46     1  0.0000000  0.6508444  3
     42     41     47     48     1  0.0000000  1.2552000  3
     42     41     47     51     1  0.0000000  1.2552000  3
     43     41     44     64     1  0.0000000  0.6508444  3
     43     41     44     45     1  0.0000000  0.6508444  3
     43     41     44     46     1  0.0000000  0.6508444  3
     43     41     47     48     1  0.0000000  1.2552000  3
     43     41     47     51     1  0.0000000  1.2552000  3
     45     44     41     47     1  0.0000000  0.6508444  3
     45     44     64     65     1  0.0000000  0.0000000  2
     46     44     41     47     1  0.0000000  0.6508444  3
     46     44     64     65     1  0.0000000  0.0000000  2
     47     48     57     58     1  0.0000000  0.6508444  3
     47     48     57     59     1  0.0000000  0.6508444  3
     47     51     54     55     1  0.0000000  0.6508444  3
     47     51     54     56     1  0.0000000  0.6508444  3
     48     47     51     52     1  0.0000000  1.2552000  3
     48     47     51     53     1  0.0000000  1.2552000  3
     49     48     47     51     1  0.0000000  1.2552000  3
     49     48     57     61     1  0.0000000  0.6508444  3
     49     48     57     58     1  0.0000000  0.6508444  3
     49     48     57     59     1  0.0000000  0.6508444  3
     50     48     47     51     1  0.0000000  1.2552000  3
     50     48     57     61     1  0.0000000  0.6508444  3
     50     48     57     58     1  0.0000000  0.6508444  3
     50     48     57     59     1  0.0000000  0.6508444  3
     52     51     54     60     1  0.0000000  0.6508444  3
     52     51     54     55     1  0.0000000  0.6508444  3
     52     51     54     56     1  0.0000000  0.6508444  3
     53     51     54     60     1  0.0000000  0.6508444  3
     53     51     54     55     1  0.0000000  0.6508444  3
     53     51     54     56     1  0.0000000  0.6508444  3
     54     60    164    165     1  180.0000771  10.4600000  2
     55     54     60     62     1  0.0000000  3.3472000  1
     55     54     60     62     1  0.0000000  0.0000000  2
     55     54     60     62     1  180.0000771  0.3347200  3
     55     54     60    164     1  180.0000771  0.0000000  2
     56     54     60     62     1  0.0000000  3.3472000  1
     56     54     60     62     1  0.0000000  0.0000000  2
     56     54     60     62     1  180.0000771  0.3347200  3
     56     54     60    164     1  180.0000771  0.0000000  2
     57     61    189    190     1  180.0000771  10.4600000  2
     58     57     61     63     1  0.0000000  3.3472000  1
     58     57     61     63     1  0.0000000  0.0000000  2
     58     57     61     63     1  180.0000771  0.3347200  3
     58     57     61    189     1  180.0000771  0.0000000  2
     59     57     61     63     1  0.0000000  3.3472000  1
     59     57     61     63     1  0.0000000  0.0000000  2
     59     57     61     63     1  180.0000771  0.3347200  3
     59     57     61    189     1  180.0000771  0.0000000  2
     60    164    144    145     1  0.0000000  0.0000000  2
     60    164    144    146     1  0.0000000  0.0000000  2
     61    189    169    170     1  0.0000000  0.0000000  2
     61    189    169    171     1  0.0000000  0.0000000  2
     62     60    164    165     1  0.0000000  8.3680000  1
     62     60    164    165     1  180.0000771  10.4600000  2
     63     61    189    190     1  0.0000000  8.3680000  1
     63     61    189    190     1  180.0000771  10.4600000  2
     66     69     89     90     1  0.0000000  0.0000000  2
     66     72     73     74     1  0.0000000  1.2552000  3
     66     72     73     75     1  0.0000000  1.2552000  3
     66     72     76     77     1  0.0000000  1.2552000  3
     66     72     76     78     1  0.0000000  1.2552000  3
     67     66     69     89     1  0.0000000  0.6508444  3
     67     66     69     70     1  0.0000000  0.6508444  3
     67     66     69     71     1  0.0000000  0.6508444  3
     67     66     72     73     1  0.0000000  1.2552000  3
     67     66     72     76     1  0.0000000  1.2552000  3
     68     66     69     89     1  0.0000000  0.6508444  3
     68     66     69     70     1  0.0000000  0.6508444  3
     68     66     69     71     1  0.0000000  0.6508444  3
     68     66     72     73     1  0.0000000  1.2552000  3
     68     66     72     76     1  0.0000000  1.2552000  3
     70     69     66     72     1  0.0000000  0.6508444  3
     70     69     89     90     1  0.0000000  0.0000000  2
     71     69     66     72     1  0.0000000  0.6508444  3
     71     69     89     90     1  0.0000000  0.0000000  2
     72     73     82     83     1  0.0000000  0.6508444  3
     72     73     82     84     1  0.0000000  0.6508444  3
     72     76     79     80     1  0.0000000  0.6508444  3
     72     76     79     81     1  0.0000000  0.6508444  3
     73     72     76     77     1  0.0000000  1.2552000  3
     73     72     76     78     1  0.0000000  1.2552000  3
     74     73     72     76     1  0.0000000  1.2552000  3
     74     73     82     86     1  0.0000000  0.6508444  3
     74     73     82     83     1  0.0000000  0.6508444  3
     74     73     82     84     1  0.0000000  0.6508444  3
     75     73     72     76     1  0.0000000  1.2552000  3
     75     73     82     86     1  0.0000000  0.6508444  3
     75     73     82     83     1  0.0000000  0.6508444  3
     75     73     82     84     1  0.0000000  0.6508444  3
     77     76     79     85     1  0.0000000  0.6508444  3
     77     76     79     80     1  0.0000000  0.6508444  3
     77     76     79     81     1  0.0000000  0.6508444  3
     78     76     79     85     1  0.0000000  0.6508444  3
     78     76     79     80     1  0.0000000  0.6508444  3
     78     76     79     81     1  0.0000000  0.6508444  3
     79     85    214    215     1  180.0000771  10.4600000  2
     80     79     85     87     1  0.0000000  3.3472000  1
     80     79     85     87     1  0.0000000  0.0000000  2
     80     79     85     87     1  180.0000771  0.3347200  3
     80     79     85    214     1  180.0000771  0.0000000  2
     81     79     85     87     1  0.0000000  3.3472000  1
     81     79     85     87     1  0.0000000  0.0000000  2
     81     79     85     87     1  180.0000771  0.3347200  3
     81     79     85    214     1  180.0000771  0.0000000  2
     82     86    239    240     1  180.0000771  10.4600000  2
     83     82     86     88     1  0.0000000  3.3472000  1
     83     82     86     88     1  0.0000000  0.0000000  2
     83     82     86     88     1  180.0000771  0.3347200  3
     83     82     86    239     1  180.0000771  0.0000000  2
     84     82     86     88     1  0.0000000  3.3472000  1
     84     82     86     88     1  0.0000000  0.0000000  2
     84     82     86     88     1  180.0000771  0.3347200  3
     84     82     86    239     1  180.0000771  0.0000000  2
     85    214    194    195     1  0.0000000  0.0000000  2
     85    214    194    196     1  0.0000000  0.0000000  2
     86    239    219    220     1  0.0000000  0.0000000  2
     86    239    219    221     1  0.0000000  0.0000000  2
     87     85    214    215     1  0.0000000  8.3680000  1
     87     85    214    215     1  180.0000771  10.4600000  2
     88     86    239    240     1  0.0000000  8.3680000  1
     88     86    239    240     1  180.0000771  10.4600000  2
     91     94    114    115     1  0.0000000  0.0000000  2
     91     97     98     99     1  0.0000000  1.2552000  3
     91     97     98    100     1  0.0000000  1.2552000  3
     91     97    101    102     1  0.0000000  1.2552000  3
     91     97    101    103     1  0.0000000  1.2552000  3
     92     91     94    114     1  0.0000000  0.6508444  3
     92     91     94     95     1  0.0000000  0.6508444  3
     92     91     94     96     1  0.0000000  0.6508444  3
     92     91     97     98     1  0.0000000  1.2552000  3
     92     91     97    101     1  0.0000000  1.2552000  3
     93     91     94    114     1  0.0000000  0.6508444  3
     93     91     94     95     1  0.0000000  0.6508444  3
     93     91     94     96     1  0.0000000  0.6508444  3
     93     91     97     98     1  0.0000000  1.2552000  3
     93     91     97    101     1  0.0000000  1.2552000  3
     95     94     91     97     1  0.0000000  0.6508444  3
     95     94    114    115     1  0.0000000  0.0000000  2
     96     94     91     97     1  0.0000000  0.6508444  3
     96     94    114    115     1  0.0000000  0.0000000  2
     97     98    107    108     1  0.0000000  0.6508444  3
     97     98    107    109     1  0.0000000  0.6508444  3
     97    101    104    105     1  0.0000000  0.6508444  3
     97    101    104    106     1  0.0000000  0.6508444  3
     98     97    101    102     1  0.0000000  1.2552000  3
     98     97    101    103     1  0.0000000  1.2552000  3
     99     98     97    101     1  0.0000000  1.2552000  3
     99     98    107    111     1  0.0000000  0.6508444  3
     99     98    107    108     1  0.0000000  0.6508444  3
     99     98    107    109     1  0.0000000  0.6508444  3
    100     98     97    101     1  0.0000000  1.2552000  3
    100     98    107    111     1  0.0000000  0.6508444  3
    100     98    107    108     1  0.0000000  0.6508444  3
    100     98    107    109     1  0.0000000  0.6508444  3
    102    101    104    110     1  0.0000000  0.6508444  3
    102    101    104    105     1  0.0000000  0.6508444  3
    102    101    104    106     1  0.0000000  0.6508444  3
    103    101    104    110     1  0.0000000  0.6508444  3
    103    101    104    105     1  0.0000000  0.6508444  3
    103    101    104    106     1  0.0000000  0.6508444  3
    104    110    264    265     1  180.0000771  10.4600000  2
    105    104    110    112     1  0.0000000  3.3472000  1
    105    104    110    112     1  0.0000000  0.0000000  2
    105    104    110    112     1  180.0000771  0.3347200  3
    105    104    110    264     1  180.0000771  0.0000000  2
    106    104    110    112     1  0.0000000  3.3472000  1
    106    104    110    112     1  0.0000000  0.0000000  2
    106    104    110    112     1  180.0000771  0.3347200  3
    106    104    110    264     1  180.0000771  0.0000000  2
    107    111    289    290     1  180.0000771  10.4600000  2
    108    107    111    113     1  0.0000000  3.3472000  1
    108    107    111    113     1  0.0000000  0.0000000  2
    108    107    111    113     1  180.0000771  0.3347200  3
    108    107    111    289     1  180.0000771  0.0000000  2
    109    107    111    113     1  0.0000000  3.3472000  1
    109    107    111    113     1  0.0000000  0.0000000  2
    109    107    111    113     1  180.0000771  0.3347200  3
    109    107    111    289     1  180.0000771  0.0000000  2
    110    264    244    245     1  0.0000000  0.0000000  2
    110    264    244    246     1  0.0000000  0.0000000  2
    111    289    269    270     1  0.0000000  0.0000000  2
    111    289    269    271     1  0.0000000  0.0000000  2
    112    110    264    265     1  0.0000000  8.3680000  1
    112    110    264    265     1  180.0000771  10.4600000  2
    113    111    289    290     1  0.0000000  8.3680000  1
    113    111    289    290     1  180.0000771  10.4600000  2
    116    119    139    140     1  0.0000000  0.0000000  2
    116    122    123    124     1  0.0000000  1.2552000  3
    116    122    123    125     1  0.0000000  1.2552000  3
    116    122    126    127     1  0.0000000  1.2552000  3
    116    122    126    128     1  0.0000000  1.2552000  3
    117    116    119    139     1  0.0000000  0.6508444  3
    117    116    119    120     1  0.0000000  0.6508444  3
    117    116    119    121     1  0.0000000  0.6508444  3
    117    116    122    123     1  0.0000000  1.2552000  3
    117    116    122    126     1  0.0000000  1.2552000  3
    118    116    119    139     1  0.0000000  0.6508444  3
    118    116    119    120     1  0.0000000  0.6508444  3
    118    116    119    121     1  0.0000000  0.6508444  3
    118    116    122    123     1  0.0000000  1.2552000  3
    118    116    122    126     1  0.0000000  1.2552000  3
    120    119    116    122     1  0.0000000  0.6508444  3
    120    119    139    140     1  0.0000000  0.0000000  2
    121    119    116    122     1  0.0000000  0.6508444  3
    121    119    139    140     1  0.0000000  0.0000000  2
    122    123    132    133     1  0.0000000  0.6508444  3
    122    123    132    134     1  0.0000000  0.6508444  3
    122    126    129    130     1  0.0000000  0.6508444  3
    122    126    129    131     1  0.0000000  0.6508444  3
    123    122    126    127     1  0.0000000  1.2552000  3
    123    122    126    128     1  0.0000000  1.2552000  3
    124    123    122    126     1  0.0000000  1.2552000  3
    124    123    132    136     1  0.0000000  0.6508444  3
    124    123    132    133     1  0.0000000  0.6508444  3
    124    123    132    134     1  0.0000000  0.6508444  3
    125    123    122    126     1  0.0000000  1.2552000  3
    125    123    132    136     1  0.0000000  0.6508444  3
    125    123    132    133     1  0.0000000  0.6508444  3
    125    123    132    134     1  0.0000000  0.6508444  3
    127    126    129    135     1  0.0000000  0.6508444  3
    127    126    129    130     1  0.0000000  0.6508444  3
    127    126    129    131     1  0.0000000  0.6508444  3
    128    126    129    135     1  0.0000000  0.6508444  3
    128    126    129    130     1  0.0000000  0.6508444  3
    128    126    129    131     1  0.0000000  0.6508444  3
    129    135    314    315     1  180.0000771  10.4600000  2
    130    129    135    137     1  0.0000000  3.3472000  1
    130    129    135    137     1  0.0000000  0.0000000  2
    130    129    135    137     1  180.0000771  0.3347200  3
    130    129    135    314     1  180.0000771  0.0000000  2
    131    129    135    137     1  0.0000000  3.3472000  1
    131    129    135    137     1  0.0000000  0.0000000  2
    131    129    135    137     1  180.0000771  0.3347200  3
    131    129    135    314     1  180.0000771  0.0000000  2
    132    136    339    340     1  180.0000771  10.4600000  2
    133    132    136    138     1  0.0000000  3.3472000  1
    133    132    136    138     1  0.0000000  0.0000000  2
    133    132    136    138     1  180.0000771  0.3347200  3
    133    132    136    339     1  180.0000771  0.0000000  2
    134    132    136    138     1  0.0000000  3.3472000  1
    134    132    136    138     1  0.0000000  0.0000000  2
    134    132    136    138     1  180.0000771  0.3347200  3
    134    132    136    339     1  180.0000771  0.0000000  2
    135    314    294    295     1  0.0000000  0.0000000  2
    135    314    294    296     1  0.0000000  0.0000000  2
    136    339    319    320     1  0.0000000  0.0000000  2
    136    339    319    321     1  0.0000000  0.0000000  2
    137    135    314    315     1  0.0000000  8.3680000  1
    137    135    314    315     1  180.0000771  10.4600000  2
    138    136    339    340     1  0.0000000  8.3680000  1
    138    136    339    340     1  180.0000771  10.4600000  2
    141    144    164    165     1  0.0000000  0.0000000  2
    141    147    148    149     1  0.0000000  1.2552000  3
    141    147    148    150     1  0.0000000  1.2552000  3
    141    147    151    152     1  0.0000000  1.2552000  3
    141    147    151    153     1  0.0000000  1.2552000  3
    142    141    144    164     1  0.0000000  0.6508444  3
    142    141    144    145     1  0.0000000  0.6508444  3
    142    141    144    146     1  0.0000000  0.6508444  3
    142    141    147    148     1  0.0000000  1.2552000  3
    142    141    147    151     1  0.0000000  1.2552000  3
    143    141    144    164     1  0.0000000  0.6508444  3
    143    141    144    145     1  0.0000000  0.6508444  3
    143    141    144    146     1  0.0000000  0.6508444  3
    143    141    147    148     1  0.0000000  1.2552000  3
    143    141    147    151     1  0.0000000  1.2552000  3
    145    144    141    147     1  0.0000000  0.6508444  3
    145    144    164    165     1  0.0000000  0.0000000  2
    146    144    141    147     1  0.0000000  0.6508444  3
    146    144    164    165     1  0.0000000  0.0000000  2
    147    148    157    158     1  0.0000000  0.6508444  3
    147    148    157    159     1  0.0000000  0.6508444  3
    147    151    154    155     1  0.0000000  0.6508444  3
    147    151    154    156     1  0.0000000  0.6508444  3
    148    147    151    152     1  0.0000000  1.2552000  3
    148    147    151    153     1  0.0000000  1.2552000  3
    149    148    147    151     1  0.0000000  1.2552000  3
    149    148    157    161     1  0.0000000  0.6508444  3
    149    148    157    158     1  0.0000000  0.6508444  3
    149    148    157    159     1  0.0000000  0.6508444  3
    150    148    147    151     1  0.0000000  1.2552000  3
    150    148    157    161     1  0.0000000  0.6508444  3
    150    148    157    158     1  0.0000000  0.6508444  3
    150    148    157    159     1  0.0000000  0.6508444  3
    152    151    154    160     1  0.0000000  0.6508444  3
    152    151    154    155     1  0.0000000  0.6508444  3
    152    151    154    156     1  0.0000000  0.6508444  3
    153    151    154    160     1  0.0000000  0.6508444  3
    153    151    154    155     1  0.0000000  0.6508444  3
    153    151    154    156     1  0.0000000  0.6508444  3
    154    160    341    342     1  180.0000771  10.4600000  2
    155    154    160    341     1  180.0000771  0.0000000  2
    155    154    160    162     1  0.0000000  3.3472000  1
    155    154    160    162     1  0.0000000  0.0000000  2
    155    154    160    162     1  180.0000771  0.3347200  3
    156    154    160    341     1  180.0000771  0.0000000  2
    156    154    160    162     1  0.0000000  3.3472000  1
    156    154    160    162     1  0.0000000  0.0000000  2
    156    154    160    162     1  180.0000771  0.3347200  3
    157    161    353    354     1  180.0000771  10.4600000  2
    158    157    161    163     1  0.0000000  3.3472000  1
    158    157    161    163     1  0.0000000  0.0000000  2
    158    157    161    163     1  180.0000771  0.3347200  3
    158    157    161    353     1  180.0000771  0.0000000  2
    159    157    161    163     1  0.0000000  3.3472000  1
    159    157    161    163     1  0.0000000  0.0000000  2
    159    157    161    163     1  180.0000771  0.3347200  3
    159    157    161    353     1  180.0000771  0.0000000  2
    160    341    343    345     1  0.0000000  0.0000000  2
    160    341    343    346     1  0.0000000  0.0000000  2
    161    353    355    357     1  0.0000000  0.0000000  2
    161    353    355    358     1  0.0000000  0.0000000  2
    162    160    341    342     1  0.0000000  8.3680000  1
    162    160    341    342     1  180.0000771  10.4600000  2
    163    161    353    354     1  0.0000000  8.3680000  1
    163    161    353    354     1  180.0000771  10.4600000  2
    166    169    189    190     1  0.0000000  0.0000000  2
    166    172    173    174     1  0.0000000  1.2552000  3
    166    172    173    175     1  0.0000000  1.2552000  3
    166    172    176    177     1  0.0000000  1.2552000  3
    166    172    176    178     1  0.0000000  1.2552000  3
    167    166    169    189     1  0.0000000  0.6508444  3
    167    166    169    170     1  0.0000000  0.6508444  3
    167    166    169    171     1  0.0000000  0.6508444  3
    167    166    172    173     1  0.0000000  1.2552000  3
    167    166    172    176     1  0.0000000  1.2552000  3
    168    166    169    189     1  0.0000000  0.6508444  3
    168    166    169    170     1  0.0000000  0.6508444  3
    168    166    169    171     1  0.0000000  0.6508444  3
    168    166    172    173     1  0.0000000  1.2552000  3
    168    166    172    176     1  0.0000000  1.2552000  3
    170    169    166    172     1  0.0000000  0.6508444  3
    170    169    189    190     1  0.0000000  0.0000000  2
    171    169    166    172     1  0.0000000  0.6508444  3
    171    169    189    190     1  0.0000000  0.0000000  2
    172    173    182    183     1  0.0000000  0.6508444  3
    172    173    182    184     1  0.0000000  0.6508444  3
    172    176    179    180     1  0.0000000  0.6508444  3
    172    176    179    181     1  0.0000000  0.6508444  3
    173    172    176    177     1  0.0000000  1.2552000  3
    173    172    176    178     1  0.0000000  1.2552000  3
    174    173    172    176     1  0.0000000  1.2552000  3
    174    173    182    186     1  0.0000000  0.6508444  3
    174    173    182    183     1  0.0000000  0.6508444  3
    174    173    182    184     1  0.0000000  0.6508444  3
    175    173    172    176     1  0.0000000  1.2552000  3
    175    173    182    186     1  0.0000000  0.6508444  3
    175    173    182    183     1  0.0000000  0.6508444  3
    175    173    182    184     1  0.0000000  0.6508444  3
    177    176    179    185     1  0.0000000  0.6508444  3
    177    176    179    180     1  0.0000000  0.6508444  3
    177    176    179    181     1  0.0000000  0.6508444  3
    178    176    179    185     1  0.0000000  0.6508444  3
    178    176    179    180     1  0.0000000  0.6508444  3
    178    176    179    181     1  0.0000000  0.6508444  3
    179    185    365    366     1  180.0000771  10.4600000  2
    180    179    185    365     1  180.0000771  0.0000000  2
    180    179    185    187     1  0.0000000  3.3472000  1
    180    179    185    187     1  0.0000000  0.0000000  2
    180    179    185    187     1  180.0000771  0.3347200  3
    181    179    185    365     1  180.0000771  0.0000000  2
    181    179    185    187     1  0.0000000  3.3472000  1
    181    179    185    187     1  0.0000000  0.0000000  2
    181    179    185    187     1  180.0000771  0.3347200  3
    182    186    377    378     1  180.0000771  10.4600000  2
    183    182    186    188     1  0.0000000  3.3472000  1
    183    182    186    188     1  0.0000000  0.0000000  2
    183    182    186    188     1  180.0000771  0.3347200  3
    183    182    186    377     1  180.0000771  0.0000000  2
    184    182    186    188     1  0.0000000  3.3472000  1
    184    182    186    188     1  0.0000000  0.0000000  2
    184    182    186    188     1  180.0000771  0.3347200  3
    184    182    186    377     1  180.0000771  0.0000000  2
    185    365    367    369     1  0.0000000  0.0000000  2
    185    365    367    370     1  0.0000000  0.0000000  2
    186    377    379    381     1  0.0000000  0.0000000  2
    186    377    379    382     1  0.0000000  0.0000000  2
    187    185    365    366     1  0.0000000  8.3680000  1
    187    185    365    366     1  180.0000771  10.4600000  2
    188    186    377    378     1  0.0000000  8.3680000  1
    188    186    377    378     1  180.0000771  10.4600000  2
    191    194    214    215     1  0.0000000  0.0000000  2
    191    197    198    199     1  0.0000000  1.2552000  3
    191    197    198    200     1  0.0000000  1.2552000  3
    191    197    201    202     1  0.0000000  1.2552000  3
    191    197    201    203     1  0.0000000  1.2552000  3
    192    191    194    214     1  0.0000000  0.6508444  3
    192    191    194    195     1  0.0000000  0.6508444  3
    192    191    194    196     1  0.0000000  0.6508444  3
    192    191    197    198     1  0.0000000  1.2552000  3
    192    191    197    201     1  0.0000000  1.2552000  3
    193    191    194    214     1  0.0000000  0.6508444  3
    193    191    194    195     1  0.0000000  0.6508444  3
    193    191    194    196     1  0.0000000  0.6508444  3
    193    191    197    198     1  0.0000000  1.2552000  3
    193    191    197    201     1  0.0000000  1.2552000  3
    195    194    191    197     1  0.0000000  0.6508444  3
    195    194    214    215     1  0.0000000  0.0000000  2
    196    194    191    197     1  0.0000000  0.6508444  3
    196    194    214    215     1  0.0000000  0.0000000  2
    197    198    207    208     1  0.0000000  0.6508444  3
    197    198    207    209     1  0.0000000  0.6508444  3
    197    201    204    205     1  0.0000000  0.6508444  3
    197    201    204    206     1  0.0000000  0.6508444  3
    198    197    201    202     1  0.0000000  1.2552000  3
    198    197    201    203     1  0.0000000  1.2552000  3
    199    198    197    201     1  0.0000000  1.2552000  3
    199    198    207    211     1  0.0000000  0.6508444  3
    199    198    207    208     1  0.0000000  0.6508444  3
    199    198    207    209     1  0.0000000  0.6508444  3
    200    198    197    201     1  0.0000000  1.2552000  3
    200    198    207    211     1  0.0000000  0.6508444  3
    200    198    207    208     1  0.0000000  0.6508444  3
    200    198    207    209     1  0.0000000  0.6508444  3
    202    201    204    210     1  0.0000000  0.6508444  3
    202    201    204    205     1  0.0000000  0.6508444  3
    202    201    204    206     1  0.0000000  0.6508444  3
    203    201    204    210     1  0.0000000  0.6508444  3
    203    201    204    205     1  0.0000000  0.6508444  3
    203    201    204    206     1  0.0000000  0.6508444  3
    204    210    389    390     1  180.0000771  10.4600000  2
    205    204    210    389     1  180.0000771  0.0000000  2
    205    204    210    212     1  0.0000000  3.3472000  1
    205    204    210    212     1  0.0000000  0.0000000  2
    205    204    210    212     1  180.0000771  0.3347200  3
    206    204    210    389     1  180.0000771  0.0000000  2
    206    204    210    212     1  0.0000000  3.3472000  1
    206    204    210    212     1  0.0000000  0.0000000  2
    206    204    210    212     1  180.0000771  0.3347200  3
    207    211    401    402     1  180.0000771  10.4600000  2
    208    207    211    213     1  0.0000000  3.3472000  1
    208    207    211    213     1  0.0000000  0.0000000  2
    208    207    211    213     1  180.0000771  0.3347200  3
    208    207    211    401     1  180.0000771  0.0000000  2
    209    207    211    213     1  0.0000000  3.3472000  1
    209    207    211    213     1  0.0000000  0.0000000  2
    209    207    211    213     1  180.0000771  0.3347200  3
    209    207    211    401     1  180.0000771  0.0000000  2
    210    389    391    393     1  0.0000000  0.0000000  2
    210    389    391    394     1  0.0000000  0.0000000  2
    211    401    403    405     1  0.0000000  0.0000000  2
    211    401    403    406     1  0.0000000  0.0000000  2
    212    210    389    390     1  0.0000000  8.3680000  1
    212    210    389    390     1  180.0000771  10.4600000  2
    213    211    401    402     1  0.0000000  8.3680000  1
    213    211    401    402     1  180.0000771  10.4600000  2
    216    219    239    240     1  0.0000000  0.0000000  2
    216    222    223    224     1  0.0000000  1.2552000  3
    216    222    223    225     1  0.0000000  1.2552000  3
    216    222    226    227     1  0.0000000  1.2552000  3
    216    222    226    228     1  0.0000000  1.2552000  3
    217    216    219    239     1  0.0000000  0.6508444  3
    217    216    219    220     1  0.0000000  0.6508444  3
    217    216    219    221     1  0.0000000  0.6508444  3
    217    216    222    223     1  0.0000000  1.2552000  3
    217    216    222    226     1  0.0000000  1.2552000  3
    218    216    219    239     1  0.0000000  0.6508444  3
    218    216    219    220     1  0.0000000  0.6508444  3
    218    216    219    221     1  0.0000000  0.6508444  3
    218    216    222    223     1  0.0000000  1.2552000  3
    218    216    222    226     1  0.0000000  1.2552000  3
    220    219    216    222     1  0.0000000  0.6508444  3
    220    219    239    240     1  0.0000000  0.0000000  2
    221    219    216    222     1  0.0000000  0.6508444  3
    221    219    239    240     1  0.0000000  0.0000000  2
    222    223    232    233     1  0.0000000  0.6508444  3
    222    223    232    234     1  0.0000000  0.6508444  3
    222    226    229    230     1  0.0000000  0.6508444  3
    222    226    229    231     1  0.0000000  0.6508444  3
    223    222    226    227     1  0.0000000  1.2552000  3
    223    222    226    228     1  0.0000000  1.2552000  3
    224    223    222    226     1  0.0000000  1.2552000  3
    224    223    232    236     1  0.0000000  0.6508444  3
    224    223    232    233     1  0.0000000  0.6508444  3
    224    223    232    234     1  0.0000000  0.6508444  3
    225    223    222    226     1  0.0000000  1.2552000  3
    225    223    232    236     1  0.0000000  0.6508444  3
    225    223    232    233     1  0.0000000  0.6508444  3
    225    223    232    234     1  0.0000000  0.6508444  3
    227    226    229    235     1  0.0000000  0.6508444  3
    227    226    229    230     1  0.0000000  0.6508444  3
    227    226    229    231     1  0.0000000  0.6508444  3
    228    226    229    235     1  0.0000000  0.6508444  3
    228    226    229    230     1  0.0000000  0.6508444  3
    228    226    229    231     1  0.0000000  0.6508444  3
    229    235    413    414     1  180.0000771  10.4600000  2
    230    229    235    413     1  180.0000771  0.0000000  2
    230    229    235    237     1  0.0000000  3.3472000  1
    230    229    235    237     1  0.0000000  0.0000000  2
    230    229    235    237     1  180.0000771  0.3347200  3
    231    229    235    413     1  180.0000771  0.0000000  2
    231    229    235    237     1  0.0000000  3.3472000  1
    231    229    235    237     1  0.0000000  0.0000000  2
    231    229    235    237     1  180.0000771  0.3347200  3
    232    236    425    426     1  180.0000771  10.4600000  2
    233    232    236    238     1  0.0000000  3.3472000  1
    233    232    236    238     1  0.0000000  0.0000000  2
    233    232    236    238     1  180.0000771  0.3347200  3
    233    232    236    425     1  180.0000771  0.0000000  2
    234    232    236    238     1  0.0000000  3.3472000  1
    234    232    236    238     1  0.0000000  0.0000000  2
    234    232    236    238     1  180.0000771  0.3347200  3
    234    232    236    425     1  180.0000771  0.0000000  2
    235    413    415    417     1  0.0000000  0.0000000  2
    235    413    415    418     1  0.0000000  0.0000000  2
    236    425    427    429     1  0.0000000  0.0000000  2
    236    425    427    430     1  0.0000000  0.0000000  2
    237    235    413    414     1  0.0000000  8.3680000  1
    237    235    413    414     1  180.0000771  10.4600000  2
    238    236    425    426     1  0.0000000  8.3680000  1
    238    236    425    426     1  180.0000771  10.4600000  2
    241    244    264    265     1  0.0000000  0.0000000  2
    241    247    248    249     1  0.0000000  1.2552000  3
    241    247    248    250     1  0.0000000  1.2552000  3
    241    247    251    252     1  0.0000000  1.2552000  3
    241    247    251    253     1  0.0000000  1.2552000  3
    242    241    244    264     1  0.0000000  0.6508444  3
    242    241    244    245     1  0.0000000  0.6508444  3
    242    241    244    246     1  0.0000000  0.6508444  3
    242    241    247    248     1  0.0000000  1.2552000  3
    242    241    247    251     1  0.0000000  1.2552000  3
    243    241    244    264     1  0.0000000  0.6508444  3
    243    241    244    245     1  0.0000000  0.6508444  3
    243    241    244    246     1  0.0000000  0.6508444  3
    243    241    247    248     1  0.0000000  1.2552000  3
    243    241    247    251     1  0.0000000  1.2552000  3
    245    244    241    247     1  0.0000000  0.6508444  3
    245    244    264    265     1  0.0000000  0.0000000  2
    246    244    241    247     1  0.0000000  0.6508444  3
    246    244    264    265     1  0.0000000  0.0000000  2
    247    248    257    258     1  0.0000000  0.6508444  3
    247    248    257    259     1  0.0000000  0.6508444  3
    247    251    254    255     1  0.0000000  0.6508444  3
    247    251    254    256     1  0.0000000  0.6508444  3
    248    247    251    252     1  0.0000000  1.2552000  3
    248    247    251    253     1  0.0000000  1.2552000  3
    249    248    247    251     1  0.0000000  1.2552000  3
    249    248    257    261     1  0.0000000  0.6508444  3
    249    248    257    258     1  0.0000000  0.6508444  3
    249    248    257    259     1  0.0000000  0.6508444  3
    250    248    247    251     1  0.0000000  1.2552000  3
    250    248    257    261     1  0.0000000  0.6508444  3
    250    248    257    258     1  0.0000000  0.6508444  3
    250    248    257    259     1  0.0000000  0.6508444  3
    252    251    254    260     1  0.0000000  0.6508444  3
    252    251    254    255     1  0.0000000  0.6508444  3
    252    251    254    256     1  0.0000000  0.6508444  3
    253    251    254    260     1  0.0000000  0.6508444  3
    253    251    254    255     1  0.0000000  0.6508444  3
    253    251    254    256     1  0.0000000  0.6508444  3
    254    260    437    438     1  180.0000771  10.4600000  2
    255    254    260    437     1  180.0000771  0.0000000  2
    255    254    260    262     1  0.0000000  3.3472000  1
    255    254    260    262     1  0.0000000  0.0000000  2
    255    254    260    262     1  180.0000771  0.3347200  3
    256    254    260    437     1  180.0000771  0.0000000  2
    256    254    260    262     1  0.0000000  3.3472000  1
    256    254    260    262     1  0.0000000  0.0000000  2
    256    254    260    262     1  180.0000771  0.3347200  3
    257    261    449    450     1  180.0000771  10.4600000  2
    258    257    261    263     1  0.0000000  3.3472000  1
    258    257    261    263     1  0.0000000  0.0000000  2
    258    257    261    263     1  180.0000771  0.3347200  3
    258    257    261    449     1  180.0000771  0.0000000  2
    259    257    261    263     1  0.0000000  3.3472000  1
    259    257    261    263     1  0.0000000  0.0000000  2
    259    257    261    263     1  180.0000771  0.3347200  3
    259    257    261    449     1  180.0000771  0.0000000  2
    260    437    439    441     1  0.0000000  0.0000000  2
    260    437    439    442     1  0.0000000  0.0000000  2
    261    449    451    453     1  0.0000000  0.0000000  2
    261    449    451    454     1  0.0000000  0.0000000  2
    262    260    437    438     1  0.0000000  8.3680000  1
    262    260    437    438     1  180.0000771  10.4600000  2
    263    261    449    450     1  0.0000000  8.3680000  1
    263    261    449    450     1  180.0000771  10.4600000  2
    266    269    289    290     1  0.0000000  0.0000000  2
    266    272    273    274     1  0.0000000  1.2552000  3
    266    272    273    275     1  0.0000000  1.2552000  3
    266    272    276    277     1  0.0000000  1.2552000  3
    266    272    276    278     1  0.0000000  1.2552000  3
    267    266    269    289     1  0.0000000  0.6508444  3
    267    266    269    270     1  0.0000000  0.6508444  3
    267    266    269    271     1  0.0000000  0.6508444  3
    267    266    272    273     1  0.0000000  1.2552000  3
    267    266    272    276     1  0.0000000  1.2552000  3
    268    266    269    289     1  0.0000000  0.6508444  3
    268    266    269    270     1  0.0000000  0.6508444  3
    268    266    269    271     1  0.0000000  0.6508444  3
    268    266    272    273     1  0.0000000  1.2552000  3
    268    266    272    276     1  0.0000000  1.2552000  3
    270    269    266    272     1  0.0000000  0.6508444  3
    270    269    289    290     1  0.0000000  0.0000000  2
    271    269    266    272     1  0.0000000  0.6508444  3
    271    269    289    290     1  0.0000000  0.0000000  2
    272    273    282    283     1  0.0000000  0.6508444  3
    272    273    282    284     1  0.0000000  0.6508444  3
    272    276    279    280     1  0.0000000  0.6508444  3
    272    276    279    281     1  0.0000000  0.6508444  3
    273    272    276    277     1  0.0000000  1.2552000  3
    273    272    276    278     1  0.0000000  1.2552000  3
    274    273    272    276     1  0.0000000  1.2552000  3
    274    273    282    286     1  0.0000000  0.6508444  3
    274    273    282    283     1  0.0000000  0.6508444  3
    274    273    282    284     1  0.0000000  0.6508444  3
    275    273    272    276     1  0.0000000  1.2552000  3
    275    273    282    286     1  0.0000000  0.6508444  3
    275    273    282    283     1  0.0000000  0.6508444  3
    275    273    282    284     1  0.0000000  0.6508444  3
    277    276    279    285     1  0.0000000  0.6508444  3
    277    276    279    280     1  0.0000000  0.6508444  3
    277    276    279    281     1  0.0000000  0.6508444  3
    278    276    279    285     1  0.0000000  0.6508444  3
    278    276    279    280     1  0.0000000  0.6508444  3
    278    276    279    281     1  0.0000000  0.6508444  3
    279    285    461    462     1  180.0000771  10.4600000  2
    280    279    285    461     1  180.0000771  0.0000000  2
    280    279    285    287     1  0.0000000  3.3472000  1
    280    279    285    287     1  0.0000000  0.0000000  2
    280    279    285    287     1  180.0000771  0.3347200  3
    281    279    285    461     1  180.0000771  0.0000000  2
    281    279    285    287     1  0.0000000  3.3472000  1
    281    279    285    287     1  0.0000000  0.0000000  2
    281    279    285    287     1  180.0000771  0.3347200  3
    282    286    473    474     1  180.0000771  10.4600000  2
    283    282    286    288     1  0.0000000  3.3472000  1
    283    282    286    288     1  0.0000000  0.0000000  2
    283    282    286    288     1  180.0000771  0.3347200  3
    283    282    286    473     1  180.0000771  0.0000000  2
    284    282    286    288     1  0.0000000  3.3472000  1
    284    282    286    288     1  0.0000000  0.0000000  2
    284    282    286    288     1  180.0000771  0.3347200  3
    284    282    286    473     1  180.0000771  0.0000000  2
    285    461    463    465     1  0.0000000  0.0000000  2
    285    461    463    466     1  0.0000000  0.0000000  2
    286    473    475    477     1  0.0000000  0.0000000  2
    286    473    475    478     1  0.0000000  0.0000000  2
    287    285    461    462     1  0.0000000  8.3680000  1
    287    285    461    462     1  180.0000771  10.4600000  2
    288    286    473    474     1  0.0000000  8.3680000  1
    288    286    473    474     1  180.0000771  10.4600000  2
    291    294    314    315     1  0.0000000  0.0000000  2
    291    297    298    299     1  0.0000000  1.2552000  3
    291    297    298    300     1  0.0000000  1.2552000  3
    291    297    301    302     1  0.0000000  1.2552000  3
    291    297    301    303     1  0.0000000  1.2552000  3
    292    291    294    314     1  0.0000000  0.6508444  3
    292    291    294    295     1  0.0000000  0.6508444  3
    292    291    294    296     1  0.0000000  0.6508444  3
    292    291    297    298     1  0.0000000  1.2552000  3
    292    291    297    301     1  0.0000000  1.2552000  3
    293    291    294    314     1  0.0000000  0.6508444  3
    293    291    294    295     1  0.0000000  0.6508444  3
    293    291    294    296     1  0.0000000  0.6508444  3
    293    291    297    298     1  0.0000000  1.2552000  3
    293    291    297    301     1  0.0000000  1.2552000  3
    295    294    291    297     1  0.0000000  0.6508444  3
    295    294    314    315     1  0.0000000  0.0000000  2
    296    294    291    297     1  0.0000000  0.6508444  3
    296    294    314    315     1  0.0000000  0.0000000  2
    297    298    307    308     1  0.0000000  0.6508444  3
    297    298    307    309     1  0.0000000  0.6508444  3
    297    301    304    305     1  0.0000000  0.6508444  3
    297    301    304    306     1  0.0000000  0.6508444  3
    298    297    301    302     1  0.0000000  1.2552000  3
    298    297    301    303     1  0.0000000  1.2552000  3
    299    298    297    301     1  0.0000000  1.2552000  3
    299    298    307    311     1  0.0000000  0.6508444  3
    299    298    307    308     1  0.0000000  0.6508444  3
    299    298    307    309     1  0.0000000  0.6508444  3
    300    298    297    301     1  0.0000000  1.2552000  3
    300    298    307    311     1  0.0000000  0.6508444  3
    300    298    307    308     1  0.0000000  0.6508444  3
    300    298    307    309     1  0.0000000  0.6508444  3
    302    301    304    310     1  0.0000000  0.6508444  3
    302    301    304    305     1  0.0000000  0.6508444  3
    302    301    304    306     1  0.0000000  0.6508444  3
    303    301    304    310     1  0.0000000  0.6508444  3
    303    301    304    305     1  0.0000000  0.6508444  3
    303    301    304    306     1  0.0000000  0.6508444  3
    304    310    485    486     1  180.0000771  10.4600000  2
    305    304    310    485     1  180.0000771  0.0000000  2
    305    304    310    312     1  0.0000000  3.3472000  1
    305    304    310    312     1  0.0000000  0.0000000  2
    305    304    310    312     1  180.0000771  0.3347200  3
    306    304    310    485     1  180.0000771  0.0000000  2
    306    304    310    312     1  0.0000000  3.3472000  1
    306    304    310    312     1  0.0000000  0.0000000  2
    306    304    310    312     1  180.0000771  0.3347200  3
    307    311    497    498     1  180.0000771  10.4600000  2
    308    307    311    313     1  0.0000000  3.3472000  1
    308    307    311    313     1  0.0000000  0.0000000  2
    308    307    311    313     1  180.0000771  0.3347200  3
    308    307    311    497     1  180.0000771  0.0000000  2
    309    307    311    313     1  0.0000000  3.3472000  1
    309    307    311    313     1  0.0000000  0.0000000  2
    309    307    311    313     1  180.0000771  0.3347200  3
    309    307    311    497     1  180.0000771  0.0000000  2
    310    485    487    489     1  0.0000000  0.0000000  2
    310    485    487    490     1  0.0000000  0.0000000  2
    311    497    499    501     1  0.0000000  0.0000000  2
    311    497    499    502     1  0.0000000  0.0000000  2
    312    310    485    486     1  0.0000000  8.3680000  1
    312    310    485    486     1  180.0000771  10.4600000  2
    313    311    497    498     1  0.0000000  8.3680000  1
    313    311    497    498     1  180.0000771  10.4600000  2
    316    319    339    340     1  0.0000000  0.0000000  2
    316    322    323    324     1  0.0000000  1.2552000  3
    316    322    323    325     1  0.0000000  1.2552000  3
    316    322    326    327     1  0.0000000  1.2552000  3
    316    322    326    328     1  0.0000000  1.2552000  3
    317    316    319    339     1  0.0000000  0.6508444  3
    317    316    319    320     1  0.0000000  0.6508444  3
    317    316    319    321     1  0.0000000  0.6508444  3
    317    316    322    323     1  0.0000000  1.2552000  3
    317    316    322    326     1  0.0000000  1.2552000  3
    318    316    319    339     1  0.0000000  0.6508444  3
    318    316    319    320     1  0.0000000  0.6508444  3
    318    316    319    321     1  0.0000000  0.6508444  3
    318    316    322    323     1  0.0000000  1.2552000  3
    318    316    322    326     1  0.0000000  1.2552000  3
    320    319    316    322     1  0.0000000  0.6508444  3
    320    319    339    340     1  0.0000000  0.0000000  2
    321    319    316    322     1  0.0000000  0.6508444  3
    321    319    339    340     1  0.0000000  0.0000000  2
    322    323    332    333     1  0.0000000  0.6508444  3
    322    323    332    334     1  0.0000000  0.6508444  3
    322    326    329    330     1  0.0000000  0.6508444  3
    322    326    329    331     1  0.0000000  0.6508444  3
    323    322    326    327     1  0.0000000  1.2552000  3
    323    322    326    328     1  0.0000000  1.2552000  3
    324    323    322    326     1  0.0000000  1.2552000  3
    324    323    332    336     1  0.0000000  0.6508444  3
    324    323    332    333     1  0.0000000  0.6508444  3
    324    323    332    334     1  0.0000000  0.6508444  3
    325    323    322    326     1  0.0000000  1.2552000  3
    325    323    332    336     1  0.0000000  0.6508444  3
    325    323    332    333     1  0.0000000  0.6508444  3
    325    323    332    334     1  0.0000000  0.6508444  3
    327    326    329    335     1  0.0000000  0.6508444  3
    327    326    329    330     1  0.0000000  0.6508444  3
    327    326    329    331     1  0.0000000  0.6508444  3
    328    326    329    335     1  0.0000000  0.6508444  3
    328    326    329    330     1  0.0000000  0.6508444  3
    328    326    329    331     1  0.0000000  0.6508444  3
    329    335    509    510     1  180.0000771  10.4600000  2
    330    329    335    509     1  180.0000771  0.0000000  2
    330    329    335    337     1  0.0000000  3.3472000  1
    330    329    335    337     1  0.0000000  0.0000000  2
    330    329    335    337     1  180.0000771  0.3347200  3
    331    329    335    509     1  180.0000771  0.0000000  2
    331    329    335    337     1  0.0000000  3.3472000  1
    331    329    335    337     1  0.0000000  0.0000000  2
    331    329    335    337     1  180.0000771  0.3347200  3
    332    336    521    522     1  180.0000771  10.4600000  2
    333    332    336    521     1  180.0000771  0.0000000  2
    333    332    336    338     1  0.0000000  3.3472000  1
    333    332    336    338     1  0.0000000  0.0000000  2
    333    332    336    338     1  180.0000771  0.3347200  3
    334    332    336    521     1  180.0000771  0.0000000  2
    334    332    336    338     1  0.0000000  3.3472000  1
    334    332    336    338     1  0.0000000  0.0000000  2
    334    332    336    338     1  180.0000771  0.3347200  3
    335    509    511    513     1  0.0000000  0.0000000  2
    335    509    511    514     1  0.0000000  0.0000000  2
    336    521    523    525     1  0.0000000  0.0000000  2
    336    521    523    526     1  0.0000000  0.0000000  2
    337    335    509    510     1  0.0000000  8.3680000  1
    337    335    509    510     1  180.0000771  10.4600000  2
    338    336    521    522     1  0.0000000  8.3680000  1
    338    336    521    522     1  180.0000771  10.4600000  2
    341    343    344    347     1  0.0000000  0.6508444  3
    341    343    344    348     1  0.0000000  0.6508444  3
    342    341    343    344     1  0.0000000  0.0000000  2
    342    341    343    345     1  0.0000000  0.0000000  2
    342    341    343    346     1  0.0000000  0.0000000  2
    343    344    349    350     1  0.0000000  0.6508444  3
    343    344    349    351     1  0.0000000  0.6508444  3
    343    344    349    352     1  0.0000000  0.6508444  3
    345    343    344    349     1  0.0000000  0.6508444  3
    345    343    344    347     1  0.0000000  0.6508444  3
    345    343    344    348     1  0.0000000  0.6508444  3
    346    343    344    349     1  0.0000000  0.6508444  3
    346    343    344    347     1  0.0000000  0.6508444  3
    346    343    344    348     1  0.0000000  0.6508444  3
    347    344    349    350     1  0.0000000  0.6508444  3
    347    344    349    351     1  0.0000000  0.6508444  3
    347    344    349    352     1  0.0000000  0.6508444  3
    348    344    349    350     1  0.0000000  0.6508444  3
    348    344    349    351     1  0.0000000  0.6508444  3
    348    344    349    352     1  0.0000000  0.6508444  3
    353    355    356    359     1  0.0000000  0.6508444  3
    353    355    356    360     1  0.0000000  0.6508444  3
    354    353    355    356     1  0.0000000  0.0000000  2
    354    353    355    357     1  0.0000000  0.0000000  2
    354    353    355    358     1  0.0000000  0.0000000  2
    355    356    361    362     1  0.0000000  0.6508444  3
    355    356    361    363     1  0.0000000  0.6508444  3
    355    356    361    364     1  0.0000000  0.6508444  3
    357    355    356    361     1  0.0000000  0.6508444  3
    357    355    356    359     1  0.0000000  0.6508444  3
    357    355    356    360     1  0.0000000  0.6508444  3
    358    355    356    361     1  0.0000000  0.6508444  3
    358    355    356    359     1  0.0000000  0.6508444  3
    358    355    356    360     1  0.0000000  0.6508444  3
    359    356    361    362     1  0.0000000  0.6508444  3
    359    356    361    363     1  0.0000000  0.6508444  3
    359    356    361    364     1  0.0000000  0.6508444  3
    360    356    361    362     1  0.0000000  0.6508444  3
    360    356    361    363     1  0.0000000  0.6508444  3
    360    356    361    364     1  0.0000000  0.6508444  3
    365    367    368    371     1  0.0000000  0.6508444  3
    365    367    368    372     1  0.0000000  0.6508444  3
    366    365    367    368     1  0.0000000  0.0000000  2
    366    365    367    369     1  0.0000000  0.0000000  2
    366    365    367    370     1  0.0000000  0.0000000  2
    367    368    373    374     1  0.0000000  0.6508444  3
    367    368    373    375     1  0.0000000  0.6508444  3
    367    368    373    376     1  0.0000000  0.6508444  3
    369    367    368    373     1  0.0000000  0.6508444  3
    369    367    368    371     1  0.0000000  0.6508444  3
    369    367    368    372     1  0.0000000  0.6508444  3
    370    367    368    373     1  0.0000000  0.6508444  3
    370    367    368    371     1  0.0000000  0.6508444  3
    370    367    368    372     1  0.0000000  0.6508444  3
    371    368    373    374     1  0.0000000  0.6508444  3
    371    368    373    375     1  0.0000000  0.6508444  3
    371    368    373    376     1  0.0000000  0.6508444  3
    372    368    373    374     1  0.0000000  0.6508444  3
    372    368    373    375     1  0.0000000  0.6508444  3
    372    368    373    376     1  0.0000000  0.6508444  3
    377    379    380    383     1  0.0000000  0.6508444  3
    377    379    380    384     1  0.0000000  0.6508444  3
    378    377    379    380     1  0.0000000  0.0000000  2
    378    377    379    381     1  0.0000000  0.0000000  2
    378    377    379    382     1  0.0000000  0.0000000  2
    379    380    385    386     1  0.0000000  0.6508444  3
    379    380    385    387     1  0.0000000  0.6508444  3
    379    380    385    388     1  0.0000000  0.6508444  3
    381    379    380    385     1  0.0000000  0.6508444  3
    381    379    380    383     1  0.0000000  0.6508444  3
    381    379    380    384     1  0.0000000  0.6508444  3
    382    379    380    385     1  0.0000000  0.6508444  3
    382    379    380    383     1  0.0000000  0.6508444  3
    382    379    380    384     1  0.0000000  0.6508444  3
    383    380    385    386     1  0.0000000  0.6508444  3
    383    380    385    387     1  0.0000000  0.6508444  3
    383    380    385    388     1  0.0000000  0.6508444  3
    384    380    385    386     1  0.0000000  0.6508444  3
    384    380    385    387     1  0.0000000  0.6508444  3
    384    380    385    388     1  0.0000000  0.6508444  3
    389    391    392    395     1  0.0000000  0.6508444  3
    389    391    392    396     1  0.0000000  0.6508444  3
    390    389    391    392     1  0.0000000  0.0000000  2
    390    389    391    393     1  0.0000000  0.0000000  2
    390    389    391    394     1  0.0000000  0.0000000  2
    391    392    397    398     1  0.0000000  0.6508444  3
    391    392    397    399     1  0.0000000  0.6508444  3
    391    392    397    400     1  0.0000000  0.6508444  3
    393    391    392    397     1  0.0000000  0.6508444  3
    393    391    392    395     1  0.0000000  0.6508444  3
    393    391    392    396     1  0.0000000  0.6508444  3
    394    391    392    397     1  0.0000000  0.6508444  3
    394    391    392    395     1  0.0000000  0.6508444  3
    394    391    392    396     1  0.0000000  0.6508444  3
    395    392    397    398     1  0.0000000  0.6508444  3
    395    392    397    399     1  0.0000000  0.6508444  3
    395    392    397    400     1  0.0000000  0.6508444  3
    396    392    397    398     1  0.0000000  0.6508444  3
    396    392    397    399     1  0.0000000  0.6508444  3
    396    392    397    400     1  0.0000000  0.6508444  3
    401    403    404    407     1  0.0000000  0.6508444  3
    401    403    404    408     1  0.0000000  0.6508444  3
    402    401    403    404     1  0.0000000  0.0000000  2
    402    401    403    405     1  0.0000000  0.0000000  2
    402    401    403    406     1  0.0000000  0.0000000  2
    403    404    409    410     1  0.0000000  0.6508444  3
    403    404    409    411     1  0.0000000  0.6508444  3
    403    404    409    412     1  0.0000000  0.6508444  3
    405    403    404    409     1  0.0000000  0.6508444  3
    405    403    404    407     1  0.0000000  0.6508444  3
    405    403    404    408     1  0.0000000  0.6508444  3
    406    403    404    409     1  0.0000000  0.6508444  3
    406    403    404    407     1  0.0000000  0.6508444  3
    406    403    404    408     1  0.0000000  0.6508444  3
    407    404    409    410     1  0.0000000  0.6508444  3
    407    404    409    411     1  0.0000000  0.6508444  3
    407    404    409    412     1  0.0000000  0.6508444  3
    408    404    409    410     1  0.0000000  0.6508444  3
    408    404    409    411     1  0.0000000  0.6508444  3
    408    404    409    412     1  0.0000000  0.6508444  3
    413    415    416    419     1  0.0000000  0.6508444  3
    413    415    416    420     1  0.0000000  0.6508444  3
    414    413    415    416     1  0.0000000  0.0000000  2
    414    413    415    417     1  0.0000000  0.0000000  2
    414    413    415    418     1  0.0000000  0.0000000  2
    415    416    421    422     1  0.0000000  0.6508444  3
    415    416    421    423     1  0.0000000  0.6508444  3
    415    416    421    424     1  0.0000000  0.6508444  3
    417    415    416    421     1  0.0000000  0.6508444  3
    417    415    416    419     1  0.0000000  0.6508444  3
    417    415    416    420     1  0.0000000  0.6508444  3
    418    415    416    421     1  0.0000000  0.6508444  3
    418    415    416    419     1  0.0000000  0.6508444  3
    418    415    416    420     1  0.0000000  0.6508444  3
    419    416    421    422     1  0.0000000  0.6508444  3
    419    416    421    423     1  0.0000000  0.6508444  3
    419    416    421    424     1  0.0000000  0.6508444  3
    420    416    421    422     1  0.0000000  0.6508444  3
    420    416    421    423     1  0.0000000  0.6508444  3
    420    416    421    424     1  0.0000000  0.6508444  3
    425    427    428    431     1  0.0000000  0.6508444  3
    425    427    428    432     1  0.0000000  0.6508444  3
    426    425    427    428     1  0.0000000  0.0000000  2
    426    425    427    429     1  0.0000000  0.0000000  2
    426    425    427    430     1  0.0000000  0.0000000  2
    427    428    433    434     1  0.0000000  0.6508444  3
    427    428    433    435     1  0.0000000  0.6508444  3
    427    428    433    436     1  0.0000000  0.6508444  3
    429    427    428    433     1  0.0000000  0.6508444  3
    429    427    428    431     1  0.0000000  0.6508444  3
    429    427    428    432     1  0.0000000  0.6508444  3
    430    427    428    433     1  0.0000000  0.6508444  3
    430    427    428    431     1  0.0000000  0.6508444  3
    430    427    428    432     1  0.0000000  0.6508444  3
    431    428    433    434     1  0.0000000  0.6508444  3
    431    428    433    435     1  0.0000000  0.6508444  3
    431    428    433    436     1  0.0000000  0.6508444  3
    432    428    433    434     1  0.0000000  0.6508444  3
    432    428    433    435     1  0.0000000  0.6508444  3
    432    428    433    436     1  0.0000000  0.6508444  3
    437    439    440    443     1  0.0000000  0.6508444  3
    437    439    440    444     1  0.0000000  0.6508444  3
    438    437    439    440     1  0.0000000  0.0000000  2
    438    437    439    441     1  0.0000000  0.0000000  2
    438    437    439    442     1  0.0000000  0.0000000  2
    439    440    445    446     1  0.0000000  0.6508444  3
    439    440    445    447     1  0.0000000  0.6508444  3
    439    440    445    448     1  0.0000000  0.6508444  3
    441    439    440    445     1  0.0000000  0.6508444  3
    441    439    440    443     1  0.0000000  0.6508444  3
    441    439    440    444     1  0.0000000  0.6508444  3
    442    439    440    445     1  0.0000000  0.6508444  3
    442    439    440    443     1  0.0000000  0.6508444  3
    442    439    440    444     1  0.0000000  0.6508444  3
    443    440    445    446     1  0.0000000  0.6508444  3
    443    440    445    447     1  0.0000000  0.6508444  3
    443    440    445    448     1  0.0000000  0.6508444  3
    444    440    445    446     1  0.0000000  0.6508444  3
    444    440    445    447     1  0.0000000  0.6508444  3
    444    440    445    448     1  0.0000000  0.6508444  3
    449    451    452    455     1  0.0000000  0.6508444  3
    449    451    452    456     1  0.0000000  0.6508444  3
    450    449    451    452     1  0.0000000  0.0000000  2
    450    449    451    453     1  0.0000000  0.0000000  2
    450    449    451    454     1  0.0000000  0.0000000  2
    451    452    457    458     1  0.0000000  0.6508444  3
    451    452    457    459     1  0.0000000  0.6508444  3
    451    452    457    460     1  0.0000000  0.6508444  3
    453    451    452    457     1  0.0000000  0.6508444  3
    453    451    452    455     1  0.0000000  0.6508444  3
    453    451    452    456     1  0.0000000  0.6508444  3
    454    451    452    457     1  0.0000000  0.6508444  3
    454    451    452    455     1  0.0000000  0.6508444  3
    454    451    452    456     1  0.0000000  0.6508444  3
    455    452    457    458     1  0.0000000  0.6508444  3
    455    452    457    459     1  0.0000000  0.6508444  3
    455    452    457    460     1  0.0000000  0.6508444  3
    456    452    457    458     1  0.0000000  0.6508444  3
    456    452    457    459     1  0.0000000  0.6508444  3
    456    452    457    460     1  0.0000000  0.6508444  3
    461    463    464    467     1  0.0000000  0.6508444  3
    461    463    464    468     1  0.0000000  0.6508444  3
    462    461    463    464     1  0.0000000  0.0000000  2
    462    461    463    465     1  0.0000000  0.0000000  2
    462    461    463    466     1  0.0000000  0.0000000  2
    463    464    469    470     1  0.0000000  0.6508444  3
    463    464    469    471     1  0.0000000  0.6508444  3
    463    464    469    472     1  0.0000000  0.6508444  3
    465    463    464    469     1  0.0000000  0.6508444  3
    465    463    464    467     1  0.0000000  0.6508444  3
    465    463    464    468     1  0.0000000  0.6508444  3
    466    463    464    469     1  0.0000000  0.6508444  3
    466    463    464    467     1  0.0000000  0.6508444  3
    466    463    464    468     1  0.0000000  0.6508444  3
    467    464    469    470     1  0.0000000  0.6508444  3
    467    464    469    471     1  0.0000000  0.6508444  3
    467    464    469    472     1  0.0000000  0.6508444  3
    468    464    469    470     1  0.0000000  0.6508444  3
    468    464    469    471     1  0.0000000  0.6508444  3
    468    464    469    472     1  0.0000000  0.6508444  3
    473    475    476    479     1  0.0000000  0.6508444  3
    473    475    476    480     1  0.0000000  0.6508444  3
    474    473    475    476     1  0.0000000  0.0000000  2
    474    473    475    477     1  0.0000000  0.0000000  2
    474    473    475    478     1  0.0000000  0.0000000  2
    475    476    481    482     1  0.0000000  0.6508444  3
    475    476    481    483     1  0.0000000  0.6508444  3
    475    476    481    484     1  0.0000000  0.6508444  3
    477    475    476    481     1  0.0000000  0.6508444  3
    477    475    476    479     1  0.0000000  0.6508444  3
    477    475    476    480     1  0.0000000  0.6508444  3
    478    475    476    481     1  0.0000000  0.6508444  3
    478    475    476    479     1  0.0000000  0.6508444  3
    478    475    476    480     1  0.0000000  0.6508444  3
    479    476    481    482     1  0.0000000  0.6508444  3
    479    476    481    483     1  0.0000000  0.6508444  3
    479    476    481    484     1  0.0000000  0.6508444  3
    480    476    481    482     1  0.0000000  0.6508444  3
    480    476    481    483     1  0.0000000  0.6508444  3
    480    476    481    484     1  0.0000000  0.6508444  3
    485    487    488    491     1  0.0000000  0.6508444  3
    485    487    488    492     1  0.0000000  0.6508444  3
    486    485    487    488     1  0.0000000  0.0000000  2
    486    485    487    489     1  0.0000000  0.0000000  2
    486    485    487    490     1  0.0000000  0.0000000  2
    487    488    493    494     1  0.0000000  0.6508444  3
    487    488    493    495     1  0.0000000  0.6508444  3
    487    488    493    496     1  0.0000000  0.6508444  3
    489    487    488    493     1  0.0000000  0.6508444  3
    489    487    488    491     1  0.0000000  0.6508444  3
    489    487    488    492     1  0.0000000  0.6508444  3
    490    487    488    493     1  0.0000000  0.6508444  3
    490    487    488    491     1  0.0000000  0.6508444  3
    490    487    488    492     1  0.0000000  0.6508444  3
    491    488    493    494     1  0.0000000  0.6508444  3
    491    488    493    495     1  0.0000000  0.6508444  3
    491    488    493    496     1  0.0000000  0.6508444  3
    492    488    493    494     1  0.0000000  0.6508444  3
    492    488    493    495     1  0.0000000  0.6508444  3
    492    488    493    496     1  0.0000000  0.6508444  3
    497    499    500    503     1  0.0000000  0.6508444  3
    497    499    500    504     1  0.0000000  0.6508444  3
    498    497    499    500     1  0.0000000  0.0000000  2
    498    497    499    501     1  0.0000000  0.0000000  2
    498    497    499    502     1  0.0000000  0.0000000  2
    499    500    505    506     1  0.0000000  0.6508444  3
    499    500    505    507     1  0.0000000  0.6508444  3
    499    500    505    508     1  0.0000000  0.6508444  3
    501    499    500    505     1  0.0000000  0.6508444  3
    501    499    500    503     1  0.0000000  0.6508444  3
    501    499    500    504     1  0.0000000  0.6508444  3
    502    499    500    505     1  0.0000000  0.6508444  3
    502    499    500    503     1  0.0000000  0.6508444  3
    502    499    500    504     1  0.0000000  0.6508444  3
    503    500    505    506     1  0.0000000  0.6508444  3
    503    500    505    507     1  0.0000000  0.6508444  3
    503    500    505    508     1  0.0000000  0.6508444  3
    504    500    505    506     1  0.0000000  0.6508444  3
    504    500    505    507     1  0.0000000  0.6508444  3
    504    500    505    508     1  0.0000000  0.6508444  3
    509    511    512    515     1  0.0000000  0.6508444  3
    509    511    512    516     1  0.0000000  0.6508444  3
    510    509    511    512     1  0.0000000  0.0000000  2
    510    509    511    513     1  0.0000000  0.0000000  2
    510    509    511    514     1  0.0000000  0.0000000  2
    511    512    517    518     1  0.0000000  0.6508444  3
    511    512    517    519     1  0.0000000  0.6508444  3
    511    512    517    520     1  0.0000000  0.6508444  3
    513    511    512    517     1  0.0000000  0.6508444  3
    513    511    512    515     1  0.0000000  0.6508444  3
    513    511    512    516     1  0.0000000  0.6508444  3
    514    511    512    517     1  0.0000000  0.6508444  3
    514    511    512    515     1  0.0000000  0.6508444  3
    514    511    512    516     1  0.0000000  0.6508444  3
    515    512    517    518     1  0.0000000  0.6508444  3
    515    512    517    519     1  0.0000000  0.6508444  3
    515    512    517    520     1  0.0000000  0.6508444  3
    516    512    517    518     1  0.0000000  0.6508444  3
    516    512    517    519     1  0.0000000  0.6508444  3
    516    512    517    520     1  0.0000000  0.6508444  3
    521    523    524    527     1  0.0000000  0.6508444  3
    521    523    524    528     1  0.0000000  0.6508444  3
    522    521    523    524     1  0.0000000  0.0000000  2
    522    521    523    525     1  0.0000000  0.0000000  2
    522    521    523    526     1  0.0000000  0.0000000  2
    523    524    529    530     1  0.0000000  0.6508444  3
    523    524    529    531     1  0.0000000  0.6508444  3
    523    524    529    532     1  0.0000000  0.6508444  3
    525    523    524    529     1  0.0000000  0.6508444  3
    525    523    524    527     1  0.0000000  0.6508444  3
    525    523    524    528     1  0.0000000  0.6508444  3
    526    523    524    529     1  0.0000000  0.6508444  3
    526    523    524    527     1  0.0000000  0.6508444  3
    526    523    524    528     1  0.0000000  0.6508444  3
    527    524    529    530     1  0.0000000  0.6508444  3
    527    524    529    531     1  0.0000000  0.6508444  3
    527    524    529    532     1  0.0000000  0.6508444  3
    528    524    529    530     1  0.0000000  0.6508444  3
    528    524    529    531     1  0.0000000  0.6508444  3
    528    524    529    532     1  0.0000000  0.6508444  3
     33     44     64     65     4  180.0000771  4.6024000  2
     34     69     89     90     4  180.0000771  4.6024000  2
     35     94    114    115     4  180.0000771  4.6024000  2
     36    119    139    140     4  180.0000771  4.6024000  2
     60    144    164    165     4  180.0000771  4.6024000  2
     61    169    189    190     4  180.0000771  4.6024000  2
     85    194    214    215     4  180.0000771  4.6024000  2
     86    219    239    240     4  180.0000771  4.6024000  2
    110    244    264    265     4  180.0000771  4.6024000  2
    111    269    289    290     4  180.0000771  4.6024000  2
    135    294    314    315     4  180.0000771  4.6024000  2
    136    319    339    340     4  180.0000771  4.6024000  2
    160    343    341    342     4  180.0000771  4.6024000  2
    161    355    353    354     4  180.0000771  4.6024000  2
    185    367    365    366     4  180.0000771  4.6024000  2
    186    379    377    378     4  180.0000771  4.6024000  2
    210    391    389    390     4  180.0000771  4.6024000  2
    211    403    401    402     4  180.0000771  4.6024000  2
    235    415    413    414     4  180.0000771  4.6024000  2
    236    427    425    426     4  180.0000771  4.6024000  2
    260    439    437    438     4  180.0000771  4.6024000  2
    261    451    449    450     4  180.0000771  4.6024000  2
    285    463    461    462     4  180.0000771  4.6024000  2
    286    475    473    474     4  180.0000771  4.6024000  2
    310    487    485    486     4  180.0000771  4.6024000  2
    311    499    497    498     4  180.0000771  4.6024000  2
    335    511    509    510     4  180.0000771  4.6024000  2
    336    523    521    522     4  180.0000771  4.6024000  2

;[ system ]
;; Name
;Generic title
;
;[ molecules ]
;; Compound       #mols
;g2p_pamam            1
